Generated by trjconv : CNT in water t= 525.00000
33518
    1C        C    1   2.848   2.778   4.748
    1C        C    2   2.895   2.720   4.868
    1C        C    3   2.839   2.771   4.986
    1C        C    4   2.854   2.778   4.260
    1C        C    5   2.909   2.737   4.383
    1C        C    6   2.848   2.775   4.505
    1C        C    7   3.021   2.653   4.626
    1C        C    8   2.902   2.729   4.627
    1C        C    9   3.077   2.609   4.749
    1C        C   10   3.007   2.635   4.869
    1C        C   11   3.180   2.493   4.971
    1C        C   12   3.060   2.565   4.978
    1C        C   13   2.850   2.773   3.771
    1C        C   14   2.901   2.724   3.894
    1C        C   15   2.847   2.770   4.016
    1C        C   16   3.023   2.652   4.139
    1C        C   17   2.903   2.728   4.138
    1C        C   18   3.085   2.619   4.261
    1C        C   19   3.023   2.652   4.384
    1C        C   20   3.214   2.562   4.504
    1C        C   21   3.084   2.615   4.506
    1C        C   22   3.281   2.537   4.626
    1C        C   23   3.209   2.558   4.745
    1C        C   24   3.413   2.482   4.867
    1C        C   25   3.271   2.505   4.862
    1C        C   26   3.491   2.475   4.983
    1C        C   27   2.849   2.773   3.282
    1C        C   28   2.909   2.733   3.404
    1C        C   29   2.855   2.775   3.527
    1C        C   30   3.023   2.647   3.650
    1C        C   31   2.908   2.729   3.650
    1C        C   32   3.083   2.610   3.773
    1C        C   33   3.019   2.646   3.893
    1C        C   34   3.210   2.557   4.015
    1C        C   35   3.081   2.614   4.016
    1C        C   36   3.281   2.540   4.137
    1C        C   37   3.216   2.567   4.259
    1C        C   38   3.420   2.514   4.382
    1C        C   39   3.282   2.541   4.382
    1C        C   40   3.490   2.502   4.505
    1C        C   41   3.419   2.505   4.627
    1C        C   42   3.631   2.483   4.744
    1C        C   43   3.489   2.482   4.747
    1C        C   44   3.706   2.490   4.863
    1C        C   45   3.630   2.480   4.980
    1C        C   46   2.843   2.760   2.795
    1C        C   47   2.896   2.713   2.917
    1C        C   48   2.846   2.763   3.039
    1C        C   49   3.017   2.641   3.164
    1C        C   50   2.899   2.718   3.162
    1C        C   51   3.084   2.612   3.285
    1C        C   52   3.023   2.649   3.407
    1C        C   53   3.215   2.555   3.526
    1C        C   54   3.086   2.613   3.528
    1C        C   55   3.282   2.537   3.649
    1C        C   56   3.215   2.558   3.771
    1C        C   57   3.420   2.513   3.895
    1C        C   58   3.281   2.538   3.894
    1C        C   59   3.491   2.505   4.017
    1C        C   60   3.419   2.512   4.138
    1C        C   61   3.631   2.500   4.259
    1C        C   62   3.489   2.499   4.260
    1C        C   63   3.701   2.503   4.382
    1C        C   64   3.631   2.496   4.504
    1C        C   65   3.838   2.543   4.624
    1C        C   66   3.705   2.498   4.624
    1C        C   67   3.906   2.564   4.746
    1C        C   68   3.842   2.529   4.867
    1C        C   69   4.052   2.585   4.981
    1C        C   70   3.926   2.525   4.979
    1C        C   71   2.821   2.730   2.311
    1C        C   72   2.882   2.691   2.432
    1C        C   73   2.836   2.749   2.552
    1C        C   74   3.013   2.630   2.675
    1C        C   75   2.897   2.710   2.674
    1C        C   76   3.076   2.599   2.798
    1C        C   77   3.012   2.632   2.919
    1C        C   78   3.210   2.555   3.037
    1C        C   79   3.078   2.605   3.042
    1C        C   80   3.279   2.533   3.158
    1C        C   81   3.213   2.554   3.281
    1C        C   82   3.417   2.497   3.403
    1C        C   83   3.279   2.528   3.404
    1C        C   84   3.489   2.498   3.525
    1C        C   85   3.422   2.514   3.648
    1C        C   86   3.630   2.504   3.771
    1C        C   87   3.489   2.508   3.772
    1C        C   88   3.701   2.507   3.894
    1C        C   89   3.633   2.506   4.017
    1C        C   90   3.841   2.546   4.137
    1C        C   91   3.704   2.511   4.139
    1C        C   92   3.902   2.575   4.261
    1C        C   93   3.837   2.543   4.382
    1C        C   94   4.034   2.628   4.499
    1C        C   95   3.906   2.568   4.502
    1C        C   96   4.095   2.666   4.621
    1C        C   97   4.034   2.627   4.742
    1C        C   98   4.191   2.765   4.864
    1C        C   99   4.099   2.655   4.865
    1C        C  100   4.217   2.841   4.978
    1C        C  101   2.827   2.733   2.075
    1C        C  102   2.997   2.595   2.191
    1C        C  103   2.880   2.678   2.193
    1C        C  104   3.068   2.576   2.313
    1C        C  105   3.003   2.617   2.431
    1C        C  106   3.202   2.540   2.553
    1C        C  107   3.070   2.590   2.552
    1C        C  108   3.277   2.529   2.672
    1C        C  109   3.209   2.550   2.794
    1C        C  110   3.415   2.499   2.917
    1C        C  111   3.276   2.526   2.916
    1C        C  112   3.488   2.497   3.037
    1C        C  113   3.418   2.508   3.160
    1C        C  114   3.630   2.494   3.279
    1C        C  115   3.489   2.493   3.281
    1C        C  116   3.699   2.503   3.402
    1C        C  117   3.630   2.502   3.525
    1C        C  118   3.836   2.544   3.646
    1C        C  119   3.699   2.509   3.648
    1C        C  120   3.903   2.569   3.768
    1C        C  121   3.838   2.544   3.890
    1C        C  122   4.031   2.629   4.014
    1C        C  123   3.905   2.566   4.013
    1C        C  124   4.090   2.671   4.135
    1C        C  125   4.030   2.636   4.258
    1C        C  126   4.197   2.769   4.378
    1C        C  127   4.092   2.674   4.379
    1C        C  128   4.247   2.818   4.500
    1C        C  129   4.198   2.762   4.621
    1C        C  130   4.331   2.929   4.742
    1C        C  131   4.247   2.814   4.743
    1C        C  132   4.355   3.003   4.859
    1C        C  133   4.286   2.962   4.974
    1C        C  134   3.178   2.478   2.085
    1C        C  135   3.042   2.511   2.085
    1C        C  136   3.265   2.482   2.195
    1C        C  137   3.201   2.525   2.313
    1C        C  138   3.411   2.483   2.431
    1C        C  139   3.272   2.510   2.434
    1C        C  140   3.485   2.480   2.551
    1C        C  141   3.414   2.493   2.672
    1C        C  142   3.626   2.490   2.792
    1C        C  143   3.484   2.486   2.794
    1C        C  144   3.699   2.497   2.913
    1C        C  145   3.630   2.493   3.036
    1C        C  146   3.840   2.527   3.156
    1C        C  147   3.702   2.498   3.157
    1C        C  148   3.905   2.552   3.278
    1C        C  149   3.838   2.533   3.401
    1C        C  150   4.028   2.627   3.523
    1C        C  151   3.903   2.561   3.523
    1C        C  152   4.089   2.664   3.645
    1C        C  153   4.032   2.629   3.770
    1C        C  154   4.199   2.760   3.890
    1C        C  155   4.091   2.669   3.892
    1C        C  156   4.251   2.811   4.012
    1C        C  157   4.200   2.760   4.133
    1C        C  158   4.343   2.919   4.255
    1C        C  159   4.248   2.814   4.255
    1C        C  160   4.377   2.983   4.376
    1C        C  161   4.330   2.933   4.499
    1C        C  162   4.434   3.117   4.617
    1C        C  163   4.370   2.991   4.621
    1C        C  164   4.464   3.186   4.737
    1C        C  165   4.425   3.126   4.859
    1C        C  166   4.503   3.323   4.973
    1C        C  167   4.476   3.186   4.974
    1C        C  168   3.482   2.436   2.074
    1C        C  169   3.405   2.459   2.189
    1C        C  170   3.621   2.465   2.306
    1C        C  171   3.479   2.466   2.309
    1C        C  172   3.695   2.483   2.425
    1C        C  173   3.626   2.486   2.548
    1C        C  174   3.833   2.537   2.668
    1C        C  175   3.695   2.504   2.670
    1C        C  176   3.902   2.556   2.789
    1C        C  177   3.836   2.531   2.911
    1C        C  178   4.029   2.620   3.033
    1C        C  179   3.903   2.557   3.033
    1C        C  180   4.088   2.659   3.155
    1C        C  181   4.028   2.622   3.278
    1C        C  182   4.198   2.750   3.400
    1C        C  183   4.088   2.660   3.400
    1C        C  184   4.245   2.803   3.522
    1C        C  185   4.196   2.755   3.645
    1C        C  186   4.338   2.916   3.767
    1C        C  187   4.249   2.805   3.766
    1C        C  188   4.376   2.980   3.887
    1C        C  189   4.336   2.923   4.010
    1C        C  190   4.445   3.105   4.130
    1C        C  191   4.380   2.979   4.133
    1C        C  192   4.463   3.175   4.251
    1C        C  193   4.434   3.113   4.374
    1C        C  194   4.501   3.317   4.493
    1C        C  195   4.459   3.182   4.495
    1C        C  196   4.517   3.389   4.613
    1C        C  197   4.506   3.322   4.736
    1C        C  198   4.552   3.537   4.852
    1C        C  199   4.527   3.396   4.856
    1C        C  200   4.588   3.621   4.962
    1C        C  201   3.620   2.414   2.073
    1C        C  202   3.830   2.509   2.181
    1C        C  203   3.697   2.455   2.186
    1C        C  204   3.897   2.543   2.302
    1C        C  205   3.831   2.523   2.425
    1C        C  206   4.025   2.617   2.544
    1C        C  207   3.899   2.553   2.544
    1C        C  208   4.089   2.653   2.665
    1C        C  209   4.027   2.623   2.788
    1C        C  210   4.204   2.740   2.907
    1C        C  211   4.088   2.660   2.910
    1C        C  212   4.252   2.792   3.030
    1C        C  213   4.196   2.751   3.153
    1C        C  214   4.335   2.908   3.274
    1C        C  215   4.247   2.797   3.276
    1C        C  216   4.367   2.969   3.397
    1C        C  217   4.331   2.916   3.523
    1C        C  218   4.435   3.102   3.640
    1C        C  219   4.374   2.974   3.644
    1C        C  220   4.461   3.170   3.761
    1C        C  221   4.438   3.107   3.885
    1C        C  222   4.495   3.310   4.006
    1C        C  223   4.465   3.172   4.007
    1C        C  224   4.509   3.382   4.126
    1C        C  225   4.499   3.312   4.248
    1C        C  226   4.516   3.526   4.366
    1C        C  227   4.509   3.385   4.369
    1C        C  228   4.519   3.600   4.486
    1C        C  229   4.529   3.530   4.608
    1C        C  230   4.508   3.743   4.723
    1C        C  231   4.539   3.605   4.728
    1C        C  232   4.495   3.820   4.842
    1C        C  233   4.548   3.755   4.954
    1C        C  234   4.026   2.602   2.063
    1C        C  235   3.899   2.544   2.064
    1C        C  236   4.087   2.643   2.182
    1C        C  237   4.024   2.607   2.303
    1C        C  238   4.205   2.728   2.420
    1C        C  239   4.090   2.644   2.422
    1C        C  240   4.254   2.783   2.540
    1C        C  241   4.202   2.739   2.663
    1C        C  242   4.340   2.902   2.785
    1C        C  243   4.253   2.791   2.785
    1C        C  244   4.378   2.962   2.907
    1C        C  245   4.336   2.905   3.029
    1C        C  246   4.433   3.093   3.150
    1C        C  247   4.377   2.964   3.151
    1C        C  248   4.453   3.160   3.273
    1C        C  249   4.426   3.098   3.397
    1C        C  250   4.491   3.304   3.517
    1C        C  251   4.456   3.167   3.516
    1C        C  252   4.505   3.374   3.639
    1C        C  253   4.497   3.307   3.763
    1C        C  254   4.525   3.519   3.878
    1C        C  255   4.515   3.378   3.883
    1C        C  256   4.516   3.592   3.999
    1C        C  257   4.514   3.523   4.122
    1C        C  258   4.493   3.736   4.242
    1C        C  259   4.515   3.596   4.243
    1C        C  260   4.474   3.807   4.363
    1C        C  261   4.492   3.739   4.485
    1C        C  262   4.429   3.945   4.604
    1C        C  263   4.480   3.814   4.604
    1C        C  264   4.404   4.015   4.725
    1C        C  265   4.438   3.949   4.845
    1C        C  266   4.326   4.135   4.961
    1C        C  267   4.400   4.017   4.961
    1C        C  268   4.259   2.780   2.064
    1C        C  269   4.194   2.735   2.179
    1C        C  270   4.349   2.887   2.299
    1C        C  271   4.255   2.780   2.298
    1C        C  272   4.382   2.952   2.420
    1C        C  273   4.341   2.894   2.543
    1C        C  274   4.447   3.084   2.663
    1C        C  275   4.380   2.959   2.662
    1C        C  276   4.473   3.152   2.784
    1C        C  277   4.442   3.088   2.906
    1C        C  278   4.497   3.294   3.028
    1C        C  279   4.466   3.156   3.028
    1C        C  280   4.504   3.366   3.149
    1C        C  281   4.489   3.297   3.272
    1C        C  282   4.509   3.510   3.391
    1C        C  283   4.501   3.369   3.392
    1C        C  284   4.509   3.583   3.512
    1C        C  285   4.514   3.515   3.636
    1C        C  286   4.493   3.730   3.754
    1C        C  287   4.518   3.591   3.756
    1C        C  288   4.473   3.798   3.876
    1C        C  289   4.488   3.730   4.000
    1C        C  290   4.430   3.937   4.115
    1C        C  291   4.477   3.804   4.120
    1C        C  292   4.400   4.004   4.236
    1C        C  293   4.425   3.940   4.359
    1C        C  294   4.327   4.129   4.482
    1C        C  295   4.399   4.007   4.481
    1C        C  296   4.287   4.192   4.602
    1C        C  297   4.326   4.134   4.724
    1C        C  298   4.196   4.312   4.844
    1C        C  299   4.282   4.198   4.844
    1C        C  300   4.169   4.400   4.953
    1C        C  301   4.352   2.883   2.061
    1C        C  302   4.466   3.069   2.179
    1C        C  303   4.398   2.943   2.178
    1C        C  304   4.478   3.144   2.299
    1C        C  305   4.446   3.078   2.420
    1C        C  306   4.502   3.287   2.537
    1C        C  307   4.468   3.150   2.540
    1C        C  308   4.510   3.358   2.659
    1C        C  309   4.499   3.291   2.782
    1C        C  310   4.518   3.502   2.901
    1C        C  311   4.512   3.361   2.904
    1C        C  312   4.513   3.576   3.022
    1C        C  313   4.516   3.506   3.145
    1C        C  314   4.486   3.717   3.266
    1C        C  315   4.509   3.577   3.267
    1C        C  316   4.474   3.790   3.386
    1C        C  317   4.490   3.723   3.510
    1C        C  318   4.434   3.930   3.628
    1C        C  319   4.477   3.795   3.630
    1C        C  320   4.404   3.996   3.749
    1C        C  321   4.429   3.932   3.873
    1C        C  322   4.327   4.121   3.991
    1C        C  323   4.400   4.001   3.993
    1C        C  324   4.285   4.178   4.114
    1C        C  325   4.330   4.127   4.238
    1C        C  326   4.194   4.290   4.356
    1C        C  327   4.292   4.189   4.359
    1C        C  328   4.143   4.343   4.476
    1C        C  329   4.196   4.300   4.600
    1C        C  330   4.026   4.435   4.716
    1C        C  331   4.145   4.357   4.718
    1C        C  332   3.972   4.491   4.834
    1C        C  333   4.055   4.482   4.946
    1C        C  334   4.550   3.270   2.064
    1C        C  335   4.531   3.131   2.067
    1C        C  336   4.539   3.353   2.177
    1C        C  337   4.511   3.282   2.295
    1C        C  338   4.523   3.498   2.414
    1C        C  339   4.519   3.357   2.415
    1C        C  340   4.513   3.569   2.536
    1C        C  341   4.516   3.499   2.659
    1C        C  342   4.499   3.712   2.776
    1C        C  343   4.519   3.573   2.779
    1C        C  344   4.479   3.782   2.897
    1C        C  345   4.492   3.716   3.021
    1C        C  346   4.430   3.919   3.141
    1C        C  347   4.473   3.785   3.143
    1C        C  348   4.398   3.988   3.260
    1C        C  349   4.429   3.924   3.382
    1C        C  350   4.329   4.111   3.504
    1C        C  351   4.405   3.991   3.504
    1C        C  352   4.285   4.170   3.625
    1C        C  353   4.328   4.115   3.747
    1C        C  354   4.182   4.274   3.868
    1C        C  355   4.280   4.172   3.868
    1C        C  356   4.128   4.321   3.990
    1C        C  357   4.182   4.274   4.112
    1C        C  358   4.015   4.404   4.231
    1C        C  359   4.134   4.328   4.233
    1C        C  360   3.960   4.450   4.353
    1C        C  361   4.023   4.418   4.475
    1C        C  362   3.831   4.517   4.593
    1C        C  363   3.962   4.464   4.594
    1C        C  364   3.764   4.543   4.714
    1C        C  365   3.840   4.542   4.833
    1C        C  366   3.629   4.591   4.951
    1C        C  367   3.766   4.571   4.949
    1C        C  368   4.514   3.568   2.056
    1C        C  369   4.522   3.493   2.174
    1C        C  370   4.494   3.709   2.290
    1C        C  371   4.512   3.569   2.293
    1C        C  372   4.486   3.781   2.411
    1C        C  373   4.499   3.709   2.532
    1C        C  374   4.430   3.912   2.652
    1C        C  375   4.480   3.780   2.653
    1C        C  376   4.404   3.979   2.773
    1C        C  377   4.430   3.914   2.896
    1C        C  378   4.323   4.099   3.013
    1C        C  379   4.400   3.981   3.017
    1C        C  380   4.282   4.161   3.133
    1C        C  381   4.324   4.108   3.257
    1C        C  382   4.179   4.259   3.377
    1C        C  383   4.281   4.161   3.381
    1C        C  384   4.124   4.306   3.498
    1C        C  385   4.182   4.267   3.621
    1C        C  386   4.009   4.386   3.744
    1C        C  387   4.129   4.313   3.743
    1C        C  388   3.944   4.423   3.864
    1C        C  389   4.008   4.395   3.987
    1C        C  390   3.817   4.483   4.110
    1C        C  391   3.947   4.428   4.110
    1C        C  392   3.752   4.511   4.233
    1C        C  393   3.827   4.498   4.351
    1C        C  394   3.620   4.549   4.474
    1C        C  395   3.759   4.529   4.471
    1C        C  396   3.549   4.561   4.595
    1C        C  397   3.624   4.563   4.715
    1C        C  398   3.413   4.546   4.839
    1C        C  399   3.551   4.574   4.835
    1C        C  400   3.343   4.519   4.957
    1C        C  401   4.507   3.707   2.053
    1C        C  402   4.463   3.922   2.169
    1C        C  403   4.487   3.783   2.169
    1C        C  404   4.419   3.983   2.288
    1C        C  405   4.437   3.913   2.409
    1C        C  406   4.334   4.101   2.525
    1C        C  407   4.406   3.979   2.530
    1C        C  408   4.287   4.156   2.647
    1C        C  409   4.325   4.096   2.769
    1C        C  410   4.178   4.252   2.891
    1C        C  411   4.277   4.152   2.890
    1C        C  412   4.121   4.301   3.011
    1C        C  413   4.176   4.254   3.133
    1C        C  414   4.004   4.377   3.254
    1C        C  415   4.122   4.301   3.255
    1C        C  416   3.943   4.414   3.377
    1C        C  417   4.003   4.379   3.500
    1C        C  418   3.815   4.476   3.622
    1C        C  419   3.944   4.417   3.623
    1C        C  420   3.747   4.498   3.744
    1C        C  421   3.813   4.477   3.867
    1C        C  422   3.609   4.529   3.988
    1C        C  423   3.748   4.505   3.989
    1C        C  424   3.540   4.542   4.111
    1C        C  425   3.612   4.533   4.232
    1C        C  426   3.402   4.547   4.357
    1C        C  427   3.543   4.544   4.355
    1C        C  428   3.332   4.549   4.480
    1C        C  429   3.408   4.557   4.598
    1C        C  430   3.196   4.524   4.721
    1C        C  431   3.337   4.543   4.720
    1C        C  432   3.129   4.494   4.843
    1C        C  433   3.206   4.493   4.960
    1C        C  434   4.384   4.124   2.045
    1C        C  435   4.448   4.000   2.053
    1C        C  436   4.309   4.164   2.160
    1C        C  437   4.340   4.102   2.284
    1C        C  438   4.184   4.251   2.406
    1C        C  439   4.290   4.158   2.404
    1C        C  440   4.127   4.298   2.526
    1C        C  441   4.187   4.255   2.647
    1C        C  442   4.008   4.373   2.765
    1C        C  443   4.127   4.298   2.768
    1C        C  444   3.942   4.407   2.885
    1C        C  445   3.999   4.372   3.009
    1C        C  446   3.813   4.471   3.132
    1C        C  447   3.939   4.408   3.132
    1C        C  448   3.747   4.490   3.256
    1C        C  449   3.813   4.469   3.379
    1C        C  450   3.610   4.529   3.497
    1C        C  451   3.748   4.501   3.500
    1C        C  452   3.538   4.538   3.619
    1C        C  453   3.609   4.527   3.741
    1C        C  454   3.400   4.538   3.865
    1C        C  455   3.541   4.536   3.865
    1C        C  456   3.330   4.532   3.988
    1C        C  457   3.399   4.538   4.111
    1C        C  458   3.195   4.503   4.238
    1C        C  459   3.332   4.536   4.235
    1C        C  460   3.127   4.491   4.362
    1C        C  461   3.194   4.519   4.483
    1C        C  462   2.996   4.438   4.604
    1C        C  463   3.122   4.501   4.603
    1C        C  464   2.933   4.404   4.726
    1C        C  465   2.995   4.446   4.847
    1C        C  466   2.804   4.339   4.961
    1C        C  467   2.911   4.429   4.962
    1C        C  468   4.125   4.281   2.044
    1C        C  469   4.195   4.251   2.162
    1C        C  470   4.011   4.369   2.278
    1C        C  471   4.130   4.292   2.281
    1C        C  472   3.944   4.401   2.399
    1C        C  473   4.006   4.370   2.522
    1C        C  474   3.813   4.462   2.644
    1C        C  475   3.941   4.401   2.643
    1C        C  476   3.745   4.487   2.765
    1C        C  477   3.812   4.462   2.887
    1C        C  478   3.607   4.516   3.011
    1C        C  479   3.746   4.489   3.009
    1C        C  480   3.538   4.524   3.134
    1C        C  481   3.609   4.518   3.256
    1C        C  482   3.396   4.541   3.378
    1C        C  483   3.537   4.534   3.376
    1C        C  484   3.323   4.538   3.500
    1C        C  485   3.397   4.543   3.620
    1C        C  486   3.191   4.499   3.746
    1C        C  487   3.329   4.533   3.743
    1C        C  488   3.128   4.475   3.870
    1C        C  489   3.191   4.507   3.992
    1C        C  490   3.003   4.418   4.118
    1C        C  491   3.127   4.486   4.116
    1C        C  492   2.944   4.383   4.241
    1C        C  493   2.999   4.430   4.362
    1C        C  494   2.830   4.301   4.485
    1C        C  495   2.938   4.392   4.484
    1C        C  496   2.771   4.260   4.606
    1C        C  497   2.821   4.315   4.726
    1C        C  498   2.667   4.167   4.847
    1C        C  499   2.757   4.275   4.845
    1C        C  500   2.600   4.118   4.960
    1C        C  501   4.010   4.359   2.044
    1C        C  502   3.814   4.457   2.157
    1C        C  503   3.945   4.405   2.159
    1C        C  504   3.743   4.475   2.277
    1C        C  505   3.812   4.451   2.398
    1C        C  506   3.609   4.510   2.523
    1C        C  507   3.746   4.478   2.521
    1C        C  508   3.536   4.516   2.644
    1C        C  509   3.606   4.513   2.766
    1C        C  510   3.396   4.525   2.890
    1C        C  511   3.537   4.526   2.889
    1C        C  512   3.324   4.526   3.012
    1C        C  513   3.397   4.532   3.133
    1C        C  514   3.190   4.497   3.255
    1C        C  515   3.327   4.533   3.255
    1C        C  516   3.125   4.470   3.377
    1C        C  517   3.187   4.500   3.501
    1C        C  518   2.999   4.411   3.627
    1C        C  519   3.122   4.480   3.625
    1C        C  520   2.943   4.369   3.749
    1C        C  521   3.002   4.410   3.871
    1C        C  522   2.842   4.280   3.997
    1C        C  523   2.947   4.374   3.996
    1C        C  524   2.793   4.235   4.121
    1C        C  525   2.839   4.288   4.244
    1C        C  526   2.694   4.134   4.367
    1C        C  527   2.781   4.245   4.365
    1C        C  528   2.651   4.079   4.489
    1C        C  529   2.686   4.147   4.608
    1C        C  530   2.589   3.959   4.736
    1C        C  531   2.643   4.091   4.730
    1C        C  532   2.541   3.902   4.857
    1C        C  533   2.535   3.994   4.966
    1C        C  534   3.618   4.553   2.037
    1C        C  535   3.749   4.504   2.042
    1C        C  536   3.540   4.536   2.155
    1C        C  537   3.606   4.513   2.279
    1C        C  538   3.395   4.522   2.402
    1C        C  539   3.537   4.523   2.402
    1C        C  540   3.323   4.517   2.524
    1C        C  541   3.395   4.517   2.645
    1C        C  542   3.187   4.487   2.769
    1C        C  543   3.325   4.517   2.768
    1C        C  544   3.119   4.467   2.891
    1C        C  545   3.187   4.492   3.012
    1C        C  546   2.993   4.410   3.137
    1C        C  547   3.118   4.474   3.135
    1C        C  548   2.942   4.361   3.260
    1C        C  549   3.001   4.403   3.381
    1C        C  550   2.831   4.281   3.506
    1C        C  551   2.940   4.372   3.505
    1C        C  552   2.781   4.231   3.629
    1C        C  553   2.834   4.278   3.751
    1C        C  554   2.708   4.113   3.878
    1C        C  555   2.792   4.227   3.876
    1C        C  556   2.669   4.060   4.002
    1C        C  557   2.703   4.125   4.122
    1C        C  558   2.599   3.943   4.246
    1C        C  559   2.661   4.070   4.245
    1C        C  560   2.580   3.878   4.370
    1C        C  561   2.596   3.949   4.491
    1C        C  562   2.531   3.752   4.618
    1C        C  563   2.569   3.888   4.616
    1C        C  564   2.513   3.682   4.740
    1C        C  565   2.523   3.760   4.858
    1C        C  566   2.530   3.548   4.978
    1C        C  567   2.526   3.687   4.977
    1C        C  568   3.327   4.475   2.047
    1C        C  569   3.399   4.518   2.159
    1C        C  570   3.186   4.481   2.283
    1C        C  571   3.324   4.516   2.280
    1C        C  572   3.117   4.459   2.404
    1C        C  573   3.186   4.485   2.525
    1C        C  574   2.992   4.400   2.651
    1C        C  575   3.119   4.463   2.648
    1C        C  576   2.929   4.370   2.773
    1C        C  577   2.991   4.407   2.894
    1C        C  578   2.825   4.277   3.017
    1C        C  579   2.930   4.371   3.017
    1C        C  580   2.779   4.223   3.140
    1C        C  581   2.831   4.274   3.261
    1C        C  582   2.705   4.109   3.385
    1C        C  583   2.783   4.227   3.385
    1C        C  584   2.666   4.055   3.510
    1C        C  585   2.696   4.119   3.632
    1C        C  586   2.594   3.936   3.757
    1C        C  587   2.663   4.059   3.755
    1C        C  588   2.569   3.872   3.880
    1C        C  589   2.602   3.936   4.002
    1C        C  590   2.536   3.738   4.130
    1C        C  591   2.573   3.874   4.126
    1C        C  592   2.526   3.672   4.255
    1C        C  593   2.540   3.742   4.376
    1C        C  594   2.511   3.535   4.500
    1C        C  595   2.524   3.676   4.500
    1C        C  596   2.510   3.463   4.622
    1C        C  597   2.514   3.540   4.740
    1C        C  598   2.531   3.328   4.865
    1C        C  599   2.526   3.469   4.862
    1C        C  600   2.532   3.250   4.981
    1C        C  601   3.195   4.436   2.051
    1C        C  602   2.980   4.400   2.165
    1C        C  603   3.115   4.449   2.165
    1C        C  604   2.922   4.364   2.290
    1C        C  605   2.989   4.401   2.409
    1C        C  606   2.816   4.277   2.530
    1C        C  607   2.928   4.363   2.531
    1C        C  608   2.770   4.226   2.653
    1C        C  609   2.820   4.279   2.774
    1C        C  610   2.687   4.114   2.896
    1C        C  611   2.773   4.226   2.896
    1C        C  612   2.649   4.057   3.019
    1C        C  613   2.687   4.116   3.142
    1C        C  614   2.595   3.926   3.267
    1C        C  615   2.655   4.054   3.265
    1C        C  616   2.569   3.865   3.391
    1C        C  617   2.600   3.930   3.513
    1C        C  618   2.531   3.732   3.639
    1C        C  619   2.568   3.868   3.636
    1C        C  620   2.520   3.665   3.763
    1C        C  621   2.536   3.734   3.885
    1C        C  622   2.510   3.527   4.012
    1C        C  623   2.522   3.668   4.008
    1C        C  624   2.513   3.457   4.135
    1C        C  625   2.515   3.531   4.255
    1C        C  626   2.531   3.323   4.381
    1C        C  627   2.513   3.463   4.379
    1C        C  628   2.554   3.256   4.503
    1C        C  629   2.534   3.324   4.625
    1C        C  630   2.589   3.118   4.743
    1C        C  631   2.546   3.253   4.746
    1C        C  632   2.615   3.052   4.866
    1C        C  633   2.562   3.113   4.984
    1C        C  634   2.788   4.302   2.054
    1C        C  635   2.895   4.393   2.050
    1C        C  636   2.751   4.230   2.168
    1C        C  637   2.809   4.278   2.288
    1C        C  638   2.680   4.110   2.412
    1C        C  639   2.762   4.225   2.410
    1C        C  640   2.641   4.051   2.534
    1C        C  641   2.687   4.111   2.654
    1C        C  642   2.586   3.924   2.779
    1C        C  643   2.648   4.051   2.776
    1C        C  644   2.561   3.860   2.902
    1C        C  645   2.589   3.929   3.022
    1C        C  646   2.532   3.724   3.151
    1C        C  647   2.568   3.861   3.144
    1C        C  648   2.514   3.656   3.273
    1C        C  649   2.529   3.729   3.393
    1C        C  650   2.506   3.521   3.521
    1C        C  651   2.515   3.662   3.517
    1C        C  652   2.510   3.453   3.645
    1C        C  653   2.510   3.524   3.767
    1C        C  654   2.536   3.316   3.891
    1C        C  655   2.512   3.456   3.890
    1C        C  656   2.554   3.250   4.015
    1C        C  657   2.538   3.318   4.137
    1C        C  658   2.604   3.120   4.260
    1C        C  659   2.554   3.252   4.261
    1C        C  660   2.634   3.056   4.383
    1C        C  661   2.605   3.124   4.503
    1C        C  662   2.711   2.939   4.627
    1C        C  663   2.630   3.054   4.623
    1C        C  664   2.748   2.879   4.749
    1C        C  665   2.693   2.932   4.869
    1C        C  666   2.745   2.873   4.986
    1C        C  667   2.679   4.026   2.054
    1C        C  668   2.688   4.104   2.170
    1C        C  669   2.591   3.915   2.293
    1C        C  670   2.643   4.048   2.291
    1C        C  671   2.558   3.851   2.415
    1C        C  672   2.584   3.922   2.534
    1C        C  673   2.520   3.721   2.661
    1C        C  674   2.563   3.856   2.658
    1C        C  675   2.507   3.653   2.784
    1C        C  676   2.526   3.723   2.905
    1C        C  677   2.513   3.514   3.032
    1C        C  678   2.518   3.655   3.029
    1C        C  679   2.511   3.443   3.154
    1C        C  680   2.506   3.515   3.276
    1C        C  681   2.529   3.308   3.402
    1C        C  682   2.507   3.448   3.400
    1C        C  683   2.551   3.243   3.525
    1C        C  684   2.536   3.314   3.647
    1C        C  685   2.606   3.115   3.773
    1C        C  686   2.559   3.249   3.770
    1C        C  687   2.639   3.053   3.896
    1C        C  688   2.602   3.117   4.016
    1C        C  689   2.716   2.939   4.140
    1C        C  690   2.634   3.054   4.139
    1C        C  691   2.761   2.884   4.262
    1C        C  692   2.714   2.939   4.383
    1C        C  693   2.755   2.881   4.506
    1C        C  694   2.627   3.896   2.059
    1C        C  695   2.526   3.706   2.176
    1C        C  696   2.577   3.838   2.176
    1C        C  697   2.509   3.640   2.300
    1C        C  698   2.524   3.714   2.419
    1C        C  699   2.493   3.506   2.543
    1C        C  700   2.503   3.647   2.542
    1C        C  701   2.504   3.439   2.667
    1C        C  702   2.505   3.512   2.788
    1C        C  703   2.529   3.302   2.911
    1C        C  704   2.512   3.442   2.910
    1C        C  705   2.548   3.235   3.034
    1C        C  706   2.529   3.303   3.157
    1C        C  707   2.598   3.106   3.282
    1C        C  708   2.547   3.238   3.281
    1C        C  709   2.635   3.048   3.405
    1C        C  710   2.604   3.112   3.527
    1C        C  711   2.707   2.931   3.651
    1C        C  712   2.629   3.049   3.651
    1C        C  713   2.752   2.874   3.773
    1C        C  714   2.714   2.934   3.895
    1C        C  715   2.759   2.881   4.018
    1C        C  716   2.445   3.500   2.065
    1C        C  717   2.491   3.633   2.062
    1C        C  718   2.466   3.424   2.184
    1C        C  719   2.486   3.500   2.302
    1C        C  720   2.515   3.291   2.424
    1C        C  721   2.488   3.430   2.425
    1C        C  722   2.541   3.227   2.547
    1C        C  723   2.531   3.300   2.667
    1C        C  724   2.598   3.100   2.790
    1C        C  725   2.548   3.232   2.790
    1C        C  726   2.622   3.037   2.914
    1C        C  727   2.599   3.103   3.037
    1C        C  728   2.705   2.921   3.159
    1C        C  729   2.631   3.042   3.160
    1C        C  730   2.751   2.874   3.284
    1C        C  731   2.713   2.931   3.407
    1C        C  732   2.756   2.876   3.531
    1C        C  733   2.492   3.197   2.075
    1C        C  734   2.486   3.282   2.186
    1C        C  735   2.581   3.084   2.307
    1C        C  736   2.528   3.216   2.305
    1C        C  737   2.613   3.020   2.429
    1C        C  738   2.594   3.096   2.547
    1C        C  739   2.697   2.911   2.672
    1C        C  740   2.625   3.032   2.669
    1C        C  741   2.743   2.859   2.796
    1C        C  742   2.699   2.918   2.916
    1C        C  743   2.746   2.863   3.037
    1C        C  744   2.545   3.069   2.074
    1C        C  745   2.686   2.898   2.187
    1C        C  746   2.608   3.016   2.187
    1C        C  747   2.731   2.840   2.308
    1C        C  748   2.688   2.900   2.428
    1C        C  749   2.742   2.854   2.551
    1C        C  750   2.738   2.840   2.071
    1C        C  751   3.664   2.302   1.987
    1C        O  752   3.643   2.179   2.008
    1C        O  753   3.694   2.321   1.852
    1C        C  754   4.614   3.055   1.971
    1C        O  755   4.599   3.084   1.850
    1C        O  756   4.748   3.029   2.004
    1C        C  757   4.444   4.214   1.943
    1C        O  758   4.476   4.334   1.964
    1C        O  759   4.469   4.178   1.810
    1C        C  760   3.587   4.661   1.940
    1C        O  761   3.653   4.768   1.935
    1C        O  762   3.578   4.624   1.805
    1C        C  763   2.870   4.501   1.953
    1C        O  764   2.858   4.467   1.832
    1C        O  765   2.811   4.624   1.982
    1C        C  766   2.344   3.466   1.962
    1C        O  767   2.390   3.435   1.849
    1C        O  768   2.217   3.525   1.962
    1C        C  769   4.703   3.588   5.049
    1C        O  770   4.680   3.581   5.173
    1C        O  771   4.823   3.658   5.029
    1C        C  772   4.257   4.420   5.070
    1C        O  773   4.210   4.391   5.183
    1C        O  774   4.340   4.532   5.085
    1C        C  775   4.147   2.539   5.085
    1C        O  776   4.173   2.417   5.108
    1C        O  777   4.159   2.615   5.202
    1C        C  778   2.931   4.484   5.098
    1C        O  779   2.852   4.571   5.142
    1C        O  780   2.993   4.410   5.199
    1C        C  781   2.473   3.032   5.069
    1C        O  782   2.380   2.961   5.020
    1C        O  783   2.453   3.061   5.204
    1C        C  784   2.421   3.988   5.061
    1C        O  785   2.306   3.975   5.011
    1C        O  786   2.436   3.954   5.196
    1C        C  787   2.964   2.413   2.006
    1C        O  788   2.916   2.446   1.894
    1C        O  789   2.890   2.310   2.062
    1C        C  790   3.190   2.379   5.065
    1C        O  791   3.146   2.264   5.037
    1C        O  792   3.186   2.400   5.204
    1C        H  793   4.286   3.023   5.062
    1C        H  794   4.167   2.812   5.068
    1C        H  795   4.534   3.132   5.047
    1C        H  796   4.491   3.373   5.067
    1C        H  797   4.536   3.805   5.048
    1C        H  798   4.392   3.962   5.053
    1C        H  799   4.306   4.180   5.056
    1C        H  800   4.037   4.546   5.030
    1C        H  801   3.817   4.562   5.042
    1C        H  802   3.585   4.655   5.025
    1C        H  803   3.396   4.497   5.047
    1C        H  804   3.174   4.429   5.039
    1C        H  805   3.910   2.441   5.043
    1C        H  806   3.685   2.460   5.070
    1C        H  807   2.988   2.523   5.045
    1C        H  808   3.442   2.509   5.072
    1C        H  809   2.891   2.754   5.078
    1C        H  810   2.743   2.932   5.075
    1C        H  811   2.511   3.295   5.076
    1C        H  812   2.533   3.501   5.074
    1C        H  813   2.467   3.726   5.058
    1C        H  814   2.582   4.185   5.042
    1C        H  815   2.738   4.338   5.045
    1C        H  816   2.700   2.866   1.975
    1C        H  817   2.838   2.677   1.984
    1C        H  818   3.222   2.470   1.988
    1C        H  819   3.439   2.439   1.976
    1C        H  820   3.871   2.495   1.973
    1C        H  821   4.067   2.622   1.966
    1C        H  822   4.237   2.735   1.969
    1C        H  823   4.390   2.914   1.965
    1C        H  824   4.574   3.313   1.969
    1C        H  825   4.567   3.534   1.969
    1C        H  826   4.506   3.755   1.958
    1C        H  827   3.807   4.506   1.951
    1C        H  828   3.987   4.404   1.949
    1C        H  829   4.141   4.216   1.960
    1C        H  830   4.485   3.962   1.960
    1C        H  831   2.664   3.830   1.983
    1C        H  832   2.745   4.043   1.971
    1C        H  833   2.760   4.271   1.955
    1C        H  834   3.376   4.461   1.953
    1C        H  835   3.150   4.397   1.962
    1C        H  836   2.494   2.998   2.012
    1C        H  837   2.418   3.213   1.999
    1C        H  838   2.478   3.688   1.972
    2V3OU   H29  839   2.803   3.548   5.811
    2V3OU   C27  840   2.783   3.504   5.912
    2V3OU   H27  841   2.729   3.579   5.976
    2V3OU   H28  842   2.722   3.411   5.897
    2V3OU   O11  843   2.912   3.476   5.966
    2V3OU   C15  844   2.919   3.396   6.078
    2V3OU   C13  845   3.051   3.378   6.124
    2V3OU   C14  846   3.073   3.274   6.214
    2V3OU   C16  847   2.970   3.195   6.263
    2V3OU    H6  848   2.991   3.105   6.324
    2V3OU   C12  849   3.210   3.233   6.251
    2V3OU    O2  850   3.242   3.126   6.307
    2V3OU   C10  851   3.325   3.316   6.211
    2V3OU    C8  852   3.459   3.278   6.221
    2V3OU   O10  853   3.493   3.161   6.281
    2V3OU   H26  854   3.404   3.126   6.295
    2V3OU    C6  855   3.565   3.351   6.160
    2V3OU    C5  856   3.537   3.469   6.092
    2V3OU    C4  857   3.705   3.299   6.156
    2V3OU    H4  858   3.728   3.233   6.245
    2V3OU    H5  859   3.715   3.231   6.067
    2V3OU    C2  860   3.818   3.402   6.149
    2V3OU    O6  861   3.814   3.472   6.274
    2V3OU   H21  862   3.776   3.558   6.251
    2V3OU    C3  863   3.782   3.499   6.037
    2V3OU    H2  864   3.863   3.575   6.023
    2V3OU    H3  865   3.778   3.439   5.942
    2V3OU   C25  866   3.955   3.336   6.132
    2V3OU    O7  867   4.002   3.311   6.021
    2V3OU   C26  868   4.030   3.293   6.257
    2V3OU   H22  869   4.070   3.386   6.306
    2V3OU   H23  870   4.112   3.222   6.230
    2V3OU    O8  871   3.959   3.214   6.350
    2V3OU   H24  872   3.926   3.267   6.425
    2V3OU    C1  873   3.646   3.564   6.052
    2V3OU    H1  874   3.618   3.616   5.956
    2V3OU    O3  875   3.654   3.660   6.159
    2V3OU   C19  876   3.614   3.795   6.138
    2V3OU    H9  877   3.520   3.795   6.074
    2V3OU    O4  878   3.718   3.848   6.060
    2V3OU   C20  879   3.849   3.875   6.110
    2V3OU   H10  880   3.905   3.778   6.129
    2V3OU   C24  881   3.612   3.859   6.277
    2V3OU   H16  882   3.547   3.794   6.341
    2V3OU   H17  883   3.570   3.962   6.278
    2V3OU   C23  884   3.751   3.874   6.338
    2V3OU   H15  885   3.787   3.767   6.358
    2V3OU    N1  886   3.740   3.957   6.457
    2V3OU   H19  887   3.808   3.921   6.520
    2V3OU   H20  888   3.651   3.938   6.498
    2V3OU   C21  889   3.852   3.948   6.245
    2V3OU   H11  890   3.956   3.937   6.287
    2V3OU    O5  891   3.823   4.086   6.246
    2V3OU   H18  892   3.776   4.106   6.329
    2V3OU   C22  893   3.918   3.951   5.998
    2V3OU   H12  894   3.861   4.044   5.975
    2V3OU   H13  895   3.917   3.889   5.905
    2V3OU   H14  896   4.025   3.969   6.026
    2V3OU   C11  897   3.160   3.474   6.098
    2V3OU    O1  898   3.136   3.594   6.073
    2V3OU    C9  899   3.297   3.431   6.134
    2V3OU    C7  900   3.400   3.510   6.082
    2V3OU    O9  901   3.384   3.626   6.009
    2V3OU   H25  902   3.288   3.627   6.000
    2V3OU   C17  903   2.817   3.310   6.125
    2V3OU    H7  904   2.716   3.347   6.110
    2V3OU   C18  905   2.839   3.211   6.221
    2V3OU    H8  906   2.759   3.148   6.264
    3SOL     OW  907   2.964   3.474   3.612
    3SOL    HW1  908   2.956   3.464   3.711
    3SOL    HW2  909   2.961   3.571   3.588
    4SOL     OW  910   6.815   6.517   1.361
    4SOL    HW1  911   6.719   6.521   1.335
    4SOL    HW2  912   6.847   6.422   1.360
    5SOL     OW  913   4.593   2.739   0.583
    5SOL    HW1  914   4.661   2.751   0.656
    5SOL    HW2  915   4.584   2.641   0.562
    6SOL     OW  916   4.354   1.509   2.319
    6SOL    HW1  917   4.444   1.549   2.303
    6SOL    HW2  918   4.333   1.512   2.417
    7SOL     OW  919   2.117   3.318   4.376
    7SOL    HW1  920   2.083   3.354   4.463
    7SOL    HW2  921   2.172   3.236   4.393
    8SOL     OW  922   1.049   2.241   5.296
    8SOL    HW1  923   1.095   2.314   5.245
    8SOL    HW2  924   0.950   2.252   5.287
    9SOL     OW  925   0.652   1.497   5.815
    9SOL    HW1  926   0.732   1.555   5.830
    9SOL    HW2  927   0.614   1.469   5.903
   10SOL     OW  928   5.335   4.846   1.496
   10SOL    HW1  929   5.304   4.825   1.403
   10SOL    HW2  930   5.341   4.761   1.549
   11SOL     OW  931   2.681   2.362   0.453
   11SOL    HW1  932   2.618   2.439   0.445
   11SOL    HW2  933   2.775   2.394   0.436
   12SOL     OW  934   4.890   5.009   2.157
   12SOL    HW1  935   4.793   5.024   2.136
   12SOL    HW2  936   4.901   4.999   2.256
   13SOL     OW  937   5.482   6.596   1.368
   13SOL    HW1  938   5.574   6.615   1.335
   13SOL    HW2  939   5.487   6.552   1.458
   14SOL     OW  940   4.526   6.448   6.985
   14SOL    HW1  941   4.533   6.390   6.903
   14SOL    HW2  942   4.611   6.500   6.995
   15SOL     OW  943   0.941   5.900   6.160
   15SOL    HW1  944   0.868   5.868   6.100
   15SOL    HW2  945   0.907   5.973   6.219
   16SOL     OW  946   2.489   5.878   4.813
   16SOL    HW1  947   2.570   5.912   4.861
   16SOL    HW2  948   2.422   5.846   4.880
   17SOL     OW  949   6.878   0.895   4.841
   17SOL    HW1  950   6.941   0.972   4.837
   17SOL    HW2  951   6.806   0.914   4.908
   18SOL     OW  952   2.627   1.219   5.358
   18SOL    HW1  953   2.609   1.158   5.435
   18SOL    HW2  954   2.709   1.273   5.378
   19SOL     OW  955   2.967   6.272   2.559
   19SOL    HW1  956   2.906   6.193   2.568
   19SOL    HW2  957   2.972   6.320   2.647
   20SOL     OW  958   0.209   1.728   5.858
   20SOL    HW1  959   0.211   1.812   5.913
   20SOL    HW2  960   0.240   1.748   5.765
   21SOL     OW  961   2.111   4.030   2.183
   21SOL    HW1  962   2.168   3.951   2.206
   21SOL    HW2  963   2.070   4.016   2.093
   22SOL     OW  964   0.931   1.343   0.316
   22SOL    HW1  965   0.835   1.337   0.290
   22SOL    HW2  966   0.989   1.322   0.238
   23SOL     OW  967   6.485   4.863   0.503
   23SOL    HW1  968   6.535   4.808   0.437
   23SOL    HW2  969   6.402   4.813   0.531
   24SOL     OW  970   5.244   1.557   0.067
   24SOL    HW1  971   5.257   1.637   0.126
   24SOL    HW2  972   5.189   1.582   7.014
   25SOL     OW  973   1.771   0.981   4.064
   25SOL    HW1  974   1.723   1.054   4.015
   25SOL    HW2  975   1.858   1.015   4.099
   26SOL     OW  976   1.155   1.522   6.387
   26SOL    HW1  977   1.244   1.529   6.342
   26SOL    HW2  978   1.128   1.426   6.393
   27SOL     OW  979   0.439   0.210   3.163
   27SOL    HW1  980   0.506   0.135   3.168
   27SOL    HW2  981   0.371   0.189   3.093
   28SOL     OW  982   1.293   0.586   6.059
   28SOL    HW1  983   1.353   0.569   6.137
   28SOL    HW2  984   1.336   0.552   5.976
   29SOL     OW  985   5.447   0.338   1.443
   29SOL    HW1  986   5.399   0.274   1.383
   29SOL    HW2  987   5.485   0.288   1.521
   30SOL     OW  988   4.990   0.277   5.245
   30SOL    HW1  989   5.006   0.324   5.332
   30SOL    HW2  990   5.072   0.284   5.189
   31SOL     OW  991   6.694   4.739   4.069
   31SOL    HW1  992   6.719   4.659   4.124
   31SOL    HW2  993   6.732   4.822   4.112
   32SOL     OW  994   2.779   1.033   0.877
   32SOL    HW1  995   2.751   0.944   0.913
   32SOL    HW2  996   2.782   1.100   0.951
   33SOL     OW  997   2.282   4.972   5.649
   33SOL    HW1  998   2.184   4.979   5.668
   33SOL    HW2  999   2.304   5.023   5.566
   34SOL     OW 1000   2.461   5.993   5.633
   34SOL    HW1 1001   2.492   5.945   5.552
   34SOL    HW2 1002   2.373   5.955   5.663
   35SOL     OW 1003   1.259   3.519   5.977
   35SOL    HW1 1004   1.328   3.577   5.936
   35SOL    HW2 1005   1.242   3.440   5.918
   36SOL     OW 1006   6.266   1.074   3.595
   36SOL    HW1 1007   6.234   1.059   3.502
   36SOL    HW2 1008   6.196   1.123   3.647
   37SOL     OW 1009   2.591   6.076   4.598
   37SOL    HW1 1010   2.636   6.011   4.537
   37SOL    HW2 1011   2.531   6.027   4.660
   38SOL     OW 1012   1.261   4.236   2.647
   38SOL    HW1 1013   1.303   4.148   2.626
   38SOL    HW2 1014   1.246   4.243   2.745
   39SOL     OW 1015   6.902   4.528   0.947
   39SOL    HW1 1016   6.919   4.510   0.850
   39SOL    HW2 1017   6.941   4.617   0.972
   40SOL     OW 1018   3.685   0.944   0.120
   40SOL    HW1 1019   3.741   0.891   0.056
   40SOL    HW2 1020   3.738   0.964   0.203
   41SOL     OW 1021   5.056   3.631   1.601
   41SOL    HW1 1022   5.012   3.626   1.691
   41SOL    HW2 1023   5.005   3.695   1.543
   42SOL     OW 1024   2.896   4.103   6.664
   42SOL    HW1 1025   2.803   4.070   6.674
   42SOL    HW2 1026   2.934   4.074   6.577
   43SOL     OW 1027   5.625   0.017   4.903
   43SOL    HW1 1028   5.591   0.031   4.810
   43SOL    HW2 1029   5.711   6.991   4.899
   44SOL     OW 1030   6.907   1.191   6.166
   44SOL    HW1 1031   6.950   1.105   6.191
   44SOL    HW2 1032   6.929   1.213   6.071
   45SOL     OW 1033   2.721   4.500   6.365
   45SOL    HW1 1034   2.675   4.433   6.424
   45SOL    HW2 1035   2.805   4.531   6.409
   46SOL     OW 1036   1.094   4.333   5.045
   46SOL    HW1 1037   1.059   4.407   4.987
   46SOL    HW2 1038   1.073   4.245   5.003
   47SOL     OW 1039   5.850   3.741   0.268
   47SOL    HW1 1040   5.884   3.667   0.327
   47SOL    HW2 1041   5.896   3.737   0.179
   48SOL     OW 1042   6.666   4.150   1.021
   48SOL    HW1 1043   6.629   4.067   0.978
   48SOL    HW2 1044   6.760   4.164   0.992
   49SOL     OW 1045   3.233   2.588   6.091
   49SOL    HW1 1046   3.327   2.603   6.060
   49SOL    HW2 1047   3.186   2.528   6.027
   50SOL     OW 1048   5.179   2.140   0.224
   50SOL    HW1 1049   5.121   2.100   0.153
   50SOL    HW2 1050   5.274   2.112   0.209
   51SOL     OW 1051   1.032   6.225   2.043
   51SOL    HW1 1052   1.050   6.139   1.994
   51SOL    HW2 1053   0.944   6.262   2.014
   52SOL     OW 1054   5.731   2.088   2.040
   52SOL    HW1 1055   5.694   2.104   2.132
   52SOL    HW2 1056   5.686   2.009   1.999
   53SOL     OW 1057   4.270   0.867   0.910
   53SOL    HW1 1058   4.284   0.946   0.970
   53SOL    HW2 1059   4.177   0.868   0.873
   54SOL     OW 1060   6.399   0.487   6.248
   54SOL    HW1 1061   6.315   0.472   6.300
   54SOL    HW2 1062   6.376   0.522   6.157
   55SOL     OW 1063   1.611   3.840   6.297
   55SOL    HW1 1064   1.689   3.830   6.358
   55SOL    HW2 1065   1.565   3.751   6.288
   56SOL     OW 1066   0.612   2.343   6.651
   56SOL    HW1 1067   0.709   2.344   6.625
   56SOL    HW2 1068   0.573   2.434   6.636
   57SOL     OW 1069   4.209   6.173   1.017
   57SOL    HW1 1070   4.221   6.084   0.973
   57SOL    HW2 1071   4.112   6.198   1.016
   58SOL     OW 1072   1.342   0.786   6.638
   58SOL    HW1 1073   1.296   0.841   6.707
   58SOL    HW2 1074   1.302   0.694   6.637
   59SOL     OW 1075   4.047   2.757   6.246
   59SOL    HW1 1076   4.079   2.762   6.340
   59SOL    HW2 1077   3.952   2.788   6.241
   60SOL     OW 1078   6.624   3.122   2.863
   60SOL    HW1 1079   6.665   3.031   2.861
   60SOL    HW2 1080   6.525   3.114   2.871
   61SOL     OW 1081   1.154   5.761   3.267
   61SOL    HW1 1082   1.243   5.788   3.305
   61SOL    HW2 1083   1.164   5.680   3.210
   62SOL     OW 1084   6.212   2.469   3.401
   62SOL    HW1 1085   6.128   2.442   3.447
   62SOL    HW2 1086   6.222   2.417   3.316
   63SOL     OW 1087   3.955   6.833   5.667
   63SOL    HW1 1088   3.979   6.772   5.591
   63SOL    HW2 1089   3.873   6.800   5.712
   64SOL     OW 1090   1.306   1.970   5.788
   64SOL    HW1 1091   1.316   1.871   5.792
   64SOL    HW2 1092   1.223   1.993   5.737
   65SOL     OW 1093   1.163   5.380   5.129
   65SOL    HW1 1094   1.144   5.477   5.119
   65SOL    HW2 1095   1.222   5.365   5.209
   66SOL     OW 1096   4.688   1.844   1.353
   66SOL    HW1 1097   4.695   1.934   1.310
   66SOL    HW2 1098   4.616   1.791   1.309
   67SOL     OW 1099   6.851   3.987   1.265
   67SOL    HW1 1100   6.862   3.961   1.169
   67SOL    HW2 1101   6.799   3.915   1.313
   68SOL     OW 1102   0.340   1.056   6.787
   68SOL    HW1 1103   0.302   0.965   6.802
   68SOL    HW2 1104   0.355   1.071   6.689
   69SOL     OW 1105   1.703   5.979   0.074
   69SOL    HW1 1106   1.794   6.019   0.086
   69SOL    HW2 1107   1.701   5.889   0.117
   70SOL     OW 1108   4.498   4.869   3.445
   70SOL    HW1 1109   4.447   4.948   3.410
   70SOL    HW2 1110   4.435   4.793   3.459
   71SOL     OW 1111   5.077   1.218   5.182
   71SOL    HW1 1112   5.109   1.144   5.242
   71SOL    HW2 1113   5.129   1.217   5.097
   72SOL     OW 1114   0.143   0.676   2.321
   72SOL    HW1 1115   0.147   0.774   2.344
   72SOL    HW2 1116   0.067   0.634   2.370
   73SOL     OW 1117   2.433   1.074   0.960
   73SOL    HW1 1118   2.489   1.149   0.995
   73SOL    HW2 1119   2.352   1.062   1.018
   74SOL     OW 1120   2.756   1.628   0.056
   74SOL    HW1 1121   2.657   1.617   0.058
   74SOL    HW2 1122   2.796   1.563   7.017
   75SOL     OW 1123   1.989   2.625   0.474
   75SOL    HW1 1124   1.926   2.548   0.488
   75SOL    HW2 1125   1.945   2.693   0.416
   76SOL     OW 1126   4.032   4.602   5.773
   76SOL    HW1 1127   4.101   4.674   5.770
   76SOL    HW2 1128   4.075   4.514   5.794
   77SOL     OW 1129   0.922   5.409   4.639
   77SOL    HW1 1130   0.929   5.504   4.671
   77SOL    HW2 1131   0.922   5.407   4.540
   78SOL     OW 1132   5.683   1.581   1.460
   78SOL    HW1 1133   5.770   1.558   1.417
   78SOL    HW2 1134   5.637   1.653   1.407
   79SOL     OW 1135   1.540   3.992   3.930
   79SOL    HW1 1136   1.569   3.897   3.942
   79SOL    HW2 1137   1.534   4.037   4.019
   80SOL     OW 1138   3.494   2.097   5.147
   80SOL    HW1 1139   3.468   2.048   5.063
   80SOL    HW2 1140   3.588   2.130   5.138
   81SOL     OW 1141   3.161   5.198   2.330
   81SOL    HW1 1142   3.189   5.213   2.425
   81SOL    HW2 1143   3.222   5.250   2.270
   82SOL     OW 1144   3.151   0.303   2.275
   82SOL    HW1 1145   3.055   0.306   2.304
   82SOL    HW2 1146   3.201   0.376   2.321
   83SOL     OW 1147   5.451   0.896   4.369
   83SOL    HW1 1148   5.355   0.878   4.347
   83SOL    HW2 1149   5.465   0.994   4.381
   84SOL     OW 1150   5.773   2.938   3.198
   84SOL    HW1 1151   5.855   2.911   3.148
   84SOL    HW2 1152   5.740   3.026   3.163
   85SOL     OW 1153   2.327   5.949   3.216
   85SOL    HW1 1154   2.417   5.989   3.201
   85SOL    HW2 1155   2.309   5.946   3.315
   86SOL     OW 1156   5.158   0.604   0.967
   86SOL    HW1 1157   5.112   0.675   0.913
   86SOL    HW2 1158   5.094   0.568   1.035
   87SOL     OW 1159   2.761   3.135   6.614
   87SOL    HW1 1160   2.737   3.075   6.538
   87SOL    HW2 1161   2.702   3.216   6.612
   88SOL     OW 1162   1.925   2.720   1.621
   88SOL    HW1 1163   1.976   2.650   1.670
   88SOL    HW2 1164   1.837   2.735   1.665
   89SOL     OW 1165   3.319   3.499   5.310
   89SOL    HW1 1166   3.313   3.399   5.302
   89SOL    HW2 1167   3.414   3.527   5.297
   90SOL     OW 1168   6.370   4.130   2.245
   90SOL    HW1 1169   6.397   4.226   2.236
   90SOL    HW2 1170   6.393   4.097   2.337
   91SOL     OW 1171   4.474   6.048   0.675
   91SOL    HW1 1172   4.438   6.140   0.693
   91SOL    HW2 1173   4.411   6.000   0.614
   92SOL     OW 1174   6.030   4.967   6.863
   92SOL    HW1 1175   6.053   4.872   6.840
   92SOL    HW2 1176   6.048   5.025   6.784
   93SOL     OW 1177   2.975   3.755   1.781
   93SOL    HW1 1178   3.044   3.688   1.753
   93SOL    HW2 1179   2.896   3.708   1.819
   94SOL     OW 1180   2.743   1.787   3.890
   94SOL    HW1 1181   2.838   1.767   3.864
   94SOL    HW2 1182   2.735   1.791   3.989
   95SOL     OW 1183   0.502   0.186   4.200
   95SOL    HW1 1184   0.493   0.212   4.104
   95SOL    HW2 1185   0.538   0.093   4.206
   96SOL     OW 1186   0.033   5.317   6.774
   96SOL    HW1 1187   0.056   5.414   6.789
   96SOL    HW2 1188   0.085   5.282   6.696
   97SOL     OW 1189   3.210   4.294   5.525
   97SOL    HW1 1190   3.175   4.386   5.504
   97SOL    HW2 1191   3.172   4.229   5.459
   98SOL     OW 1192   0.465   2.136   4.947
   98SOL    HW1 1193   0.553   2.136   4.900
   98SOL    HW2 1194   0.445   2.043   4.978
   99SOL     OW 1195   4.015   4.510   5.312
   99SOL    HW1 1196   4.071   4.447   5.258
   99SOL    HW2 1197   3.978   4.463   5.392
  100SOL     OW 1198   1.086   0.658   5.325
  100SOL    HW1 1199   1.051   0.574   5.366
  100SOL    HW2 1200   1.035   0.737   5.361
  101SOL     OW 1201   5.152   3.257   2.886
  101SOL    HW1 1202   5.118   3.189   2.950
  101SOL    HW2 1203   5.075   3.313   2.853
  102SOL     OW 1204   3.744   0.299   6.762
  102SOL    HW1 1205   3.648   0.296   6.789
  102SOL    HW2 1206   3.801   0.302   6.844
  103SOL     OW 1207   1.012   1.274   1.840
  103SOL    HW1 1208   1.088   1.321   1.796
  103SOL    HW2 1209   0.978   1.329   1.916
  104SOL     OW 1210   6.238   4.422   2.355
  104SOL    HW1 1211   6.241   4.372   2.441
  104SOL    HW2 1212   6.210   4.360   2.281
  105SOL     OW 1213   0.288   0.408   4.734
  105SOL    HW1 1214   0.201   0.368   4.762
  105SOL    HW2 1215   0.309   0.380   4.640
  106SOL     OW 1216   4.308   3.097   1.768
  106SOL    HW1 1217   4.338   3.095   1.672
  106SOL    HW2 1218   4.387   3.117   1.826
  107SOL     OW 1219   5.041   6.984   1.487
  107SOL    HW1 1220   5.006   6.956   1.397
  107SOL    HW2 1221   4.989   0.038   1.519
  108SOL     OW 1222   3.718   2.025   4.807
  108SOL    HW1 1223   3.639   2.038   4.746
  108SOL    HW2 1224   3.705   1.942   4.861
  109SOL     OW 1225   1.804   1.031   5.425
  109SOL    HW1 1226   1.813   1.081   5.511
  109SOL    HW2 1227   1.866   0.952   5.425
  110SOL     OW 1228   4.101   4.273   5.578
  110SOL    HW1 1229   4.018   4.328   5.577
  110SOL    HW2 1230   4.097   4.207   5.654
  111SOL     OW 1231   5.841   3.293   1.051
  111SOL    HW1 1232   5.866   3.300   1.147
  111SOL    HW2 1233   5.766   3.227   1.040
  112SOL     OW 1234   4.571   6.813   4.858
  112SOL    HW1 1235   4.625   6.758   4.795
  112SOL    HW2 1236   4.541   6.756   4.935
  113SOL     OW 1237   0.556   4.830   2.687
  113SOL    HW1 1238   0.630   4.844   2.754
  113SOL    HW2 1239   0.561   4.902   2.618
  114SOL     OW 1240   0.170   2.002   1.771
  114SOL    HW1 1241   0.187   1.928   1.707
  114SOL    HW2 1242   0.257   2.037   1.806
  115SOL     OW 1243   4.222   0.793   2.526
  115SOL    HW1 1244   4.150   0.862   2.528
  115SOL    HW2 1245   4.228   0.748   2.615
  116SOL     OW 1246   6.696   5.583   1.287
  116SOL    HW1 1247   6.703   5.497   1.337
  116SOL    HW2 1248   6.612   5.631   1.314
  117SOL     OW 1249   3.011   1.953   0.199
  117SOL    HW1 1250   3.096   1.938   0.250
  117SOL    HW2 1251   2.954   1.870   0.205
  118SOL     OW 1252   0.448   2.162   2.213
  118SOL    HW1 1253   0.518   2.092   2.203
  118SOL    HW2 1254   0.363   2.121   2.244
  119SOL     OW 1255   6.355   6.518   4.834
  119SOL    HW1 1256   6.340   6.459   4.914
  119SOL    HW2 1257   6.297   6.599   4.842
  120SOL     OW 1258   4.305   1.587   4.420
  120SOL    HW1 1259   4.257   1.653   4.477
  120SOL    HW2 1260   4.239   1.530   4.371
  121SOL     OW 1261   0.199   5.701   6.500
  121SOL    HW1 1262   0.229   5.612   6.466
  121SOL    HW2 1263   0.238   5.716   6.591
  122SOL     OW 1264   6.658   4.864   6.053
  122SOL    HW1 1265   6.582   4.879   5.989
  122SOL    HW2 1266   6.662   4.767   6.076
  123SOL     OW 1267   0.545   2.799   1.206
  123SOL    HW1 1268   0.613   2.773   1.275
  123SOL    HW2 1269   0.578   2.770   1.116
  124SOL     OW 1270   1.476   3.493   0.274
  124SOL    HW1 1271   1.386   3.498   0.229
  124SOL    HW2 1272   1.491   3.578   0.325
  125SOL     OW 1273   4.721   2.569   0.884
  125SOL    HW1 1274   4.701   2.490   0.827
  125SOL    HW2 1275   4.767   2.538   0.968
  126SOL     OW 1276   3.522   2.841   4.776
  126SOL    HW1 1277   3.530   2.762   4.836
  126SOL    HW2 1278   3.606   2.854   4.724
  127SOL     OW 1279   0.269   4.885   5.925
  127SOL    HW1 1280   0.359   4.845   5.910
  127SOL    HW2 1281   0.227   4.906   5.837
  128SOL     OW 1282   4.333   3.860   6.048
  128SOL    HW1 1283   4.325   3.911   6.134
  128SOL    HW2 1284   4.411   3.798   6.053
  129SOL     OW 1285   0.594   5.268   2.108
  129SOL    HW1 1286   0.524   5.339   2.103
  129SOL    HW2 1287   0.682   5.306   2.078
  130SOL     OW 1288   6.252   3.553   4.791
  130SOL    HW1 1289   6.158   3.546   4.758
  130SOL    HW2 1290   6.306   3.477   4.755
  131SOL     OW 1291   0.771   3.329   3.388
  131SOL    HW1 1292   0.705   3.281   3.447
  131SOL    HW2 1293   0.723   3.401   3.338
  132SOL     OW 1294   4.651   2.750   1.419
  132SOL    HW1 1295   4.729   2.758   1.358
  132SOL    HW2 1296   4.682   2.760   1.514
  133SOL     OW 1297   4.555   5.157   6.246
  133SOL    HW1 1298   4.466   5.200   6.264
  133SOL    HW2 1299   4.622   5.228   6.223
  134SOL     OW 1300   5.927   1.738   1.023
  134SOL    HW1 1301   6.026   1.727   1.033
  134SOL    HW2 1302   5.905   1.751   0.926
  135SOL     OW 1303   4.440   4.832   3.891
  135SOL    HW1 1304   4.484   4.919   3.871
  135SOL    HW2 1305   4.363   4.818   3.828
  136SOL     OW 1306   3.952   0.010   5.874
  136SOL    HW1 1307   3.876   6.981   5.910
  136SOL    HW2 1308   3.993   6.988   5.797
  137SOL     OW 1309   2.181   4.139   6.615
  137SOL    HW1 1310   2.159   4.086   6.533
  137SOL    HW2 1311   2.154   4.234   6.602
  138SOL     OW 1312   1.033   5.277   6.573
  138SOL    HW1 1313   1.044   5.218   6.653
  138SOL    HW2 1314   1.100   5.351   6.576
  139SOL     OW 1315   0.373   0.060   1.222
  139SOL    HW1 1316   0.358   0.158   1.233
  139SOL    HW2 1317   0.467   0.044   1.193
  140SOL     OW 1318   3.724   0.831   1.608
  140SOL    HW1 1319   3.743   0.780   1.692
  140SOL    HW2 1320   3.792   0.904   1.597
  141SOL     OW 1321   0.282   1.430   0.322
  141SOL    HW1 1322   0.317   1.453   0.413
  141SOL    HW2 1323   0.307   1.503   0.258
  142SOL     OW 1324   2.233   4.384   0.516
  142SOL    HW1 1325   2.195   4.307   0.566
  142SOL    HW2 1326   2.163   4.424   0.457
  143SOL     OW 1327   5.010   5.614   1.501
  143SOL    HW1 1328   5.027   5.527   1.455
  143SOL    HW2 1329   4.944   5.601   1.574
  144SOL     OW 1330   3.531   5.161   2.674
  144SOL    HW1 1331   3.487   5.184   2.761
  144SOL    HW2 1332   3.541   5.062   2.668
  145SOL     OW 1333   6.957   5.418   3.610
  145SOL    HW1 1334   6.930   5.322   3.623
  145SOL    HW2 1335   7.010   5.449   3.688
  146SOL     OW 1336   6.380   0.591   5.985
  146SOL    HW1 1337   6.355   0.685   6.009
  146SOL    HW2 1338   6.448   0.592   5.912
  147SOL     OW 1339   6.400   1.366   5.504
  147SOL    HW1 1340   6.331   1.297   5.485
  147SOL    HW2 1341   6.485   1.321   5.533
  148SOL     OW 1342   2.001   6.522   1.809
  148SOL    HW1 1343   1.950   6.562   1.733
  148SOL    HW2 1344   2.042   6.435   1.779
  149SOL     OW 1345   1.085   3.445   4.821
  149SOL    HW1 1346   1.089   3.530   4.875
  149SOL    HW2 1347   1.178   3.414   4.802
  150SOL     OW 1348   4.398   2.015   5.465
  150SOL    HW1 1349   4.383   1.933   5.521
  150SOL    HW2 1350   4.428   2.090   5.524
  151SOL     OW 1351   6.542   2.924   1.495
  151SOL    HW1 1352   6.553   2.862   1.417
  151SOL    HW2 1353   6.605   2.897   1.568
  152SOL     OW 1354   6.940   2.909   1.278
  152SOL    HW1 1355   0.009   2.883   1.298
  152SOL    HW2 1356   6.905   2.966   1.352
  153SOL     OW 1357   1.945   1.518   3.448
  153SOL    HW1 1358   2.005   1.493   3.372
  153SOL    HW2 1359   1.900   1.436   3.483
  154SOL     OW 1360   6.977   1.538   3.212
  154SOL    HW1 1361   7.018   1.627   3.194
  154SOL    HW2 1362   6.910   1.546   3.286
  155SOL     OW 1363   5.771   4.701   3.896
  155SOL    HW1 1364   5.783   4.747   3.985
  155SOL    HW2 1365   5.686   4.650   3.896
  156SOL     OW 1366   4.915   1.441   1.064
  156SOL    HW1 1367   5.012   1.444   1.089
  156SOL    HW2 1368   4.868   1.373   1.120
  157SOL     OW 1369   5.014   0.473   1.148
  157SOL    HW1 1370   5.087   0.449   1.212
  157SOL    HW2 1371   4.952   0.538   1.192
  158SOL     OW 1372   0.458   2.988   4.452
  158SOL    HW1 1373   0.413   3.077   4.465
  158SOL    HW2 1374   0.417   2.941   4.374
  159SOL     OW 1375   6.322   5.444   0.283
  159SOL    HW1 1376   6.422   5.446   0.293
  159SOL    HW2 1377   6.281   5.515   0.341
  160SOL     OW 1378   4.321   1.112   1.021
  160SOL    HW1 1379   4.249   1.181   1.017
  160SOL    HW2 1380   4.409   1.155   1.001
  161SOL     OW 1381   0.015   6.640   0.541
  161SOL    HW1 1382   7.006   6.660   0.632
  161SOL    HW2 1383   0.102   6.593   0.548
  162SOL     OW 1384   4.340   7.023   5.559
  162SOL    HW1 1385   4.356   0.062   5.484
  162SOL    HW2 1386   4.242   7.020   5.580
  163SOL     OW 1387   0.673   3.604   3.002
  163SOL    HW1 1388   0.589   3.639   2.961
  163SOL    HW2 1389   0.662   3.595   3.101
  164SOL     OW 1390   1.999   2.242   2.665
  164SOL    HW1 1391   1.960   2.179   2.599
  164SOL    HW2 1392   2.079   2.287   2.624
  165SOL     OW 1393   0.432   6.735   3.946
  165SOL    HW1 1394   0.376   6.665   3.902
  165SOL    HW2 1395   0.524   6.733   3.908
  166SOL     OW 1396   0.047   4.709   4.188
  166SOL    HW1 1397   0.013   4.799   4.159
  166SOL    HW2 1398   0.054   4.707   4.288
  167SOL     OW 1399   1.573   1.276   4.137
  167SOL    HW1 1400   1.630   1.358   4.145
  167SOL    HW2 1401   1.478   1.300   4.153
  168SOL     OW 1402   3.447   3.863   2.905
  168SOL    HW1 1403   3.476   3.860   3.001
  168SOL    HW2 1404   3.421   3.771   2.875
  169SOL     OW 1405   5.274   2.382   0.373
  169SOL    HW1 1406   5.242   2.468   0.412
  169SOL    HW2 1407   5.223   2.362   0.290
  170SOL     OW 1408   6.933   5.747   1.243
  170SOL    HW1 1409   6.851   5.690   1.235
  170SOL    HW2 1410   6.990   5.714   1.318
  171SOL     OW 1411   3.039   2.858   1.346
  171SOL    HW1 1412   3.014   2.897   1.258
  171SOL    HW2 1413   2.974   2.887   1.417
  172SOL     OW 1414   1.177   0.672   6.898
  172SOL    HW1 1415   1.222   0.592   6.858
  172SOL    HW2 1416   1.163   0.742   6.828
  173SOL     OW 1417   5.703   1.117   4.655
  173SOL    HW1 1418   5.747   1.081   4.573
  173SOL    HW2 1419   5.615   1.071   4.669
  174SOL     OW 1420   5.681   4.043   4.712
  174SOL    HW1 1421   5.620   4.091   4.650
  174SOL    HW2 1422   5.632   3.967   4.755
  175SOL     OW 1423   0.675   6.775   2.613
  175SOL    HW1 1424   0.729   6.823   2.682
  175SOL    HW2 1425   0.660   6.681   2.643
  176SOL     OW 1426   6.338   4.277   1.407
  176SOL    HW1 1427   6.313   4.373   1.391
  176SOL    HW2 1428   6.428   4.259   1.369
  177SOL     OW 1429   6.440   1.834   4.097
  177SOL    HW1 1430   6.489   1.919   4.114
  177SOL    HW2 1431   6.342   1.853   4.091
  178SOL     OW 1432   2.472   5.331   4.280
  178SOL    HW1 1433   2.466   5.430   4.292
  178SOL    HW2 1434   2.457   5.286   4.368
  179SOL     OW 1435   3.506   4.155   1.634
  179SOL    HW1 1436   3.488   4.118   1.542
  179SOL    HW2 1437   3.501   4.255   1.630
  180SOL     OW 1438   4.534   1.459   6.308
  180SOL    HW1 1439   4.505   1.543   6.354
  180SOL    HW2 1440   4.607   1.416   6.361
  181SOL     OW 1441   3.298   1.026   5.831
  181SOL    HW1 1442   3.276   1.050   5.925
  181SOL    HW2 1443   3.361   0.948   5.829
  182SOL     OW 1444   2.456   2.876   5.530
  182SOL    HW1 1445   2.440   2.845   5.437
  182SOL    HW2 1446   2.424   2.971   5.540
  183SOL     OW 1447   3.022   0.734   2.955
  183SOL    HW1 1448   3.045   0.810   3.016
  183SOL    HW2 1449   2.923   0.728   2.946
  184SOL     OW 1450   5.103   5.487   3.593
  184SOL    HW1 1451   5.137   5.569   3.548
  184SOL    HW2 1452   5.163   5.410   3.571
  185SOL     OW 1453   0.293   6.664   4.953
  185SOL    HW1 1454   0.367   6.638   4.891
  185SOL    HW2 1455   0.226   6.590   4.958
  186SOL     OW 1456   3.056   6.124   5.348
  186SOL    HW1 1457   3.092   6.165   5.432
  186SOL    HW2 1458   2.972   6.073   5.368
  187SOL     OW 1459   4.149   5.898   0.893
  187SOL    HW1 1460   4.135   5.864   0.800
  187SOL    HW2 1461   4.209   5.835   0.943
  188SOL     OW 1462   1.367   3.366   3.562
  188SOL    HW1 1463   1.286   3.355   3.504
  188SOL    HW2 1464   1.431   3.429   3.519
  189SOL     OW 1465   5.828   4.570   5.713
  189SOL    HW1 1466   5.840   4.663   5.746
  189SOL    HW2 1467   5.847   4.506   5.787
  190SOL     OW 1468   6.482   6.388   0.621
  190SOL    HW1 1469   6.412   6.460   0.615
  190SOL    HW2 1470   6.536   6.388   0.538
  191SOL     OW 1471   2.043   2.517   5.162
  191SOL    HW1 1472   2.114   2.472   5.106
  191SOL    HW2 1473   2.085   2.556   5.244
  192SOL     OW 1474   0.101   6.196   1.455
  192SOL    HW1 1475   0.040   6.136   1.403
  192SOL    HW2 1476   0.164   6.242   1.392
  193SOL     OW 1477   2.591   0.347   2.079
  193SOL    HW1 1478   2.561   0.315   1.989
  193SOL    HW2 1479   2.673   0.404   2.069
  194SOL     OW 1480   4.151   5.968   3.075
  194SOL    HW1 1481   4.070   6.020   3.048
  194SOL    HW2 1482   4.176   5.991   3.169
  195SOL     OW 1483   2.858   0.411   1.024
  195SOL    HW1 1484   2.907   0.371   0.947
  195SOL    HW2 1485   2.904   0.387   1.109
  196SOL     OW 1486   4.016   2.703   0.912
  196SOL    HW1 1487   3.948   2.720   0.841
  196SOL    HW2 1488   3.996   2.615   0.956
  197SOL     OW 1489   2.033   6.070   0.074
  197SOL    HW1 1490   2.031   6.069   0.174
  197SOL    HW2 1491   2.124   6.094   0.042
  198SOL     OW 1492   4.190   6.905   6.479
  198SOL    HW1 1493   4.217   6.898   6.383
  198SOL    HW2 1494   4.271   6.916   6.536
  199SOL     OW 1495   1.339   0.834   2.699
  199SOL    HW1 1496   1.365   0.871   2.789
  199SOL    HW2 1497   1.396   0.754   2.679
  200SOL     OW 1498   0.951   3.513   4.114
  200SOL    HW1 1499   0.949   3.579   4.039
  200SOL    HW2 1500   1.027   3.449   4.100
  201SOL     OW 1501   4.263   1.535   6.172
  201SOL    HW1 1502   4.205   1.532   6.253
  201SOL    HW2 1503   4.288   1.630   6.153
  202SOL     OW 1504   3.780   0.627   2.793
  202SOL    HW1 1505   3.856   0.584   2.842
  202SOL    HW2 1506   3.804   0.637   2.696
  203SOL     OW 1507   6.113   2.325   0.375
  203SOL    HW1 1508   6.206   2.301   0.403
  203SOL    HW2 1509   6.116   2.405   0.316
  204SOL     OW 1510   2.160   6.644   1.182
  204SOL    HW1 1511   2.119   6.711   1.244
  204SOL    HW2 1512   2.260   6.649   1.188
  205SOL     OW 1513   5.768   0.344   1.403
  205SOL    HW1 1514   5.796   0.438   1.385
  205SOL    HW2 1515   5.669   0.335   1.390
  206SOL     OW 1516   6.881   6.271   1.625
  206SOL    HW1 1517   6.919   6.362   1.637
  206SOL    HW2 1518   6.948   6.212   1.580
  207SOL     OW 1519   5.665   1.970   6.105
  207SOL    HW1 1520   5.707   1.937   6.020
  207SOL    HW2 1521   5.575   2.008   6.086
  208SOL     OW 1522   4.127   4.420   6.872
  208SOL    HW1 1523   4.209   4.418   6.815
  208SOL    HW2 1524   4.048   4.441   6.815
  209SOL     OW 1525   0.092   5.624   4.195
  209SOL    HW1 1526   0.183   5.640   4.158
  209SOL    HW2 1527   0.024   5.672   4.138
  210SOL     OW 1528   4.243   2.116   0.801
  210SOL    HW1 1529   4.261   2.197   0.858
  210SOL    HW2 1530   4.190   2.050   0.854
  211SOL     OW 1531   0.991   3.185   1.586
  211SOL    HW1 1532   1.087   3.163   1.570
  211SOL    HW2 1533   0.965   3.158   1.679
  212SOL     OW 1534   0.281   5.261   4.775
  212SOL    HW1 1535   0.258   5.181   4.719
  212SOL    HW2 1536   0.328   5.329   4.719
  213SOL     OW 1537   3.698   2.295   7.022
  213SOL    HW1 1538   3.743   2.337   0.074
  213SOL    HW2 1539   3.613   2.251   0.026
  214SOL     OW 1540   1.916   6.656   3.596
  214SOL    HW1 1541   1.850   6.690   3.529
  214SOL    HW2 1542   1.890   6.687   3.688
  215SOL     OW 1543   3.688   4.096   2.540
  215SOL    HW1 1544   3.726   4.129   2.627
  215SOL    HW2 1545   3.591   4.116   2.536
  216SOL     OW 1546   2.480   0.116   5.852
  216SOL    HW1 1547   2.516   0.154   5.767
  216SOL    HW2 1548   2.403   0.171   5.883
  217SOL     OW 1549   6.934   2.553   5.109
  217SOL    HW1 1550   6.950   2.511   5.198
  217SOL    HW2 1551   6.899   2.646   5.121
  218SOL     OW 1552   2.393   3.809   5.915
  218SOL    HW1 1553   2.423   3.867   5.990
  218SOL    HW2 1554   2.308   3.845   5.876
  219SOL     OW 1555   3.391   5.539   6.805
  219SOL    HW1 1556   3.371   5.525   6.708
  219SOL    HW2 1557   3.478   5.587   6.814
  220SOL     OW 1558   1.687   4.263   0.715
  220SOL    HW1 1559   1.653   4.207   0.790
  220SOL    HW2 1560   1.712   4.353   0.749
  221SOL     OW 1561   6.005   2.912   4.253
  221SOL    HW1 1562   5.985   2.817   4.228
  221SOL    HW2 1563   5.954   2.973   4.192
  222SOL     OW 1564   1.889   6.126   4.697
  222SOL    HW1 1565   1.951   6.147   4.621
  222SOL    HW2 1566   1.905   6.190   4.772
  223SOL     OW 1567   6.070   4.963   2.596
  223SOL    HW1 1568   5.971   4.964   2.584
  223SOL    HW2 1569   6.093   4.909   2.678
  224SOL     OW 1570   4.138   2.251   2.247
  224SOL    HW1 1571   4.143   2.206   2.158
  224SOL    HW2 1572   4.054   2.305   2.252
  225SOL     OW 1573   5.361   0.038   1.430
  225SOL    HW1 1574   5.271   0.044   1.475
  225SOL    HW2 1575   5.358   6.993   1.361
  226SOL     OW 1576   7.000   5.614   2.206
  226SOL    HW1 1577   7.013   5.612   2.107
  226SOL    HW2 1578   0.061   5.594   2.251
  227SOL     OW 1579   1.122   3.496   3.169
  227SOL    HW1 1580   1.219   3.493   3.194
  227SOL    HW2 1581   1.089   3.590   3.175
  228SOL     OW 1582   3.977   6.225   2.541
  228SOL    HW1 1583   3.892   6.182   2.574
  228SOL    HW2 1584   4.025   6.161   2.481
  229SOL     OW 1585   6.332   5.144   2.778
  229SOL    HW1 1586   6.357   5.062   2.726
  229SOL    HW2 1587   6.273   5.119   2.854
  230SOL     OW 1588   0.843   4.150   6.387
  230SOL    HW1 1589   0.831   4.088   6.309
  230SOL    HW2 1590   0.897   4.229   6.360
  231SOL     OW 1591   0.726   1.942   6.690
  231SOL    HW1 1592   0.783   1.918   6.768
  231SOL    HW2 1593   0.637   1.975   6.722
  232SOL     OW 1594   1.328   4.340   6.701
  232SOL    HW1 1595   1.423   4.345   6.669
  232SOL    HW2 1596   1.274   4.288   6.635
  233SOL     OW 1597   3.207   6.962   6.894
  233SOL    HW1 1598   3.274   7.003   6.831
  233SOL    HW2 1599   3.237   6.870   6.917
  234SOL     OW 1600   2.965   5.179   5.987
  234SOL    HW1 1601   2.963   5.106   5.919
  234SOL    HW2 1602   3.012   5.258   5.949
  235SOL     OW 1603   3.149   3.663   5.799
  235SOL    HW1 1604   3.081   3.701   5.860
  235SOL    HW2 1605   3.107   3.592   5.742
  236SOL     OW 1606   0.214   2.321   6.012
  236SOL    HW1 1607   0.298   2.270   5.994
  236SOL    HW2 1608   0.135   2.265   5.987
  237SOL     OW 1609   6.691   6.657   1.610
  237SOL    HW1 1610   6.691   6.614   1.701
  237SOL    HW2 1611   6.765   6.618   1.555
  238SOL     OW 1612   0.212   2.006   2.687
  238SOL    HW1 1613   0.122   1.968   2.663
  238SOL    HW2 1614   0.257   1.945   2.752
  239SOL     OW 1615   6.592   4.918   0.766
  239SOL    HW1 1616   6.550   4.931   0.676
  239SOL    HW2 1617   6.675   4.864   0.757
  240SOL     OW 1618   0.030   2.369   5.700
  240SOL    HW1 1619   0.081   2.453   5.682
  240SOL    HW2 1620   0.072   2.293   5.650
  241SOL     OW 1621   5.939   2.138   4.259
  241SOL    HW1 1622   6.028   2.132   4.305
  241SOL    HW2 1623   5.870   2.088   4.311
  242SOL     OW 1624   3.020   2.216   4.027
  242SOL    HW1 1625   2.996   2.213   3.929
  242SOL    HW2 1626   2.939   2.241   4.080
  243SOL     OW 1627   4.444   1.661   6.443
  243SOL    HW1 1628   4.347   1.638   6.445
  243SOL    HW2 1629   4.473   1.695   6.532
  244SOL     OW 1630   0.372   1.287   5.964
  244SOL    HW1 1631   0.317   1.205   5.951
  244SOL    HW2 1632   0.312   1.366   5.975
  245SOL     OW 1633   5.203   2.376   3.893
  245SOL    HW1 1634   5.157   2.400   3.808
  245SOL    HW2 1635   5.150   2.305   3.940
  246SOL     OW 1636   4.843   3.139   3.568
  246SOL    HW1 1637   4.819   3.229   3.604
  246SOL    HW2 1638   4.927   3.107   3.611
  247SOL     OW 1639   2.861   0.496   2.830
  247SOL    HW1 1640   2.944   0.486   2.883
  247SOL    HW2 1641   2.884   0.522   2.736
  248SOL     OW 1642   6.902   1.573   1.909
  248SOL    HW1 1643   6.830   1.641   1.898
  248SOL    HW2 1644   6.932   1.541   1.819
  249SOL     OW 1645   2.036   6.006   4.994
  249SOL    HW1 1646   2.083   6.039   5.076
  249SOL    HW2 1647   1.975   6.077   4.960
  250SOL     OW 1648   5.566   2.479   0.060
  250SOL    HW1 1649   5.564   2.408   7.015
  250SOL    HW2 1650   5.529   2.441   0.145
  251SOL     OW 1651   1.849   1.949   0.459
  251SOL    HW1 1652   1.833   1.871   0.520
  251SOL    HW2 1653   1.932   1.932   0.406
  252SOL     OW 1654   0.617   1.490   0.497
  252SOL    HW1 1655   0.683   1.503   0.571
  252SOL    HW2 1656   0.569   1.403   0.510
  253SOL     OW 1657   1.753   4.342   5.965
  253SOL    HW1 1658   1.699   4.410   6.014
  253SOL    HW2 1659   1.846   4.377   5.952
  254SOL     OW 1660   4.863   3.900   6.278
  254SOL    HW1 1661   4.903   3.810   6.257
  254SOL    HW2 1662   4.768   3.888   6.308
  255SOL     OW 1663   3.893   1.914   2.327
  255SOL    HW1 1664   3.837   1.915   2.244
  255SOL    HW2 1665   3.963   1.843   2.319
  256SOL     OW 1666   6.619   5.686   1.796
  256SOL    HW1 1667   6.703   5.696   1.743
  256SOL    HW2 1668   6.550   5.750   1.761
  257SOL     OW 1669   2.740   6.084   6.527
  257SOL    HW1 1670   2.718   5.987   6.520
  257SOL    HW2 1671   2.717   6.130   6.441
  258SOL     OW 1672   4.446   4.500   4.207
  258SOL    HW1 1673   4.504   4.569   4.163
  258SOL    HW2 1674   4.402   4.444   4.138
  259SOL     OW 1675   0.944   2.352   2.720
  259SOL    HW1 1676   0.962   2.332   2.816
  259SOL    HW2 1677   0.851   2.325   2.698
  260SOL     OW 1678   6.831   6.839   5.456
  260SOL    HW1 1679   6.881   6.825   5.371
  260SOL    HW2 1680   6.873   6.783   5.528
  261SOL     OW 1681   0.302   0.917   3.638
  261SOL    HW1 1682   0.282   0.999   3.691
  261SOL    HW2 1683   0.400   0.900   3.638
  262SOL     OW 1684   1.047   4.815   2.377
  262SOL    HW1 1685   0.990   4.740   2.412
  262SOL    HW2 1686   1.126   4.776   2.329
  263SOL     OW 1687   0.084   3.544   4.628
  263SOL    HW1 1688   0.051   3.450   4.630
  263SOL    HW2 1689   0.144   3.557   4.549
  264SOL     OW 1690   3.418   4.602   0.079
  264SOL    HW1 1691   3.426   4.514   0.124
  264SOL    HW2 1692   3.360   4.663   0.134
  265SOL     OW 1693   4.683   5.527   3.892
  265SOL    HW1 1694   4.613   5.562   3.830
  265SOL    HW2 1695   4.726   5.447   3.852
  266SOL     OW 1696   3.975   3.125   6.823
  266SOL    HW1 1697   4.053   3.173   6.862
  266SOL    HW2 1698   3.946   3.052   6.885
  267SOL     OW 1699   1.946   2.504   5.884
  267SOL    HW1 1700   1.940   2.550   5.796
  267SOL    HW2 1701   2.028   2.534   5.932
  268SOL     OW 1702   2.822   4.888   4.132
  268SOL    HW1 1703   2.827   4.794   4.099
  268SOL    HW2 1704   2.777   4.945   4.063
  269SOL     OW 1705   1.907   1.945   5.090
  269SOL    HW1 1706   1.877   1.868   5.148
  269SOL    HW2 1707   1.827   1.999   5.063
  270SOL     OW 1708   4.956   6.549   4.873
  270SOL    HW1 1709   4.874   6.559   4.818
  270SOL    HW2 1710   5.029   6.605   4.835
  271SOL     OW 1711   1.801   1.769   0.238
  271SOL    HW1 1712   1.878   1.831   0.254
  271SOL    HW2 1713   1.816   1.684   0.289
  272SOL     OW 1714   4.646   5.459   0.487
  272SOL    HW1 1715   4.746   5.463   0.480
  272SOL    HW2 1716   4.621   5.414   0.573
  273SOL     OW 1717   1.952   6.657   4.106
  273SOL    HW1 1718   2.049   6.633   4.098
  273SOL    HW2 1719   1.931   6.687   4.199
  274SOL     OW 1720   5.648   1.958   1.362
  274SOL    HW1 1721   5.612   2.051   1.356
  274SOL    HW2 1722   5.735   1.959   1.413
  275SOL     OW 1723   5.393   5.816   5.735
  275SOL    HW1 1724   5.331   5.766   5.675
  275SOL    HW2 1725   5.350   5.828   5.825
  276SOL     OW 1726   0.264   6.859   4.399
  276SOL    HW1 1727   0.193   6.833   4.334
  276SOL    HW2 1728   0.304   6.947   4.373
  277SOL     OW 1729   4.336   2.842   5.538
  277SOL    HW1 1730   4.390   2.885   5.610
  277SOL    HW2 1731   4.390   2.771   5.493
  278SOL     OW 1732   5.569   4.308   2.942
  278SOL    HW1 1733   5.520   4.320   3.028
  278SOL    HW2 1734   5.554   4.215   2.908
  279SOL     OW 1735   6.918   3.749   3.547
  279SOL    HW1 1736   7.001   3.766   3.600
  279SOL    HW2 1737   6.838   3.776   3.601
  280SOL     OW 1738   4.111   1.392   3.712
  280SOL    HW1 1739   4.039   1.362   3.775
  280SOL    HW2 1740   4.157   1.473   3.750
  281SOL     OW 1741   5.234   6.228   5.061
  281SOL    HW1 1742   5.294   6.299   5.026
  281SOL    HW2 1743   5.138   6.254   5.044
  282SOL     OW 1744   0.796   2.785   0.467
  282SOL    HW1 1745   0.733   2.840   0.411
  282SOL    HW2 1746   0.753   2.761   0.553
  283SOL     OW 1747   6.620   4.061   4.229
  283SOL    HW1 1748   6.609   4.105   4.318
  283SOL    HW2 1749   6.660   3.971   4.241
  284SOL     OW 1750   5.063   6.674   2.374
  284SOL    HW1 1751   4.979   6.620   2.381
  284SOL    HW2 1752   5.082   6.717   2.462
  285SOL     OW 1753   3.964   6.548   5.535
  285SOL    HW1 1754   3.983   6.486   5.611
  285SOL    HW2 1755   3.878   6.521   5.491
  286SOL     OW 1756   2.789   4.814   5.514
  286SOL    HW1 1757   2.889   4.809   5.511
  286SOL    HW2 1758   2.750   4.734   5.468
  287SOL     OW 1759   3.782   5.987   6.687
  287SOL    HW1 1760   3.825   5.909   6.733
  287SOL    HW2 1761   3.753   6.054   6.756
  288SOL     OW 1762   4.295   1.481   0.090
  288SOL    HW1 1763   4.367   1.539   0.051
  288SOL    HW2 1764   4.207   1.509   0.053
  289SOL     OW 1765   5.746   4.928   4.580
  289SOL    HW1 1766   5.745   4.835   4.544
  289SOL    HW2 1767   5.672   4.981   4.538
  290SOL     OW 1768   3.456   0.311   5.845
  290SOL    HW1 1769   3.543   0.263   5.855
  290SOL    HW2 1770   3.381   0.245   5.853
  291SOL     OW 1771   4.344   0.667   5.219
  291SOL    HW1 1772   4.357   0.568   5.209
  291SOL    HW2 1773   4.423   0.706   5.265
  292SOL     OW 1774   3.270   0.393   4.167
  292SOL    HW1 1775   3.184   0.435   4.140
  292SOL    HW2 1776   3.345   0.458   4.155
  293SOL     OW 1777   4.671   6.911   2.879
  293SOL    HW1 1778   4.700   6.989   2.934
  293SOL    HW2 1779   4.579   6.928   2.843
  294SOL     OW 1780   6.738   1.165   6.586
  294SOL    HW1 1781   6.763   1.082   6.536
  294SOL    HW2 1782   6.816   1.228   6.585
  295SOL     OW 1783   0.501   0.560   4.621
  295SOL    HW1 1784   0.423   0.551   4.683
  295SOL    HW2 1785   0.487   0.500   4.542
  296SOL     OW 1786   0.599   2.176   1.357
  296SOL    HW1 1787   0.604   2.210   1.263
  296SOL    HW2 1788   0.672   2.217   1.412
  297SOL     OW 1789   5.286   3.123   3.342
  297SOL    HW1 1790   5.357   3.061   3.308
  297SOL    HW2 1791   5.275   3.199   3.277
  298SOL     OW 1792   4.264   1.162   6.023
  298SOL    HW1 1793   4.354   1.122   6.039
  298SOL    HW2 1794   4.229   1.201   6.108
  299SOL     OW 1795   0.672   1.442   6.557
  299SOL    HW1 1796   0.592   1.441   6.617
  299SOL    HW2 1797   0.705   1.348   6.545
  300SOL     OW 1798   4.941   6.624   3.367
  300SOL    HW1 1799   5.033   6.616   3.328
  300SOL    HW2 1800   4.895   6.536   3.363
  301SOL     OW 1801   6.876   5.639   5.979
  301SOL    HW1 1802   6.907   5.653   5.885
  301SOL    HW2 1803   6.893   5.544   6.006
  302SOL     OW 1804   0.286   6.675   3.083
  302SOL    HW1 1805   0.260   6.738   3.156
  302SOL    HW2 1806   0.259   6.713   2.994
  303SOL     OW 1807   5.704   6.205   2.434
  303SOL    HW1 1808   5.695   6.116   2.390
  303SOL    HW2 1809   5.756   6.266   2.374
  304SOL     OW 1810   1.799   6.801   4.637
  304SOL    HW1 1811   1.717   6.796   4.580
  304SOL    HW2 1812   1.790   6.739   4.715
  305SOL     OW 1813   0.625   2.021   1.082
  305SOL    HW1 1814   0.624   1.924   1.105
  305SOL    HW2 1815   0.564   2.037   1.004
  306SOL     OW 1816   0.501   6.599   2.766
  306SOL    HW1 1817   0.530   6.641   2.852
  306SOL    HW2 1818   0.514   6.500   2.771
  307SOL     OW 1819   3.985   3.824   3.405
  307SOL    HW1 1820   3.991   3.849   3.501
  307SOL    HW2 1821   4.049   3.750   3.385
  308SOL     OW 1822   6.986   1.874   2.598
  308SOL    HW1 1823   6.915   1.944   2.590
  308SOL    HW2 1824   6.944   1.788   2.626
  309SOL     OW 1825   1.841   4.896   0.256
  309SOL    HW1 1826   1.859   4.861   0.348
  309SOL    HW2 1827   1.778   4.973   0.262
  310SOL     OW 1828   5.355   6.525   5.169
  310SOL    HW1 1829   5.256   6.518   5.171
  310SOL    HW2 1830   5.393   6.449   5.116
  311SOL     OW 1831   1.222   6.061   1.798
  311SOL    HW1 1832   1.313   6.044   1.760
  311SOL    HW2 1833   1.164   6.104   1.729
  312SOL     OW 1834   3.414   0.812   4.075
  312SOL    HW1 1835   3.499   0.836   4.028
  312SOL    HW2 1836   3.426   0.725   4.123
  313SOL     OW 1837   3.037   3.189   2.706
  313SOL    HW1 1838   3.105   3.262   2.695
  313SOL    HW2 1839   3.059   3.115   2.643
  314SOL     OW 1840   2.634   5.859   6.451
  314SOL    HW1 1841   2.588   5.770   6.441
  314SOL    HW2 1842   2.649   5.900   6.361
  315SOL     OW 1843   5.284   0.232   4.680
  315SOL    HW1 1844   5.330   0.275   4.602
  315SOL    HW2 1845   5.235   0.302   4.732
  316SOL     OW 1846   3.248   0.880   6.762
  316SOL    HW1 1847   3.306   0.936   6.821
  316SOL    HW2 1848   3.211   0.937   6.689
  317SOL     OW 1849   0.386   2.372   1.117
  317SOL    HW1 1850   0.481   2.403   1.126
  317SOL    HW2 1851   0.365   2.309   1.192
  318SOL     OW 1852   1.245   0.525   4.125
  318SOL    HW1 1853   1.233   0.600   4.061
  318SOL    HW2 1854   1.292   0.449   4.080
  319SOL     OW 1855   0.418   0.662   3.330
  319SOL    HW1 1856   0.450   0.617   3.413
  319SOL    HW2 1857   0.335   0.714   3.349
  320SOL     OW 1858   5.029   1.666   0.480
  320SOL    HW1 1859   4.963   1.713   0.422
  320SOL    HW2 1860   5.105   1.728   0.500
  321SOL     OW 1861   4.323   3.184   1.062
  321SOL    HW1 1862   4.416   3.157   1.036
  321SOL    HW2 1863   4.289   3.123   1.134
  322SOL     OW 1864   3.370   2.635   6.487
  322SOL    HW1 1865   3.371   2.667   6.582
  322SOL    HW2 1866   3.339   2.540   6.484
  323SOL     OW 1867   1.415   3.751   2.121
  323SOL    HW1 1868   1.499   3.777   2.167
  323SOL    HW2 1869   1.390   3.658   2.146
  324SOL     OW 1870   0.725   6.995   3.472
  324SOL    HW1 1871   0.798   6.934   3.503
  324SOL    HW2 1872   0.757   0.022   3.394
  325SOL     OW 1873   6.610   3.531   0.655
  325SOL    HW1 1874   6.555   3.495   0.729
  325SOL    HW2 1875   6.598   3.631   0.650
  326SOL     OW 1876   0.314   5.866   0.025
  326SOL    HW1 1877   0.239   5.800   0.016
  326SOL    HW2 1878   0.290   5.951   7.005
  327SOL     OW 1879   3.966   5.897   5.830
  327SOL    HW1 1880   4.059   5.880   5.797
  327SOL    HW2 1881   3.969   5.921   5.927
  328SOL     OW 1882   1.587   4.607   3.398
  328SOL    HW1 1883   1.534   4.676   3.449
  328SOL    HW2 1884   1.557   4.516   3.424
  329SOL     OW 1885   3.336   2.879   2.275
  329SOL    HW1 1886   3.291   2.859   2.188
  329SOL    HW2 1887   3.428   2.839   2.275
  330SOL     OW 1888   2.991   3.448   0.391
  330SOL    HW1 1889   2.937   3.437   0.474
  330SOL    HW2 1890   2.932   3.440   0.310
  331SOL     OW 1891   5.328   5.029   5.129
  331SOL    HW1 1892   5.423   5.003   5.143
  331SOL    HW2 1893   5.268   4.972   5.186
  332SOL     OW 1894   5.768   2.151   2.636
  332SOL    HW1 1895   5.722   2.063   2.621
  332SOL    HW2 1896   5.703   2.216   2.675
  333SOL     OW 1897   3.374   7.001   4.306
  333SOL    HW1 1898   3.359   6.995   4.404
  333SOL    HW2 1899   3.460   0.024   4.288
  334SOL     OW 1900   3.697   3.706   3.686
  334SOL    HW1 1901   3.733   3.615   3.667
  334SOL    HW2 1902   3.763   3.757   3.743
  335SOL     OW 1903   3.513   1.244   1.125
  335SOL    HW1 1904   3.601   1.239   1.078
  335SOL    HW2 1905   3.514   1.186   1.206
  336SOL     OW 1906   4.768   1.715   4.864
  336SOL    HW1 1907   4.675   1.689   4.837
  336SOL    HW2 1908   4.814   1.758   4.787
  337SOL     OW 1909   6.965   1.195   5.371
  337SOL    HW1 1910   6.878   1.164   5.333
  337SOL    HW2 1911   6.984   1.144   5.455
  338SOL     OW 1912   4.590   1.546   1.661
  338SOL    HW1 1913   4.499   1.553   1.703
  338SOL    HW2 1914   4.659   1.576   1.728
  339SOL     OW 1915   4.166   5.227   5.906
  339SOL    HW1 1916   4.108   5.256   5.982
  339SOL    HW2 1917   4.210   5.307   5.865
  340SOL     OW 1918   5.531   2.956   4.728
  340SOL    HW1 1919   5.535   2.857   4.735
  340SOL    HW2 1920   5.557   2.985   4.636
  341SOL     OW 1921   0.276   6.892   2.873
  341SOL    HW1 1922   0.321   6.881   2.785
  341SOL    HW2 1923   0.270   6.990   2.895
  342SOL     OW 1924   4.614   1.814   2.479
  342SOL    HW1 1925   4.679   1.880   2.515
  342SOL    HW2 1926   4.539   1.802   2.544
  343SOL     OW 1927   5.996   6.910   1.270
  343SOL    HW1 1928   5.985   6.842   1.343
  343SOL    HW2 1929   5.943   6.992   1.293
  344SOL     OW 1930   6.880   3.045   1.972
  344SOL    HW1 1931   6.936   3.030   1.891
  344SOL    HW2 1932   6.802   2.982   1.971
  345SOL     OW 1933   7.015   2.594   4.769
  345SOL    HW1 1934   0.038   2.656   4.831
  345SOL    HW2 1935   0.051   2.561   4.699
  346SOL     OW 1936   2.400   6.301   3.396
  346SOL    HW1 1937   2.451   6.270   3.315
  346SOL    HW2 1938   2.310   6.335   3.367
  347SOL     OW 1939   2.445   4.958   0.775
  347SOL    HW1 1940   2.389   4.895   0.829
  347SOL    HW2 1941   2.518   4.996   0.832
  348SOL     OW 1942   3.860   5.068   1.969
  348SOL    HW1 1943   3.896   4.975   1.980
  348SOL    HW2 1944   3.935   5.134   1.971
  349SOL     OW 1945   5.264   4.155   0.372
  349SOL    HW1 1946   5.351   4.196   0.345
  349SOL    HW2 1947   5.199   4.228   0.397
  350SOL     OW 1948   2.461   1.612   6.779
  350SOL    HW1 1949   2.500   1.536   6.727
  350SOL    HW2 1950   2.398   1.664   6.721
  351SOL     OW 1951   3.425   4.198   0.917
  351SOL    HW1 1952   3.398   4.114   0.868
  351SOL    HW2 1953   3.343   4.249   0.943
  352SOL     OW 1954   4.491   0.103   2.343
  352SOL    HW1 1955   4.541   0.185   2.371
  352SOL    HW2 1956   4.393   0.119   2.353
  353SOL     OW 1957   1.631   6.963   0.785
  353SOL    HW1 1958   1.726   6.948   0.756
  353SOL    HW2 1959   1.627   6.965   0.885
  354SOL     OW 1960   0.844   2.583   0.287
  354SOL    HW1 1961   0.842   2.650   0.362
  354SOL    HW2 1962   0.876   2.495   0.323
  355SOL     OW 1963   0.897   2.876   3.256
  355SOL    HW1 1964   0.930   2.958   3.303
  355SOL    HW2 1965   0.969   2.839   3.198
  356SOL     OW 1966   2.910   0.169   5.339
  356SOL    HW1 1967   2.931   0.185   5.243
  356SOL    HW2 1968   2.847   0.240   5.371
  357SOL     OW 1969   6.138   6.740   4.139
  357SOL    HW1 1970   6.053   6.782   4.107
  357SOL    HW2 1971   6.210   6.810   4.143
  358SOL     OW 1972   3.163   6.132   6.455
  358SOL    HW1 1973   3.187   6.184   6.373
  358SOL    HW2 1974   3.101   6.058   6.431
  359SOL     OW 1975   1.200   2.046   1.781
  359SOL    HW1 1976   1.212   2.138   1.743
  359SOL    HW2 1977   1.181   2.053   1.879
  360SOL     OW 1978   2.151   4.366   3.601
  360SOL    HW1 1979   2.152   4.325   3.510
  360SOL    HW2 1980   2.137   4.295   3.670
  361SOL     OW 1981   0.360   1.781   2.256
  361SOL    HW1 1982   0.291   1.787   2.328
  361SOL    HW2 1983   0.346   1.697   2.204
  362SOL     OW 1984   3.686   3.255   1.607
  362SOL    HW1 1985   3.778   3.218   1.612
  362SOL    HW2 1986   3.666   3.307   1.690
  363SOL     OW 1987   4.850   5.249   1.548
  363SOL    HW1 1988   4.875   5.299   1.631
  363SOL    HW2 1989   4.827   5.313   1.476
  364SOL     OW 1990   1.029   6.923   0.007
  364SOL    HW1 1991   1.100   6.983   0.043
  364SOL    HW2 1992   1.030   6.926   6.933
  365SOL     OW 1993   5.755   1.215   3.929
  365SOL    HW1 1994   5.809   1.159   3.991
  365SOL    HW2 1995   5.794   1.210   3.837
  366SOL     OW 1996   5.586   1.722   0.018
  366SOL    HW1 1997   5.563   1.631   7.008
  366SOL    HW2 1998   5.542   1.734   0.107
  367SOL     OW 1999   5.332   1.068   6.841
  367SOL    HW1 2000   5.395   1.067   6.763
  367SOL    HW2 2001   5.323   1.161   6.875
  368SOL     OW 2002   1.071   1.701   5.415
  368SOL    HW1 2003   1.002   1.698   5.343
  368SOL    HW2 2004   1.142   1.767   5.389
  369SOL     OW 2005   5.761   4.126   0.569
  369SOL    HW1 2006   5.673   4.154   0.607
  369SOL    HW2 2007   5.808   4.065   0.633
  370SOL     OW 2008   2.434   2.549   3.541
  370SOL    HW1 2009   2.440   2.645   3.513
  370SOL    HW2 2010   2.339   2.520   3.545
  371SOL     OW 2011   1.080   5.927   6.800
  371SOL    HW1 2012   1.014   5.883   6.860
  371SOL    HW2 2013   1.140   5.987   6.853
  372SOL     OW 2014   2.704   6.017   5.789
  372SOL    HW1 2015   2.678   5.928   5.825
  372SOL    HW2 2016   2.637   6.046   5.720
  373SOL     OW 2017   6.299   4.564   3.050
  373SOL    HW1 2018   6.342   4.589   3.138
  373SOL    HW2 2019   6.244   4.482   3.062
  374SOL     OW 2020   2.971   1.772   2.367
  374SOL    HW1 2021   3.022   1.832   2.428
  374SOL    HW2 2022   2.908   1.826   2.312
  375SOL     OW 2023   1.358   5.626   4.089
  375SOL    HW1 2024   1.340   5.538   4.131
  375SOL    HW2 2025   1.275   5.659   4.043
  376SOL     OW 2026   4.078   0.487   3.636
  376SOL    HW1 2027   4.164   0.471   3.684
  376SOL    HW2 2028   4.002   0.464   3.697
  377SOL     OW 2029   2.101   1.976   6.502
  377SOL    HW1 2030   2.048   1.904   6.548
  377SOL    HW2 2031   2.196   1.972   6.533
  378SOL     OW 2032   3.808   1.552   2.315
  378SOL    HW1 2033   3.859   1.634   2.287
  378SOL    HW2 2034   3.710   1.574   2.319
  379SOL     OW 2035   4.290   2.133   5.946
  379SOL    HW1 2036   4.234   2.212   5.973
  379SOL    HW2 2037   4.231   2.063   5.907
  380SOL     OW 2038   4.292   2.403   0.429
  380SOL    HW1 2039   4.351   2.473   0.391
  380SOL    HW2 2040   4.348   2.325   0.459
  381SOL     OW 2041   2.007   3.792   2.813
  381SOL    HW1 2042   1.913   3.759   2.826
  381SOL    HW2 2043   2.060   3.775   2.896
  382SOL     OW 2044   6.158   0.641   6.635
  382SOL    HW1 2045   6.231   0.572   6.642
  382SOL    HW2 2046   6.174   0.699   6.555
  383SOL     OW 2047   4.698   2.893   0.387
  383SOL    HW1 2048   4.652   2.875   0.474
  383SOL    HW2 2049   4.641   2.952   0.330
  384SOL     OW 2050   6.559   3.843   5.076
  384SOL    HW1 2051   6.558   3.754   5.122
  384SOL    HW2 2052   6.467   3.882   5.078
  385SOL     OW 2053   4.680   3.264   0.280
  385SOL    HW1 2054   4.643   3.180   0.242
  385SOL    HW2 2055   4.647   3.342   0.227
  386SOL     OW 2056   4.328   6.369   4.252
  386SOL    HW1 2057   4.308   6.273   4.232
  386SOL    HW2 2058   4.392   6.375   4.329
  387SOL     OW 2059   2.684   5.907   4.395
  387SOL    HW1 2060   2.741   5.828   4.417
  387SOL    HW2 2061   2.714   5.947   4.309
  388SOL     OW 2062   0.925   4.622   6.830
  388SOL    HW1 2063   0.876   4.544   6.869
  388SOL    HW2 2064   1.011   4.636   6.881
  389SOL     OW 2065   3.265   3.002   1.727
  389SOL    HW1 2066   3.257   2.935   1.801
  389SOL    HW2 2067   3.361   3.017   1.706
  390SOL     OW 2068   2.251   1.101   4.610
  390SOL    HW1 2069   2.271   1.129   4.703
  390SOL    HW2 2070   2.201   1.014   4.611
  391SOL     OW 2071   1.440   2.283   0.074
  391SOL    HW1 2072   1.343   2.297   0.052
  391SOL    HW2 2073   1.476   2.208   0.019
  392SOL     OW 2074   3.316   5.642   3.730
  392SOL    HW1 2075   3.338   5.546   3.709
  392SOL    HW2 2076   3.261   5.680   3.656
  393SOL     OW 2077   6.285   3.972   5.020
  393SOL    HW1 2078   6.198   3.925   5.005
  393SOL    HW2 2079   6.307   4.027   4.939
  394SOL     OW 2080   2.287   1.206   6.053
  394SOL    HW1 2081   2.377   1.184   6.015
  394SOL    HW2 2082   2.236   1.121   6.066
  395SOL     OW 2083   6.374   3.311   1.480
  395SOL    HW1 2084   6.308   3.380   1.453
  395SOL    HW2 2085   6.327   3.225   1.500
  396SOL     OW 2086   3.540   2.888   5.303
  396SOL    HW1 2087   3.560   2.919   5.396
  396SOL    HW2 2088   3.625   2.884   5.250
  397SOL     OW 2089   3.762   1.732   6.996
  397SOL    HW1 2090   3.679   1.726   6.940
  397SOL    HW2 2091   3.790   1.640   7.023
  398SOL     OW 2092   1.150   4.913   2.851
  398SOL    HW1 2093   1.125   4.940   2.758
  398SOL    HW2 2094   1.075   4.860   2.892
  399SOL     OW 2095   5.404   4.705   2.684
  399SOL    HW1 2096   5.460   4.630   2.649
  399SOL    HW2 2097   5.411   4.708   2.784
  400SOL     OW 2098   2.309   4.955   4.298
  400SOL    HW1 2099   2.321   4.870   4.351
  400SOL    HW2 2100   2.343   4.941   4.205
  401SOL     OW 2101   5.479   1.187   0.224
  401SOL    HW1 2102   5.416   1.111   0.245
  401SOL    HW2 2103   5.509   1.229   0.309
  402SOL     OW 2104   6.526   4.650   1.397
  402SOL    HW1 2105   6.574   4.636   1.310
  402SOL    HW2 2106   6.592   4.645   1.472
  403SOL     OW 2107   5.212   3.943   0.225
  403SOL    HW1 2108   5.233   3.958   0.128
  403SOL    HW2 2109   5.221   4.030   0.275
  404SOL     OW 2110   0.239   6.568   4.536
  404SOL    HW1 2111   0.243   6.632   4.460
  404SOL    HW2 2112   0.301   6.599   4.609
  405SOL     OW 2113   0.860   2.615   1.067
  405SOL    HW1 2114   0.916   2.549   1.017
  405SOL    HW2 2115   0.919   2.689   1.101
  406SOL     OW 2116   0.955   3.008   2.839
  406SOL    HW1 2117   0.863   3.046   2.844
  406SOL    HW2 2118   0.966   2.935   2.906
  407SOL     OW 2119   2.766   1.359   3.484
  407SOL    HW1 2120   2.770   1.459   3.493
  407SOL    HW2 2121   2.701   1.322   3.550
  408SOL     OW 2122   1.750   0.673   2.977
  408SOL    HW1 2123   1.802   0.663   2.892
  408SOL    HW2 2124   1.809   0.652   3.055
  409SOL     OW 2125   6.066   3.515   3.688
  409SOL    HW1 2126   6.133   3.494   3.618
  409SOL    HW2 2127   6.070   3.446   3.761
  410SOL     OW 2128   2.828   0.340   6.506
  410SOL    HW1 2129   2.872   0.391   6.580
  410SOL    HW2 2130   2.846   0.385   6.419
  411SOL     OW 2131   0.338   3.702   5.050
  411SOL    HW1 2132   0.240   3.695   5.066
  411SOL    HW2 2133   0.386   3.628   5.098
  412SOL     OW 2134   3.888   0.733   2.134
  412SOL    HW1 2135   3.792   0.748   2.160
  412SOL    HW2 2136   3.906   0.635   2.129
  413SOL     OW 2137   2.536   0.488   2.442
  413SOL    HW1 2138   2.459   0.441   2.485
  413SOL    HW2 2139   2.622   0.444   2.470
  414SOL     OW 2140   4.559   3.815   7.025
  414SOL    HW1 2141   4.540   3.883   0.070
  414SOL    HW2 2142   4.619   3.744   0.036
  415SOL     OW 2143   3.574   6.183   2.314
  415SOL    HW1 2144   3.660   6.132   2.321
  415SOL    HW2 2145   3.582   6.252   2.243
  416SOL     OW 2146   3.713   5.761   6.039
  416SOL    HW1 2147   3.805   5.784   6.071
  416SOL    HW2 2148   3.719   5.688   5.971
  417SOL     OW 2149   4.778   4.883   1.008
  417SOL    HW1 2150   4.679   4.889   0.990
  417SOL    HW2 2151   4.793   4.819   1.083
  418SOL     OW 2152   5.530   4.549   0.586
  418SOL    HW1 2153   5.580   4.635   0.597
  418SOL    HW2 2154   5.584   4.486   0.530
  419SOL     OW 2155   6.326   6.329   1.179
  419SOL    HW1 2156   6.233   6.333   1.217
  419SOL    HW2 2157   6.334   6.248   1.121
  420SOL     OW 2158   4.557   4.251   6.993
  420SOL    HW1 2159   4.623   4.319   7.025
  420SOL    HW2 2160   4.605   4.168   6.965
  421SOL     OW 2161   1.333   5.719   6.442
  421SOL    HW1 2162   1.241   5.722   6.402
  421SOL    HW2 2163   1.326   5.713   6.542
  422SOL     OW 2164   5.891   3.209   6.453
  422SOL    HW1 2165   5.812   3.191   6.395
  422SOL    HW2 2166   5.905   3.132   6.515
  423SOL     OW 2167   0.610   3.140   5.723
  423SOL    HW1 2168   0.543   3.096   5.783
  423SOL    HW2 2169   0.590   3.238   5.717
  424SOL     OW 2170   2.109   3.880   0.206
  424SOL    HW1 2171   2.187   3.938   0.183
  424SOL    HW2 2172   2.118   3.792   0.160
  425SOL     OW 2173   3.185   0.240   1.027
  425SOL    HW1 2174   3.178   0.287   1.115
  425SOL    HW2 2175   3.210   0.144   1.042
  426SOL     OW 2176   5.950   4.033   5.120
  426SOL    HW1 2177   5.997   4.121   5.111
  426SOL    HW2 2178   5.988   3.968   5.054
  427SOL     OW 2179   4.341   3.456   1.077
  427SOL    HW1 2180   4.338   3.356   1.073
  427SOL    HW2 2181   4.250   3.491   1.103
  428SOL     OW 2182   3.814   1.444   5.515
  428SOL    HW1 2183   3.896   1.387   5.508
  428SOL    HW2 2184   3.835   1.538   5.487
  429SOL     OW 2185   2.759   5.428   0.094
  429SOL    HW1 2186   2.857   5.438   0.079
  429SOL    HW2 2187   2.717   5.518   0.104
  430SOL     OW 2188   1.612   6.887   4.904
  430SOL    HW1 2189   1.591   6.791   4.885
  430SOL    HW2 2190   1.539   6.926   4.961
  431SOL     OW 2191   3.130   1.540   6.602
  431SOL    HW1 2192   3.037   1.534   6.564
  431SOL    HW2 2193   3.160   1.449   6.632
  432SOL     OW 2194   0.076   1.613   1.192
  432SOL    HW1 2195   0.052   1.693   1.137
  432SOL    HW2 2196   0.037   1.531   1.150
  433SOL     OW 2197   3.132   5.837   4.600
  433SOL    HW1 2198   3.179   5.891   4.670
  433SOL    HW2 2199   3.035   5.828   4.624
  434SOL     OW 2200   6.287   3.612   1.623
  434SOL    HW1 2201   6.355   3.640   1.691
  434SOL    HW2 2202   6.220   3.551   1.667
  435SOL     OW 2203   3.583   3.747   0.456
  435SOL    HW1 2204   3.513   3.720   0.389
  435SOL    HW2 2205   3.581   3.846   0.467
  436SOL     OW 2206   2.483   0.842   0.182
  436SOL    HW1 2207   2.529   0.774   0.125
  436SOL    HW2 2208   2.542   0.921   0.194
  437SOL     OW 2209   6.689   6.641   6.001
  437SOL    HW1 2210   6.781   6.676   6.018
  437SOL    HW2 2211   6.624   6.688   6.060
  438SOL     OW 2212   2.124   3.095   1.759
  438SOL    HW1 2213   2.026   3.115   1.754
  438SOL    HW2 2214   2.176   3.180   1.747
  439SOL     OW 2215   6.201   4.948   2.345
  439SOL    HW1 2216   6.138   4.978   2.273
  439SOL    HW2 2217   6.151   4.940   2.431
  440SOL     OW 2218   0.960   2.805   3.643
  440SOL    HW1 2219   0.979   2.896   3.678
  440SOL    HW2 2220   0.883   2.809   3.579
  441SOL     OW 2221   1.111   0.659   3.584
  441SOL    HW1 2222   1.101   0.675   3.486
  441SOL    HW2 2223   1.087   0.742   3.634
  442SOL     OW 2224   0.224   4.525   0.117
  442SOL    HW1 2225   0.247   4.527   0.214
  442SOL    HW2 2226   0.183   4.437   0.095
  443SOL     OW 2227   0.961   4.265   5.969
  443SOL    HW1 2228   1.032   4.210   5.926
  443SOL    HW2 2229   0.924   4.329   5.901
  444SOL     OW 2230   4.573   3.239   6.274
  444SOL    HW1 2231   4.511   3.200   6.206
  444SOL    HW2 2232   4.668   3.233   6.241
  445SOL     OW 2233   1.744   3.890   3.119
  445SOL    HW1 2234   1.785   3.974   3.085
  445SOL    HW2 2235   1.793   3.859   3.200
  446SOL     OW 2236   4.064   5.388   4.058
  446SOL    HW1 2237   3.988   5.324   4.070
  446SOL    HW2 2238   4.150   5.338   4.059
  447SOL     OW 2239   0.308   5.696   0.408
  447SOL    HW1 2240   0.281   5.629   0.339
  447SOL    HW2 2241   0.254   5.682   0.491
  448SOL     OW 2242   4.583   0.889   5.718
  448SOL    HW1 2243   4.604   0.800   5.760
  448SOL    HW2 2244   4.509   0.877   5.652
  449SOL     OW 2245   5.714   0.029   4.271
  449SOL    HW1 2246   5.705   6.986   4.199
  449SOL    HW2 2247   5.809   0.032   4.302
  450SOL     OW 2248   6.861   6.212   3.258
  450SOL    HW1 2249   6.941   6.157   3.238
  450SOL    HW2 2250   6.832   6.260   3.175
  451SOL     OW 2251   6.252   2.295   3.894
  451SOL    HW1 2252   6.327   2.353   3.926
  451SOL    HW2 2253   6.268   2.269   3.799
  452SOL     OW 2254   6.862   4.624   6.490
  452SOL    HW1 2255   6.919   4.702   6.465
  452SOL    HW2 2256   6.766   4.652   6.494
  453SOL     OW 2257   2.606   0.765   5.458
  453SOL    HW1 2258   2.571   0.705   5.530
  453SOL    HW2 2259   2.689   0.811   5.489
  454SOL     OW 2260   1.271   5.938   0.245
  454SOL    HW1 2261   1.282   5.839   0.253
  454SOL    HW2 2262   1.270   5.964   0.148
  455SOL     OW 2263   5.112   1.079   5.822
  455SOL    HW1 2264   5.068   1.093   5.733
  455SOL    HW2 2265   5.211   1.090   5.812
  456SOL     OW 2266   4.572   5.798   7.022
  456SOL    HW1 2267   4.554   5.816   6.926
  456SOL    HW2 2268   4.670   5.785   0.009
  457SOL     OW 2269   1.095   5.390   2.443
  457SOL    HW1 2270   0.996   5.394   2.457
  457SOL    HW2 2271   1.130   5.483   2.430
  458SOL     OW 2272   6.764   6.316   5.837
  458SOL    HW1 2273   6.749   6.321   5.936
  458SOL    HW2 2274   6.683   6.350   5.789
  459SOL     OW 2275   2.038   0.285   2.970
  459SOL    HW1 2276   2.006   0.242   3.055
  459SOL    HW2 2277   2.052   0.382   2.986
  460SOL     OW 2278   6.837   1.496   3.435
  460SOL    HW1 2279   6.893   1.413   3.432
  460SOL    HW2 2280   6.795   1.505   3.526
  461SOL     OW 2281   5.177   6.095   5.812
  461SOL    HW1 2282   5.191   6.009   5.862
  461SOL    HW2 2283   5.229   6.168   5.856
  462SOL     OW 2284   3.025   3.165   6.757
  462SOL    HW1 2285   3.078   3.133   6.678
  462SOL    HW2 2286   2.940   3.206   6.725
  463SOL     OW 2287   6.906   5.793   1.720
  463SOL    HW1 2288   6.986   5.842   1.688
  463SOL    HW2 2289   6.842   5.857   1.762
  464SOL     OW 2290   1.419   1.167   5.660
  464SOL    HW1 2291   1.463   1.206   5.740
  464SOL    HW2 2292   1.431   1.068   5.660
  465SOL     OW 2293   6.718   3.210   5.243
  465SOL    HW1 2294   6.746   3.281   5.306
  465SOL    HW2 2295   6.625   3.230   5.210
  466SOL     OW 2296   2.046   0.330   3.280
  466SOL    HW1 2297   2.053   0.351   3.378
  466SOL    HW2 2298   2.015   0.411   3.231
  467SOL     OW 2299   2.106   0.890   4.650
  467SOL    HW1 2300   2.183   0.850   4.699
  467SOL    HW2 2301   2.078   0.830   4.575
  468SOL     OW 2302   3.331   4.511   1.432
  468SOL    HW1 2303   3.264   4.492   1.504
  468SOL    HW2 2304   3.366   4.425   1.396
  469SOL     OW 2305   2.362   5.178   6.679
  469SOL    HW1 2306   2.333   5.082   6.674
  469SOL    HW2 2307   2.370   5.206   6.774
  470SOL     OW 2308   3.697   1.253   2.590
  470SOL    HW1 2309   3.693   1.350   2.614
  470SOL    HW2 2310   3.736   1.243   2.498
  471SOL     OW 2311   2.492   1.878   4.729
  471SOL    HW1 2312   2.422   1.819   4.770
  471SOL    HW2 2313   2.576   1.825   4.715
  472SOL     OW 2314   4.014   4.122   5.225
  472SOL    HW1 2315   4.042   4.082   5.313
  472SOL    HW2 2316   4.070   4.204   5.207
  473SOL     OW 2317   0.939   4.309   3.083
  473SOL    HW1 2318   1.024   4.305   3.136
  473SOL    HW2 2319   0.889   4.223   3.095
  474SOL     OW 2320   4.198   5.167   4.801
  474SOL    HW1 2321   4.285   5.205   4.833
  474SOL    HW2 2322   4.216   5.085   4.745
  475SOL     OW 2323   0.604   6.446   5.998
  475SOL    HW1 2324   0.657   6.481   5.921
  475SOL    HW2 2325   0.512   6.487   5.996
  476SOL     OW 2326   0.090   4.937   2.155
  476SOL    HW1 2327   0.096   5.032   2.122
  476SOL    HW2 2328   0.046   4.880   2.086
  477SOL     OW 2329   1.364   5.492   4.517
  477SOL    HW1 2330   1.363   5.397   4.551
  477SOL    HW2 2331   1.287   5.506   4.456
  478SOL     OW 2332   2.015   5.487   3.429
  478SOL    HW1 2333   2.020   5.498   3.528
  478SOL    HW2 2334   2.045   5.571   3.384
  479SOL     OW 2335   3.500   1.771   0.947
  479SOL    HW1 2336   3.440   1.828   0.890
  479SOL    HW2 2337   3.484   1.791   1.043
  480SOL     OW 2338   1.410   6.950   3.226
  480SOL    HW1 2339   1.356   6.980   3.148
  480SOL    HW2 2340   1.451   6.861   3.206
  481SOL     OW 2341   3.249   6.801   1.346
  481SOL    HW1 2342   3.290   6.740   1.278
  481SOL    HW2 2343   3.220   6.747   1.425
  482SOL     OW 2344   5.814   4.668   1.723
  482SOL    HW1 2345   5.813   4.607   1.645
  482SOL    HW2 2346   5.721   4.703   1.739
  483SOL     OW 2347   5.898   1.583   1.252
  483SOL    HW1 2348   5.876   1.630   1.166
  483SOL    HW2 2349   5.979   1.527   1.239
  484SOL     OW 2350   6.890   2.015   5.447
  484SOL    HW1 2351   6.932   2.035   5.359
  484SOL    HW2 2352   6.812   2.076   5.461
  485SOL     OW 2353   3.687   5.456   2.076
  485SOL    HW1 2354   3.602   5.404   2.088
  485SOL    HW2 2355   3.758   5.419   2.136
  486SOL     OW 2356   0.094   0.511   0.436
  486SOL    HW1 2357   0.170   0.489   0.375
  486SOL    HW2 2358   0.124   0.579   0.503
  487SOL     OW 2359   6.352   2.582   6.208
  487SOL    HW1 2360   6.413   2.627   6.274
  487SOL    HW2 2361   6.301   2.651   6.157
  488SOL     OW 2362   0.450   2.624   2.782
  488SOL    HW1 2363   0.362   2.669   2.770
  488SOL    HW2 2364   0.489   2.651   2.871
  489SOL     OW 2365   3.574   6.298   6.049
  489SOL    HW1 2366   3.563   6.239   6.129
  489SOL    HW2 2367   3.496   6.360   6.042
  490SOL     OW 2368   5.017   6.443   4.506
  490SOL    HW1 2369   5.109   6.412   4.532
  490SOL    HW2 2370   5.007   6.439   4.406
  491SOL     OW 2371   6.880   2.601   3.094
  491SOL    HW1 2372   6.908   2.604   3.190
  491SOL    HW2 2373   6.956   2.632   3.036
  492SOL     OW 2374   1.894   0.818   4.969
  492SOL    HW1 2375   1.868   0.836   4.874
  492SOL    HW2 2376   1.823   0.852   5.030
  493SOL     OW 2377   6.311   4.158   4.152
  493SOL    HW1 2378   6.343   4.240   4.107
  493SOL    HW2 2379   6.230   4.180   4.207
  494SOL     OW 2380   6.435   1.162   0.377
  494SOL    HW1 2381   6.515   1.169   0.316
  494SOL    HW2 2382   6.448   1.086   0.439
  495SOL     OW 2383   4.306   4.496   1.431
  495SOL    HW1 2384   4.367   4.417   1.441
  495SOL    HW2 2385   4.229   4.486   1.494
  496SOL     OW 2386   5.838   3.500   3.848
  496SOL    HW1 2387   5.888   3.529   3.766
  496SOL    HW2 2388   5.825   3.578   3.909
  497SOL     OW 2389   4.540   0.657   4.019
  497SOL    HW1 2390   4.598   0.716   3.963
  497SOL    HW2 2391   4.513   0.576   3.966
  498SOL     OW 2392   1.578   3.357   2.694
  498SOL    HW1 2393   1.559   3.260   2.712
  498SOL    HW2 2394   1.601   3.369   2.597
  499SOL     OW 2395   3.504   1.864   4.960
  499SOL    HW1 2396   3.410   1.883   4.990
  499SOL    HW2 2397   3.540   1.786   5.010
  500SOL     OW 2398   0.789   4.103   2.856
  500SOL    HW1 2399   0.769   4.201   2.850
  500SOL    HW2 2400   0.879   4.085   2.817
  501SOL     OW 2401   0.494   4.338   5.945
  501SOL    HW1 2402   0.409   4.391   5.949
  501SOL    HW2 2403   0.568   4.388   5.990
  502SOL     OW 2404   3.079   5.763   6.652
  502SOL    HW1 2405   2.986   5.728   6.638
  502SOL    HW2 2406   3.075   5.862   6.663
  503SOL     OW 2407   5.223   5.287   5.104
  503SOL    HW1 2408   5.255   5.193   5.090
  503SOL    HW2 2409   5.210   5.302   5.202
  504SOL     OW 2410   2.234   6.006   4.537
  504SOL    HW1 2411   2.197   5.972   4.623
  504SOL    HW2 2412   2.170   5.985   4.463
  505SOL     OW 2413   4.525   6.712   5.131
  505SOL    HW1 2414   4.614   6.673   5.157
  505SOL    HW2 2415   4.485   6.758   5.211
  506SOL     OW 2416   2.631   3.990   6.760
  506SOL    HW1 2417   2.708   3.931   6.783
  506SOL    HW2 2418   2.564   3.989   6.834
  507SOL     OW 2419   3.149   1.473   4.000
  507SOL    HW1 2420   3.203   1.404   4.048
  507SOL    HW2 2421   3.208   1.521   3.935
  508SOL     OW 2422   6.063   3.992   3.934
  508SOL    HW1 2423   6.132   3.938   3.983
  508SOL    HW2 2424   6.105   4.076   3.900
  509SOL     OW 2425   4.561   2.647   1.818
  509SOL    HW1 2426   4.579   2.723   1.755
  509SOL    HW2 2427   4.478   2.599   1.790
  510SOL     OW 2428   0.187   3.927   4.334
  510SOL    HW1 2429   0.239   4.009   4.355
  510SOL    HW2 2430   0.227   3.880   4.256
  511SOL     OW 2431   0.518   6.357   0.631
  511SOL    HW1 2432   0.437   6.300   0.642
  511SOL    HW2 2433   0.581   6.315   0.566
  512SOL     OW 2434   0.413   4.022   6.477
  512SOL    HW1 2435   0.385   4.056   6.387
  512SOL    HW2 2436   0.417   4.098   6.542
  513SOL     OW 2437   6.901   5.912   4.412
  513SOL    HW1 2438   6.928   5.839   4.350
  513SOL    HW2 2439   6.974   5.927   4.480
  514SOL     OW 2440   5.835   1.697   3.730
  514SOL    HW1 2441   5.760   1.686   3.665
  514SOL    HW2 2442   5.902   1.761   3.693
  515SOL     OW 2443   1.945   6.374   0.298
  515SOL    HW1 2444   1.884   6.438   0.345
  515SOL    HW2 2445   1.946   6.395   0.200
  516SOL     OW 2446   1.851   5.060   2.347
  516SOL    HW1 2447   1.863   5.066   2.446
  516SOL    HW2 2448   1.922   5.002   2.308
  517SOL     OW 2449   4.907   0.768   0.420
  517SOL    HW1 2450   4.929   0.865   0.409
  517SOL    HW2 2451   4.948   0.716   0.345
  518SOL     OW 2452   2.331   2.233   0.538
  518SOL    HW1 2453   2.316   2.206   0.443
  518SOL    HW2 2454   2.423   2.206   0.567
  519SOL     OW 2455   0.628   6.151   0.885
  519SOL    HW1 2456   0.607   6.138   0.788
  519SOL    HW2 2457   0.545   6.142   0.939
  520SOL     OW 2458   5.745   4.645   5.077
  520SOL    HW1 2459   5.722   4.551   5.054
  520SOL    HW2 2460   5.844   4.655   5.083
  521SOL     OW 2461   6.610   1.166   0.998
  521SOL    HW1 2462   6.554   1.163   1.081
  521SOL    HW2 2463   6.684   1.098   1.005
  522SOL     OW 2464   3.706   3.554   4.844
  522SOL    HW1 2465   3.618   3.560   4.892
  522SOL    HW2 2466   3.765   3.629   4.875
  523SOL     OW 2467   6.537   6.703   4.978
  523SOL    HW1 2468   6.532   6.664   5.070
  523SOL    HW2 2469   6.479   6.649   4.916
  524SOL     OW 2470   3.145   0.867   5.414
  524SOL    HW1 2471   3.206   0.895   5.340
  524SOL    HW2 2472   3.121   0.947   5.469
  525SOL     OW 2473   2.365   3.400   6.654
  525SOL    HW1 2474   2.391   3.348   6.573
  525SOL    HW2 2475   2.413   3.363   6.734
  526SOL     OW 2476   3.893   5.797   4.731
  526SOL    HW1 2477   3.971   5.772   4.789
  526SOL    HW2 2478   3.822   5.727   4.738
  527SOL     OW 2479   0.858   1.980   5.961
  527SOL    HW1 2480   0.822   2.073   5.977
  527SOL    HW2 2481   0.832   1.922   6.038
  528SOL     OW 2482   2.598   0.458   5.102
  528SOL    HW1 2483   2.626   0.457   5.198
  528SOL    HW2 2484   2.579   0.552   5.074
  529SOL     OW 2485   6.783   4.953   4.202
  529SOL    HW1 2486   6.808   4.972   4.297
  529SOL    HW2 2487   6.846   5.000   4.140
  530SOL     OW 2488   1.832   3.101   5.759
  530SOL    HW1 2489   1.826   3.026   5.825
  530SOL    HW2 2490   1.893   3.074   5.684
  531SOL     OW 2491   6.983   0.321   0.922
  531SOL    HW1 2492   7.022   0.244   0.973
  531SOL    HW2 2493   0.029   0.388   0.904
  532SOL     OW 2494   1.653   0.996   5.734
  532SOL    HW1 2495   1.710   1.052   5.674
  532SOL    HW2 2496   1.573   0.963   5.683
  533SOL     OW 2497   5.423   6.617   4.098
  533SOL    HW1 2498   5.440   6.713   4.079
  533SOL    HW2 2499   5.374   6.608   4.184
  534SOL     OW 2500   3.910   6.059   1.645
  534SOL    HW1 2501   3.818   6.042   1.682
  534SOL    HW2 2502   3.974   5.993   1.684
  535SOL     OW 2503   0.091   3.645   3.297
  535SOL    HW1 2504   0.121   3.709   3.369
  535SOL    HW2 2505   0.106   3.551   3.328
  536SOL     OW 2506   1.052   5.467   0.725
  536SOL    HW1 2507   1.036   5.563   0.748
  536SOL    HW2 2508   1.056   5.413   0.810
  537SOL     OW 2509   2.445   0.254   2.753
  537SOL    HW1 2510   2.405   0.271   2.844
  537SOL    HW2 2511   2.429   0.159   2.727
  538SOL     OW 2512   1.494   4.494   3.767
  538SOL    HW1 2513   1.553   4.436   3.710
  538SOL    HW2 2514   1.398   4.481   3.740
  539SOL     OW 2515   1.596   4.854   1.536
  539SOL    HW1 2516   1.645   4.927   1.489
  539SOL    HW2 2517   1.600   4.771   1.481
  540SOL     OW 2518   1.271   2.322   1.643
  540SOL    HW1 2519   1.230   2.395   1.697
  540SOL    HW2 2520   1.219   2.309   1.559
  541SOL     OW 2521   3.486   5.464   5.107
  541SOL    HW1 2522   3.506   5.390   5.043
  541SOL    HW2 2523   3.403   5.513   5.078
  542SOL     OW 2524   6.472   5.556   7.022
  542SOL    HW1 2525   6.539   5.518   6.958
  542SOL    HW2 2526   6.380   5.548   6.983
  543SOL     OW 2527   7.000   6.272   0.184
  543SOL    HW1 2528   6.913   6.299   0.143
  543SOL    HW2 2529   0.032   6.352   0.197
  544SOL     OW 2530   0.989   5.269   6.990
  544SOL    HW1 2531   1.009   5.285   0.061
  544SOL    HW2 2532   0.960   5.355   6.947
  545SOL     OW 2533   3.348   2.083   3.833
  545SOL    HW1 2534   3.319   2.077   3.929
  545SOL    HW2 2535   3.270   2.110   3.776
  546SOL     OW 2536   1.242   3.861   0.403
  546SOL    HW1 2537   1.280   3.895   0.317
  546SOL    HW2 2538   1.312   3.867   0.474
  547SOL     OW 2539   2.945   2.993   0.107
  547SOL    HW1 2540   2.866   2.934   0.123
  547SOL    HW2 2541   2.988   2.968   0.021
  548SOL     OW 2542   3.466   3.134   4.536
  548SOL    HW1 2543   3.389   3.197   4.526
  548SOL    HW2 2544   3.432   3.045   4.566
  549SOL     OW 2545   6.723   3.525   1.779
  549SOL    HW1 2546   6.637   3.552   1.821
  549SOL    HW2 2547   6.766   3.452   1.833
  550SOL     OW 2548   6.495   4.005   1.725
  550SOL    HW1 2549   6.413   4.043   1.682
  550SOL    HW2 2550   6.498   4.031   1.821
  551SOL     OW 2551   6.761   2.089   6.689
  551SOL    HW1 2552   6.752   2.155   6.763
  551SOL    HW2 2553   6.840   2.030   6.706
  552SOL     OW 2554   5.032   5.753   0.635
  552SOL    HW1 2555   5.001   5.816   0.565
  552SOL    HW2 2556   5.030   5.659   0.600
  553SOL     OW 2557   1.407   1.667   1.510
  553SOL    HW1 2558   1.485   1.698   1.456
  553SOL    HW2 2559   1.379   1.740   1.573
  554SOL     OW 2560   5.241   5.818   5.294
  554SOL    HW1 2561   5.164   5.879   5.310
  554SOL    HW2 2562   5.222   5.760   5.215
  555SOL     OW 2563   1.943   4.483   4.467
  555SOL    HW1 2564   1.868   4.524   4.415
  555SOL    HW2 2565   1.995   4.555   4.514
  556SOL     OW 2566   5.508   3.493   2.740
  556SOL    HW1 2567   5.530   3.531   2.830
  556SOL    HW2 2568   5.544   3.400   2.734
  557SOL     OW 2569   0.443   5.791   6.197
  557SOL    HW1 2570   0.377   5.819   6.128
  557SOL    HW2 2571   0.424   5.838   6.283
  558SOL     OW 2572   4.138   3.996   5.440
  558SOL    HW1 2573   4.126   4.020   5.536
  558SOL    HW2 2574   4.194   3.913   5.433
  559SOL     OW 2575   6.228   6.147   6.100
  559SOL    HW1 2576   6.324   6.128   6.078
  559SOL    HW2 2577   6.170   6.115   6.024
  560SOL     OW 2578   4.156   6.687   6.817
  560SOL    HW1 2579   4.161   6.759   6.748
  560SOL    HW2 2580   4.071   6.695   6.869
  561SOL     OW 2581   5.262   6.542   0.896
  561SOL    HW1 2582   5.321   6.578   0.823
  561SOL    HW2 2583   5.317   6.529   0.978
  562SOL     OW 2584   6.570   1.054   6.034
  562SOL    HW1 2585   6.581   1.132   6.095
  562SOL    HW2 2586   6.615   1.073   5.946
  563SOL     OW 2587   3.428   6.601   5.142
  563SOL    HW1 2588   3.354   6.573   5.080
  563SOL    HW2 2589   3.417   6.555   5.230
  564SOL     OW 2590   0.422   1.967   6.844
  564SOL    HW1 2591   0.434   2.058   6.882
  564SOL    HW2 2592   0.324   1.946   6.839
  565SOL     OW 2593   4.739   4.355   5.287
  565SOL    HW1 2594   4.695   4.269   5.311
  565SOL    HW2 2595   4.759   4.356   5.189
  566SOL     OW 2596   5.433   5.166   2.746
  566SOL    HW1 2597   5.493   5.202   2.674
  566SOL    HW2 2598   5.398   5.242   2.801
  567SOL     OW 2599   3.926   3.904   4.503
  567SOL    HW1 2600   3.959   3.814   4.532
  567SOL    HW2 2601   3.954   3.921   4.409
  568SOL     OW 2602   1.768   1.604   5.932
  568SOL    HW1 2603   1.822   1.524   5.906
  568SOL    HW2 2604   1.798   1.637   6.021
  569SOL     OW 2605   2.587   3.481   0.045
  569SOL    HW1 2606   2.605   3.574   0.013
  569SOL    HW2 2607   2.612   3.473   0.141
  570SOL     OW 2608   0.475   6.037   1.222
  570SOL    HW1 2609   0.510   5.971   1.156
  570SOL    HW2 2610   0.382   6.065   1.197
  571SOL     OW 2611   4.477   5.404   2.529
  571SOL    HW1 2612   4.562   5.354   2.536
  571SOL    HW2 2613   4.437   5.417   2.620
  572SOL     OW 2614   1.867   4.058   5.081
  572SOL    HW1 2615   1.842   4.152   5.054
  572SOL    HW2 2616   1.801   4.024   5.148
  573SOL     OW 2617   3.772   2.566   6.140
  573SOL    HW1 2618   3.700   2.558   6.072
  573SOL    HW2 2619   3.753   2.642   6.201
  574SOL     OW 2620   2.589   1.509   4.434
  574SOL    HW1 2621   2.577   1.425   4.380
  574SOL    HW2 2622   2.635   1.578   4.378
  575SOL     OW 2623   4.881   2.396   6.840
  575SOL    HW1 2624   4.948   2.459   6.801
  575SOL    HW2 2625   4.914   2.363   6.929
  576SOL     OW 2626   0.761   2.378   2.334
  576SOL    HW1 2627   0.744   2.280   2.340
  576SOL    HW2 2628   0.730   2.423   2.417
  577SOL     OW 2629   3.264   2.118   4.109
  577SOL    HW1 2630   3.198   2.165   4.052
  577SOL    HW2 2631   3.218   2.048   4.164
  578SOL     OW 2632   0.347   3.176   4.608
  578SOL    HW1 2633   0.351   3.183   4.708
  578SOL    HW2 2634   0.409   3.243   4.568
  579SOL     OW 2635   3.707   3.371   0.427
  579SOL    HW1 2636   3.766   3.290   0.425
  579SOL    HW2 2637   3.754   3.446   0.473
  580SOL     OW 2638   0.218   6.170   0.016
  580SOL    HW1 2639   0.144   6.128   0.068
  580SOL    HW2 2640   0.184   6.250   6.993
  581SOL     OW 2641   3.862   3.830   2.529
  581SOL    HW1 2642   3.823   3.922   2.519
  581SOL    HW2 2643   3.870   3.808   2.626
  582SOL     OW 2644   6.161   3.777   2.587
  582SOL    HW1 2645   6.209   3.838   2.651
  582SOL    HW2 2646   6.063   3.793   2.594
  583SOL     OW 2647   2.697   5.239   6.511
  583SOL    HW1 2648   2.609   5.205   6.475
  583SOL    HW2 2649   2.710   5.206   6.604
  584SOL     OW 2650   0.882   5.006   4.951
  584SOL    HW1 2651   0.935   4.955   5.018
  584SOL    HW2 2652   0.908   5.103   4.955
  585SOL     OW 2653   6.753   1.618   5.657
  585SOL    HW1 2654   6.826   1.684   5.638
  585SOL    HW2 2655   6.670   1.667   5.684
  586SOL     OW 2656   2.102   6.280   0.655
  586SOL    HW1 2657   2.113   6.207   0.587
  586SOL    HW2 2658   2.092   6.239   0.745
  587SOL     OW 2659   1.161   4.018   5.968
  587SOL    HW1 2660   1.211   3.962   6.034
  587SOL    HW2 2661   1.133   3.960   5.891
  588SOL     OW 2662   2.414   0.058   1.655
  588SOL    HW1 2663   2.365   7.006   1.693
  588SOL    HW2 2664   2.443   0.119   1.729
  589SOL     OW 2665   4.670   5.265   2.253
  589SOL    HW1 2666   4.702   5.301   2.340
  589SOL    HW2 2667   4.703   5.323   2.179
  590SOL     OW 2668   6.612   2.228   1.701
  590SOL    HW1 2669   6.609   2.327   1.683
  590SOL    HW2 2670   6.520   2.197   1.725
  591SOL     OW 2671   3.345   6.769   3.117
  591SOL    HW1 2672   3.445   6.769   3.107
  591SOL    HW2 2673   3.316   6.686   3.164
  592SOL     OW 2674   5.304   0.784   0.157
  592SOL    HW1 2675   5.290   0.879   0.182
  592SOL    HW2 2676   5.215   0.738   0.150
  593SOL     OW 2677   6.092   1.258   3.709
  593SOL    HW1 2678   6.012   1.209   3.675
  593SOL    HW2 2679   6.064   1.346   3.746
  594SOL     OW 2680   5.097   3.238   1.407
  594SOL    HW1 2681   5.095   3.211   1.503
  594SOL    HW2 2682   5.116   3.158   1.350
  595SOL     OW 2683   3.615   0.098   4.258
  595SOL    HW1 2684   3.666   0.172   4.303
  595SOL    HW2 2685   3.636   0.097   4.161
  596SOL     OW 2686   0.860   4.154   2.285
  596SOL    HW1 2687   0.773   4.130   2.328
  596SOL    HW2 2688   0.931   4.091   2.316
  597SOL     OW 2689   3.977   1.899   5.643
  597SOL    HW1 2690   3.877   1.893   5.636
  597SOL    HW2 2691   4.003   1.987   5.682
  598SOL     OW 2692   3.209   4.230   1.294
  598SOL    HW1 2693   3.150   4.229   1.375
  598SOL    HW2 2694   3.187   4.152   1.236
  599SOL     OW 2695   6.859   6.526   3.011
  599SOL    HW1 2696   6.924   6.516   3.087
  599SOL    HW2 2697   6.906   6.566   2.932
  600SOL     OW 2698   2.478   0.878   0.765
  600SOL    HW1 2699   2.497   0.939   0.842
  600SOL    HW2 2700   2.541   0.899   0.690
  601SOL     OW 2701   3.149   5.045   3.790
  601SOL    HW1 2702   3.060   5.066   3.749
  601SOL    HW2 2703   3.219   5.047   3.719
  602SOL     OW 2704   0.487   0.503   1.589
  602SOL    HW1 2705   0.480   0.570   1.664
  602SOL    HW2 2706   0.582   0.496   1.559
  603SOL     OW 2707   4.228   2.168   3.092
  603SOL    HW1 2708   4.285   2.222   3.031
  603SOL    HW2 2709   4.140   2.149   3.048
  604SOL     OW 2710   0.706   4.193   5.468
  604SOL    HW1 2711   0.628   4.140   5.435
  604SOL    HW2 2712   0.766   4.215   5.391
  605SOL     OW 2713   5.938   6.917   4.369
  605SOL    HW1 2714   5.947   6.942   4.465
  605SOL    HW2 2715   5.906   6.822   4.362
  606SOL     OW 2716   3.580   7.016   3.007
  606SOL    HW1 2717   3.663   7.023   2.952
  606SOL    HW2 2718   3.583   6.932   3.061
  607SOL     OW 2719   4.337   1.009   3.500
  607SOL    HW1 2720   4.314   1.084   3.562
  607SOL    HW2 2721   4.333   1.042   3.406
  608SOL     OW 2722   4.694   1.826   1.641
  608SOL    HW1 2723   4.670   1.832   1.544
  608SOL    HW2 2724   4.611   1.835   1.697
  609SOL     OW 2725   2.962   3.418   3.931
  609SOL    HW1 2726   2.932   3.496   3.987
  609SOL    HW2 2727   2.992   3.344   3.990
  610SOL     OW 2728   5.523   1.398   4.265
  610SOL    HW1 2729   5.562   1.451   4.190
  610SOL    HW2 2730   5.439   1.353   4.234
  611SOL     OW 2731   6.351   0.100   0.659
  611SOL    HW1 2732   6.367   0.012   0.703
  611SOL    HW2 2733   6.302   0.160   0.723
  612SOL     OW 2734   3.108   5.399   5.882
  612SOL    HW1 2735   3.205   5.379   5.870
  612SOL    HW2 2736   3.096   5.491   5.919
  613SOL     OW 2737   3.264   2.034   6.733
  613SOL    HW1 2738   3.178   2.075   6.761
  613SOL    HW2 2739   3.309   1.994   6.813
  614SOL     OW 2740   5.149   3.671   0.829
  614SOL    HW1 2741   5.109   3.689   0.739
  614SOL    HW2 2742   5.179   3.576   0.833
  615SOL     OW 2743   5.675   6.698   1.217
  615SOL    HW1 2744   5.651   6.732   1.126
  615SOL    HW2 2745   5.773   6.684   1.223
  616SOL     OW 2746   5.765   0.796   4.908
  616SOL    HW1 2747   5.784   0.826   4.815
  616SOL    HW2 2748   5.748   0.698   4.909
  617SOL     OW 2749   0.124   5.844   5.398
  617SOL    HW1 2750   0.186   5.766   5.403
  617SOL    HW2 2751   0.075   5.841   5.311
  618SOL     OW 2752   5.846   4.499   0.081
  618SOL    HW1 2753   5.765   4.441   0.089
  618SOL    HW2 2754   5.850   4.562   0.158
  619SOL     OW 2755   2.593   7.014   6.085
  619SOL    HW1 2756   2.577   0.046   6.005
  619SOL    HW2 2757   2.523   6.943   6.088
  620SOL     OW 2758   5.343   1.712   2.383
  620SOL    HW1 2759   5.337   1.664   2.471
  620SOL    HW2 2760   5.303   1.654   2.312
  621SOL     OW 2761   2.626   0.222   6.681
  621SOL    HW1 2762   2.666   0.279   6.610
  621SOL    HW2 2763   2.550   0.272   6.724
  622SOL     OW 2764   0.752   2.492   5.526
  622SOL    HW1 2765   0.730   2.484   5.623
  622SOL    HW2 2766   0.812   2.571   5.512
  623SOL     OW 2767   6.043   0.232   3.439
  623SOL    HW1 2768   6.118   0.289   3.473
  623SOL    HW2 2769   5.956   0.273   3.464
  624SOL     OW 2770   6.859   0.512   6.260
  624SOL    HW1 2771   6.784   0.571   6.288
  624SOL    HW2 2772   6.871   0.518   6.161
  625SOL     OW 2773   3.347   1.211   0.890
  625SOL    HW1 2774   3.374   1.285   0.828
  625SOL    HW2 2775   3.395   1.221   0.977
  626SOL     OW 2776   6.905   6.131   3.739
  626SOL    HW1 2777   6.909   6.183   3.654
  626SOL    HW2 2778   6.814   6.091   3.750
  627SOL     OW 2779   6.365   6.854   0.185
  627SOL    HW1 2780   6.349   6.818   0.093
  627SOL    HW2 2781   6.352   6.953   0.185
  628SOL     OW 2782   4.574   4.803   6.100
  628SOL    HW1 2783   4.518   4.867   6.048
  628SOL    HW2 2784   4.612   4.849   6.181
  629SOL     OW 2785   1.434   6.835   0.115
  629SOL    HW1 2786   1.346   6.789   0.125
  629SOL    HW2 2787   1.505   6.768   0.094
  630SOL     OW 2788   6.331   1.205   1.148
  630SOL    HW1 2789   6.402   1.264   1.109
  630SOL    HW2 2790   6.251   1.206   1.088
  631SOL     OW 2791   1.339   2.559   4.036
  631SOL    HW1 2792   1.432   2.591   4.021
  631SOL    HW2 2793   1.320   2.483   3.974
  632SOL     OW 2794   3.017   4.236   0.498
  632SOL    HW1 2795   2.958   4.308   0.462
  632SOL    HW2 2796   2.972   4.147   0.488
  633SOL     OW 2797   1.479   5.246   0.952
  633SOL    HW1 2798   1.427   5.182   0.896
  633SOL    HW2 2799   1.420   5.284   1.023
  634SOL     OW 2800   3.058   3.194   4.381
  634SOL    HW1 2801   3.084   3.098   4.383
  634SOL    HW2 2802   2.989   3.212   4.452
  635SOL     OW 2803   5.782   0.110   6.596
  635SOL    HW1 2804   5.870   0.141   6.631
  635SOL    HW2 2805   5.796   0.040   6.526
  636SOL     OW 2806   2.813   0.656   5.319
  636SOL    HW1 2807   2.729   0.681   5.368
  636SOL    HW2 2808   2.828   0.721   5.244
  637SOL     OW 2809   0.286   1.299   3.092
  637SOL    HW1 2810   0.196   1.275   3.129
  637SOL    HW2 2811   0.357   1.264   3.152
  638SOL     OW 2812   6.549   2.841   5.118
  638SOL    HW1 2813   6.604   2.908   5.168
  638SOL    HW2 2814   6.459   2.833   5.161
  639SOL     OW 2815   5.815   4.318   2.048
  639SOL    HW1 2816   5.767   4.322   2.135
  639SOL    HW2 2817   5.907   4.357   2.059
  640SOL     OW 2818   0.105   2.819   2.555
  640SOL    HW1 2819   0.152   2.842   2.640
  640SOL    HW2 2820   0.135   2.728   2.525
  641SOL     OW 2821   2.325   4.905   4.006
  641SOL    HW1 2822   2.322   4.845   3.925
  641SOL    HW2 2823   2.400   4.971   3.995
  642SOL     OW 2824   0.640   4.993   4.848
  642SOL    HW1 2825   0.655   5.077   4.795
  642SOL    HW2 2826   0.724   4.971   4.898
  643SOL     OW 2827   3.924   5.025   0.670
  643SOL    HW1 2828   3.889   4.979   0.588
  643SOL    HW2 2829   3.871   4.997   0.749
  644SOL     OW 2830   6.980   6.767   5.227
  644SOL    HW1 2831   7.021   6.848   5.185
  644SOL    HW2 2832   0.021   6.693   5.229
  645SOL     OW 2833   4.238   5.664   2.499
  645SOL    HW1 2834   4.327   5.710   2.489
  645SOL    HW2 2835   4.194   5.695   2.583
  646SOL     OW 2836   3.688   2.137   4.413
  646SOL    HW1 2837   3.765   2.148   4.476
  646SOL    HW2 2838   3.611   2.095   4.462
  647SOL     OW 2839   3.513   2.664   6.029
  647SOL    HW1 2840   3.482   2.666   5.934
  647SOL    HW2 2841   3.516   2.757   6.065
  648SOL     OW 2842   5.913   1.338   3.060
  648SOL    HW1 2843   5.882   1.252   3.019
  648SOL    HW2 2844   5.908   1.330   3.159
  649SOL     OW 2845   2.532   5.279   0.178
  649SOL    HW1 2846   2.618   5.327   0.161
  649SOL    HW2 2847   2.508   5.287   0.274
  650SOL     OW 2848   7.017   3.595   1.101
  650SOL    HW1 2849   0.084   3.633   1.104
  650SOL    HW2 2850   7.014   3.512   1.156
  651SOL     OW 2851   0.958   0.761   3.872
  651SOL    HW1 2852   0.918   0.686   3.819
  651SOL    HW2 2853   1.046   0.731   3.911
  652SOL     OW 2854   4.025   5.721   1.186
  652SOL    HW1 2855   3.963   5.783   1.138
  652SOL    HW2 2856   3.996   5.712   1.281
  653SOL     OW 2857   1.895   6.654   2.216
  653SOL    HW1 2858   1.822   6.591   2.190
  653SOL    HW2 2859   1.950   6.612   2.289
  654SOL     OW 2860   0.758   0.005   5.687
  654SOL    HW1 2861   0.807   0.068   5.748
  654SOL    HW2 2862   0.724   6.954   5.739
  655SOL     OW 2863   0.552   4.103   1.559
  655SOL    HW1 2864   0.601   4.025   1.600
  655SOL    HW2 2865   0.488   4.069   1.490
  656SOL     OW 2866   2.696   6.047   0.011
  656SOL    HW1 2867   2.644   6.075   0.091
  656SOL    HW2 2868   2.788   6.019   0.039
  657SOL     OW 2869   4.019   3.596   3.644
  657SOL    HW1 2870   4.055   3.560   3.730
  657SOL    HW2 2871   3.991   3.691   3.656
  658SOL     OW 2872   0.943   1.492   4.202
  658SOL    HW1 2873   0.966   1.508   4.298
  658SOL    HW2 2874   0.845   1.478   4.193
  659SOL     OW 2875   2.039   5.752   6.639
  659SOL    HW1 2876   2.049   5.701   6.553
  659SOL    HW2 2877   2.001   5.842   6.620
  660SOL     OW 2878   4.981   4.874   2.862
  660SOL    HW1 2879   4.899   4.919   2.896
  660SOL    HW2 2880   5.053   4.880   2.932
  661SOL     OW 2881   4.323   5.298   3.960
  661SOL    HW1 2882   4.312   5.334   3.868
  661SOL    HW2 2883   4.374   5.363   4.015
  662SOL     OW 2884   4.885   3.460   6.834
  662SOL    HW1 2885   4.909   3.363   6.825
  662SOL    HW2 2886   4.954   3.506   6.889
  663SOL     OW 2887   6.713   4.230   0.236
  663SOL    HW1 2888   6.738   4.327   0.227
  663SOL    HW2 2889   6.787   4.174   0.200
  664SOL     OW 2890   1.420   0.235   6.189
  664SOL    HW1 2891   1.429   0.209   6.093
  664SOL    HW2 2892   1.439   0.332   6.200
  665SOL     OW 2893   3.438   4.939   2.814
  665SOL    HW1 2894   3.452   4.883   2.733
  665SOL    HW2 2895   3.342   4.935   2.841
  666SOL     OW 2896   3.017   0.791   6.902
  666SOL    HW1 2897   3.059   0.818   6.989
  666SOL    HW2 2898   3.087   0.757   6.840
  667SOL     OW 2899   1.136   3.516   2.304
  667SOL    HW1 2900   1.122   3.447   2.233
  667SOL    HW2 2901   1.234   3.523   2.324
  668SOL     OW 2902   5.246   6.837   0.219
  668SOL    HW1 2903   5.276   6.881   0.134
  668SOL    HW2 2904   5.321   6.835   0.284
  669SOL     OW 2905   1.101   5.681   2.396
  669SOL    HW1 2906   1.065   5.769   2.427
  669SOL    HW2 2907   1.200   5.678   2.411
  670SOL     OW 2908   3.418   3.469   3.343
  670SOL    HW1 2909   3.353   3.407   3.387
  670SOL    HW2 2910   3.511   3.439   3.362
  671SOL     OW 2911   2.003   0.390   6.610
  671SOL    HW1 2912   2.091   0.428   6.639
  671SOL    HW2 2913   2.019   0.307   6.556
  672SOL     OW 2914   1.295   2.425   3.024
  672SOL    HW1 2915   1.379   2.422   2.970
  672SOL    HW2 2916   1.216   2.417   2.964
  673SOL     OW 2917   4.738   0.225   0.425
  673SOL    HW1 2918   4.746   0.126   0.413
  673SOL    HW2 2919   4.778   0.251   0.513
  674SOL     OW 2920   0.055   1.868   4.581
  674SOL    HW1 2921   0.088   1.888   4.488
  674SOL    HW2 2922   7.005   1.929   4.603
  675SOL     OW 2923   6.156   0.175   3.849
  675SOL    HW1 2924   6.101   0.258   3.842
  675SOL    HW2 2925   6.098   0.098   3.877
  676SOL     OW 2926   2.325   4.766   3.778
  676SOL    HW1 2927   2.339   4.834   3.707
  676SOL    HW2 2928   2.257   4.699   3.748
  677SOL     OW 2929   5.263   0.379   0.750
  677SOL    HW1 2930   5.278   0.476   0.771
  677SOL    HW2 2931   5.183   0.346   0.800
  678SOL     OW 2932   2.542   1.048   5.566
  678SOL    HW1 2933   2.616   0.982   5.570
  678SOL    HW2 2934   2.528   1.088   5.657
  679SOL     OW 2935   6.540   0.809   2.197
  679SOL    HW1 2936   6.580   0.853   2.278
  679SOL    HW2 2937   6.440   0.807   2.206
  680SOL     OW 2938   5.705   4.505   4.735
  680SOL    HW1 2939   5.767   4.429   4.755
  680SOL    HW2 2940   5.626   4.501   4.796
  681SOL     OW 2941   1.277   0.048   2.340
  681SOL    HW1 2942   1.285   0.137   2.385
  681SOL    HW2 2943   1.369   0.012   2.322
  682SOL     OW 2944   0.227   6.877   6.396
  682SOL    HW1 2945   0.219   6.825   6.311
  682SOL    HW2 2946   0.253   6.972   6.375
  683SOL     OW 2947   5.233   1.799   0.192
  683SOL    HW1 2948   5.296   1.819   0.267
  683SOL    HW2 2949   5.142   1.832   0.215
  684SOL     OW 2950   0.430   5.877   6.462
  684SOL    HW1 2951   0.349   5.854   6.514
  684SOL    HW2 2952   0.508   5.826   6.497
  685SOL     OW 2953   6.294   1.046   6.499
  685SOL    HW1 2954   6.264   1.140   6.485
  685SOL    HW2 2955   6.366   1.043   6.569
  686SOL     OW 2956   5.513   4.621   3.185
  686SOL    HW1 2957   5.570   4.644   3.264
  686SOL    HW2 2958   5.481   4.526   3.193
  687SOL     OW 2959   6.249   2.244   5.310
  687SOL    HW1 2960   6.232   2.153   5.273
  687SOL    HW2 2961   6.187   2.261   5.387
  688SOL     OW 2962   0.129   3.034   4.594
  688SOL    HW1 2963   0.136   2.935   4.605
  688SOL    HW2 2964   0.220   3.073   4.583
  689SOL     OW 2965   5.855   4.228   4.856
  689SOL    HW1 2966   5.786   4.162   4.825
  689SOL    HW2 2967   5.927   4.234   4.787
  690SOL     OW 2968   0.447   3.075   4.102
  690SOL    HW1 2969   0.466   3.042   4.009
  690SOL    HW2 2970   0.378   3.147   4.098
  691SOL     OW 2971   6.834   2.817   6.978
  691SOL    HW1 2972   6.740   2.786   6.961
  691SOL    HW2 2973   6.836   2.917   6.982
  692SOL     OW 2974   2.785   0.031   3.049
  692SOL    HW1 2975   2.848   6.982   3.072
  692SOL    HW2 2976   2.810   0.112   3.102
  693SOL     OW 2977   6.808   1.642   2.568
  693SOL    HW1 2978   6.842   1.559   2.525
  693SOL    HW2 2979   6.766   1.620   2.656
  694SOL     OW 2980   1.664   0.308   2.382
  694SOL    HW1 2981   1.680   0.257   2.297
  694SOL    HW2 2982   1.581   0.362   2.373
  695SOL     OW 2983   4.095   5.452   6.411
  695SOL    HW1 2984   4.131   5.479   6.500
  695SOL    HW2 2985   4.002   5.417   6.422
  696SOL     OW 2986   4.869   6.279   2.569
  696SOL    HW1 2987   4.919   6.214   2.627
  696SOL    HW2 2988   4.866   6.368   2.613
  697SOL     OW 2989   1.519   4.067   3.681
  697SOL    HW1 2990   1.422   4.077   3.655
  697SOL    HW2 2991   1.525   4.051   3.779
  698SOL     OW 2992   4.587   5.972   4.095
  698SOL    HW1 2993   4.634   5.915   4.163
  698SOL    HW2 2994   4.634   5.964   4.007
  699SOL     OW 2995   1.079   4.140   6.958
  699SOL    HW1 2996   1.002   4.160   6.898
  699SOL    HW2 2997   1.147   4.213   6.952
  700SOL     OW 2998   2.216   1.297   4.336
  700SOL    HW1 2999   2.214   1.206   4.378
  700SOL    HW2 3000   2.246   1.364   4.404
  701SOL     OW 3001   1.190   4.616   6.305
  701SOL    HW1 3002   1.107   4.658   6.342
  701SOL    HW2 3003   1.165   4.556   6.229
  702SOL     OW 3004   5.223   5.789   4.799
  702SOL    HW1 3005   5.136   5.767   4.844
  702SOL    HW2 3006   5.297   5.782   4.866
  703SOL     OW 3007   4.386   3.854   6.784
  703SOL    HW1 3008   4.454   3.841   6.856
  703SOL    HW2 3009   4.298   3.816   6.814
  704SOL     OW 3010   2.802   0.616   1.581
  704SOL    HW1 3011   2.800   0.649   1.676
  704SOL    HW2 3012   2.720   0.563   1.563
  705SOL     OW 3013   6.623   1.664   3.915
  705SOL    HW1 3014   6.689   1.623   3.978
  705SOL    HW2 3015   6.545   1.700   3.967
  706SOL     OW 3016   4.820   2.309   3.886
  706SOL    HW1 3017   4.832   2.375   3.812
  706SOL    HW2 3018   4.781   2.356   3.966
  707SOL     OW 3019   4.791   2.025   2.108
  707SOL    HW1 3020   4.832   1.993   2.194
  707SOL    HW2 3021   4.800   2.124   2.101
  708SOL     OW 3022   3.988   0.208   2.202
  708SOL    HW1 3023   3.997   0.130   2.264
  708SOL    HW2 3024   4.028   0.184   2.113
  709SOL     OW 3025   0.549   5.228   0.092
  709SOL    HW1 3026   0.582   5.314   0.131
  709SOL    HW2 3027   0.450   5.233   0.079
  710SOL     OW 3028   3.312   3.366   2.469
  710SOL    HW1 3029   3.236   3.349   2.406
  710SOL    HW2 3030   3.365   3.445   2.437
  711SOL     OW 3031   1.673   0.743   4.522
  711SOL    HW1 3032   1.587   0.758   4.572
  711SOL    HW2 3033   1.711   0.654   4.546
  712SOL     OW 3034   1.312   4.137   1.535
  712SOL    HW1 3035   1.271   4.216   1.581
  712SOL    HW2 3036   1.365   4.084   1.600
  713SOL     OW 3037   3.921   3.863   3.694
  713SOL    HW1 3038   3.844   3.924   3.671
  713SOL    HW2 3039   3.944   3.875   3.790
  714SOL     OW 3040   5.065   4.814   5.959
  714SOL    HW1 3041   5.079   4.731   5.905
  714SOL    HW2 3042   5.153   4.847   5.994
  715SOL     OW 3043   4.292   1.303   6.510
  715SOL    HW1 3044   4.282   1.220   6.566
  715SOL    HW2 3045   4.383   1.304   6.468
  716SOL     OW 3046   6.817   5.148   1.689
  716SOL    HW1 3047   6.788   5.169   1.782
  716SOL    HW2 3048   6.850   5.231   1.644
  717SOL     OW 3049   5.875   2.886   6.909
  717SOL    HW1 3050   5.900   2.980   6.935
  717SOL    HW2 3051   5.943   2.822   6.944
  718SOL     OW 3052   2.992   3.505   6.931
  718SOL    HW1 3053   3.002   3.603   6.911
  718SOL    HW2 3054   3.004   3.453   6.846
  719SOL     OW 3055   5.466   5.309   0.087
  719SOL    HW1 3056   5.418   5.397   0.091
  719SOL    HW2 3057   5.453   5.260   0.173
  720SOL     OW 3058   2.411   1.013   6.403
  720SOL    HW1 3059   2.337   1.080   6.408
  720SOL    HW2 3060   2.372   0.921   6.395
  721SOL     OW 3061   1.536   6.427   5.827
  721SOL    HW1 3062   1.461   6.428   5.893
  721SOL    HW2 3063   1.539   6.514   5.778
  722SOL     OW 3064   4.709   6.359   5.783
  722SOL    HW1 3065   4.694   6.362   5.685
  722SOL    HW2 3066   4.626   6.328   5.829
  723SOL     OW 3067   1.869   3.189   1.780
  723SOL    HW1 3068   1.777   3.175   1.816
  723SOL    HW2 3069   1.864   3.194   1.680
  724SOL     OW 3070   6.586   0.702   4.484
  724SOL    HW1 3071   6.667   0.686   4.540
  724SOL    HW2 3072   6.612   0.706   4.388
  725SOL     OW 3073   2.702   4.682   1.089
  725SOL    HW1 3074   2.699   4.763   1.148
  725SOL    HW2 3075   2.614   4.672   1.042
  726SOL     OW 3076   4.353   6.969   6.237
  726SOL    HW1 3077   4.393   7.004   6.322
  726SOL    HW2 3078   4.399   6.884   6.212
  727SOL     OW 3079   2.461   4.575   3.913
  727SOL    HW1 3080   2.428   4.487   3.880
  727SOL    HW2 3081   2.411   4.648   3.868
  728SOL     OW 3082   0.071   2.805   5.254
  728SOL    HW1 3083   0.130   2.724   5.264
  728SOL    HW2 3084   0.123   2.887   5.278
  729SOL     OW 3085   3.108   0.663   0.670
  729SOL    HW1 3086   3.025   0.615   0.640
  729SOL    HW2 3087   3.082   0.750   0.711
  730SOL     OW 3088   5.949   0.859   5.127
  730SOL    HW1 3089   5.991   0.947   5.107
  730SOL    HW2 3090   5.868   0.846   5.069
  731SOL     OW 3091   6.290   3.033   3.907
  731SOL    HW1 3092   6.380   3.075   3.897
  731SOL    HW2 3093   6.298   2.934   3.892
  732SOL     OW 3094   6.596   2.847   2.627
  732SOL    HW1 3095   6.695   2.841   2.635
  732SOL    HW2 3096   6.572   2.895   2.542
  733SOL     OW 3097   4.201   4.814   4.075
  733SOL    HW1 3098   4.249   4.901   4.064
  733SOL    HW2 3099   4.252   4.742   4.028
  734SOL     OW 3100   0.267   4.476   0.381
  734SOL    HW1 3101   0.344   4.414   0.394
  734SOL    HW2 3102   0.267   4.543   0.455
  735SOL     OW 3103   2.496   4.857   6.612
  735SOL    HW1 3104   2.555   4.902   6.545
  735SOL    HW2 3105   2.420   4.918   6.635
  736SOL     OW 3106   5.800   0.845   3.072
  736SOL    HW1 3107   5.752   0.787   3.006
  736SOL    HW2 3108   5.899   0.833   3.061
  737SOL     OW 3109   5.587   3.881   0.385
  737SOL    HW1 3110   5.521   3.853   0.315
  737SOL    HW2 3111   5.662   3.815   0.388
  738SOL     OW 3112   0.862   4.651   2.792
  738SOL    HW1 3113   0.786   4.588   2.811
  738SOL    HW2 3114   0.836   4.743   2.821
  739SOL     OW 3115   4.799   6.330   6.662
  739SOL    HW1 3116   4.778   6.236   6.635
  739SOL    HW2 3117   4.897   6.337   6.683
  740SOL     OW 3118   5.485   0.057   1.083
  740SOL    HW1 3119   5.440   0.011   1.159
  740SOL    HW2 3120   5.500   0.153   1.106
  741SOL     OW 3121   2.674   0.474   3.918
  741SOL    HW1 3122   2.705   0.449   4.010
  741SOL    HW2 3123   2.575   0.468   3.914
  742SOL     OW 3124   1.812   0.178   2.573
  742SOL    HW1 3125   1.754   0.229   2.510
  742SOL    HW2 3126   1.779   0.084   2.580
  743SOL     OW 3127   2.097   3.680   3.942
  743SOL    HW1 3128   2.093   3.604   3.876
  743SOL    HW2 3129   2.127   3.645   4.031
  744SOL     OW 3130   0.205   6.072   1.145
  744SOL    HW1 3131   0.148   6.024   1.078
  744SOL    HW2 3132   0.205   6.170   1.126
  745SOL     OW 3133   1.502   6.132   3.308
  745SOL    HW1 3134   1.597   6.103   3.320
  745SOL    HW2 3135   1.490   6.167   3.215
  746SOL     OW 3136   2.888   0.720   4.510
  746SOL    HW1 3137   2.823   0.781   4.464
  746SOL    HW2 3138   2.962   0.696   4.447
  747SOL     OW 3139   6.028   4.647   2.089
  747SOL    HW1 3140   6.053   4.688   2.001
  747SOL    HW2 3141   5.936   4.676   2.114
  748SOL     OW 3142   3.845   3.010   2.390
  748SOL    HW1 3143   3.789   3.093   2.396
  748SOL    HW2 3144   3.914   3.021   2.318
  749SOL     OW 3145   6.923   1.520   5.252
  749SOL    HW1 3146   6.913   1.448   5.183
  749SOL    HW2 3147   6.877   1.603   5.222
  750SOL     OW 3148   2.750   4.233   1.146
  750SOL    HW1 3149   2.765   4.135   1.157
  750SOL    HW2 3150   2.655   4.256   1.168
  751SOL     OW 3151   4.482   1.526   0.363
  751SOL    HW1 3152   4.386   1.513   0.388
  751SOL    HW2 3153   4.489   1.547   0.265
  752SOL     OW 3154   4.891   1.105   1.571
  752SOL    HW1 3155   4.953   1.170   1.528
  752SOL    HW2 3156   4.803   1.148   1.588
  753SOL     OW 3157   2.604   1.713   2.594
  753SOL    HW1 3158   2.510   1.681   2.582
  753SOL    HW2 3159   2.667   1.643   2.561
  754SOL     OW 3160   4.922   5.480   0.015
  754SOL    HW1 3161   4.883   5.390   7.021
  754SOL    HW2 3162   4.975   5.511   6.962
  755SOL     OW 3163   0.082   6.417   3.086
  755SOL    HW1 3164   0.102   6.319   3.078
  755SOL    HW2 3165   0.145   6.469   3.028
  756SOL     OW 3166   3.815   6.927   3.607
  756SOL    HW1 3167   3.831   6.963   3.699
  756SOL    HW2 3168   3.894   6.946   3.549
  757SOL     OW 3169   6.852   0.801   4.578
  757SOL    HW1 3170   6.843   0.844   4.668
  757SOL    HW2 3171   6.899   0.713   4.589
  758SOL     OW 3172   4.402   2.221   1.850
  758SOL    HW1 3173   4.402   2.306   1.797
  758SOL    HW2 3174   4.482   2.166   1.826
  759SOL     OW 3175   1.738   1.026   0.398
  759SOL    HW1 3176   1.828   1.067   0.380
  759SOL    HW2 3177   1.733   0.998   0.493
  760SOL     OW 3178   4.411   1.858   5.675
  760SOL    HW1 3179   4.349   1.829   5.749
  760SOL    HW2 3180   4.460   1.940   5.704
  761SOL     OW 3181   6.038   2.412   6.726
  761SOL    HW1 3182   6.079   2.374   6.644
  761SOL    HW2 3183   5.973   2.484   6.701
  762SOL     OW 3184   1.931   5.421   3.919
  762SOL    HW1 3185   1.865   5.365   3.969
  762SOL    HW2 3186   1.953   5.503   3.972
  763SOL     OW 3187   5.784   5.034   6.614
  763SOL    HW1 3188   5.734   4.970   6.673
  763SOL    HW2 3189   5.749   5.127   6.628
  764SOL     OW 3190   4.249   1.190   2.736
  764SOL    HW1 3191   4.299   1.108   2.709
  764SOL    HW2 3192   4.151   1.169   2.742
  765SOL     OW 3193   0.020   6.676   3.737
  765SOL    HW1 3194   0.011   6.586   3.778
  765SOL    HW2 3195   0.108   6.682   3.690
  766SOL     OW 3196   0.325   6.333   0.366
  766SOL    HW1 3197   0.411   6.384   0.372
  766SOL    HW2 3198   0.342   6.244   0.324
  767SOL     OW 3199   6.162   6.987   1.666
  767SOL    HW1 3200   6.143   7.022   1.574
  767SOL    HW2 3201   6.151   0.034   1.733
  768SOL     OW 3202   3.420   6.461   3.450
  768SOL    HW1 3203   3.325   6.454   3.480
  768SOL    HW2 3204   3.480   6.421   3.519
  769SOL     OW 3205   3.214   0.599   6.769
  769SOL    HW1 3206   3.258   0.558   6.689
  769SOL    HW2 3207   3.237   0.696   6.774
  770SOL     OW 3208   3.650   4.888   3.786
  770SOL    HW1 3209   3.669   4.900   3.883
  770SOL    HW2 3210   3.552   4.868   3.773
  771SOL     OW 3211   0.354   5.640   3.824
  771SOL    HW1 3212   0.383   5.544   3.826
  771SOL    HW2 3213   0.423   5.697   3.868
  772SOL     OW 3214   6.659   4.357   4.814
  772SOL    HW1 3215   6.602   4.302   4.876
  772SOL    HW2 3216   6.602   4.397   4.743
  773SOL     OW 3217   0.117   3.974   1.702
  773SOL    HW1 3218   0.122   3.947   1.799
  773SOL    HW2 3219   0.021   3.983   1.676
  774SOL     OW 3220   1.496   1.034   1.144
  774SOL    HW1 3221   1.462   1.123   1.115
  774SOL    HW2 3222   1.568   1.003   1.081
  775SOL     OW 3223   1.176   2.345   4.314
  775SOL    HW1 3224   1.183   2.283   4.236
  775SOL    HW2 3225   1.231   2.310   4.390
  776SOL     OW 3226   2.709   0.431   5.807
  776SOL    HW1 3227   2.790   0.393   5.762
  776SOL    HW2 3228   2.654   0.357   5.844
  777SOL     OW 3229   4.435   0.348   0.464
  777SOL    HW1 3230   4.520   0.343   0.515
  777SOL    HW2 3231   4.434   0.432   0.409
  778SOL     OW 3232   4.082   6.448   3.813
  778SOL    HW1 3233   4.099   6.349   3.812
  778SOL    HW2 3234   4.166   6.496   3.834
  779SOL     OW 3235   0.892   1.050   2.205
  779SOL    HW1 3236   0.859   1.126   2.261
  779SOL    HW2 3237   0.986   1.028   2.231
  780SOL     OW 3238   5.279   3.343   5.234
  780SOL    HW1 3239   5.333   3.307   5.158
  780SOL    HW2 3240   5.213   3.410   5.200
  781SOL     OW 3241   0.845   1.789   6.168
  781SOL    HW1 3242   0.805   1.821   6.254
  781SOL    HW2 3243   0.943   1.809   6.167
  782SOL     OW 3244   0.345   4.171   0.689
  782SOL    HW1 3245   0.259   4.120   0.691
  782SOL    HW2 3246   0.421   4.109   0.709
  783SOL     OW 3247   2.520   4.017   0.454
  783SOL    HW1 3248   2.427   4.052   0.439
  783SOL    HW2 3249   2.524   3.969   0.541
  784SOL     OW 3250   5.648   6.859   3.852
  784SOL    HW1 3251   5.721   6.793   3.835
  784SOL    HW2 3252   5.583   6.857   3.776
  785SOL     OW 3253   6.404   2.302   4.235
  785SOL    HW1 3254   6.399   2.218   4.289
  785SOL    HW2 3255   6.462   2.286   4.155
  786SOL     OW 3256   6.340   0.120   0.109
  786SOL    HW1 3257   6.401   0.172   0.169
  786SOL    HW2 3258   6.246   0.131   0.140
  787SOL     OW 3259   3.756   1.375   6.471
  787SOL    HW1 3260   3.663   1.410   6.467
  787SOL    HW2 3261   3.801   1.408   6.554
  788SOL     OW 3262   0.940   4.423   4.108
  788SOL    HW1 3263   0.873   4.399   4.038
  788SOL    HW2 3264   1.025   4.373   4.093
  789SOL     OW 3265   6.069   4.000   1.035
  789SOL    HW1 3266   6.108   3.914   1.069
  789SOL    HW2 3267   5.971   4.002   1.058
  790SOL     OW 3268   3.443   0.952   4.294
  790SOL    HW1 3269   3.414   0.904   4.212
  790SOL    HW2 3270   3.490   1.037   4.269
  791SOL     OW 3271   3.921   1.931   4.293
  791SOL    HW1 3272   3.890   2.026   4.296
  791SOL    HW2 3273   3.888   1.883   4.374
  792SOL     OW 3274   5.837   0.565   3.131
  792SOL    HW1 3275   5.861   0.588   3.037
  792SOL    HW2 3276   5.920   0.550   3.185
  793SOL     OW 3277   6.623   6.953   6.027
  793SOL    HW1 3278   6.637   0.025   6.043
  793SOL    HW2 3279   6.707   6.912   5.991
  794SOL     OW 3280   3.168   5.158   5.062
  794SOL    HW1 3281   3.217   5.140   5.147
  794SOL    HW2 3282   3.233   5.161   4.986
  795SOL     OW 3283   5.067   4.365   6.474
  795SOL    HW1 3284   5.087   4.463   6.462
  795SOL    HW2 3285   5.151   4.317   6.500
  796SOL     OW 3286   1.025   1.985   5.736
  796SOL    HW1 3287   0.977   1.960   5.820
  796SOL    HW2 3288   1.003   2.079   5.711
  797SOL     OW 3289   6.319   2.263   4.845
  797SOL    HW1 3290   6.364   2.352   4.857
  797SOL    HW2 3291   6.220   2.275   4.851
  798SOL     OW 3292   6.307   0.846   5.198
  798SOL    HW1 3293   6.249   0.871   5.276
  798SOL    HW2 3294   6.362   0.766   5.222
  799SOL     OW 3295   6.801   3.269   3.249
  799SOL    HW1 3296   6.705   3.290   3.231
  799SOL    HW2 3297   6.856   3.352   3.245
  800SOL     OW 3298   0.094   1.651   2.031
  800SOL    HW1 3299   0.056   1.743   2.038
  800SOL    HW2 3300   0.031   1.593   1.980
  801SOL     OW 3301   0.179   2.091   3.942
  801SOL    HW1 3302   0.104   2.033   3.975
  801SOL    HW2 3303   0.223   2.136   4.020
  802SOL     OW 3304   5.887   1.059   0.951
  802SOL    HW1 3305   5.859   1.100   1.038
  802SOL    HW2 3306   5.974   1.011   0.962
  803SOL     OW 3307   1.277   6.728   4.933
  803SOL    HW1 3308   1.326   6.808   4.967
  803SOL    HW2 3309   1.210   6.756   4.864
  804SOL     OW 3310   6.226   0.295   0.462
  804SOL    HW1 3311   6.255   0.334   0.375
  804SOL    HW2 3312   6.296   0.230   0.494
  805SOL     OW 3313   1.461   3.347   6.203
  805SOL    HW1 3314   1.497   3.306   6.119
  805SOL    HW2 3315   1.401   3.283   6.250
  806SOL     OW 3316   5.225   0.938   0.740
  806SOL    HW1 3317   5.230   1.036   0.723
  806SOL    HW2 3318   5.304   0.909   0.795
  807SOL     OW 3319   1.376   0.266   2.977
  807SOL    HW1 3320   1.463   0.298   3.015
  807SOL    HW2 3321   1.318   0.345   2.955
  808SOL     OW 3322   5.947   3.277   4.851
  808SOL    HW1 3323   5.959   3.371   4.818
  808SOL    HW2 3324   5.958   3.214   4.774
  809SOL     OW 3325   0.731   4.921   6.421
  809SOL    HW1 3326   0.729   4.869   6.506
  809SOL    HW2 3327   0.824   4.952   6.403
  810SOL     OW 3328   6.623   4.777   6.480
  810SOL    HW1 3329   6.678   4.817   6.553
  810SOL    HW2 3330   6.539   4.738   6.519
  811SOL     OW 3331   4.853   5.264   3.823
  811SOL    HW1 3332   4.937   5.313   3.847
  811SOL    HW2 3333   4.844   5.258   3.724
  812SOL     OW 3334   1.057   0.417   2.441
  812SOL    HW1 3335   0.965   0.423   2.480
  812SOL    HW2 3336   1.057   0.349   2.367
  813SOL     OW 3337   5.944   5.597   2.133
  813SOL    HW1 3338   5.885   5.552   2.199
  813SOL    HW2 3339   6.000   5.666   2.179
  814SOL     OW 3340   5.583   5.634   1.643
  814SOL    HW1 3341   5.508   5.666   1.702
  814SOL    HW2 3342   5.657   5.701   1.644
  815SOL     OW 3343   0.319   2.513   0.539
  815SOL    HW1 3344   0.414   2.506   0.510
  815SOL    HW2 3345   0.283   2.604   0.516
  816SOL     OW 3346   6.291   0.738   1.146
  816SOL    HW1 3347   6.365   0.789   1.190
  816SOL    HW2 3348   6.331   0.674   1.080
  817SOL     OW 3349   1.233   2.313   2.339
  817SOL    HW1 3350   1.220   2.229   2.393
  817SOL    HW2 3351   1.146   2.340   2.298
  818SOL     OW 3352   6.911   1.705   1.558
  818SOL    HW1 3353   6.969   1.668   1.486
  818SOL    HW2 3354   6.934   1.660   1.645
  819SOL     OW 3355   0.326   4.467   3.285
  819SOL    HW1 3356   0.334   4.424   3.375
  819SOL    HW2 3357   0.255   4.537   3.288
  820SOL     OW 3358   1.285   3.427   5.066
  820SOL    HW1 3359   1.375   3.406   5.103
  820SOL    HW2 3360   1.215   3.411   5.137
  821SOL     OW 3361   1.145   3.559   0.837
  821SOL    HW1 3362   1.065   3.582   0.892
  821SOL    HW2 3363   1.222   3.617   0.864
  822SOL     OW 3364   1.734   3.641   4.724
  822SOL    HW1 3365   1.751   3.545   4.745
  822SOL    HW2 3366   1.642   3.666   4.752
  823SOL     OW 3367   2.915   3.102   0.870
  823SOL    HW1 3368   3.002   3.116   0.822
  823SOL    HW2 3369   2.840   3.103   0.803
  824SOL     OW 3370   5.880   2.218   5.674
  824SOL    HW1 3371   5.862   2.123   5.697
  824SOL    HW2 3372   5.975   2.241   5.695
  825SOL     OW 3373   1.157   4.280   1.723
  825SOL    HW1 3374   1.192   4.306   1.813
  825SOL    HW2 3375   1.080   4.217   1.733
  826SOL     OW 3376   0.656   4.096   5.932
  826SOL    HW1 3377   0.587   4.168   5.926
  826SOL    HW2 3378   0.614   4.013   5.969
  827SOL     OW 3379   4.231   6.051   0.328
  827SOL    HW1 3380   4.289   5.977   0.363
  827SOL    HW2 3381   4.288   6.117   0.279
  828SOL     OW 3382   6.096   6.943   6.129
  828SOL    HW1 3383   6.150   6.909   6.206
  828SOL    HW2 3384   6.013   6.887   6.119
  829SOL     OW 3385   3.946   3.091   4.650
  829SOL    HW1 3386   3.974   3.118   4.742
  829SOL    HW2 3387   3.949   3.170   4.589
  830SOL     OW 3388   5.027   3.716   5.661
  830SOL    HW1 3389   4.956   3.728   5.729
  830SOL    HW2 3390   5.019   3.788   5.591
  831SOL     OW 3391   6.361   6.908   5.114
  831SOL    HW1 3392   6.451   6.865   5.120
  831SOL    HW2 3393   6.370   7.007   5.130
  832SOL     OW 3394   2.123   1.323   5.697
  832SOL    HW1 3395   2.160   1.235   5.727
  832SOL    HW2 3396   2.072   1.365   5.773
  833SOL     OW 3397   1.185   0.027   5.654
  833SOL    HW1 3398   1.191   0.032   5.754
  833SOL    HW2 3399   1.118   6.982   5.629
  834SOL     OW 3400   3.648   4.465   5.715
  834SOL    HW1 3401   3.633   4.553   5.761
  834SOL    HW2 3402   3.651   4.392   5.784
  835SOL     OW 3403   4.082   0.733   3.247
  835SOL    HW1 3404   4.140   0.748   3.167
  835SOL    HW2 3405   4.139   0.731   3.329
  836SOL     OW 3406   2.213   0.557   0.235
  836SOL    HW1 3407   2.231   0.637   0.294
  836SOL    HW2 3408   2.195   0.477   0.292
  837SOL     OW 3409   3.977   0.489   5.260
  837SOL    HW1 3410   3.962   0.407   5.315
  837SOL    HW2 3411   3.928   0.566   5.300
  838SOL     OW 3412   1.555   4.441   2.595
  838SOL    HW1 3413   1.589   4.532   2.616
  838SOL    HW2 3414   1.467   4.448   2.548
  839SOL     OW 3415   3.332   0.948   1.874
  839SOL    HW1 3416   3.335   0.888   1.794
  839SOL    HW2 3417   3.294   1.036   1.848
  840SOL     OW 3418   0.737   1.888   6.425
  840SOL    HW1 3419   0.704   1.794   6.420
  840SOL    HW2 3420   0.729   1.921   6.519
  841SOL     OW 3421   0.110   3.477   0.832
  841SOL    HW1 3422   0.090   3.464   0.929
  841SOL    HW2 3423   0.033   3.444   0.778
  842SOL     OW 3424   3.496   5.233   3.839
  842SOL    HW1 3425   3.481   5.147   3.888
  842SOL    HW2 3426   3.585   5.231   3.793
  843SOL     OW 3427   6.704   3.509   2.498
  843SOL    HW1 3428   6.787   3.553   2.465
  843SOL    HW2 3429   6.670   3.558   2.578
  844SOL     OW 3430   5.271   5.973   0.711
  844SOL    HW1 3431   5.334   5.928   0.775
  844SOL    HW2 3432   5.200   5.908   0.684
  845SOL     OW 3433   1.596   5.292   4.732
  845SOL    HW1 3434   1.558   5.201   4.721
  845SOL    HW2 3435   1.665   5.291   4.805
  846SOL     OW 3436   5.391   2.681   0.122
  846SOL    HW1 3437   5.396   2.761   0.061
  846SOL    HW2 3438   5.467   2.619   0.102
  847SOL     OW 3439   5.280   3.690   2.204
  847SOL    HW1 3440   5.369   3.670   2.244
  847SOL    HW2 3441   5.280   3.785   2.170
  848SOL     OW 3442   6.500   7.024   5.561
  848SOL    HW1 3443   6.413   6.979   5.540
  848SOL    HW2 3444   6.483   0.075   5.622
  849SOL     OW 3445   1.109   5.150   4.241
  849SOL    HW1 3446   1.179   5.078   4.243
  849SOL    HW2 3447   1.019   5.108   4.250
  850SOL     OW 3448   3.627   0.658   3.094
  850SOL    HW1 3449   3.651   0.650   2.997
  850SOL    HW2 3450   3.692   0.719   3.139
  851SOL     OW 3451   0.745   0.472   5.098
  851SOL    HW1 3452   0.681   0.399   5.124
  851SOL    HW2 3453   0.701   0.561   5.108
  852SOL     OW 3454   2.915   4.279   6.167
  852SOL    HW1 3455   2.835   4.219   6.173
  852SOL    HW2 3456   2.927   4.308   6.072
  853SOL     OW 3457   1.371   3.458   1.029
  853SOL    HW1 3458   1.314   3.540   1.034
  853SOL    HW2 3459   1.449   3.474   0.969
  854SOL     OW 3460   6.057   5.516   1.902
  854SOL    HW1 3461   5.982   5.486   1.843
  854SOL    HW2 3462   6.019   5.550   1.988
  855SOL     OW 3463   5.461   0.326   1.140
  855SOL    HW1 3464   5.514   0.411   1.148
  855SOL    HW2 3465   5.374   0.337   1.188
  856SOL     OW 3466   1.733   0.492   4.579
  856SOL    HW1 3467   1.650   0.456   4.622
  856SOL    HW2 3468   1.763   0.430   4.507
  857SOL     OW 3469   6.499   3.717   1.754
  857SOL    HW1 3470   6.495   3.707   1.853
  857SOL    HW2 3471   6.521   3.811   1.731
  858SOL     OW 3472   3.194   3.781   1.358
  858SOL    HW1 3473   3.218   3.715   1.286
  858SOL    HW2 3474   3.203   3.738   1.447
  859SOL     OW 3475   0.288   4.899   0.704
  859SOL    HW1 3476   0.372   4.951   0.690
  859SOL    HW2 3477   0.301   4.832   0.777
  860SOL     OW 3478   1.996   4.965   0.922
  860SOL    HW1 3479   2.000   5.050   0.975
  860SOL    HW2 3480   1.901   4.947   0.895
  861SOL     OW 3481   4.145   4.762   6.353
  861SOL    HW1 3482   4.227   4.816   6.368
  861SOL    HW2 3483   4.170   4.667   6.337
  862SOL     OW 3484   4.732   4.171   4.023
  862SOL    HW1 3485   4.777   4.240   4.079
  862SOL    HW2 3486   4.648   4.210   3.985
  863SOL     OW 3487   5.560   1.162   0.733
  863SOL    HW1 3488   5.567   1.076   0.683
  863SOL    HW2 3489   5.464   1.191   0.738
  864SOL     OW 3490   6.247   4.283   2.617
  864SOL    HW1 3491   6.204   4.291   2.707
  864SOL    HW2 3492   6.344   4.263   2.628
  865SOL     OW 3493   1.742   0.494   3.868
  865SOL    HW1 3494   1.760   0.577   3.920
  865SOL    HW2 3495   1.713   0.421   3.930
  866SOL     OW 3496   3.718   1.225   0.965
  866SOL    HW1 3497   3.719   1.127   0.983
  866SOL    HW2 3498   3.791   1.248   0.900
  867SOL     OW 3499   1.751   1.734   6.356
  867SOL    HW1 3500   1.677   1.749   6.291
  867SOL    HW2 3501   1.822   1.804   6.343
  868SOL     OW 3502   5.988   2.888   3.497
  868SOL    HW1 3503   5.899   2.886   3.543
  868SOL    HW2 3504   6.009   2.798   3.459
  869SOL     OW 3505   6.816   4.260   2.178
  869SOL    HW1 3506   6.862   4.185   2.226
  869SOL    HW2 3507   6.811   4.239   2.081
  870SOL     OW 3508   6.916   2.894   0.602
  870SOL    HW1 3509   6.820   2.921   0.608
  870SOL    HW2 3510   6.924   2.813   0.544
  871SOL     OW 3511   5.521   4.209   0.678
  871SOL    HW1 3512   5.423   4.225   0.666
  871SOL    HW2 3513   5.555   4.267   0.752
  872SOL     OW 3514   5.895   2.198   2.389
  872SOL    HW1 3515   5.916   2.295   2.375
  872SOL    HW2 3516   5.849   2.187   2.477
  873SOL     OW 3517   4.778   6.624   5.272
  873SOL    HW1 3518   4.862   6.679   5.277
  873SOL    HW2 3519   4.782   6.550   5.340
  874SOL     OW 3520   0.387   3.773   6.399
  874SOL    HW1 3521   0.313   3.775   6.332
  874SOL    HW2 3522   0.388   3.860   6.450
  875SOL     OW 3523   6.179   4.668   6.437
  875SOL    HW1 3524   6.205   4.764   6.429
  875SOL    HW2 3525   6.086   4.661   6.474
  876SOL     OW 3526   0.861   2.106   1.212
  876SOL    HW1 3527   0.887   2.093   1.308
  876SOL    HW2 3528   0.767   2.074   1.199
  877SOL     OW 3529   6.085   6.044   0.440
  877SOL    HW1 3530   6.097   6.088   0.529
  877SOL    HW2 3531   5.989   6.019   0.429
  878SOL     OW 3532   3.405   2.574   0.202
  878SOL    HW1 3533   3.334   2.587   0.272
  878SOL    HW2 3534   3.363   2.536   0.119
  879SOL     OW 3535   3.957   2.148   2.474
  879SOL    HW1 3536   3.947   2.067   2.415
  879SOL    HW2 3537   4.044   2.193   2.453
  880SOL     OW 3538   4.418   5.379   1.362
  880SOL    HW1 3539   4.425   5.360   1.264
  880SOL    HW2 3540   4.461   5.467   1.383
  881SOL     OW 3541   4.220   5.498   4.316
  881SOL    HW1 3542   4.127   5.503   4.279
  881SOL    HW2 3543   4.220   5.529   4.411
  882SOL     OW 3544   0.827   2.131   3.934
  882SOL    HW1 3545   0.795   2.225   3.945
  882SOL    HW2 3546   0.749   2.070   3.924
  883SOL     OW 3547   3.432   4.334   0.203
  883SOL    HW1 3548   3.509   4.278   0.170
  883SOL    HW2 3549   3.360   4.274   0.238
  884SOL     OW 3550   4.191   3.899   1.820
  884SOL    HW1 3551   4.187   3.817   1.763
  884SOL    HW2 3552   4.138   3.885   1.904
  885SOL     OW 3553   4.529   6.391   6.718
  885SOL    HW1 3554   4.464   6.434   6.655
  885SOL    HW2 3555   4.614   6.371   6.669
  886SOL     OW 3556   3.952   1.760   6.354
  886SOL    HW1 3557   3.937   1.804   6.443
  886SOL    HW2 3558   3.885   1.687   6.341
  887SOL     OW 3559   5.508   0.061   6.134
  887SOL    HW1 3560   5.509   0.124   6.057
  887SOL    HW2 3561   5.550   0.104   6.214
  888SOL     OW 3562   6.886   6.304   3.509
  888SOL    HW1 3563   6.855   6.257   3.426
  888SOL    HW2 3564   6.879   6.403   3.496
  889SOL     OW 3565   1.154   6.882   4.742
  889SOL    HW1 3566   1.226   6.915   4.681
  889SOL    HW2 3567   1.090   6.956   4.761
  890SOL     OW 3568   1.724   4.520   2.271
  890SOL    HW1 3569   1.752   4.427   2.246
  890SOL    HW2 3570   1.627   4.520   2.295
  891SOL     OW 3571   5.733   3.495   6.237
  891SOL    HW1 3572   5.720   3.571   6.173
  891SOL    HW2 3573   5.804   3.434   6.204
  892SOL     OW 3574   2.420   5.452   1.657
  892SOL    HW1 3575   2.462   5.487   1.573
  892SOL    HW2 3576   2.374   5.526   1.705
  893SOL     OW 3577   1.590   6.599   1.187
  893SOL    HW1 3578   1.507   6.654   1.175
  893SOL    HW2 3579   1.588   6.522   1.124
  894SOL     OW 3580   1.073   5.099   3.628
  894SOL    HW1 3581   1.113   5.008   3.619
  894SOL    HW2 3582   0.975   5.094   3.609
  895SOL     OW 3583   2.137   0.565   4.615
  895SOL    HW1 3584   2.205   0.555   4.542
  895SOL    HW2 3585   2.052   0.603   4.577
  896SOL     OW 3586   5.736   6.739   3.269
  896SOL    HW1 3587   5.689   6.826   3.286
  896SOL    HW2 3588   5.831   6.757   3.244
  897SOL     OW 3589   5.116   1.675   6.169
  897SOL    HW1 3590   5.044   1.623   6.122
  897SOL    HW2 3591   5.086   1.697   6.262
  898SOL     OW 3592   5.697   5.596   3.724
  898SOL    HW1 3593   5.602   5.600   3.695
  898SOL    HW2 3594   5.702   5.567   3.820
  899SOL     OW 3595   1.229   4.166   0.329
  899SOL    HW1 3596   1.230   4.096   0.258
  899SOL    HW2 3597   1.316   4.214   0.329
  900SOL     OW 3598   0.674   5.724   3.946
  900SOL    HW1 3599   0.635   5.802   3.995
  900SOL    HW2 3600   0.753   5.754   3.893
  901SOL     OW 3601   6.194   1.999   3.509
  901SOL    HW1 3602   6.126   2.065   3.475
  901SOL    HW2 3603   6.155   1.907   3.507
  902SOL     OW 3604   0.777   5.901   0.240
  902SOL    HW1 3605   0.859   5.852   0.270
  902SOL    HW2 3606   0.717   5.917   0.318
  903SOL     OW 3607   0.539   5.240   6.706
  903SOL    HW1 3608   0.466   5.182   6.671
  903SOL    HW2 3609   0.583   5.195   6.784
  904SOL     OW 3610   1.784   0.883   3.481
  904SOL    HW1 3611   1.837   0.952   3.529
  904SOL    HW2 3612   1.723   0.836   3.546
  905SOL     OW 3613   6.518   1.799   5.624
  905SOL    HW1 3614   6.458   1.726   5.655
  905SOL    HW2 3615   6.495   1.822   5.529
  906SOL     OW 3616   6.560   3.564   5.269
  906SOL    HW1 3617   6.606   3.487   5.313
  906SOL    HW2 3618   6.600   3.650   5.301
  907SOL     OW 3619   0.167   3.218   1.694
  907SOL    HW1 3620   0.171   3.280   1.773
  907SOL    HW2 3621   0.259   3.202   1.659
  908SOL     OW 3622   2.247   0.760   3.042
  908SOL    HW1 3623   2.199   0.832   3.092
  908SOL    HW2 3624   2.296   0.800   2.964
  909SOL     OW 3625   4.403   0.120   1.394
  909SOL    HW1 3626   4.338   0.046   1.378
  909SOL    HW2 3627   4.486   0.103   1.342
  910SOL     OW 3628   1.860   1.613   1.665
  910SOL    HW1 3629   1.790   1.682   1.650
  910SOL    HW2 3630   1.848   1.572   1.755
  911SOL     OW 3631   0.425   3.846   0.988
  911SOL    HW1 3632   0.441   3.828   0.891
  911SOL    HW2 3633   0.396   3.941   1.000
  912SOL     OW 3634   0.587   0.205   6.023
  912SOL    HW1 3635   0.569   0.289   6.074
  912SOL    HW2 3636   0.564   0.126   6.080
  913SOL     OW 3637   1.963   1.087   1.963
  913SOL    HW1 3638   1.904   1.129   1.894
  913SOL    HW2 3639   1.909   1.026   2.021
  914SOL     OW 3640   2.479   5.786   2.872
  914SOL    HW1 3641   2.462   5.777   2.774
  914SOL    HW2 3642   2.459   5.700   2.918
  915SOL     OW 3643   1.236   2.287   0.537
  915SOL    HW1 3644   1.266   2.382   0.537
  915SOL    HW2 3645   1.247   2.249   0.445
  916SOL     OW 3646   1.744   3.159   2.361
  916SOL    HW1 3647   1.788   3.238   2.403
  916SOL    HW2 3648   1.796   3.131   2.280
  917SOL     OW 3649   3.509   1.997   6.622
  917SOL    HW1 3650   3.419   2.016   6.662
  917SOL    HW2 3651   3.561   2.081   6.614
  918SOL     OW 3652   0.718   0.916   5.535
  918SOL    HW1 3653   0.624   0.901   5.567
  918SOL    HW2 3654   0.741   1.013   5.543
  919SOL     OW 3655   1.562   7.009   1.086
  919SOL    HW1 3656   1.532   6.969   1.173
  919SOL    HW2 3657   1.530   0.077   1.080
  920SOL     OW 3658   2.121   1.096   3.398
  920SOL    HW1 3659   2.183   1.160   3.354
  920SOL    HW2 3660   2.124   1.109   3.497
  921SOL     OW 3661   4.508   4.490   0.400
  921SOL    HW1 3662   4.537   4.536   0.316
  921SOL    HW2 3663   4.530   4.392   0.394
  922SOL     OW 3664   2.080   4.776   6.086
  922SOL    HW1 3665   2.143   4.714   6.038
  922SOL    HW2 3666   2.034   4.726   6.159
  923SOL     OW 3667   3.507   1.564   6.595
  923SOL    HW1 3668   3.427   1.562   6.655
  923SOL    HW2 3669   3.492   1.505   6.516
  924SOL     OW 3670   6.678   4.643   2.672
  924SOL    HW1 3671   6.605   4.602   2.727
  924SOL    HW2 3672   6.685   4.595   2.584
  925SOL     OW 3673   6.832   1.836   3.058
  925SOL    HW1 3674   6.740   1.858   3.025
  925SOL    HW2 3675   6.886   1.797   2.983
  926SOL     OW 3676   5.624   6.382   0.455
  926SOL    HW1 3677   5.567   6.316   0.505
  926SOL    HW2 3678   5.720   6.364   0.475
  927SOL     OW 3679   5.015   4.986   4.880
  927SOL    HW1 3680   5.095   5.046   4.878
  927SOL    HW2 3681   5.043   4.892   4.860
  928SOL     OW 3682   0.462   1.334   1.165
  928SOL    HW1 3683   0.553   1.293   1.173
  928SOL    HW2 3684   0.435   1.373   1.253
  929SOL     OW 3685   0.270   2.647   2.407
  929SOL    HW1 3686   0.325   2.569   2.434
  929SOL    HW2 3687   0.251   2.642   2.309
  930SOL     OW 3688   5.456   5.444   2.479
  930SOL    HW1 3689   5.489   5.514   2.542
  930SOL    HW2 3690   5.481   5.354   2.514
  931SOL     OW 3691   1.882   3.137   2.128
  931SOL    HW1 3692   1.917   3.206   2.065
  931SOL    HW2 3693   1.929   3.050   2.112
  932SOL     OW 3694   4.656   6.359   1.217
  932SOL    HW1 3695   4.616   6.433   1.164
  932SOL    HW2 3696   4.739   6.392   1.263
  933SOL     OW 3697   1.543   5.816   4.261
  933SOL    HW1 3698   1.499   5.755   4.195
  933SOL    HW2 3699   1.540   5.774   4.352
  934SOL     OW 3700   2.956   0.871   5.727
  934SOL    HW1 3701   2.924   0.790   5.776
  934SOL    HW2 3702   3.047   0.854   5.689
  935SOL     OW 3703   1.727   3.574   5.787
  935SOL    HW1 3704   1.749   3.492   5.840
  935SOL    HW2 3705   1.804   3.638   5.791
  936SOL     OW 3706   0.440   2.112   1.816
  936SOL    HW1 3707   0.485   2.026   1.842
  936SOL    HW2 3708   0.462   2.183   1.883
  937SOL     OW 3709   5.107   2.384   3.635
  937SOL    HW1 3710   5.142   2.425   3.551
  937SOL    HW2 3711   5.054   2.302   3.613
  938SOL     OW 3712   6.714   1.327   6.956
  938SOL    HW1 3713   6.779   1.326   6.880
  938SOL    HW2 3714   6.714   1.417   6.999
  939SOL     OW 3715   6.512   0.665   5.228
  939SOL    HW1 3716   6.572   0.715   5.290
  939SOL    HW2 3717   6.544   0.570   5.221
  940SOL     OW 3718   0.418   0.521   4.176
  940SOL    HW1 3719   0.395   0.577   4.255
  940SOL    HW2 3720   0.361   0.547   4.098
  941SOL     OW 3721   5.730   2.646   5.522
  941SOL    HW1 3722   5.787   2.664   5.602
  941SOL    HW2 3723   5.657   2.582   5.547
  942SOL     OW 3724   4.574   0.739   5.373
  942SOL    HW1 3725   4.618   0.649   5.378
  942SOL    HW2 3726   4.644   0.811   5.377
  943SOL     OW 3727   5.564   1.962   6.938
  943SOL    HW1 3728   5.643   1.973   6.877
  943SOL    HW2 3729   5.568   1.873   6.983
  944SOL     OW 3730   5.360   3.898   4.829
  944SOL    HW1 3731   5.261   3.884   4.842
  944SOL    HW2 3732   5.382   3.894   4.732
  945SOL     OW 3733   5.654   3.307   5.552
  945SOL    HW1 3734   5.571   3.271   5.594
  945SOL    HW2 3735   5.667   3.265   5.462
  946SOL     OW 3736   5.447   3.467   6.321
  946SOL    HW1 3737   5.544   3.472   6.294
  946SOL    HW2 3738   5.404   3.388   6.279
  947SOL     OW 3739   1.163   2.438   5.134
  947SOL    HW1 3740   1.089   2.478   5.081
  947SOL    HW2 3741   1.251   2.465   5.095
  948SOL     OW 3742   3.967   1.858   0.637
  948SOL    HW1 3743   3.895   1.832   0.700
  948SOL    HW2 3744   4.054   1.819   0.667
  949SOL     OW 3745   5.863   5.953   6.456
  949SOL    HW1 3746   5.861   5.887   6.381
  949SOL    HW2 3747   5.954   5.994   6.462
  950SOL     OW 3748   3.851   5.265   0.867
  950SOL    HW1 3749   3.920   5.263   0.795
  950SOL    HW2 3750   3.858   5.350   0.918
  951SOL     OW 3751   0.292   2.438   4.123
  951SOL    HW1 3752   0.326   2.505   4.190
  951SOL    HW2 3753   0.192   2.438   4.123
  952SOL     OW 3754   5.071   1.246   1.384
  952SOL    HW1 3755   4.994   1.259   1.322
  952SOL    HW2 3756   5.094   1.332   1.429
  953SOL     OW 3757   3.615   6.725   6.201
  953SOL    HW1 3758   3.631   6.786   6.279
  953SOL    HW2 3759   3.534   6.754   6.151
  954SOL     OW 3760   0.129   6.878   1.537
  954SOL    HW1 3761   0.043   6.916   1.502
  954SOL    HW2 3762   0.149   6.792   1.490
  955SOL     OW 3763   0.211   0.093   2.455
  955SOL    HW1 3764   0.147   0.140   2.394
  955SOL    HW2 3765   0.179   0.001   2.474
  956SOL     OW 3766   1.202   2.486   0.215
  956SOL    HW1 3767   1.115   2.499   0.262
  956SOL    HW2 3768   1.201   2.399   0.165
  957SOL     OW 3769   2.079   6.483   5.002
  957SOL    HW1 3770   2.104   6.495   4.906
  957SOL    HW2 3771   2.159   6.499   5.060
  958SOL     OW 3772   4.656   2.451   0.467
  958SOL    HW1 3773   4.605   2.367   0.453
  958SOL    HW2 3774   4.754   2.433   0.453
  959SOL     OW 3775   1.777   3.816   1.736
  959SOL    HW1 3776   1.871   3.782   1.731
  959SOL    HW2 3777   1.732   3.802   1.648
  960SOL     OW 3778   1.601   5.681   5.660
  960SOL    HW1 3779   1.601   5.593   5.612
  960SOL    HW2 3780   1.508   5.705   5.686
  961SOL     OW 3781   3.848   6.758   0.480
  961SOL    HW1 3782   3.771   6.786   0.537
  961SOL    HW2 3783   3.827   6.670   0.437
  962SOL     OW 3784   1.331   6.001   3.991
  962SOL    HW1 3785   1.413   5.949   3.971
  962SOL    HW2 3786   1.266   5.943   4.041
  963SOL     OW 3787   6.156   0.036   2.114
  963SOL    HW1 3788   6.152   0.006   2.210
  963SOL    HW2 3789   6.231   7.016   2.068
  964SOL     OW 3790   5.572   3.165   1.053
  964SOL    HW1 3791   5.538   3.120   1.135
  964SOL    HW2 3792   5.502   3.224   1.015
  965SOL     OW 3793   1.410   1.754   0.423
  965SOL    HW1 3794   1.454   1.798   0.502
  965SOL    HW2 3795   1.440   1.799   0.339
  966SOL     OW 3796   6.828   2.642   1.755
  966SOL    HW1 3797   6.914   2.652   1.805
  966SOL    HW2 3798   6.802   2.545   1.754
  967SOL     OW 3799   0.857   6.409   2.309
  967SOL    HW1 3800   0.941   6.421   2.363
  967SOL    HW2 3801   0.856   6.318   2.267
  968SOL     OW 3802   6.658   4.214   1.546
  968SOL    HW1 3803   6.727   4.279   1.576
  968SOL    HW2 3804   6.610   4.177   1.626
  969SOL     OW 3805   4.121   6.194   6.613
  969SOL    HW1 3806   4.177   6.249   6.675
  969SOL    HW2 3807   4.049   6.252   6.573
  970SOL     OW 3808   4.631   2.473   5.322
  970SOL    HW1 3809   4.719   2.485   5.277
  970SOL    HW2 3810   4.557   2.502   5.261
  971SOL     OW 3811   0.056   2.916   0.289
  971SOL    HW1 3812   6.992   2.891   0.325
  971SOL    HW2 3813   0.086   3.002   0.331
  972SOL     OW 3814   6.073   6.227   1.007
  972SOL    HW1 3815   6.031   6.318   1.005
  972SOL    HW2 3816   6.012   6.161   0.965
  973SOL     OW 3817   5.628   3.740   4.886
  973SOL    HW1 3818   5.553   3.680   4.857
  973SOL    HW2 3819   5.593   3.808   4.950
  974SOL     OW 3820   2.852   1.388   4.768
  974SOL    HW1 3821   2.779   1.451   4.743
  974SOL    HW2 3822   2.847   1.368   4.866
  975SOL     OW 3823   3.101   6.619   5.679
  975SOL    HW1 3824   3.189   6.630   5.634
  975SOL    HW2 3825   3.070   6.524   5.668
  976SOL     OW 3826   6.869   5.924   3.415
  976SOL    HW1 3827   6.948   5.896   3.469
  976SOL    HW2 3828   6.893   6.003   3.359
  977SOL     OW 3829   1.547   2.723   2.165
  977SOL    HW1 3830   1.565   2.630   2.197
  977SOL    HW2 3831   1.566   2.788   2.238
  978SOL     OW 3832   5.659   3.328   4.812
  978SOL    HW1 3833   5.738   3.317   4.873
  978SOL    HW2 3834   5.666   3.263   4.736
  979SOL     OW 3835   6.094   1.746   3.528
  979SOL    HW1 3836   6.143   1.685   3.590
  979SOL    HW2 3837   6.087   1.703   3.438
  980SOL     OW 3838   6.580   0.280   4.404
  980SOL    HW1 3839   6.569   0.364   4.352
  980SOL    HW2 3840   6.672   0.244   4.390
  981SOL     OW 3841   6.735   3.218   5.622
  981SOL    HW1 3842   6.785   3.193   5.539
  981SOL    HW2 3843   6.643   3.248   5.598
  982SOL     OW 3844   1.570   3.036   1.361
  982SOL    HW1 3845   1.639   2.965   1.361
  982SOL    HW2 3846   1.578   3.091   1.444
  983SOL     OW 3847   6.024   1.870   2.880
  983SOL    HW1 3848   6.033   1.829   2.789
  983SOL    HW2 3849   5.928   1.889   2.898
  984SOL     OW 3850   4.700   1.867   5.109
  984SOL    HW1 3851   4.737   1.824   5.028
  984SOL    HW2 3852   4.672   1.797   5.175
  985SOL     OW 3853   2.714   5.290   0.898
  985SOL    HW1 3854   2.772   5.288   0.980
  985SOL    HW2 3855   2.618   5.295   0.926
  986SOL     OW 3856   3.811   4.805   0.058
  986SOL    HW1 3857   3.778   4.746   7.011
  986SOL    HW2 3858   3.801   4.758   0.146
  987SOL     OW 3859   3.520   6.753   2.410
  987SOL    HW1 3860   3.543   6.657   2.399
  987SOL    HW2 3861   3.525   6.799   2.321
  988SOL     OW 3862   3.271   3.385   1.798
  988SOL    HW1 3863   3.328   3.317   1.753
  988SOL    HW2 3864   3.303   3.399   1.892
  989SOL     OW 3865   0.506   6.784   4.509
  989SOL    HW1 3866   0.442   6.859   4.523
  989SOL    HW2 3867   0.499   6.719   4.584
  990SOL     OW 3868   5.045   6.077   2.689
  990SOL    HW1 3869   5.031   6.074   2.788
  990SOL    HW2 3870   5.142   6.065   2.669
  991SOL     OW 3871   6.311   1.478   5.092
  991SOL    HW1 3872   6.331   1.532   5.010
  991SOL    HW2 3873   6.222   1.434   5.082
  992SOL     OW 3874   0.062   3.185   1.443
  992SOL    HW1 3875   0.100   3.215   1.531
  992SOL    HW2 3876   6.992   3.162   1.454
  993SOL     OW 3877   3.541   5.655   4.446
  993SOL    HW1 3878   3.537   5.555   4.456
  993SOL    HW2 3879   3.450   5.689   4.420
  994SOL     OW 3880   2.954   3.649   2.187
  994SOL    HW1 3881   2.907   3.702   2.257
  994SOL    HW2 3882   2.934   3.552   2.199
  995SOL     OW 3883   0.434   1.121   4.879
  995SOL    HW1 3884   0.518   1.162   4.914
  995SOL    HW2 3885   0.357   1.150   4.936
  996SOL     OW 3886   0.924   3.617   0.974
  996SOL    HW1 3887   0.857   3.689   0.993
  996SOL    HW2 3888   0.881   3.528   0.987
  997SOL     OW 3889   0.575   0.868   1.011
  997SOL    HW1 3890   0.660   0.919   1.019
  997SOL    HW2 3891   0.504   0.912   1.065
  998SOL     OW 3892   4.738   6.939   3.550
  998SOL    HW1 3893   4.792   6.878   3.607
  998SOL    HW2 3894   4.749   6.914   3.453
  999SOL     OW 3895   0.068   5.643   1.927
  999SOL    HW1 3896   0.012   5.670   1.849
  999SOL    HW2 3897   0.154   5.694   1.925
 1000SOL     OW 3898   4.369   2.307   4.513
 1000SOL    HW1 3899   4.325   2.329   4.426
 1000SOL    HW2 3900   4.302   2.268   4.576
 1001SOL     OW 3901   3.896   0.759   5.718
 1001SOL    HW1 3902   3.908   0.823   5.794
 1001SOL    HW2 3903   3.853   0.805   5.641
 1002SOL     OW 3904   0.029   1.465   0.127
 1002SOL    HW1 3905   0.086   1.393   0.085
 1002SOL    HW2 3906   0.037   1.459   0.227
 1003SOL     OW 3907   4.768   4.540   2.922
 1003SOL    HW1 3908   4.725   4.450   2.922
 1003SOL    HW2 3909   4.707   4.606   2.880
 1004SOL     OW 3910   5.896   5.814   0.563
 1004SOL    HW1 3911   5.983   5.791   0.519
 1004SOL    HW2 3912   5.849   5.884   0.510
 1005SOL     OW 3913   6.621   5.648   3.691
 1005SOL    HW1 3914   6.684   5.715   3.731
 1005SOL    HW2 3915   6.622   5.657   3.592
 1006SOL     OW 3916   2.565   4.760   0.618
 1006SOL    HW1 3917   2.646   4.778   0.674
 1006SOL    HW2 3918   2.494   4.827   0.640
 1007SOL     OW 3919   1.266   0.432   3.583
 1007SOL    HW1 3920   1.349   0.470   3.624
 1007SOL    HW2 3921   1.190   0.496   3.595
 1008SOL     OW 3922   2.785   2.257   4.151
 1008SOL    HW1 3923   2.742   2.168   4.135
 1008SOL    HW2 3924   2.790   2.275   4.249
 1009SOL     OW 3925   2.614   5.695   5.180
 1009SOL    HW1 3926   2.696   5.752   5.181
 1009SOL    HW2 3927   2.640   5.598   5.181
 1010SOL     OW 3928   3.816   0.962   6.596
 1010SOL    HW1 3929   3.862   0.893   6.540
 1010SOL    HW2 3930   3.826   1.052   6.553
 1011SOL     OW 3931   3.508   5.796   3.831
 1011SOL    HW1 3932   3.480   5.842   3.915
 1011SOL    HW2 3933   3.432   5.741   3.796
 1012SOL     OW 3934   3.577   5.864   0.192
 1012SOL    HW1 3935   3.554   5.882   0.096
 1012SOL    HW2 3936   3.495   5.835   0.241
 1013SOL     OW 3937   0.029   0.927   0.736
 1013SOL    HW1 3938   7.006   0.996   0.683
 1013SOL    HW2 3939   0.073   0.971   0.815
 1014SOL     OW 3940   4.690   0.684   6.663
 1014SOL    HW1 3941   4.773   0.667   6.611
 1014SOL    HW2 3942   4.625   0.735   6.607
 1015SOL     OW 3943   3.575   6.899   4.884
 1015SOL    HW1 3944   3.615   6.868   4.971
 1015SOL    HW2 3945   3.563   6.998   4.886
 1016SOL     OW 3946   4.707   2.416   1.875
 1016SOL    HW1 3947   4.799   2.451   1.891
 1016SOL    HW2 3948   4.645   2.492   1.855
 1017SOL     OW 3949   4.861   1.801   6.827
 1017SOL    HW1 3950   4.809   1.862   6.887
 1017SOL    HW2 3951   4.879   1.846   6.740
 1018SOL     OW 3952   1.494   3.132   1.694
 1018SOL    HW1 3953   1.566   3.085   1.746
 1018SOL    HW2 3954   1.513   3.230   1.693
 1019SOL     OW 3955   5.839   0.845   0.206
 1019SOL    HW1 3956   5.899   0.803   0.138
 1019SOL    HW2 3957   5.779   0.912   0.162
 1020SOL     OW 3958   3.666   2.292   1.128
 1020SOL    HW1 3959   3.713   2.360   1.184
 1020SOL    HW2 3960   3.575   2.275   1.165
 1021SOL     OW 3961   6.657   1.563   1.002
 1021SOL    HW1 3962   6.723   1.522   1.064
 1021SOL    HW2 3963   6.615   1.491   0.946
 1022SOL     OW 3964   3.332   2.208   0.110
 1022SOL    HW1 3965   3.388   2.156   0.174
 1022SOL    HW2 3966   3.374   2.297   0.092
 1023SOL     OW 3967   5.938   0.872   4.298
 1023SOL    HW1 3968   6.030   0.847   4.269
 1023SOL    HW2 3969   5.896   0.796   4.348
 1024SOL     OW 3970   6.239   1.593   3.685
 1024SOL    HW1 3971   6.300   1.653   3.737
 1024SOL    HW2 3972   6.181   1.541   3.748
 1025SOL     OW 3973   3.194   4.692   1.285
 1025SOL    HW1 3974   3.095   4.675   1.278
 1025SOL    HW2 3975   3.233   4.629   1.352
 1026SOL     OW 3976   0.795   3.142   6.468
 1026SOL    HW1 3977   0.750   3.225   6.433
 1026SOL    HW2 3978   0.743   3.105   6.544
 1027SOL     OW 3979   2.717   5.035   2.276
 1027SOL    HW1 3980   2.624   5.041   2.240
 1027SOL    HW2 3981   2.761   4.953   2.239
 1028SOL     OW 3982   1.101   6.143   0.777
 1028SOL    HW1 3983   1.137   6.224   0.731
 1028SOL    HW2 3984   1.138   6.060   0.734
 1029SOL     OW 3985   3.380   0.475   5.148
 1029SOL    HW1 3986   3.378   0.501   5.052
 1029SOL    HW2 3987   3.286   0.470   5.183
 1030SOL     OW 3988   3.730   4.245   5.220
 1030SOL    HW1 3989   3.818   4.201   5.206
 1030SOL    HW2 3990   3.668   4.220   5.146
 1031SOL     OW 3991   1.873   5.365   1.124
 1031SOL    HW1 3992   1.899   5.460   1.109
 1031SOL    HW2 3993   1.955   5.307   1.122
 1032SOL     OW 3994   1.833   1.229   4.655
 1032SOL    HW1 3995   1.880   1.197   4.572
 1032SOL    HW2 3996   1.899   1.241   4.728
 1033SOL     OW 3997   2.404   6.183   3.637
 1033SOL    HW1 3998   2.399   6.218   3.544
 1033SOL    HW2 3999   2.497   6.151   3.656
 1034SOL     OW 4000   1.497   6.613   2.276
 1034SOL    HW1 4001   1.428   6.642   2.210
 1034SOL    HW2 4002   1.543   6.531   2.242
 1035SOL     OW 4003   3.019   0.464   4.062
 1035SOL    HW1 4004   2.940   0.411   4.034
 1035SOL    HW2 4005   3.029   0.544   4.002
 1036SOL     OW 4006   4.099   7.024   6.136
 1036SOL    HW1 4007   4.188   0.030   6.102
 1036SOL    HW2 4008   4.033   7.023   6.061
 1037SOL     OW 4009   2.651   1.852   6.433
 1037SOL    HW1 4010   2.732   1.840   6.374
 1037SOL    HW2 4011   2.671   1.818   6.525
 1038SOL     OW 4012   2.822   1.288   5.020
 1038SOL    HW1 4013   2.855   1.194   5.023
 1038SOL    HW2 4014   2.776   1.309   5.106
 1039SOL     OW 4015   4.123   1.720   3.611
 1039SOL    HW1 4016   4.205   1.768   3.583
 1039SOL    HW2 4017   4.138   1.621   3.605
 1040SOL     OW 4018   5.962   3.551   4.213
 1040SOL    HW1 4019   5.991   3.644   4.234
 1040SOL    HW2 4020   6.037   3.503   4.167
 1041SOL     OW 4021   1.426   6.885   4.547
 1041SOL    HW1 4022   1.426   6.857   4.643
 1041SOL    HW2 4023   1.408   6.805   4.489
 1042SOL     OW 4024   4.545   3.646   1.186
 1042SOL    HW1 4025   4.491   3.579   1.135
 1042SOL    HW2 4026   4.617   3.598   1.237
 1043SOL     OW 4027   3.338   0.061   6.695
 1043SOL    HW1 4028   3.390   0.005   6.630
 1043SOL    HW2 4029   3.399   0.128   6.737
 1044SOL     OW 4030   3.854   3.915   1.863
 1044SOL    HW1 4031   3.867   3.940   1.767
 1044SOL    HW2 4032   3.933   3.862   1.894
 1045SOL     OW 4033   3.826   1.438   3.416
 1045SOL    HW1 4034   3.847   1.340   3.419
 1045SOL    HW2 4035   3.808   1.465   3.322
 1046SOL     OW 4036   3.688   1.148   2.123
 1046SOL    HW1 4037   3.731   1.067   2.082
 1046SOL    HW2 4038   3.736   1.172   2.207
 1047SOL     OW 4039   0.543   5.564   1.865
 1047SOL    HW1 4040   0.583   5.655   1.857
 1047SOL    HW2 4041   0.554   5.515   1.778
 1048SOL     OW 4042   6.438   4.879   5.027
 1048SOL    HW1 4043   6.509   4.941   4.994
 1048SOL    HW2 4044   6.470   4.833   5.109
 1049SOL     OW 4045   0.578   3.432   4.950
 1049SOL    HW1 4046   0.582   3.334   4.931
 1049SOL    HW2 4047   0.546   3.446   5.043
 1050SOL     OW 4048   3.093   0.444   0.156
 1050SOL    HW1 4049   3.078   0.525   0.213
 1050SOL    HW2 4050   3.047   0.365   0.198
 1051SOL     OW 4051   4.638   4.968   2.377
 1051SOL    HW1 4052   4.560   5.024   2.349
 1051SOL    HW2 4053   4.611   4.910   2.454
 1052SOL     OW 4054   3.801   0.276   4.313
 1052SOL    HW1 4055   3.831   0.295   4.406
 1052SOL    HW2 4056   3.814   0.358   4.257
 1053SOL     OW 4057   3.799   4.924   3.560
 1053SOL    HW1 4058   3.762   4.914   3.652
 1053SOL    HW2 4059   3.725   4.917   3.493
 1054SOL     OW 4060   3.912   6.250   4.205
 1054SOL    HW1 4061   3.859   6.289   4.279
 1054SOL    HW2 4062   3.850   6.215   4.134
 1055SOL     OW 4063   4.504   5.602   3.690
 1055SOL    HW1 4064   4.443   5.536   3.645
 1055SOL    HW2 4065   4.553   5.654   3.620
 1056SOL     OW 4066   1.829   5.797   5.740
 1056SOL    HW1 4067   1.738   5.759   5.726
 1056SOL    HW2 4068   1.893   5.723   5.762
 1057SOL     OW 4069   3.805   4.179   1.054
 1057SOL    HW1 4070   3.813   4.253   0.988
 1057SOL    HW2 4071   3.861   4.102   1.024
 1058SOL     OW 4072   3.211   0.124   1.713
 1058SOL    HW1 4073   3.282   0.142   1.781
 1058SOL    HW2 4074   3.229   0.035   1.670
 1059SOL     OW 4075   3.438   1.004   0.566
 1059SOL    HW1 4076   3.344   0.972   0.554
 1059SOL    HW2 4077   3.438   1.087   0.621
 1060SOL     OW 4078   2.173   1.761   4.389
 1060SOL    HW1 4079   2.193   1.789   4.295
 1060SOL    HW2 4080   2.189   1.837   4.452
 1061SOL     OW 4081   3.097   6.233   1.440
 1061SOL    HW1 4082   3.164   6.251   1.512
 1061SOL    HW2 4083   3.075   6.319   1.393
 1062SOL     OW 4084   4.945   4.627   5.292
 1062SOL    HW1 4085   4.950   4.531   5.267
 1062SOL    HW2 4086   4.861   4.667   5.257
 1063SOL     OW 4087   2.109   3.420   5.856
 1063SOL    HW1 4088   2.153   3.339   5.896
 1063SOL    HW2 4089   2.093   3.405   5.759
 1064SOL     OW 4090   0.486   3.549   1.834
 1064SOL    HW1 4091   0.406   3.558   1.775
 1064SOL    HW2 4092   0.569   3.564   1.781
 1065SOL     OW 4093   4.472   4.809   5.553
 1065SOL    HW1 4094   4.508   4.902   5.557
 1065SOL    HW2 4095   4.414   4.799   5.472
 1066SOL     OW 4096   4.224   0.215   3.197
 1066SOL    HW1 4097   4.149   0.279   3.181
 1066SOL    HW2 4098   4.294   0.259   3.253
 1067SOL     OW 4099   2.378   3.433   0.441
 1067SOL    HW1 4100   2.369   3.399   0.348
 1067SOL    HW2 4101   2.443   3.375   0.491
 1068SOL     OW 4102   0.615   4.445   0.826
 1068SOL    HW1 4103   0.680   4.521   0.816
 1068SOL    HW2 4104   0.653   4.364   0.782
 1069SOL     OW 4105   3.633   3.354   1.902
 1069SOL    HW1 4106   3.620   3.283   1.972
 1069SOL    HW2 4107   3.656   3.440   1.947
 1070SOL     OW 4108   2.395   6.837   0.633
 1070SOL    HW1 4109   2.424   6.757   0.580
 1070SOL    HW2 4110   2.473   6.874   0.683
 1071SOL     OW 4111   4.624   6.198   3.751
 1071SOL    HW1 4112   4.712   6.168   3.714
 1071SOL    HW2 4113   4.565   6.118   3.764
 1072SOL     OW 4114   3.672   5.648   2.655
 1072SOL    HW1 4115   3.679   5.578   2.726
 1072SOL    HW2 4116   3.623   5.610   2.576
 1073SOL     OW 4117   2.872   5.451   3.009
 1073SOL    HW1 4118   2.801   5.514   2.977
 1073SOL    HW2 4119   2.945   5.446   2.941
 1074SOL     OW 4120   1.696   5.219   2.157
 1074SOL    HW1 4121   1.733   5.149   2.218
 1074SOL    HW2 4122   1.602   5.196   2.133
 1075SOL     OW 4123   0.606   3.933   2.674
 1075SOL    HW1 4124   0.672   3.895   2.610
 1075SOL    HW2 4125   0.643   4.017   2.716
 1076SOL     OW 4126   6.926   4.175   2.814
 1076SOL    HW1 4127   6.872   4.213   2.890
 1076SOL    HW2 4128   6.883   4.199   2.728
 1077SOL     OW 4129   5.049   0.916   1.186
 1077SOL    HW1 4130   5.121   0.981   1.210
 1077SOL    HW2 4131   5.081   0.823   1.204
 1078SOL     OW 4132   0.807   3.402   1.291
 1078SOL    HW1 4133   0.859   3.410   1.376
 1078SOL    HW2 4134   0.709   3.400   1.313
 1079SOL     OW 4135   2.411   5.537   3.055
 1079SOL    HW1 4136   2.464   5.489   3.124
 1079SOL    HW2 4137   2.361   5.613   3.097
 1080SOL     OW 4138   1.623   5.600   3.953
 1080SOL    HW1 4139   1.534   5.595   3.997
 1080SOL    HW2 4140   1.692   5.629   4.021
 1081SOL     OW 4141   1.554   1.308   0.488
 1081SOL    HW1 4142   1.473   1.360   0.514
 1081SOL    HW2 4143   1.527   1.215   0.464
 1082SOL     OW 4144   2.131   6.862   0.699
 1082SOL    HW1 4145   2.129   6.907   0.789
 1082SOL    HW2 4146   2.226   6.850   0.670
 1083SOL     OW 4147   3.719   2.260   1.603
 1083SOL    HW1 4148   3.650   2.198   1.568
 1083SOL    HW2 4149   3.703   2.277   1.700
 1084SOL     OW 4150   6.350   3.419   0.787
 1084SOL    HW1 4151   6.374   3.396   0.881
 1084SOL    HW2 4152   6.305   3.508   0.785
 1085SOL     OW 4153   1.067   4.537   2.960
 1085SOL    HW1 4154   1.033   4.575   2.874
 1085SOL    HW2 4155   0.997   4.476   2.999
 1086SOL     OW 4156   4.190   4.764   2.384
 1086SOL    HW1 4157   4.094   4.788   2.369
 1086SOL    HW2 4158   4.235   4.751   2.295
 1087SOL     OW 4159   3.801   3.740   5.029
 1087SOL    HW1 4160   3.872   3.799   5.066
 1087SOL    HW2 4161   3.815   3.646   5.062
 1088SOL     OW 4162   5.933   4.549   2.980
 1088SOL    HW1 4163   5.884   4.564   2.894
 1088SOL    HW2 4164   5.933   4.452   3.002
 1089SOL     OW 4165   6.114   6.690   3.257
 1089SOL    HW1 4166   6.058   6.762   3.216
 1089SOL    HW2 4167   6.127   6.709   3.354
 1090SOL     OW 4168   1.373   1.753   6.024
 1090SOL    HW1 4169   1.409   1.838   5.984
 1090SOL    HW2 4170   1.357   1.687   5.951
 1091SOL     OW 4171   1.067   2.741   5.306
 1091SOL    HW1 4172   1.157   2.710   5.337
 1091SOL    HW2 4173   1.027   2.671   5.246
 1092SOL     OW 4174   2.021   4.499   1.236
 1092SOL    HW1 4175   1.938   4.444   1.246
 1092SOL    HW2 4176   2.091   4.462   1.297
 1093SOL     OW 4177   0.386   2.436   2.206
 1093SOL    HW1 4178   0.411   2.341   2.192
 1093SOL    HW2 4179   0.322   2.465   2.135
 1094SOL     OW 4180   0.677   6.733   2.095
 1094SOL    HW1 4181   0.634   6.678   2.167
 1094SOL    HW2 4182   0.606   6.763   2.031
 1095SOL     OW 4183   6.211   3.244   5.593
 1095SOL    HW1 4184   6.299   3.219   5.632
 1095SOL    HW2 4185   6.138   3.219   5.658
 1096SOL     OW 4186   3.477   3.777   1.767
 1096SOL    HW1 4187   3.546   3.794   1.698
 1096SOL    HW2 4188   3.426   3.862   1.784
 1097SOL     OW 4189   2.009   4.544   5.193
 1097SOL    HW1 4190   2.096   4.516   5.153
 1097SOL    HW2 4191   1.934   4.500   5.144
 1098SOL     OW 4192   4.078   1.177   3.006
 1098SOL    HW1 4193   4.149   1.107   3.015
 1098SOL    HW2 4194   3.997   1.149   3.058
 1099SOL     OW 4195   3.976   1.228   2.757
 1099SOL    HW1 4196   3.894   1.171   2.752
 1099SOL    HW2 4197   4.014   1.224   2.850
 1100SOL     OW 4198   6.951   0.771   0.169
 1100SOL    HW1 4199   6.970   0.686   0.120
 1100SOL    HW2 4200   0.003   0.833   0.161
 1101SOL     OW 4201   5.831   2.834   0.969
 1101SOL    HW1 4202   5.917   2.785   0.956
 1101SOL    HW2 4203   5.839   2.926   0.930
 1102SOL     OW 4204   0.186   4.293   3.497
 1102SOL    HW1 4205   0.206   4.359   3.569
 1102SOL    HW2 4206   0.107   4.238   3.523
 1103SOL     OW 4207   0.649   3.218   0.788
 1103SOL    HW1 4208   0.600   3.299   0.821
 1103SOL    HW2 4209   0.613   3.192   0.698
 1104SOL     OW 4210   2.601   5.240   5.956
 1104SOL    HW1 4211   2.649   5.212   6.039
 1104SOL    HW2 4212   2.548   5.164   5.921
 1105SOL     OW 4213   4.143   5.405   0.596
 1105SOL    HW1 4214   4.124   5.392   0.499
 1105SOL    HW2 4215   4.224   5.463   0.607
 1106SOL     OW 4216   1.295   1.127   6.158
 1106SOL    HW1 4217   1.238   1.068   6.215
 1106SOL    HW2 4218   1.352   1.071   6.098
 1107SOL     OW 4219   0.169   6.936   1.199
 1107SOL    HW1 4220   0.249   6.989   1.226
 1107SOL    HW2 4221   0.112   6.920   1.280
 1108SOL     OW 4222   0.681   0.909   6.626
 1108SOL    HW1 4223   0.776   0.935   6.610
 1108SOL    HW2 4224   0.678   0.827   6.683
 1109SOL     OW 4225   5.006   1.051   3.800
 1109SOL    HW1 4226   5.044   1.019   3.886
 1109SOL    HW2 4227   5.072   1.109   3.753
 1110SOL     OW 4228   3.110   2.782   1.829
 1110SOL    HW1 4229   3.126   2.685   1.810
 1110SOL    HW2 4230   3.037   2.816   1.769
 1111SOL     OW 4231   4.960   0.359   6.556
 1111SOL    HW1 4232   5.034   0.324   6.613
 1111SOL    HW2 4233   4.872   0.330   6.594
 1112SOL     OW 4234   1.021   1.301   3.051
 1112SOL    HW1 4235   1.052   1.358   2.975
 1112SOL    HW2 4236   1.092   1.296   3.120
 1113SOL     OW 4237   5.910   4.069   1.987
 1113SOL    HW1 4238   5.847   4.003   2.029
 1113SOL    HW2 4239   5.875   4.161   2.002
 1114SOL     OW 4240   5.995   1.606   5.762
 1114SOL    HW1 4241   5.917   1.543   5.757
 1114SOL    HW2 4242   6.004   1.656   5.676
 1115SOL     OW 4243   3.477   4.199   0.567
 1115SOL    HW1 4244   3.462   4.169   0.661
 1115SOL    HW2 4245   3.555   4.262   0.564
 1116SOL     OW 4246   3.706   6.475   5.872
 1116SOL    HW1 4247   3.664   6.414   5.939
 1116SOL    HW2 4248   3.770   6.536   5.919
 1117SOL     OW 4249   2.125   2.820   0.709
 1117SOL    HW1 4250   2.106   2.860   0.799
 1117SOL    HW2 4251   2.048   2.763   0.681
 1118SOL     OW 4252   1.560   3.512   2.956
 1118SOL    HW1 4253   1.566   3.459   3.041
 1118SOL    HW2 4254   1.564   3.450   2.878
 1119SOL     OW 4255   2.918   3.579   2.592
 1119SOL    HW1 4256   2.915   3.675   2.563
 1119SOL    HW2 4257   2.897   3.520   2.515
 1120SOL     OW 4258   4.948   1.065   4.283
 1120SOL    HW1 4259   4.943   1.120   4.366
 1120SOL    HW2 4260   4.970   0.970   4.306
 1121SOL     OW 4261   5.077   3.202   2.529
 1121SOL    HW1 4262   5.171   3.234   2.530
 1121SOL    HW2 4263   5.016   3.276   2.559
 1122SOL     OW 4264   4.640   5.039   0.599
 1122SOL    HW1 4265   4.647   4.962   0.535
 1122SOL    HW2 4266   4.544   5.056   0.619
 1123SOL     OW 4267   3.712   0.906   1.968
 1123SOL    HW1 4268   3.673   0.945   1.885
 1123SOL    HW2 4269   3.769   0.827   1.945
 1124SOL     OW 4270   0.636   4.725   4.729
 1124SOL    HW1 4271   0.680   4.711   4.640
 1124SOL    HW2 4272   0.629   4.823   4.747
 1125SOL     OW 4273   3.277   3.566   4.642
 1125SOL    HW1 4274   3.239   3.587   4.732
 1125SOL    HW2 4275   3.263   3.469   4.622
 1126SOL     OW 4276   6.370   0.108   2.312
 1126SOL    HW1 4277   6.462   0.146   2.316
 1126SOL    HW2 4278   6.307   0.169   2.360
 1127SOL     OW 4279   1.591   5.140   6.618
 1127SOL    HW1 4280   1.534   5.064   6.588
 1127SOL    HW2 4281   1.678   5.105   6.652
 1128SOL     OW 4282   2.266   1.827   4.148
 1128SOL    HW1 4283   2.344   1.778   4.109
 1128SOL    HW2 4284   2.262   1.919   4.110
 1129SOL     OW 4285   4.725   0.067   6.462
 1129SOL    HW1 4286   4.772   7.006   6.477
 1129SOL    HW2 4287   4.792   0.139   6.446
 1130SOL     OW 4288   0.117   5.331   6.152
 1130SOL    HW1 4289   0.204   5.303   6.192
 1130SOL    HW2 4290   0.112   5.431   6.148
 1131SOL     OW 4291   0.677   5.358   5.503
 1131SOL    HW1 4292   0.718   5.271   5.529
 1131SOL    HW2 4293   0.730   5.398   5.428
 1132SOL     OW 4294   5.180   0.280   5.065
 1132SOL    HW1 4295   5.142   0.324   4.983
 1132SOL    HW2 4296   5.195   0.183   5.046
 1133SOL     OW 4297   6.894   2.671   0.454
 1133SOL    HW1 4298   6.827   2.602   0.482
 1133SOL    HW2 4299   6.860   2.720   0.374
 1134SOL     OW 4300   6.610   2.203   5.936
 1134SOL    HW1 4301   6.610   2.228   6.033
 1134SOL    HW2 4302   6.590   2.283   5.881
 1135SOL     OW 4303   6.019   1.509   3.846
 1135SOL    HW1 4304   5.954   1.579   3.815
 1135SOL    HW2 4305   6.027   1.512   3.945
 1136SOL     OW 4306   3.697   5.464   4.153
 1136SOL    HW1 4307   3.709   5.367   4.132
 1136SOL    HW2 4308   3.717   5.480   4.250
 1137SOL     OW 4309   1.283   0.761   6.355
 1137SOL    HW1 4310   1.320   0.771   6.448
 1137SOL    HW2 4311   1.359   0.751   6.290
 1138SOL     OW 4312   0.435   4.134   5.653
 1138SOL    HW1 4313   0.524   4.179   5.655
 1138SOL    HW2 4314   0.388   4.157   5.568
 1139SOL     OW 4315   1.035   6.416   1.403
 1139SOL    HW1 4316   0.959   6.456   1.455
 1139SOL    HW2 4317   0.999   6.354   1.333
 1140SOL     OW 4318   3.688   1.398   3.655
 1140SOL    HW1 4319   3.751   1.425   3.582
 1140SOL    HW2 4320   3.675   1.299   3.652
 1141SOL     OW 4321   6.553   5.841   5.560
 1141SOL    HW1 4322   6.599   5.753   5.549
 1141SOL    HW2 4323   6.597   5.893   5.633
 1142SOL     OW 4324   6.283   0.540   4.055
 1142SOL    HW1 4325   6.253   0.604   3.984
 1142SOL    HW2 4326   6.231   0.455   4.048
 1143SOL     OW 4327   4.466   2.115   2.321
 1143SOL    HW1 4328   4.466   2.199   2.266
 1143SOL    HW2 4329   4.556   2.071   2.315
 1144SOL     OW 4330   1.547   6.899   5.660
 1144SOL    HW1 4331   1.515   6.889   5.754
 1144SOL    HW2 4332   1.505   6.980   5.618
 1145SOL     OW 4333   1.755   4.873   5.213
 1145SOL    HW1 4334   1.698   4.854   5.133
 1145SOL    HW2 4335   1.751   4.796   5.276
 1146SOL     OW 4336   6.495   2.024   1.032
 1146SOL    HW1 4337   6.541   1.945   0.993
 1146SOL    HW2 4338   6.526   2.107   0.987
 1147SOL     OW 4339   6.666   3.078   2.269
 1147SOL    HW1 4340   6.646   2.991   2.224
 1147SOL    HW2 4341   6.619   3.081   2.357
 1148SOL     OW 4342   4.610   1.057   6.792
 1148SOL    HW1 4343   4.680   1.128   6.792
 1148SOL    HW2 4344   4.631   0.988   6.861
 1149SOL     OW 4345   6.390   2.668   3.331
 1149SOL    HW1 4346   6.319   2.598   3.336
 1149SOL    HW2 4347   6.468   2.633   3.280
 1150SOL     OW 4348   0.990   4.990   5.981
 1150SOL    HW1 4349   1.084   5.018   5.960
 1150SOL    HW2 4350   0.948   4.950   5.900
 1151SOL     OW 4351   3.988   5.663   0.093
 1151SOL    HW1 4352   3.997   5.726   0.170
 1151SOL    HW2 4353   3.895   5.668   0.057
 1152SOL     OW 4354   0.277   1.143   4.358
 1152SOL    HW1 4355   0.208   1.071   4.352
 1152SOL    HW2 4356   0.291   1.167   4.454
 1153SOL     OW 4357   2.596   4.705   2.387
 1153SOL    HW1 4358   2.684   4.721   2.430
 1153SOL    HW2 4359   2.544   4.637   2.439
 1154SOL     OW 4360   1.892   4.099   1.701
 1154SOL    HW1 4361   1.859   4.190   1.674
 1154SOL    HW2 4362   1.819   4.032   1.688
 1155SOL     OW 4363   3.885   6.462   2.313
 1155SOL    HW1 4364   3.881   6.444   2.411
 1155SOL    HW2 4365   3.794   6.489   2.280
 1156SOL     OW 4366   1.304   1.338   3.742
 1156SOL    HW1 4367   1.283   1.436   3.732
 1156SOL    HW2 4368   1.233   1.294   3.798
 1157SOL     OW 4369   0.984   3.585   4.450
 1157SOL    HW1 4370   0.953   3.574   4.545
 1157SOL    HW2 4371   0.925   3.531   4.390
 1158SOL     OW 4372   4.581   5.917   6.742
 1158SOL    HW1 4373   4.554   6.008   6.773
 1158SOL    HW2 4374   4.664   5.924   6.687
 1159SOL     OW 4375   5.108   5.168   2.934
 1159SOL    HW1 4376   5.120   5.107   2.855
 1159SOL    HW2 4377   5.172   5.244   2.927
 1160SOL     OW 4378   2.373   2.735   0.737
 1160SOL    HW1 4379   2.291   2.791   0.726
 1160SOL    HW2 4380   2.365   2.652   0.682
 1161SOL     OW 4381   4.372   0.817   4.430
 1161SOL    HW1 4382   4.413   0.890   4.485
 1161SOL    HW2 4383   4.300   0.773   4.484
 1162SOL     OW 4384   3.899   4.637   1.584
 1162SOL    HW1 4385   3.926   4.675   1.496
 1162SOL    HW2 4386   3.952   4.554   1.603
 1163SOL     OW 4387   4.626   1.605   2.329
 1163SOL    HW1 4388   4.697   1.543   2.362
 1163SOL    HW2 4389   4.624   1.687   2.385
 1164SOL     OW 4390   5.710   3.630   4.355
 1164SOL    HW1 4391   5.760   3.656   4.438
 1164SOL    HW2 4392   5.774   3.625   4.278
 1165SOL     OW 4393   1.358   4.344   1.932
 1165SOL    HW1 4394   1.357   4.252   1.970
 1165SOL    HW2 4395   1.450   4.383   1.940
 1166SOL     OW 4396   3.415   2.372   6.791
 1166SOL    HW1 4397   3.494   2.320   6.758
 1166SOL    HW2 4398   3.340   2.362   6.726
 1167SOL     OW 4399   4.252   1.972   5.005
 1167SOL    HW1 4400   4.196   1.892   5.026
 1167SOL    HW2 4401   4.328   1.977   5.069
 1168SOL     OW 4402   6.443   6.335   3.762
 1168SOL    HW1 4403   6.522   6.316   3.820
 1168SOL    HW2 4404   6.465   6.309   3.667
 1169SOL     OW 4405   1.139   4.211   1.130
 1169SOL    HW1 4406   1.040   4.225   1.138
 1169SOL    HW2 4407   1.167   4.224   1.035
 1170SOL     OW 4408   3.216   0.977   1.288
 1170SOL    HW1 4409   3.189   0.934   1.374
 1170SOL    HW2 4410   3.153   0.950   1.216
 1171SOL     OW 4411   2.777   0.307   0.470
 1171SOL    HW1 4412   2.754   0.217   0.507
 1171SOL    HW2 4413   2.727   0.322   0.385
 1172SOL     OW 4414   2.954   3.304   4.604
 1172SOL    HW1 4415   3.040   3.270   4.641
 1172SOL    HW2 4416   2.888   3.317   4.678
 1173SOL     OW 4417   4.949   0.889   6.408
 1173SOL    HW1 4418   5.008   0.965   6.378
 1173SOL    HW2 4419   5.000   0.831   6.471
 1174SOL     OW 4420   3.195   6.461   0.097
 1174SOL    HW1 4421   3.291   6.458   0.127
 1174SOL    HW2 4422   3.168   6.371   0.063
 1175SOL     OW 4423   6.865   5.304   4.741
 1175SOL    HW1 4424   6.872   5.367   4.664
 1175SOL    HW2 4425   6.908   5.345   4.822
 1176SOL     OW 4426   6.150   3.740   1.101
 1176SOL    HW1 4427   6.217   3.794   1.150
 1176SOL    HW2 4428   6.167   3.643   1.115
 1177SOL     OW 4429   6.137   2.935   0.151
 1177SOL    HW1 4430   6.040   2.921   0.174
 1177SOL    HW2 4431   6.181   2.988   0.224
 1178SOL     OW 4432   5.097   4.151   1.943
 1178SOL    HW1 4433   5.164   4.145   1.869
 1178SOL    HW2 4434   5.126   4.222   2.008
 1179SOL     OW 4435   2.336   5.809   6.166
 1179SOL    HW1 4436   2.346   5.774   6.073
 1179SOL    HW2 4437   2.239   5.826   6.185
 1180SOL     OW 4438   2.316   1.262   3.320
 1180SOL    HW1 4439   2.292   1.332   3.253
 1180SOL    HW2 4440   2.351   1.307   3.403
 1181SOL     OW 4441   1.757   4.081   2.863
 1181SOL    HW1 4442   1.814   4.117   2.937
 1181SOL    HW2 4443   1.814   4.053   2.786
 1182SOL     OW 4444   1.511   4.000   3.287
 1182SOL    HW1 4445   1.552   3.996   3.196
 1182SOL    HW2 4446   1.578   3.968   3.355
 1183SOL     OW 4447   4.354   5.628   0.654
 1183SOL    HW1 4448   4.423   5.596   0.719
 1183SOL    HW2 4449   4.393   5.625   0.561
 1184SOL     OW 4450   3.158   3.183   5.873
 1184SOL    HW1 4451   3.074   3.232   5.851
 1184SOL    HW2 4452   3.221   3.189   5.795
 1185SOL     OW 4453   2.501   1.533   0.009
 1185SOL    HW1 4454   2.419   1.516   0.063
 1185SOL    HW2 4455   2.475   1.570   6.946
 1186SOL     OW 4456   3.281   1.336   5.169
 1186SOL    HW1 4457   3.258   1.427   5.204
 1186SOL    HW2 4458   3.239   1.323   5.080
 1187SOL     OW 4459   0.407   0.967   5.490
 1187SOL    HW1 4460   0.431   1.011   5.576
 1187SOL    HW2 4461   0.341   1.023   5.441
 1188SOL     OW 4462   1.764   0.147   4.730
 1188SOL    HW1 4463   1.667   0.146   4.756
 1188SOL    HW2 4464   1.803   0.237   4.748
 1189SOL     OW 4465   6.867   0.688   0.785
 1189SOL    HW1 4466   6.874   0.629   0.705
 1189SOL    HW2 4467   6.933   0.762   0.778
 1190SOL     OW 4468   4.106   4.755   2.841
 1190SOL    HW1 4469   4.151   4.671   2.810
 1190SOL    HW2 4470   4.046   4.790   2.768
 1191SOL     OW 4471   2.590   5.427   0.585
 1191SOL    HW1 4472   2.640   5.340   0.587
 1191SOL    HW2 4473   2.502   5.416   0.630
 1192SOL     OW 4474   4.265   5.483   2.047
 1192SOL    HW1 4475   4.333   5.554   2.028
 1192SOL    HW2 4476   4.304   5.416   2.110
 1193SOL     OW 4477   4.126   0.201   3.854
 1193SOL    HW1 4478   4.199   0.147   3.895
 1193SOL    HW2 4479   4.165   0.272   3.796
 1194SOL     OW 4480   6.565   0.770   1.222
 1194SOL    HW1 4481   6.642   0.759   1.159
 1194SOL    HW2 4482   6.580   0.714   1.304
 1195SOL     OW 4483   3.546   6.629   7.025
 1195SOL    HW1 4484   3.480   6.653   6.954
 1195SOL    HW2 4485   3.597   6.548   6.997
 1196SOL     OW 4486   0.317   5.328   2.994
 1196SOL    HW1 4487   0.374   5.247   2.988
 1196SOL    HW2 4488   0.298   5.348   3.091
 1197SOL     OW 4489   3.124   5.189   6.395
 1197SOL    HW1 4490   3.202   5.167   6.336
 1197SOL    HW2 4491   3.131   5.137   6.480
 1198SOL     OW 4492   3.664   1.530   2.629
 1198SOL    HW1 4493   3.601   1.587   2.682
 1198SOL    HW2 4494   3.649   1.547   2.532
 1199SOL     OW 4495   2.974   3.746   3.499
 1199SOL    HW1 4496   2.976   3.804   3.417
 1199SOL    HW2 4497   2.955   3.803   3.579
 1200SOL     OW 4498   3.494   3.271   0.908
 1200SOL    HW1 4499   3.488   3.362   0.948
 1200SOL    HW2 4500   3.587   3.237   0.915
 1201SOL     OW 4501   0.943   1.133   4.605
 1201SOL    HW1 4502   1.017   1.086   4.652
 1201SOL    HW2 4503   0.855   1.097   4.637
 1202SOL     OW 4504   5.717   0.521   4.909
 1202SOL    HW1 4505   5.665   0.451   4.859
 1202SOL    HW2 4506   5.796   0.478   4.954
 1203SOL     OW 4507   6.207   6.595   1.647
 1203SOL    HW1 4508   6.213   6.647   1.732
 1203SOL    HW2 4509   6.294   6.602   1.597
 1204SOL     OW 4510   1.535   6.361   6.571
 1204SOL    HW1 4511   1.515   6.409   6.656
 1204SOL    HW2 4512   1.449   6.334   6.527
 1205SOL     OW 4513   0.960   2.563   5.002
 1205SOL    HW1 4514   0.916   2.550   4.913
 1205SOL    HW2 4515   0.909   2.630   5.055
 1206SOL     OW 4516   0.432   1.772   4.478
 1206SOL    HW1 4517   0.392   1.747   4.566
 1206SOL    HW2 4518   0.485   1.695   4.443
 1207SOL     OW 4519   6.129   5.996   6.323
 1207SOL    HW1 4520   6.141   6.056   6.244
 1207SOL    HW2 4521   6.168   6.040   6.404
 1208SOL     OW 4522   3.441   3.883   3.170
 1208SOL    HW1 4523   3.472   3.821   3.242
 1208SOL    HW2 4524   3.460   3.977   3.196
 1209SOL     OW 4525   6.857   4.103   4.758
 1209SOL    HW1 4526   6.764   4.137   4.747
 1209SOL    HW2 4527   6.922   4.177   4.741
 1210SOL     OW 4528   3.119   6.804   2.230
 1210SOL    HW1 4529   3.186   6.855   2.178
 1210SOL    HW2 4530   3.053   6.761   2.168
 1211SOL     OW 4531   1.192   3.151   3.350
 1211SOL    HW1 4532   1.188   3.247   3.323
 1211SOL    HW2 4533   1.113   3.129   3.407
 1212SOL     OW 4534   1.439   3.422   3.877
 1212SOL    HW1 4535   1.537   3.406   3.860
 1212SOL    HW2 4536   1.428   3.493   3.946
 1213SOL     OW 4537   5.570   2.564   5.253
 1213SOL    HW1 4538   5.612   2.590   5.340
 1213SOL    HW2 4539   5.570   2.465   5.245
 1214SOL     OW 4540   1.409   2.469   2.530
 1214SOL    HW1 4541   1.483   2.487   2.466
 1214SOL    HW2 4542   1.364   2.383   2.505
 1215SOL     OW 4543   0.115   5.179   2.005
 1215SOL    HW1 4544   0.164   5.232   1.936
 1215SOL    HW2 4545   0.021   5.161   1.974
 1216SOL     OW 4546   2.807   0.854   1.425
 1216SOL    HW1 4547   2.720   0.900   1.441
 1216SOL    HW2 4548   2.804   0.762   1.463
 1217SOL     OW 4549   2.073   1.514   2.445
 1217SOL    HW1 4550   2.109   1.594   2.398
 1217SOL    HW2 4551   2.010   1.543   2.517
 1218SOL     OW 4552   0.361   3.021   3.602
 1218SOL    HW1 4553   0.304   2.962   3.659
 1218SOL    HW2 4554   0.345   2.999   3.506
 1219SOL     OW 4555   2.647   6.080   3.712
 1219SOL    HW1 4556   2.676   6.079   3.808
 1219SOL    HW2 4557   2.702   6.015   3.660
 1220SOL     OW 4558   5.836   4.290   3.003
 1220SOL    HW1 4559   5.737   4.301   3.010
 1220SOL    HW2 4560   5.857   4.226   2.929
 1221SOL     OW 4561   4.864   3.642   5.974
 1221SOL    HW1 4562   4.887   3.630   6.070
 1221SOL    HW2 4563   4.891   3.734   5.945
 1222SOL     OW 4564   5.928   5.062   1.828
 1222SOL    HW1 4565   5.921   5.092   1.733
 1222SOL    HW2 4566   5.955   4.966   1.832
 1223SOL     OW 4567   6.070   5.059   5.227
 1223SOL    HW1 4568   6.039   5.023   5.139
 1223SOL    HW2 4569   6.004   5.035   5.298
 1224SOL     OW 4570   4.889   4.797   1.488
 1224SOL    HW1 4571   4.807   4.772   1.539
 1224SOL    HW2 4572   4.969   4.783   1.545
 1225SOL     OW 4573   3.990   1.549   6.684
 1225SOL    HW1 4574   4.058   1.524   6.753
 1225SOL    HW2 4575   3.899   1.527   6.718
 1226SOL     OW 4576   5.502   5.505   1.214
 1226SOL    HW1 4577   5.484   5.461   1.126
 1226SOL    HW2 4578   5.499   5.437   1.287
 1227SOL     OW 4579   4.836   4.597   6.559
 1227SOL    HW1 4580   4.806   4.533   6.630
 1227SOL    HW2 4581   4.757   4.644   6.520
 1228SOL     OW 4582   3.607   4.182   4.357
 1228SOL    HW1 4583   3.539   4.222   4.295
 1228SOL    HW2 4584   3.562   4.119   4.420
 1229SOL     OW 4585   2.585   5.970   3.098
 1229SOL    HW1 4586   2.545   5.922   3.020
 1229SOL    HW2 4587   2.626   5.904   3.160
 1230SOL     OW 4588   6.076   5.404   1.355
 1230SOL    HW1 4589   6.038   5.312   1.369
 1230SOL    HW2 4590   6.001   5.468   1.336
 1231SOL     OW 4591   2.172   1.704   6.325
 1231SOL    HW1 4592   2.122   1.774   6.376
 1231SOL    HW2 4593   2.270   1.725   6.326
 1232SOL     OW 4594   3.006   1.626   4.907
 1232SOL    HW1 4595   2.995   1.725   4.915
 1232SOL    HW2 4596   2.917   1.585   4.887
 1233SOL     OW 4597   6.928   5.651   4.898
 1233SOL    HW1 4598   6.955   5.618   4.808
 1233SOL    HW2 4599   6.881   5.739   4.889
 1234SOL     OW 4600   5.945   4.495   6.865
 1234SOL    HW1 4601   6.025   4.434   6.861
 1234SOL    HW2 4602   5.899   4.484   6.953
 1235SOL     OW 4603   6.168   4.785   0.779
 1235SOL    HW1 4604   6.211   4.748   0.861
 1235SOL    HW2 4605   6.204   4.877   0.760
 1236SOL     OW 4606   1.297   1.358   2.144
 1236SOL    HW1 4607   1.328   1.270   2.182
 1236SOL    HW2 4608   1.202   1.350   2.114
 1237SOL     OW 4609   0.828   0.094   4.304
 1237SOL    HW1 4610   0.845   0.131   4.212
 1237SOL    HW2 4611   0.860   0.159   4.373
 1238SOL     OW 4612   0.631   0.670   4.902
 1238SOL    HW1 4613   0.557   0.726   4.866
 1238SOL    HW2 4614   0.682   0.628   4.827
 1239SOL     OW 4615   5.112   5.217   4.180
 1239SOL    HW1 4616   5.044   5.290   4.184
 1239SOL    HW2 4617   5.203   5.255   4.195
 1240SOL     OW 4618   0.640   3.803   1.315
 1240SOL    HW1 4619   0.647   3.903   1.321
 1240SOL    HW2 4620   0.729   3.764   1.294
 1241SOL     OW 4621   4.050   4.996   5.913
 1241SOL    HW1 4622   4.102   5.082   5.922
 1241SOL    HW2 4623   4.006   4.975   6.000
 1242SOL     OW 4624   2.451   5.310   0.956
 1242SOL    HW1 4625   2.394   5.228   0.952
 1242SOL    HW2 4626   2.411   5.382   0.899
 1243SOL     OW 4627   0.878   3.328   3.706
 1243SOL    HW1 4628   0.778   3.336   3.703
 1243SOL    HW2 4629   0.910   3.360   3.795
 1244SOL     OW 4630   6.408   0.154   5.143
 1244SOL    HW1 4631   6.312   0.179   5.137
 1244SOL    HW2 4632   6.465   0.234   5.125
 1245SOL     OW 4633   4.731   6.163   1.002
 1245SOL    HW1 4634   4.696   6.207   1.084
 1245SOL    HW2 4635   4.826   6.191   0.988
 1246SOL     OW 4636   5.193   1.742   1.318
 1246SOL    HW1 4637   5.120   1.760   1.252
 1246SOL    HW2 4638   5.186   1.807   1.394
 1247SOL     OW 4639   6.517   6.549   2.809
 1247SOL    HW1 4640   6.574   6.618   2.765
 1247SOL    HW2 4641   6.517   6.563   2.908
 1248SOL     OW 4642   0.892   6.357   4.489
 1248SOL    HW1 4643   0.890   6.457   4.494
 1248SOL    HW2 4644   0.980   6.324   4.523
 1249SOL     OW 4645   6.000   5.531   6.281
 1249SOL    HW1 4646   6.042   5.620   6.265
 1249SOL    HW2 4647   5.995   5.514   6.379
 1250SOL     OW 4648   0.842   3.785   4.971
 1250SOL    HW1 4649   0.801   3.868   4.935
 1250SOL    HW2 4650   0.806   3.766   5.062
 1251SOL     OW 4651   3.183   0.523   2.655
 1251SOL    HW1 4652   3.201   0.432   2.693
 1251SOL    HW2 4653   3.234   0.591   2.707
 1252SOL     OW 4654   2.327   5.347   6.473
 1252SOL    HW1 4655   2.374   5.351   6.384
 1252SOL    HW2 4656   2.375   5.282   6.532
 1253SOL     OW 4657   2.875   6.634   0.064
 1253SOL    HW1 4658   2.853   6.732   0.059
 1253SOL    HW2 4659   2.815   6.584   0.003
 1254SOL     OW 4660   6.594   1.557   3.040
 1254SOL    HW1 4661   6.599   1.649   3.081
 1254SOL    HW2 4662   6.609   1.489   3.112
 1255SOL     OW 4663   6.157   1.916   5.731
 1255SOL    HW1 4664   6.217   1.987   5.694
 1255SOL    HW2 4665   6.209   1.859   5.795
 1256SOL     OW 4666   0.307   5.532   4.367
 1256SOL    HW1 4667   0.358   5.457   4.325
 1256SOL    HW2 4668   0.217   5.539   4.323
 1257SOL     OW 4669   0.349   6.306   3.487
 1257SOL    HW1 4670   0.318   6.219   3.525
 1257SOL    HW2 4671   0.448   6.305   3.477
 1258SOL     OW 4672   4.767   5.845   6.549
 1258SOL    HW1 4673   4.710   5.803   6.478
 1258SOL    HW2 4674   4.825   5.775   6.591
 1259SOL     OW 4675   5.096   0.560   5.666
 1259SOL    HW1 4676   5.156   0.602   5.735
 1259SOL    HW2 4677   5.058   0.631   5.607
 1260SOL     OW 4678   2.920   1.219   1.231
 1260SOL    HW1 4679   2.930   1.119   1.236
 1260SOL    HW2 4680   2.900   1.255   1.322
 1261SOL     OW 4681   0.019   4.596   5.012
 1261SOL    HW1 4682   0.091   4.590   4.944
 1261SOL    HW2 4683   0.055   4.641   5.094
 1262SOL     OW 4684   4.438   5.863   1.665
 1262SOL    HW1 4685   4.422   5.838   1.570
 1262SOL    HW2 4686   4.399   5.954   1.683
 1263SOL     OW 4687   6.337   2.159   0.713
 1263SOL    HW1 4688   6.408   2.127   0.777
 1263SOL    HW2 4689   6.281   2.229   0.758
 1264SOL     OW 4690   6.320   2.711   4.524
 1264SOL    HW1 4691   6.323   2.788   4.460
 1264SOL    HW2 4692   6.283   2.630   4.479
 1265SOL     OW 4693   6.222   5.910   5.058
 1265SOL    HW1 4694   6.140   5.920   5.114
 1265SOL    HW2 4695   6.213   5.965   4.975
 1266SOL     OW 4696   2.592   0.732   4.114
 1266SOL    HW1 4697   2.642   0.656   4.157
 1266SOL    HW2 4698   2.648   0.772   4.042
 1267SOL     OW 4699   0.092   4.497   2.981
 1267SOL    HW1 4700   0.041   4.551   2.915
 1267SOL    HW2 4701   0.038   4.485   3.064
 1268SOL     OW 4702   5.868   4.179   6.941
 1268SOL    HW1 4703   5.922   4.178   7.025
 1268SOL    HW2 4704   5.815   4.264   6.937
 1269SOL     OW 4705   6.811   5.045   6.206
 1269SOL    HW1 4706   6.745   4.987   6.158
 1269SOL    HW2 4707   6.785   5.141   6.194
 1270SOL     OW 4708   1.341   2.193   4.500
 1270SOL    HW1 4709   1.325   2.099   4.470
 1270SOL    HW2 4710   1.416   2.194   4.566
 1271SOL     OW 4711   4.893   2.733   3.109
 1271SOL    HW1 4712   4.928   2.797   3.176
 1271SOL    HW2 4713   4.854   2.783   3.031
 1272SOL     OW 4714   6.741   6.913   1.532
 1272SOL    HW1 4715   6.650   6.952   1.542
 1272SOL    HW2 4716   6.741   6.820   1.569
 1273SOL     OW 4717   2.715   6.524   6.555
 1273SOL    HW1 4718   2.615   6.531   6.562
 1273SOL    HW2 4719   2.743   6.431   6.578
 1274SOL     OW 4720   5.439   2.325   1.943
 1274SOL    HW1 4721   5.528   2.318   1.988
 1274SOL    HW2 4722   5.417   2.237   1.899
 1275SOL     OW 4723   3.766   1.523   3.891
 1275SOL    HW1 4724   3.804   1.450   3.948
 1275SOL    HW2 4725   3.723   1.483   3.810
 1276SOL     OW 4726   6.077   0.118   3.064
 1276SOL    HW1 4727   5.985   0.145   3.091
 1276SOL    HW2 4728   6.081   0.019   3.051
 1277SOL     OW 4729   0.595   1.537   5.136
 1277SOL    HW1 4730   0.553   1.489   5.058
 1277SOL    HW2 4731   0.551   1.627   5.147
 1278SOL     OW 4732   2.762   1.619   5.536
 1278SOL    HW1 4733   2.800   1.638   5.627
 1278SOL    HW2 4734   2.663   1.615   5.542
 1279SOL     OW 4735   2.213   4.971   0.450
 1279SOL    HW1 4736   2.221   4.872   0.443
 1279SOL    HW2 4737   2.133   4.994   0.505
 1280SOL     OW 4738   1.544   6.160   3.008
 1280SOL    HW1 4739   1.641   6.141   3.017
 1280SOL    HW2 4740   1.530   6.259   2.995
 1281SOL     OW 4741   0.637   6.552   3.814
 1281SOL    HW1 4742   0.666   6.505   3.897
 1281SOL    HW2 4743   0.705   6.538   3.742
 1282SOL     OW 4744   1.238   0.121   2.062
 1282SOL    HW1 4745   1.230   0.066   1.979
 1282SOL    HW2 4746   1.302   0.078   2.125
 1283SOL     OW 4747   4.926   4.449   4.591
 1283SOL    HW1 4748   4.911   4.376   4.659
 1283SOL    HW2 4749   4.976   4.412   4.513
 1284SOL     OW 4750   2.757   1.957   2.576
 1284SOL    HW1 4751   2.711   1.869   2.584
 1284SOL    HW2 4752   2.695   2.023   2.535
 1285SOL     OW 4753   5.540   2.691   6.069
 1285SOL    HW1 4754   5.533   2.634   5.988
 1285SOL    HW2 4755   5.566   2.784   6.043
 1286SOL     OW 4756   6.043   6.360   1.713
 1286SOL    HW1 4757   6.092   6.447   1.710
 1286SOL    HW2 4758   6.026   6.334   1.808
 1287SOL     OW 4759   6.152   5.045   5.930
 1287SOL    HW1 4760   6.250   5.060   5.934
 1287SOL    HW2 4761   6.126   4.976   5.998
 1288SOL     OW 4762   6.853   2.351   3.132
 1288SOL    HW1 4763   6.895   2.434   3.097
 1288SOL    HW2 4764   6.917   2.275   3.123
 1289SOL     OW 4765   0.061   5.464   2.529
 1289SOL    HW1 4766   7.019   5.408   2.577
 1289SOL    HW2 4767   0.112   5.407   2.465
 1290SOL     OW 4768   0.378   6.420   1.316
 1290SOL    HW1 4769   0.440   6.491   1.281
 1290SOL    HW2 4770   0.401   6.400   1.411
 1291SOL     OW 4771   1.411   7.003   0.627
 1291SOL    HW1 4772   1.491   6.992   0.686
 1291SOL    HW2 4773   1.438   6.992   0.532
 1292SOL     OW 4774   0.939   6.417   6.620
 1292SOL    HW1 4775   0.901   6.480   6.688
 1292SOL    HW2 4776   1.009   6.360   6.663
 1293SOL     OW 4777   6.362   2.593   5.849
 1293SOL    HW1 4778   6.337   2.680   5.891
 1293SOL    HW2 4779   6.458   2.595   5.822
 1294SOL     OW 4780   0.277   1.842   2.909
 1294SOL    HW1 4781   0.260   1.750   2.945
 1294SOL    HW2 4782   0.224   1.908   2.960
 1295SOL     OW 4783   5.030   3.347   1.820
 1295SOL    HW1 4784   5.103   3.412   1.840
 1295SOL    HW2 4785   4.947   3.397   1.797
 1296SOL     OW 4786   3.665   2.215   6.600
 1296SOL    HW1 4787   3.716   2.249   6.522
 1296SOL    HW2 4788   3.727   2.202   6.678
 1297SOL     OW 4789   6.612   1.221   6.242
 1297SOL    HW1 4790   6.591   1.244   6.337
 1297SOL    HW2 4791   6.709   1.203   6.232
 1298SOL     OW 4792   6.020   3.100   4.036
 1298SOL    HW1 4793   6.113   3.089   4.003
 1298SOL    HW2 4794   5.967   3.157   3.972
 1299SOL     OW 4795   1.236   4.106   4.482
 1299SOL    HW1 4796   1.329   4.070   4.489
 1299SOL    HW2 4797   1.171   4.032   4.496
 1300SOL     OW 4798   2.888   3.289   1.255
 1300SOL    HW1 4799   2.869   3.337   1.341
 1300SOL    HW2 4800   2.960   3.337   1.205
 1301SOL     OW 4801   0.732   0.756   2.933
 1301SOL    HW1 4802   0.773   0.679   2.884
 1301SOL    HW2 4803   0.796   0.790   3.002
 1302SOL     OW 4804   2.746   6.020   5.479
 1302SOL    HW1 4805   2.671   5.955   5.467
 1302SOL    HW2 4806   2.831   5.970   5.500
 1303SOL     OW 4807   3.890   0.530   1.242
 1303SOL    HW1 4808   3.930   0.462   1.180
 1303SOL    HW2 4809   3.959   0.562   1.306
 1304SOL     OW 4810   3.505   0.492   6.069
 1304SOL    HW1 4811   3.515   0.395   6.044
 1304SOL    HW2 4812   3.547   0.549   5.999
 1305SOL     OW 4813   5.674   6.649   4.895
 1305SOL    HW1 4814   5.664   6.642   4.796
 1305SOL    HW2 4815   5.585   6.669   4.936
 1306SOL     OW 4816   0.718   4.699   4.433
 1306SOL    HW1 4817   0.811   4.680   4.402
 1306SOL    HW2 4818   0.668   4.745   4.360
 1307SOL     OW 4819   1.669   1.901   4.813
 1307SOL    HW1 4820   1.683   1.970   4.884
 1307SOL    HW2 4821   1.737   1.914   4.741
 1308SOL     OW 4822   4.772   5.855   3.011
 1308SOL    HW1 4823   4.833   5.809   3.077
 1308SOL    HW2 4824   4.801   5.950   3.000
 1309SOL     OW 4825   5.840   2.642   4.983
 1309SOL    HW1 4826   5.749   2.659   5.022
 1309SOL    HW2 4827   5.879   2.729   4.951
 1310SOL     OW 4828   4.907   3.697   5.371
 1310SOL    HW1 4829   4.952   3.774   5.417
 1310SOL    HW2 4830   4.917   3.615   5.427
 1311SOL     OW 4831   5.516   5.233   5.359
 1311SOL    HW1 4832   5.596   5.243   5.300
 1311SOL    HW2 4833   5.514   5.140   5.397
 1312SOL     OW 4834   6.533   6.919   2.275
 1312SOL    HW1 4835   6.616   6.948   2.323
 1312SOL    HW2 4836   6.453   6.954   2.324
 1313SOL     OW 4837   3.637   4.770   5.262
 1313SOL    HW1 4838   3.633   4.672   5.281
 1313SOL    HW2 4839   3.602   4.821   5.341
 1314SOL     OW 4840   5.446   1.649   5.208
 1314SOL    HW1 4841   5.524   1.644   5.145
 1314SOL    HW2 4842   5.423   1.557   5.240
 1315SOL     OW 4843   2.117   0.570   2.912
 1315SOL    HW1 4844   2.179   0.639   2.951
 1315SOL    HW2 4845   2.108   0.585   2.814
 1316SOL     OW 4846   3.163   6.346   2.365
 1316SOL    HW1 4847   3.190   6.437   2.398
 1316SOL    HW2 4848   3.128   6.292   2.441
 1317SOL     OW 4849   6.980   4.966   3.999
 1317SOL    HW1 4850   6.903   4.929   3.947
 1317SOL    HW2 4851   0.010   5.024   3.939
 1318SOL     OW 4852   0.578   6.188   1.699
 1318SOL    HW1 4853   0.497   6.130   1.691
 1318SOL    HW2 4854   0.659   6.138   1.667
 1319SOL     OW 4855   6.252   1.045   0.178
 1319SOL    HW1 4856   6.161   1.087   0.179
 1319SOL    HW2 4857   6.316   1.103   0.229
 1320SOL     OW 4858   5.228   5.683   5.579
 1320SOL    HW1 4859   5.236   5.720   5.486
 1320SOL    HW2 4860   5.210   5.585   5.574
 1321SOL     OW 4861   3.119   1.789   6.959
 1321SOL    HW1 4862   3.042   1.837   6.917
 1321SOL    HW2 4863   3.120   1.807   0.031
 1322SOL     OW 4864   5.638   1.272   5.139
 1322SOL    HW1 4865   5.731   1.309   5.142
 1322SOL    HW2 4866   5.585   1.320   5.069
 1323SOL     OW 4867   6.068   1.011   3.886
 1323SOL    HW1 4868   6.164   1.025   3.865
 1323SOL    HW2 4869   6.035   1.085   3.944
 1324SOL     OW 4870   0.956   3.836   0.771
 1324SOL    HW1 4871   0.886   3.853   0.840
 1324SOL    HW2 4872   0.914   3.833   0.680
 1325SOL     OW 4873   3.373   5.539   3.154
 1325SOL    HW1 4874   3.275   5.521   3.155
 1325SOL    HW2 4875   3.423   5.453   3.157
 1326SOL     OW 4876   4.739   4.290   4.386
 1326SOL    HW1 4877   4.756   4.198   4.421
 1326SOL    HW2 4878   4.798   4.307   4.307
 1327SOL     OW 4879   3.184   6.133   3.511
 1327SOL    HW1 4880   3.102   6.189   3.496
 1327SOL    HW2 4881   3.236   6.127   3.426
 1328SOL     OW 4882   2.026   2.023   6.923
 1328SOL    HW1 4883   2.046   1.926   6.916
 1328SOL    HW2 4884   1.954   2.037   6.992
 1329SOL     OW 4885   0.553   0.257   1.413
 1329SOL    HW1 4886   0.545   0.267   1.512
 1329SOL    HW2 4887   0.645   0.285   1.384
 1330SOL     OW 4888   5.397   6.679   0.714
 1330SOL    HW1 4889   5.341   6.758   0.689
 1330SOL    HW2 4890   5.468   6.665   0.646
 1331SOL     OW 4891   6.964   1.159   2.370
 1331SOL    HW1 4892   6.955   1.059   2.374
 1331SOL    HW2 4893   7.005   1.185   2.283
 1332SOL     OW 4894   3.923   1.403   1.007
 1332SOL    HW1 4895   3.928   1.474   1.078
 1332SOL    HW2 4896   3.880   1.321   1.045
 1333SOL     OW 4897   3.932   3.310   4.458
 1333SOL    HW1 4898   3.918   3.385   4.524
 1333SOL    HW2 4899   4.016   3.327   4.406
 1334SOL     OW 4900   0.695   4.139   3.382
 1334SOL    HW1 4901   0.738   4.060   3.426
 1334SOL    HW2 4902   0.604   4.153   3.420
 1335SOL     OW 4903   2.587   5.000   1.788
 1335SOL    HW1 4904   2.621   5.084   1.830
 1335SOL    HW2 4905   2.621   4.921   1.839
 1336SOL     OW 4906   0.457   0.022   4.630
 1336SOL    HW1 4907   0.531   0.021   4.562
 1336SOL    HW2 4908   0.379   0.073   4.594
 1337SOL     OW 4909   2.544   0.602   6.340
 1337SOL    HW1 4910   2.607   0.607   6.263
 1337SOL    HW2 4911   2.594   0.622   6.425
 1338SOL     OW 4912   3.579   5.915   0.733
 1338SOL    HW1 4913   3.518   5.968   0.675
 1338SOL    HW2 4914   3.603   5.829   0.687
 1339SOL     OW 4915   0.426   4.702   5.235
 1339SOL    HW1 4916   0.492   4.676   5.165
 1339SOL    HW2 4917   0.424   4.632   5.307
 1340SOL     OW 4918   2.157   1.321   6.632
 1340SOL    HW1 4919   2.141   1.224   6.651
 1340SOL    HW2 4920   2.189   1.332   6.538
 1341SOL     OW 4921   5.457   1.288   3.514
 1341SOL    HW1 4922   5.372   1.259   3.470
 1341SOL    HW2 4923   5.532   1.281   3.449
 1342SOL     OW 4924   0.959   6.243   1.676
 1342SOL    HW1 4925   1.031   6.261   1.609
 1342SOL    HW2 4926   0.871   6.232   1.629
 1343SOL     OW 4927   3.735   5.546   3.170
 1343SOL    HW1 4928   3.716   5.622   3.233
 1343SOL    HW2 4929   3.666   5.475   3.184
 1344SOL     OW 4930   5.608   1.369   2.666
 1344SOL    HW1 4931   5.514   1.339   2.684
 1344SOL    HW2 4932   5.606   1.449   2.606
 1345SOL     OW 4933   1.295   6.861   3.763
 1345SOL    HW1 4934   1.277   6.763   3.753
 1345SOL    HW2 4935   1.318   6.900   3.673
 1346SOL     OW 4936   0.377   0.700   3.965
 1346SOL    HW1 4937   0.318   0.651   3.900
 1346SOL    HW2 4938   0.429   0.770   3.916
 1347SOL     OW 4939   5.431   0.243   3.313
 1347SOL    HW1 4940   5.503   0.269   3.249
 1347SOL    HW2 4941   5.347   0.292   3.288
 1348SOL     OW 4942   4.147   5.620   4.593
 1348SOL    HW1 4943   4.138   5.672   4.678
 1348SOL    HW2 4944   4.077   5.651   4.528
 1349SOL     OW 4945   4.703   2.407   0.189
 1349SOL    HW1 4946   4.797   2.374   0.185
 1349SOL    HW2 4947   4.685   2.445   0.280
 1350SOL     OW 4948   3.510   6.852   5.442
 1350SOL    HW1 4949   3.550   6.819   5.356
 1350SOL    HW2 4950   3.484   6.948   5.432
 1351SOL     OW 4951   0.741   1.617   4.554
 1351SOL    HW1 4952   0.764   1.544   4.618
 1351SOL    HW2 4953   0.716   1.577   4.466
 1352SOL     OW 4954   0.720   6.632   4.267
 1352SOL    HW1 4955   0.621   6.630   4.257
 1352SOL    HW2 4956   0.762   6.561   4.210
 1353SOL     OW 4957   1.663   3.057   4.203
 1353SOL    HW1 4958   1.646   2.965   4.237
 1353SOL    HW2 4959   1.735   3.100   4.257
 1354SOL     OW 4960   0.266   6.546   0.628
 1354SOL    HW1 4961   0.341   6.490   0.592
 1354SOL    HW2 4962   0.304   6.628   0.671
 1355SOL     OW 4963   4.483   3.451   0.208
 1355SOL    HW1 4964   4.461   3.543   0.239
 1355SOL    HW2 4965   4.409   3.388   0.232
 1356SOL     OW 4966   2.990   3.346   1.831
 1356SOL    HW1 4967   2.979   3.253   1.796
 1356SOL    HW2 4968   3.081   3.380   1.807
 1357SOL     OW 4969   2.713   2.893   5.650
 1357SOL    HW1 4970   2.728   2.989   5.672
 1357SOL    HW2 4971   2.642   2.885   5.581
 1358SOL     OW 4972   2.210   3.577   6.061
 1358SOL    HW1 4973   2.200   3.673   6.035
 1358SOL    HW2 4974   2.162   3.519   5.994
 1359SOL     OW 4975   6.678   1.233   0.238
 1359SOL    HW1 4976   6.756   1.274   0.285
 1359SOL    HW2 4977   6.712   1.169   0.169
 1360SOL     OW 4978   3.274   2.962   4.021
 1360SOL    HW1 4979   3.372   2.940   4.021
 1360SOL    HW2 4980   3.233   2.936   3.934
 1361SOL     OW 4981   0.990   5.979   1.434
 1361SOL    HW1 4982   1.065   6.043   1.448
 1361SOL    HW2 4983   1.027   5.890   1.408
 1362SOL     OW 4984   3.011   2.417   6.237
 1362SOL    HW1 4985   3.079   2.392   6.169
 1362SOL    HW2 4986   3.029   2.368   6.323
 1363SOL     OW 4987   6.955   6.737   1.701
 1363SOL    HW1 4988   6.881   6.792   1.739
 1363SOL    HW2 4989   7.024   6.797   1.660
 1364SOL     OW 4990   0.580   4.011   0.750
 1364SOL    HW1 4991   0.623   3.943   0.690
 1364SOL    HW2 4992   0.650   4.075   0.783
 1365SOL     OW 4993   0.560   3.981   5.350
 1365SOL    HW1 4994   0.554   3.981   5.250
 1365SOL    HW2 4995   0.509   3.903   5.386
 1366SOL     OW 4996   4.648   0.360   0.940
 1366SOL    HW1 4997   4.624   0.430   0.872
 1366SOL    HW2 4998   4.669   0.404   1.027
 1367SOL     OW 4999   1.214   6.533   4.640
 1367SOL    HW1 5000   1.310   6.513   4.621
 1367SOL    HW2 5001   1.156   6.489   4.572
 1368SOL     OW 5002   1.156   6.583   5.139
 1368SOL    HW1 5003   1.099   6.635   5.203
 1368SOL    HW2 5004   1.216   6.646   5.089
 1369SOL     OW 5005   2.853   5.941   3.595
 1369SOL    HW1 5006   2.845   5.845   3.623
 1369SOL    HW2 5007   2.882   5.945   3.500
 1370SOL     OW 5008   6.930   2.594   2.766
 1370SOL    HW1 5009   7.005   2.613   2.829
 1370SOL    HW2 5010   6.864   2.533   2.811
 1371SOL     OW 5011   5.887   1.945   5.750
 1371SOL    HW1 5012   5.987   1.936   5.748
 1371SOL    HW2 5013   5.848   1.871   5.805
 1372SOL     OW 5014   6.101   2.682   1.019
 1372SOL    HW1 5015   6.137   2.683   1.112
 1372SOL    HW2 5016   6.169   2.718   0.956
 1373SOL     OW 5017   5.724   2.272   1.661
 1373SOL    HW1 5018   5.641   2.218   1.648
 1373SOL    HW2 5019   5.731   2.301   1.757
 1374SOL     OW 5020   4.042   3.877   1.482
 1374SOL    HW1 5021   4.129   3.899   1.437
 1374SOL    HW2 5022   3.980   3.835   1.416
 1375SOL     OW 5023   5.441   4.952   4.042
 1375SOL    HW1 5024   5.418   4.871   3.986
 1375SOL    HW2 5025   5.389   4.949   4.127
 1376SOL     OW 5026   2.896   4.625   6.087
 1376SOL    HW1 5027   2.858   4.708   6.129
 1376SOL    HW2 5028   2.878   4.546   6.147
 1377SOL     OW 5029   2.341   1.651   2.654
 1377SOL    HW1 5030   2.256   1.700   2.674
 1377SOL    HW2 5031   2.336   1.560   2.694
 1378SOL     OW 5032   5.448   2.384   4.059
 1378SOL    HW1 5033   5.512   2.334   4.000
 1378SOL    HW2 5034   5.361   2.395   4.011
 1379SOL     OW 5035   4.834   5.503   1.036
 1379SOL    HW1 5036   4.914   5.521   1.093
 1379SOL    HW2 5037   4.829   5.572   0.964
 1380SOL     OW 5038   7.009   6.194   2.570
 1380SOL    HW1 5039   0.018   6.148   2.489
 1380SOL    HW2 5040   6.927   6.247   2.546
 1381SOL     OW 5041   6.092   2.417   6.208
 1381SOL    HW1 5042   6.160   2.490   6.214
 1381SOL    HW2 5043   6.001   2.457   6.198
 1382SOL     OW 5044   4.301   2.689   0.021
 1382SOL    HW1 5045   4.352   2.605   0.036
 1382SOL    HW2 5046   4.347   2.744   6.977
 1383SOL     OW 5047   0.219   0.380   1.540
 1383SOL    HW1 5048   0.295   0.445   1.538
 1383SOL    HW2 5049   0.254   0.287   1.554
 1384SOL     OW 5050   6.459   1.621   1.938
 1384SOL    HW1 5051   6.375   1.659   1.901
 1384SOL    HW2 5052   6.441   1.575   2.025
 1385SOL     OW 5053   0.536   5.566   1.271
 1385SOL    HW1 5054   0.547   5.492   1.338
 1385SOL    HW2 5055   0.614   5.628   1.276
 1386SOL     OW 5056   2.162   5.921   4.251
 1386SOL    HW1 5057   2.177   5.826   4.223
 1386SOL    HW2 5058   2.232   5.979   4.209
 1387SOL     OW 5059   2.508   6.336   1.873
 1387SOL    HW1 5060   2.524   6.294   1.784
 1387SOL    HW2 5061   2.554   6.283   1.944
 1388SOL     OW 5062   0.154   0.795   1.744
 1388SOL    HW1 5063   0.201   0.716   1.705
 1388SOL    HW2 5064   0.112   0.770   1.831
 1389SOL     OW 5065   6.454   1.201   2.232
 1389SOL    HW1 5066   6.373   1.142   2.230
 1389SOL    HW2 5067   6.523   1.166   2.169
 1390SOL     OW 5068   1.271   1.519   5.073
 1390SOL    HW1 5069   1.366   1.547   5.087
 1390SOL    HW2 5070   1.242   1.458   5.147
 1391SOL     OW 5071   0.194   3.087   3.327
 1391SOL    HW1 5072   0.159   3.004   3.284
 1391SOL    HW2 5073   0.119   3.135   3.372
 1392SOL     OW 5074   4.763   4.711   4.533
 1392SOL    HW1 5075   4.705   4.637   4.498
 1392SOL    HW2 5076   4.803   4.684   4.620
 1393SOL     OW 5077   3.191   6.236   6.194
 1393SOL    HW1 5078   3.260   6.282   6.138
 1393SOL    HW2 5079   3.154   6.157   6.144
 1394SOL     OW 5080   1.517   6.417   6.176
 1394SOL    HW1 5081   1.445   6.389   6.114
 1394SOL    HW2 5082   1.604   6.422   6.127
 1395SOL     OW 5083   3.643   4.053   5.432
 1395SOL    HW1 5084   3.658   4.131   5.372
 1395SOL    HW2 5085   3.703   4.060   5.511
 1396SOL     OW 5086   5.934   6.288   4.138
 1396SOL    HW1 5087   5.837   6.301   4.161
 1396SOL    HW2 5088   5.974   6.219   4.199
 1397SOL     OW 5089   4.488   6.244   5.118
 1397SOL    HW1 5090   4.556   6.209   5.053
 1397SOL    HW2 5091   4.417   6.175   5.133
 1398SOL     OW 5092   2.237   0.984   4.186
 1398SOL    HW1 5093   2.265   1.017   4.095
 1398SOL    HW2 5094   2.188   0.898   4.176
 1399SOL     OW 5095   3.145   6.649   1.590
 1399SOL    HW1 5096   3.101   6.560   1.602
 1399SOL    HW2 5097   3.087   6.720   1.629
 1400SOL     OW 5098   2.256   6.835   2.082
 1400SOL    HW1 5099   2.174   6.785   2.054
 1400SOL    HW2 5100   2.337   6.783   2.056
 1401SOL     OW 5101   6.482   0.989   4.461
 1401SOL    HW1 5102   6.437   1.008   4.548
 1401SOL    HW2 5103   6.544   0.911   4.472
 1402SOL     OW 5104   6.903   3.146   0.193
 1402SOL    HW1 5105   6.897   3.228   0.250
 1402SOL    HW2 5106   6.847   3.074   0.234
 1403SOL     OW 5107   3.095   1.133   2.423
 1403SOL    HW1 5108   3.017   1.176   2.467
 1403SOL    HW2 5109   3.121   1.186   2.342
 1404SOL     OW 5110   5.520   1.411   0.460
 1404SOL    HW1 5111   5.424   1.383   0.459
 1404SOL    HW2 5112   5.562   1.383   0.546
 1405SOL     OW 5113   2.638   3.179   0.814
 1405SOL    HW1 5114   2.566   3.110   0.820
 1405SOL    HW2 5115   2.666   3.207   0.906
 1406SOL     OW 5116   1.565   3.965   1.149
 1406SOL    HW1 5117   1.651   3.994   1.190
 1406SOL    HW2 5118   1.491   4.024   1.181
 1407SOL     OW 5119   6.162   2.647   3.100
 1407SOL    HW1 5120   6.255   2.610   3.089
 1407SOL    HW2 5121   6.096   2.575   3.081
 1408SOL     OW 5122   6.287   0.172   6.555
 1408SOL    HW1 5123   6.341   0.089   6.540
 1408SOL    HW2 5124   6.303   0.236   6.479
 1409SOL     OW 5125   0.658   1.215   4.244
 1409SOL    HW1 5126   0.702   1.140   4.195
 1409SOL    HW2 5127   0.639   1.289   4.180
 1410SOL     OW 5128   0.360   2.829   0.204
 1410SOL    HW1 5129   0.288   2.799   0.267
 1410SOL    HW2 5130   0.360   2.771   0.123
 1411SOL     OW 5131   2.016   6.841   1.302
 1411SOL    HW1 5132   1.971   6.924   1.333
 1411SOL    HW2 5133   1.957   6.793   1.237
 1412SOL     OW 5134   1.247   3.070   0.514
 1412SOL    HW1 5135   1.157   3.030   0.535
 1412SOL    HW2 5136   1.258   3.076   0.415
 1413SOL     OW 5137   2.921   0.007   4.358
 1413SOL    HW1 5138   2.975   0.083   4.323
 1413SOL    HW2 5139   2.893   6.974   4.283
 1414SOL     OW 5140   2.448   1.223   1.493
 1414SOL    HW1 5141   2.478   1.317   1.483
 1414SOL    HW2 5142   2.379   1.217   1.565
 1415SOL     OW 5143   4.476   6.088   6.082
 1415SOL    HW1 5144   4.555   6.033   6.110
 1415SOL    HW2 5145   4.452   6.152   6.155
 1416SOL     OW 5146   4.426   6.131   2.415
 1416SOL    HW1 5147   4.487   6.075   2.359
 1416SOL    HW2 5148   4.388   6.076   2.489
 1417SOL     OW 5149   3.210   1.865   5.884
 1417SOL    HW1 5150   3.255   1.944   5.843
 1417SOL    HW2 5151   3.279   1.796   5.907
 1418SOL     OW 5152   3.419   4.144   2.575
 1418SOL    HW1 5153   3.331   4.098   2.580
 1418SOL    HW2 5154   3.405   4.243   2.577
 1419SOL     OW 5155   5.153   6.784   5.056
 1419SOL    HW1 5156   5.115   6.748   5.140
 1419SOL    HW2 5157   5.147   6.884   5.057
 1420SOL     OW 5158   0.602   6.218   2.388
 1420SOL    HW1 5159   0.619   6.237   2.485
 1420SOL    HW2 5160   0.685   6.235   2.336
 1421SOL     OW 5161   3.490   1.239   2.789
 1421SOL    HW1 5162   3.548   1.229   2.709
 1421SOL    HW2 5163   3.537   1.201   2.869
 1422SOL     OW 5164   2.542   6.314   0.194
 1422SOL    HW1 5165   2.506   6.226   0.225
 1422SOL    HW2 5166   2.619   6.341   0.252
 1423SOL     OW 5167   4.457   0.377   2.425
 1423SOL    HW1 5168   4.509   0.462   2.437
 1423SOL    HW2 5169   4.431   0.341   2.514
 1424SOL     OW 5170   6.600   4.806   3.185
 1424SOL    HW1 5171   6.572   4.842   3.096
 1424SOL    HW2 5172   6.531   4.743   3.219
 1425SOL     OW 5173   2.280   6.938   4.630
 1425SOL    HW1 5174   2.286   0.012   4.631
 1425SOL    HW2 5175   2.197   6.909   4.678
 1426SOL     OW 5176   0.932   1.589   5.907
 1426SOL    HW1 5177   0.977   1.632   5.829
 1426SOL    HW2 5178   0.931   1.653   5.984
 1427SOL     OW 5179   5.928   0.601   4.647
 1427SOL    HW1 5180   6.005   0.621   4.587
 1427SOL    HW2 5181   5.896   0.508   4.631
 1428SOL     OW 5182   5.179   1.295   0.148
 1428SOL    HW1 5183   5.267   1.260   0.182
 1428SOL    HW2 5184   5.188   1.393   0.128
 1429SOL     OW 5185   6.479   0.830   0.376
 1429SOL    HW1 5186   6.540   0.854   0.300
 1429SOL    HW2 5187   6.400   0.780   0.341
 1430SOL     OW 5188   2.073   4.908   3.746
 1430SOL    HW1 5189   2.036   5.001   3.753
 1430SOL    HW2 5190   2.042   4.854   3.823
 1431SOL     OW 5191   1.501   0.550   0.891
 1431SOL    HW1 5192   1.419   0.507   0.929
 1431SOL    HW2 5193   1.507   0.529   0.794
 1432SOL     OW 5194   2.159   0.823   2.002
 1432SOL    HW1 5195   2.229   0.753   2.012
 1432SOL    HW2 5196   2.202   0.911   1.984
 1433SOL     OW 5197   4.610   0.682   3.529
 1433SOL    HW1 5198   4.546   0.752   3.559
 1433SOL    HW2 5199   4.569   0.630   3.453
 1434SOL     OW 5200   1.047   0.550   5.639
 1434SOL    HW1 5201   1.117   0.595   5.694
 1434SOL    HW2 5202   1.074   0.455   5.622
 1435SOL     OW 5203   6.934   1.821   3.314
 1435SOL    HW1 5204   6.877   1.802   3.233
 1435SOL    HW2 5205   0.003   1.834   3.285
 1436SOL     OW 5206   3.933   3.505   0.866
 1436SOL    HW1 5207   3.993   3.584   0.863
 1436SOL    HW2 5208   3.985   3.423   0.889
 1437SOL     OW 5209   3.832   1.275   2.335
 1437SOL    HW1 5210   3.838   1.375   2.344
 1437SOL    HW2 5211   3.924   1.237   2.330
 1438SOL     OW 5212   2.325   0.366   1.272
 1438SOL    HW1 5213   2.345   0.339   1.177
 1438SOL    HW2 5214   2.395   0.327   1.332
 1439SOL     OW 5215   0.316   5.867   2.538
 1439SOL    HW1 5216   0.289   5.952   2.582
 1439SOL    HW2 5217   0.235   5.821   2.502
 1440SOL     OW 5218   2.607   3.508   1.714
 1440SOL    HW1 5219   2.522   3.493   1.764
 1440SOL    HW2 5220   2.619   3.435   1.646
 1441SOL     OW 5221   5.618   6.635   0.535
 1441SOL    HW1 5222   5.704   6.654   0.582
 1441SOL    HW2 5223   5.614   6.538   0.510
 1442SOL     OW 5224   5.454   5.846   0.925
 1442SOL    HW1 5225   5.423   5.843   1.020
 1442SOL    HW2 5226   5.466   5.753   0.891
 1443SOL     OW 5227   0.409   3.045   2.798
 1443SOL    HW1 5228   0.452   3.122   2.751
 1443SOL    HW2 5229   0.443   3.039   2.892
 1444SOL     OW 5230   6.391   4.719   6.627
 1444SOL    HW1 5231   6.368   4.759   6.716
 1444SOL    HW2 5232   6.307   4.708   6.573
 1445SOL     OW 5233   1.254   3.210   1.500
 1445SOL    HW1 5234   1.329   3.153   1.533
 1445SOL    HW2 5235   1.260   3.301   1.542
 1446SOL     OW 5236   6.389   6.869   0.794
 1446SOL    HW1 5237   6.362   6.779   0.827
 1446SOL    HW2 5238   6.442   6.859   0.710
 1447SOL     OW 5239   6.114   5.229   4.511
 1447SOL    HW1 5240   6.137   5.132   4.509
 1447SOL    HW2 5241   6.157   5.272   4.590
 1448SOL     OW 5242   1.388   3.079   5.579
 1448SOL    HW1 5243   1.351   3.105   5.490
 1448SOL    HW2 5244   1.313   3.064   5.643
 1449SOL     OW 5245   2.119   3.353   3.658
 1449SOL    HW1 5246   2.045   3.307   3.608
 1449SOL    HW2 5247   2.089   3.369   3.752
 1450SOL     OW 5248   2.253   2.942   4.131
 1450SOL    HW1 5249   2.315   2.875   4.172
 1450SOL    HW2 5250   2.176   2.894   4.089
 1451SOL     OW 5251   2.721   0.767   2.684
 1451SOL    HW1 5252   2.795   0.809   2.632
 1451SOL    HW2 5253   2.690   0.830   2.755
 1452SOL     OW 5254   5.068   2.657   6.509
 1452SOL    HW1 5255   4.999   2.713   6.554
 1452SOL    HW2 5256   5.144   2.714   6.479
 1453SOL     OW 5257   0.129   4.730   5.487
 1453SOL    HW1 5258   0.140   4.695   5.394
 1453SOL    HW2 5259   0.038   4.706   5.521
 1454SOL     OW 5260   3.708   1.828   3.642
 1454SOL    HW1 5261   3.687   1.881   3.724
 1454SOL    HW2 5262   3.803   1.844   3.615
 1455SOL     OW 5263   0.633   5.845   1.841
 1455SOL    HW1 5264   0.733   5.838   1.841
 1455SOL    HW2 5265   0.599   5.833   1.748
 1456SOL     OW 5266   6.418   5.055   4.507
 1456SOL    HW1 5267   6.402   5.023   4.414
 1456SOL    HW2 5268   6.336   5.039   4.562
 1457SOL     OW 5269   1.229   5.168   5.816
 1457SOL    HW1 5270   1.226   5.069   5.800
 1457SOL    HW2 5271   1.317   5.193   5.856
 1458SOL     OW 5272   4.876   5.077   5.380
 1458SOL    HW1 5273   4.963   5.068   5.428
 1458SOL    HW2 5274   4.875   5.017   5.300
 1459SOL     OW 5275   5.541   6.863   5.488
 1459SOL    HW1 5276   5.641   6.868   5.492
 1459SOL    HW2 5277   5.513   6.768   5.475
 1460SOL     OW 5278   1.286   6.333   5.228
 1460SOL    HW1 5279   1.226   6.403   5.268
 1460SOL    HW2 5280   1.379   6.346   5.260
 1461SOL     OW 5281   6.226   3.121   3.650
 1461SOL    HW1 5282   6.264   3.087   3.736
 1461SOL    HW2 5283   6.239   3.053   3.578
 1462SOL     OW 5284   0.772   0.859   1.764
 1462SOL    HW1 5285   0.762   0.864   1.863
 1462SOL    HW2 5286   0.791   0.950   1.727
 1463SOL     OW 5287   1.919   5.736   6.968
 1463SOL    HW1 5288   1.911   5.690   6.879
 1463SOL    HW2 5289   1.990   5.690   7.022
 1464SOL     OW 5290   1.012   3.707   3.936
 1464SOL    HW1 5291   1.053   3.687   3.847
 1464SOL    HW2 5292   1.074   3.764   3.990
 1465SOL     OW 5293   0.463   2.995   3.839
 1465SOL    HW1 5294   0.396   2.926   3.866
 1465SOL    HW2 5295   0.455   3.012   3.741
 1466SOL     OW 5296   5.275   2.542   2.483
 1466SOL    HW1 5297   5.336   2.580   2.553
 1466SOL    HW2 5298   5.195   2.501   2.527
 1467SOL     OW 5299   0.892   0.962   4.315
 1467SOL    HW1 5300   0.862   1.015   4.394
 1467SOL    HW2 5301   0.967   0.901   4.342
 1468SOL     OW 5302   2.576   5.305   2.741
 1468SOL    HW1 5303   2.494   5.299   2.684
 1468SOL    HW2 5304   2.657   5.284   2.685
 1469SOL     OW 5305   5.969   3.910   3.018
 1469SOL    HW1 5306   6.017   3.941   2.936
 1469SOL    HW2 5307   5.963   3.811   3.017
 1470SOL     OW 5308   6.413   1.100   1.654
 1470SOL    HW1 5309   6.510   1.111   1.631
 1470SOL    HW2 5310   6.358   1.137   1.579
 1471SOL     OW 5311   4.869   6.500   1.334
 1471SOL    HW1 5312   4.917   6.475   1.419
 1471SOL    HW2 5313   4.800   6.569   1.354
 1472SOL     OW 5314   1.758   0.268   6.039
 1472SOL    HW1 5315   1.731   0.247   5.945
 1472SOL    HW2 5316   1.716   0.355   6.066
 1473SOL     OW 5317   1.794   5.755   3.773
 1473SOL    HW1 5318   1.855   5.802   3.837
 1473SOL    HW2 5319   1.745   5.682   3.821
 1474SOL     OW 5320   2.720   5.335   1.361
 1474SOL    HW1 5321   2.742   5.249   1.407
 1474SOL    HW2 5322   2.764   5.337   1.271
 1475SOL     OW 5323   5.498   0.004   6.500
 1475SOL    HW1 5324   5.415   6.975   6.502
 1475SOL    HW2 5325   5.542   0.002   6.590
 1476SOL     OW 5326   4.500   0.928   0.774
 1476SOL    HW1 5327   4.452   0.870   0.840
 1476SOL    HW2 5328   4.561   0.990   0.822
 1477SOL     OW 5329   3.564   4.979   1.735
 1477SOL    HW1 5330   3.511   4.995   1.652
 1477SOL    HW2 5331   3.550   5.055   1.799
 1478SOL     OW 5332   4.917   5.343   6.754
 1478SOL    HW1 5333   4.844   5.307   6.812
 1478SOL    HW2 5334   4.947   5.272   6.690
 1479SOL     OW 5335   3.813   3.977   1.594
 1479SOL    HW1 5336   3.895   3.933   1.557
 1479SOL    HW2 5337   3.787   4.054   1.536
 1480SOL     OW 5338   3.355   0.621   4.554
 1480SOL    HW1 5339   3.285   0.683   4.518
 1480SOL    HW2 5340   3.340   0.529   4.517
 1481SOL     OW 5341   5.224   2.584   6.111
 1481SOL    HW1 5342   5.167   2.597   6.030
 1481SOL    HW2 5343   5.302   2.526   6.088
 1482SOL     OW 5344   4.935   1.080   0.980
 1482SOL    HW1 5345   5.006   1.145   0.955
 1482SOL    HW2 5346   4.961   1.032   1.063
 1483SOL     OW 5347   5.850   1.119   6.373
 1483SOL    HW1 5348   5.874   1.161   6.286
 1483SOL    HW2 5349   5.927   1.063   6.405
 1484SOL     OW 5350   3.796   5.733   5.038
 1484SOL    HW1 5351   3.871   5.678   5.076
 1484SOL    HW2 5352   3.750   5.783   5.111
 1485SOL     OW 5353   5.381   2.729   3.307
 1485SOL    HW1 5354   5.403   2.826   3.315
 1485SOL    HW2 5355   5.414   2.695   3.219
 1486SOL     OW 5356   4.653   6.656   3.788
 1486SOL    HW1 5357   4.712   6.657   3.868
 1486SOL    HW2 5358   4.564   6.695   3.811
 1487SOL     OW 5359   6.627   0.503   0.602
 1487SOL    HW1 5360   6.714   0.524   0.558
 1487SOL    HW2 5361   6.607   0.405   0.591
 1488SOL     OW 5362   6.638   1.823   2.487
 1488SOL    HW1 5363   6.708   1.763   2.525
 1488SOL    HW2 5364   6.655   1.837   2.389
 1489SOL     OW 5365   3.513   4.534   0.410
 1489SOL    HW1 5366   3.496   4.480   0.328
 1489SOL    HW2 5367   3.429   4.538   0.465
 1490SOL     OW 5368   6.798   2.665   2.235
 1490SOL    HW1 5369   6.849   2.651   2.320
 1490SOL    HW2 5370   6.745   2.583   2.214
 1491SOL     OW 5371   6.029   2.580   3.820
 1491SOL    HW1 5372   6.113   2.625   3.791
 1491SOL    HW2 5373   6.044   2.535   3.907
 1492SOL     OW 5374   6.341   1.292   3.222
 1492SOL    HW1 5375   6.294   1.351   3.155
 1492SOL    HW2 5376   6.314   1.319   3.314
 1493SOL     OW 5377   5.233   2.224   6.158
 1493SOL    HW1 5378   5.151   2.266   6.196
 1493SOL    HW2 5379   5.296   2.201   6.233
 1494SOL     OW 5380   6.644   4.561   5.604
 1494SOL    HW1 5381   6.648   4.468   5.566
 1494SOL    HW2 5382   6.572   4.566   5.672
 1495SOL     OW 5383   6.982   4.139   4.191
 1495SOL    HW1 5384   6.961   4.078   4.267
 1495SOL    HW2 5385   6.938   4.104   4.108
 1496SOL     OW 5386   6.505   5.761   6.040
 1496SOL    HW1 5387   6.538   5.732   5.950
 1496SOL    HW2 5388   6.502   5.860   6.044
 1497SOL     OW 5389   5.996   3.108   2.761
 1497SOL    HW1 5390   6.041   3.192   2.732
 1497SOL    HW2 5391   6.056   3.056   2.822
 1498SOL     OW 5392   3.403   3.951   0.783
 1498SOL    HW1 5393   3.424   3.900   0.867
 1498SOL    HW2 5394   3.347   3.895   0.723
 1499SOL     OW 5395   0.849   4.482   4.963
 1499SOL    HW1 5396   0.871   4.522   4.874
 1499SOL    HW2 5397   0.791   4.402   4.950
 1500SOL     OW 5398   0.756   6.196   1.950
 1500SOL    HW1 5399   0.710   6.231   1.868
 1500SOL    HW2 5400   0.688   6.155   2.011
 1501SOL     OW 5401   5.903   2.234   0.791
 1501SOL    HW1 5402   5.817   2.206   0.835
 1501SOL    HW2 5403   5.896   2.222   0.692
 1502SOL     OW 5404   6.126   0.080   5.830
 1502SOL    HW1 5405   6.055   0.052   5.894
 1502SOL    HW2 5406   6.206   0.021   5.839
 1503SOL     OW 5407   6.971   4.734   1.126
 1503SOL    HW1 5408   0.018   4.741   1.193
 1503SOL    HW2 5409   6.893   4.790   1.155
 1504SOL     OW 5410   1.672   6.829   2.314
 1504SOL    HW1 5411   1.611   6.750   2.317
 1504SOL    HW2 5412   1.755   6.805   2.263
 1505SOL     OW 5413   5.635   5.544   4.984
 1505SOL    HW1 5414   5.698   5.573   5.056
 1505SOL    HW2 5415   5.672   5.463   4.938
 1506SOL     OW 5416   0.497   1.600   0.837
 1506SOL    HW1 5417   0.568   1.651   0.789
 1506SOL    HW2 5418   0.411   1.651   0.833
 1507SOL     OW 5419   1.297   3.068   4.266
 1507SOL    HW1 5420   1.331   3.096   4.176
 1507SOL    HW2 5421   1.375   3.057   4.328
 1508SOL     OW 5422   1.378   0.402   1.289
 1508SOL    HW1 5423   1.435   0.483   1.275
 1508SOL    HW2 5424   1.286   0.420   1.254
 1509SOL     OW 5425   4.689   1.002   4.278
 1509SOL    HW1 5426   4.601   1.048   4.288
 1509SOL    HW2 5427   4.758   1.068   4.248
 1510SOL     OW 5428   3.525   5.854   4.689
 1510SOL    HW1 5429   3.567   5.792   4.623
 1510SOL    HW2 5430   3.484   5.931   4.640
 1511SOL     OW 5431   2.911   3.493   4.931
 1511SOL    HW1 5432   2.835   3.501   4.995
 1511SOL    HW2 5433   2.967   3.414   4.956
 1512SOL     OW 5434   5.703   6.572   0.927
 1512SOL    HW1 5435   5.634   6.502   0.909
 1512SOL    HW2 5436   5.661   6.662   0.928
 1513SOL     OW 5437   2.898   6.955   6.051
 1513SOL    HW1 5438   2.895   6.904   6.137
 1513SOL    HW2 5439   2.971   6.918   5.993
 1514SOL     OW 5440   2.884   2.621   5.943
 1514SOL    HW1 5441   2.894   2.678   6.025
 1514SOL    HW2 5442   2.952   2.547   5.946
 1515SOL     OW 5443   5.044   1.310   2.296
 1515SOL    HW1 5444   5.113   1.239   2.308
 1515SOL    HW2 5445   5.054   1.379   2.368
 1516SOL     OW 5446   5.987   0.431   5.200
 1516SOL    HW1 5447   6.044   0.353   5.175
 1516SOL    HW2 5448   6.008   0.460   5.294
 1517SOL     OW 5449   3.753   6.162   3.868
 1517SOL    HW1 5450   3.788   6.069   3.882
 1517SOL    HW2 5451   3.661   6.157   3.829
 1518SOL     OW 5452   0.917   3.109   0.208
 1518SOL    HW1 5453   0.846   3.055   0.162
 1518SOL    HW2 5454   0.875   3.165   0.280
 1519SOL     OW 5455   0.196   4.543   6.697
 1519SOL    HW1 5456   0.097   4.553   6.710
 1519SOL    HW2 5457   0.228   4.615   6.635
 1520SOL     OW 5458   0.620   6.351   2.966
 1520SOL    HW1 5459   0.672   6.359   2.880
 1520SOL    HW2 5460   0.640   6.264   3.009
 1521SOL     OW 5461   2.443   4.656   5.808
 1521SOL    HW1 5462   2.397   4.599   5.741
 1521SOL    HW2 5463   2.542   4.654   5.791
 1522SOL     OW 5464   5.398   5.960   3.972
 1522SOL    HW1 5465   5.413   5.909   4.057
 1522SOL    HW2 5466   5.452   6.044   3.974
 1523SOL     OW 5467   3.883   6.451   0.581
 1523SOL    HW1 5468   3.788   6.476   0.602
 1523SOL    HW2 5469   3.884   6.377   0.514
 1524SOL     OW 5470   2.658   1.868   2.903
 1524SOL    HW1 5471   2.626   1.828   2.817
 1524SOL    HW2 5472   2.651   1.968   2.898
 1525SOL     OW 5473   5.482   3.411   6.739
 1525SOL    HW1 5474   5.459   3.505   6.762
 1525SOL    HW2 5475   5.570   3.409   6.691
 1526SOL     OW 5476   1.144   1.113   7.016
 1526SOL    HW1 5477   1.052   1.076   0.003
 1526SOL    HW2 5478   1.209   1.058   0.041
 1527SOL     OW 5479   4.098   1.675   4.176
 1527SOL    HW1 5480   4.155   1.605   4.133
 1527SOL    HW2 5481   4.046   1.723   4.106
 1528SOL     OW 5482   3.688   3.824   2.214
 1528SOL    HW1 5483   3.683   3.924   2.211
 1528SOL    HW2 5484   3.782   3.795   2.194
 1529SOL     OW 5485   4.132   1.107   5.805
 1529SOL    HW1 5486   4.201   1.117   5.734
 1529SOL    HW2 5487   4.176   1.107   5.895
 1530SOL     OW 5488   3.312   6.352   1.096
 1530SOL    HW1 5489   3.345   6.276   1.040
 1530SOL    HW2 5490   3.232   6.393   1.053
 1531SOL     OW 5491   4.323   0.057   3.998
 1531SOL    HW1 5492   4.405   0.085   4.047
 1531SOL    HW2 5493   4.291   6.995   4.033
 1532SOL     OW 5494   3.311   5.841   6.366
 1532SOL    HW1 5495   3.384   5.855   6.299
 1532SOL    HW2 5496   3.262   5.927   6.379
 1533SOL     OW 5497   6.264   5.592   1.513
 1533SOL    HW1 5498   6.220   5.504   1.492
 1533SOL    HW2 5499   6.266   5.605   1.613
 1534SOL     OW 5500   3.632   5.258   6.527
 1534SOL    HW1 5501   3.577   5.341   6.517
 1534SOL    HW2 5502   3.585   5.181   6.486
 1535SOL     OW 5503   5.743   5.330   4.025
 1535SOL    HW1 5504   5.727   5.427   4.041
 1535SOL    HW2 5505   5.841   5.311   4.036
 1536SOL     OW 5506   4.795   2.980   6.107
 1536SOL    HW1 5507   4.707   3.012   6.070
 1536SOL    HW2 5508   4.782   2.889   6.147
 1537SOL     OW 5509   3.161   5.235   2.975
 1537SOL    HW1 5510   3.113   5.156   3.013
 1537SOL    HW2 5511   3.097   5.292   2.924
 1538SOL     OW 5512   2.796   1.448   0.338
 1538SOL    HW1 5513   2.881   1.428   0.289
 1538SOL    HW2 5514   2.801   1.541   0.376
 1539SOL     OW 5515   5.862   3.151   0.390
 1539SOL    HW1 5516   5.854   3.057   0.355
 1539SOL    HW2 5517   5.816   3.214   0.327
 1540SOL     OW 5518   3.324   6.939   4.571
 1540SOL    HW1 5519   3.234   6.981   4.578
 1540SOL    HW2 5520   3.334   6.868   4.641
 1541SOL     OW 5521   3.765   3.243   5.060
 1541SOL    HW1 5522   3.769   3.222   5.157
 1541SOL    HW2 5523   3.701   3.181   5.015
 1542SOL     OW 5524   0.293   0.232   2.672
 1542SOL    HW1 5525   0.388   0.203   2.680
 1542SOL    HW2 5526   0.252   0.189   2.590
 1543SOL     OW 5527   3.249   4.702   0.273
 1543SOL    HW1 5528   3.281   4.715   0.367
 1543SOL    HW2 5529   3.173   4.764   0.255
 1544SOL     OW 5530   3.590   3.321   4.395
 1544SOL    HW1 5531   3.564   3.257   4.467
 1544SOL    HW2 5532   3.565   3.414   4.422
 1545SOL     OW 5533   5.738   6.173   1.904
 1545SOL    HW1 5534   5.826   6.125   1.910
 1545SOL    HW2 5535   5.681   6.130   1.835
 1546SOL     OW 5536   5.083   6.979   5.778
 1546SOL    HW1 5537   5.036   0.015   5.715
 1546SOL    HW2 5538   5.080   7.017   5.871
 1547SOL     OW 5539   2.008   3.480   6.517
 1547SOL    HW1 5540   2.026   3.510   6.611
 1547SOL    HW2 5541   2.072   3.526   6.455
 1548SOL     OW 5542   6.158   2.008   6.914
 1548SOL    HW1 5543   6.205   1.921   6.907
 1548SOL    HW2 5544   6.195   2.060   6.991
 1549SOL     OW 5545   4.667   0.563   4.854
 1549SOL    HW1 5546   4.674   0.564   4.954
 1549SOL    HW2 5547   4.674   0.469   4.821
 1550SOL     OW 5548   3.850   3.202   4.038
 1550SOL    HW1 5549   3.762   3.249   4.048
 1550SOL    HW2 5550   3.837   3.119   3.983
 1551SOL     OW 5551   6.420   4.563   5.944
 1551SOL    HW1 5552   6.487   4.597   6.009
 1551SOL    HW2 5553   6.333   4.611   5.957
 1552SOL     OW 5554   1.796   4.294   1.402
 1552SOL    HW1 5555   1.700   4.303   1.374
 1552SOL    HW2 5556   1.812   4.345   1.486
 1553SOL     OW 5557   1.258   1.584   5.849
 1553SOL    HW1 5558   1.322   1.530   5.794
 1553SOL    HW2 5559   1.186   1.621   5.790
 1554SOL     OW 5560   2.961   1.126   3.875
 1554SOL    HW1 5561   3.040   1.085   3.921
 1554SOL    HW2 5562   2.991   1.208   3.826
 1555SOL     OW 5563   6.671   3.929   5.931
 1555SOL    HW1 5564   6.741   3.873   5.974
 1555SOL    HW2 5565   6.714   4.006   5.883
 1556SOL     OW 5566   2.266   0.920   6.089
 1556SOL    HW1 5567   2.344   0.976   6.064
 1556SOL    HW2 5568   2.293   0.852   6.158
 1557SOL     OW 5569   6.900   2.648   6.685
 1557SOL    HW1 5570   6.912   2.562   6.735
 1557SOL    HW2 5571   6.988   2.693   6.673
 1558SOL     OW 5572   0.239   6.943   4.937
 1558SOL    HW1 5573   0.251   6.845   4.952
 1558SOL    HW2 5574   0.327   6.985   4.916
 1559SOL     OW 5575   1.282   1.865   6.389
 1559SOL    HW1 5576   1.198   1.918   6.395
 1559SOL    HW2 5577   1.271   1.792   6.321
 1560SOL     OW 5578   6.441   0.055   6.344
 1560SOL    HW1 5579   6.480   6.990   6.337
 1560SOL    HW2 5580   6.511   0.123   6.323
 1561SOL     OW 5581   5.757   5.734   2.685
 1561SOL    HW1 5582   5.717   5.666   2.746
 1561SOL    HW2 5583   5.708   5.821   2.695
 1562SOL     OW 5584   5.915   0.948   3.299
 1562SOL    HW1 5585   5.859   0.957   3.217
 1562SOL    HW2 5586   5.856   0.940   3.379
 1563SOL     OW 5587   4.186   6.929   4.798
 1563SOL    HW1 5588   4.245   6.851   4.774
 1563SOL    HW2 5589   4.170   6.985   4.717
 1564SOL     OW 5590   1.648   1.734   2.722
 1564SOL    HW1 5591   1.695   1.729   2.810
 1564SOL    HW2 5592   1.582   1.810   2.724
 1565SOL     OW 5593   5.335   4.506   2.008
 1565SOL    HW1 5594   5.421   4.540   1.969
 1565SOL    HW2 5595   5.258   4.543   1.956
 1566SOL     OW 5596   5.952   4.527   3.314
 1566SOL    HW1 5597   5.926   4.557   3.222
 1566SOL    HW2 5598   5.935   4.601   3.379
 1567SOL     OW 5599   6.357   5.871   5.377
 1567SOL    HW1 5600   6.432   5.865   5.443
 1567SOL    HW2 5601   6.296   5.792   5.387
 1568SOL     OW 5602   0.760   6.562   0.555
 1568SOL    HW1 5603   0.739   6.530   0.647
 1568SOL    HW2 5604   0.698   6.519   0.490
 1569SOL     OW 5605   3.609   6.196   4.965
 1569SOL    HW1 5606   3.697   6.173   4.923
 1569SOL    HW2 5607   3.548   6.234   4.896
 1570SOL     OW 5608   3.576   2.036   1.560
 1570SOL    HW1 5609   3.600   2.001   1.650
 1570SOL    HW2 5610   3.488   1.997   1.532
 1571SOL     OW 5611   6.731   4.411   1.290
 1571SOL    HW1 5612   6.661   4.349   1.326
 1571SOL    HW2 5613   6.697   4.455   1.207
 1572SOL     OW 5614   1.657   6.393   2.200
 1572SOL    HW1 5615   1.690   6.347   2.283
 1572SOL    HW2 5616   1.624   6.324   2.135
 1573SOL     OW 5617   3.810   0.096   1.161
 1573SOL    HW1 5618   3.866   0.179   1.171
 1573SOL    HW2 5619   3.756   0.103   1.077
 1574SOL     OW 5620   6.144   2.823   2.566
 1574SOL    HW1 5621   6.146   2.763   2.486
 1574SOL    HW2 5622   6.155   2.769   2.649
 1575SOL     OW 5623   3.174   2.608   0.377
 1575SOL    HW1 5624   3.179   2.600   0.477
 1575SOL    HW2 5625   3.120   2.689   0.353
 1576SOL     OW 5626   6.671   6.039   3.875
 1576SOL    HW1 5627   6.584   6.057   3.829
 1576SOL    HW2 5628   6.654   5.994   3.963
 1577SOL     OW 5629   1.606   0.682   0.174
 1577SOL    HW1 5630   1.655   0.594   0.180
 1577SOL    HW2 5631   1.655   0.743   0.112
 1578SOL     OW 5632   5.680   5.413   4.490
 1578SOL    HW1 5633   5.705   5.502   4.528
 1578SOL    HW2 5634   5.607   5.373   4.544
 1579SOL     OW 5635   0.682   0.178   3.778
 1579SOL    HW1 5636   0.737   0.103   3.814
 1579SOL    HW2 5637   0.619   0.144   3.709
 1580SOL     OW 5638   3.320   3.898   5.775
 1580SOL    HW1 5639   3.345   3.923   5.681
 1580SOL    HW2 5640   3.232   3.851   5.775
 1581SOL     OW 5641   6.610   4.265   4.450
 1581SOL    HW1 5642   6.696   4.274   4.400
 1581SOL    HW2 5643   6.627   4.279   4.547
 1582SOL     OW 5644   5.965   5.423   4.353
 1582SOL    HW1 5645   6.026   5.363   4.403
 1582SOL    HW2 5646   5.872   5.387   4.356
 1583SOL     OW 5647   2.116   2.652   3.266
 1583SOL    HW1 5648   2.033   2.706   3.256
 1583SOL    HW2 5649   2.092   2.556   3.279
 1584SOL     OW 5650   2.241   0.719   6.619
 1584SOL    HW1 5651   2.203   0.801   6.663
 1584SOL    HW2 5652   2.338   0.733   6.600
 1585SOL     OW 5653   6.268   1.581   5.338
 1585SOL    HW1 5654   6.311   1.596   5.249
 1585SOL    HW2 5655   6.336   1.595   5.410
 1586SOL     OW 5656   3.526   4.154   3.025
 1586SOL    HW1 5657   3.478   4.070   3.000
 1586SOL    HW2 5658   3.484   4.192   3.108
 1587SOL     OW 5659   2.326   6.488   6.716
 1587SOL    HW1 5660   2.380   6.415   6.673
 1587SOL    HW2 5661   2.387   6.561   6.746
 1588SOL     OW 5662   5.921   3.896   1.656
 1588SOL    HW1 5663   5.843   3.927   1.602
 1588SOL    HW2 5664   6.005   3.909   1.604
 1589SOL     OW 5665   5.319   4.176   4.030
 1589SOL    HW1 5666   5.364   4.087   4.038
 1589SOL    HW2 5667   5.226   4.169   4.066
 1590SOL     OW 5668   1.721   0.844   6.165
 1590SOL    HW1 5669   1.766   0.899   6.094
 1590SOL    HW2 5670   1.763   0.865   6.254
 1591SOL     OW 5671   0.138   4.493   1.672
 1591SOL    HW1 5672   0.104   4.564   1.735
 1591SOL    HW2 5673   0.207   4.532   1.612
 1592SOL     OW 5674   2.912   3.474   3.048
 1592SOL    HW1 5675   2.864   3.429   2.972
 1592SOL    HW2 5676   2.984   3.414   3.083
 1593SOL     OW 5677   0.904   5.532   5.382
 1593SOL    HW1 5678   0.982   5.593   5.396
 1593SOL    HW2 5679   0.925   5.442   5.419
 1594SOL     OW 5680   0.194   5.032   3.185
 1594SOL    HW1 5681   0.290   5.019   3.209
 1594SOL    HW2 5682   0.139   5.031   3.269
 1595SOL     OW 5683   0.618   4.922   6.175
 1595SOL    HW1 5684   0.671   4.915   6.259
 1595SOL    HW2 5685   0.583   5.015   6.165
 1596SOL     OW 5686   3.147   5.022   6.618
 1596SOL    HW1 5687   3.095   4.939   6.639
 1596SOL    HW2 5688   3.245   5.001   6.620
 1597SOL     OW 5689   2.476   6.847   1.090
 1597SOL    HW1 5690   2.416   6.777   1.051
 1597SOL    HW2 5691   2.568   6.809   1.103
 1598SOL     OW 5692   0.091   5.675   1.491
 1598SOL    HW1 5693   0.047   5.586   1.502
 1598SOL    HW2 5694   0.159   5.670   1.418
 1599SOL     OW 5695   3.446   5.089   6.933
 1599SOL    HW1 5696   3.526   5.105   6.991
 1599SOL    HW2 5697   3.371   5.147   6.965
 1600SOL     OW 5698   3.474   1.696   5.184
 1600SOL    HW1 5699   3.376   1.678   5.198
 1600SOL    HW2 5700   3.525   1.612   5.200
 1601SOL     OW 5701   1.249   4.913   4.775
 1601SOL    HW1 5702   1.301   4.975   4.716
 1601SOL    HW2 5703   1.151   4.930   4.764
 1602SOL     OW 5704   0.522   5.141   3.016
 1602SOL    HW1 5705   0.491   5.054   2.977
 1602SOL    HW2 5706   0.587   5.184   2.953
 1603SOL     OW 5707   6.278   6.710   1.116
 1603SOL    HW1 5708   6.297   6.624   1.068
 1603SOL    HW2 5709   6.227   6.771   1.056
 1604SOL     OW 5710   0.462   5.694   5.202
 1604SOL    HW1 5711   0.461   5.598   5.230
 1604SOL    HW2 5712   0.546   5.737   5.234
 1605SOL     OW 5713   4.852   6.091   2.940
 1605SOL    HW1 5714   4.929   6.149   2.966
 1605SOL    HW2 5715   4.776   6.148   2.910
 1606SOL     OW 5716   4.819   0.075   6.069
 1606SOL    HW1 5717   4.813   7.007   6.035
 1606SOL    HW2 5718   4.915   0.097   6.090
 1607SOL     OW 5719   4.458   2.307   0.977
 1607SOL    HW1 5720   4.397   2.363   0.920
 1607SOL    HW2 5721   4.548   2.303   0.934
 1608SOL     OW 5722   2.395   0.163   0.573
 1608SOL    HW1 5723   2.380   0.153   0.671
 1608SOL    HW2 5724   2.316   0.127   0.523
 1609SOL     OW 5725   5.145   1.426   5.584
 1609SOL    HW1 5726   5.160   1.358   5.656
 1609SOL    HW2 5727   5.054   1.411   5.544
 1610SOL     OW 5728   5.411   6.000   4.265
 1610SOL    HW1 5729   5.314   6.016   4.281
 1610SOL    HW2 5730   5.452   5.959   4.347
 1611SOL     OW 5731   3.263   3.632   1.147
 1611SOL    HW1 5732   3.310   3.546   1.165
 1611SOL    HW2 5733   3.206   3.623   1.065
 1612SOL     OW 5734   3.461   1.312   4.361
 1612SOL    HW1 5735   3.524   1.329   4.285
 1612SOL    HW2 5736   3.494   1.235   4.415
 1613SOL     OW 5737   1.768   6.204   0.926
 1613SOL    HW1 5738   1.800   6.250   0.843
 1613SOL    HW2 5739   1.833   6.131   0.950
 1614SOL     OW 5740   0.127   2.773   6.664
 1614SOL    HW1 5741   0.170   2.793   6.576
 1614SOL    HW2 5742   0.173   2.826   6.735
 1615SOL     OW 5743   6.419   4.987   6.243
 1615SOL    HW1 5744   6.454   4.957   6.154
 1615SOL    HW2 5745   6.493   5.030   6.295
 1616SOL     OW 5746   2.465   1.641   5.494
 1616SOL    HW1 5747   2.426   1.675   5.579
 1616SOL    HW2 5748   2.449   1.707   5.420
 1617SOL     OW 5749   4.840   0.486   4.075
 1617SOL    HW1 5750   4.837   0.571   4.023
 1617SOL    HW2 5751   4.896   0.499   4.157
 1618SOL     OW 5752   5.556   2.239   1.371
 1618SOL    HW1 5753   5.478   2.246   1.432
 1618SOL    HW2 5754   5.539   2.293   1.288
 1619SOL     OW 5755   1.772   3.350   4.794
 1619SOL    HW1 5756   1.744   3.378   4.886
 1619SOL    HW2 5757   1.737   3.259   4.775
 1620SOL     OW 5758   3.956   5.463   1.613
 1620SOL    HW1 5759   4.027   5.527   1.645
 1620SOL    HW2 5760   3.996   5.373   1.599
 1621SOL     OW 5761   2.206   1.266   1.733
 1621SOL    HW1 5762   2.118   1.243   1.693
 1621SOL    HW2 5763   2.201   1.356   1.778
 1622SOL     OW 5764   2.284   2.133   4.319
 1622SOL    HW1 5765   2.259   2.117   4.223
 1622SOL    HW2 5766   2.358   2.200   4.323
 1623SOL     OW 5767   2.659   2.041   5.136
 1623SOL    HW1 5768   2.599   2.094   5.076
 1623SOL    HW2 5769   2.689   2.098   5.212
 1624SOL     OW 5770   2.510   0.394   0.567
 1624SOL    HW1 5771   2.588   0.386   0.505
 1624SOL    HW2 5772   2.474   0.303   0.587
 1625SOL     OW 5773   6.930   5.428   1.849
 1625SOL    HW1 5774   6.862   5.455   1.917
 1625SOL    HW2 5775   7.021   5.439   1.887
 1626SOL     OW 5776   1.991   2.834   6.066
 1626SOL    HW1 5777   1.933   2.817   6.146
 1626SOL    HW2 5778   2.037   2.923   6.077
 1627SOL     OW 5779   5.006   2.933   3.666
 1627SOL    HW1 5780   5.070   3.001   3.700
 1627SOL    HW2 5781   5.055   2.867   3.608
 1628SOL     OW 5782   2.701   3.144   0.395
 1628SOL    HW1 5783   2.642   3.064   0.381
 1628SOL    HW2 5784   2.795   3.114   0.412
 1629SOL     OW 5785   4.439   2.117   3.403
 1629SOL    HW1 5786   4.520   2.126   3.461
 1629SOL    HW2 5787   4.411   2.207   3.371
 1630SOL     OW 5788   0.203   5.125   4.572
 1630SOL    HW1 5789   0.122   5.108   4.627
 1630SOL    HW2 5790   0.177   5.130   4.475
 1631SOL     OW 5791   0.318   6.716   5.794
 1631SOL    HW1 5792   0.407   6.726   5.748
 1631SOL    HW2 5793   0.321   6.637   5.855
 1632SOL     OW 5794   5.910   0.176   1.612
 1632SOL    HW1 5795   5.947   0.249   1.669
 1632SOL    HW2 5796   5.827   0.208   1.566
 1633SOL     OW 5797   5.455   2.661   3.610
 1633SOL    HW1 5798   5.431   2.745   3.562
 1633SOL    HW2 5799   5.470   2.680   3.707
 1634SOL     OW 5800   3.455   0.882   0.260
 1634SOL    HW1 5801   3.545   0.885   0.214
 1634SOL    HW2 5802   3.432   0.974   0.291
 1635SOL     OW 5803   0.796   5.143   3.742
 1635SOL    HW1 5804   0.725   5.196   3.695
 1635SOL    HW2 5805   0.769   5.128   3.837
 1636SOL     OW 5806   2.664   6.692   1.604
 1636SOL    HW1 5807   2.616   6.758   1.545
 1636SOL    HW2 5808   2.737   6.649   1.552
 1637SOL     OW 5809   6.964   3.314   2.518
 1637SOL    HW1 5810   6.884   3.357   2.476
 1637SOL    HW2 5811   6.934   3.255   2.593
 1638SOL     OW 5812   1.718   3.295   5.343
 1638SOL    HW1 5813   1.654   3.283   5.419
 1638SOL    HW2 5814   1.750   3.206   5.311
 1639SOL     OW 5815   4.645   4.747   2.804
 1639SOL    HW1 5816   4.628   4.729   2.707
 1639SOL    HW2 5817   4.620   4.841   2.825
 1640SOL     OW 5818   6.049   0.370   1.096
 1640SOL    HW1 5819   5.987   0.423   1.154
 1640SOL    HW2 5820   6.010   0.360   1.005
 1641SOL     OW 5821   6.598   2.558   5.678
 1641SOL    HW1 5822   6.613   2.601   5.589
 1641SOL    HW2 5823   6.665   2.592   5.744
 1642SOL     OW 5824   0.145   2.265   1.427
 1642SOL    HW1 5825   0.115   2.359   1.446
 1642SOL    HW2 5826   0.224   2.244   1.486
 1643SOL     OW 5827   3.664   0.873   5.990
 1643SOL    HW1 5828   3.713   0.946   5.942
 1643SOL    HW2 5829   3.615   0.816   5.924
 1644SOL     OW 5830   3.514   1.101   1.367
 1644SOL    HW1 5831   3.519   1.006   1.336
 1644SOL    HW2 5832   3.427   1.116   1.414
 1645SOL     OW 5833   2.059   6.694   5.809
 1645SOL    HW1 5834   1.968   6.699   5.769
 1645SOL    HW2 5835   2.113   6.626   5.760
 1646SOL     OW 5836   0.672   3.541   0.918
 1646SOL    HW1 5837   0.684   3.629   0.963
 1646SOL    HW2 5838   0.575   3.515   0.920
 1647SOL     OW 5839   5.988   2.414   3.567
 1647SOL    HW1 5840   6.010   2.450   3.657
 1647SOL    HW2 5841   5.900   2.451   3.537
 1648SOL     OW 5842   4.709   6.796   2.605
 1648SOL    HW1 5843   4.674   6.847   2.527
 1648SOL    HW2 5844   4.707   6.854   2.687
 1649SOL     OW 5845   3.401   0.161   2.947
 1649SOL    HW1 5846   3.408   0.244   3.003
 1649SOL    HW2 5847   3.463   0.092   2.982
 1650SOL     OW 5848   3.247   6.592   3.801
 1650SOL    HW1 5849   3.319   6.531   3.835
 1650SOL    HW2 5850   3.238   6.669   3.864
 1651SOL     OW 5851   1.302   6.444   1.234
 1651SOL    HW1 5852   1.315   6.408   1.142
 1651SOL    HW2 5853   1.246   6.381   1.288
 1652SOL     OW 5854   2.880   2.886   1.585
 1652SOL    HW1 5855   2.857   2.791   1.563
 1652SOL    HW2 5856   2.828   2.947   1.524
 1653SOL     OW 5857   1.350   5.016   0.835
 1653SOL    HW1 5858   1.412   4.981   0.905
 1653SOL    HW2 5859   1.255   5.004   0.866
 1654SOL     OW 5860   0.349   2.413   3.634
 1654SOL    HW1 5861   0.341   2.387   3.730
 1654SOL    HW2 5862   0.424   2.478   3.623
 1655SOL     OW 5863   5.316   4.866   6.030
 1655SOL    HW1 5864   5.334   4.797   6.100
 1655SOL    HW2 5865   5.355   4.837   5.943
 1656SOL     OW 5866   0.553   3.949   3.624
 1656SOL    HW1 5867   0.628   3.900   3.578
 1656SOL    HW2 5868   0.507   4.008   3.558
 1657SOL     OW 5869   0.779   0.294   5.452
 1657SOL    HW1 5870   0.789   0.384   5.495
 1657SOL    HW2 5871   0.683   0.266   5.456
 1658SOL     OW 5872   6.258   5.712   2.658
 1658SOL    HW1 5873   6.165   5.735   2.685
 1658SOL    HW2 5874   6.277   5.753   2.569
 1659SOL     OW 5875   4.689   2.329   5.576
 1659SOL    HW1 5876   4.758   2.274   5.529
 1659SOL    HW2 5877   4.656   2.402   5.515
 1660SOL     OW 5878   1.801   6.025   3.363
 1660SOL    HW1 5879   1.890   6.071   3.358
 1660SOL    HW2 5880   1.804   5.940   3.310
 1661SOL     OW 5881   3.003   6.937   2.458
 1661SOL    HW1 5882   3.075   6.989   2.503
 1661SOL    HW2 5883   3.043   6.884   2.383
 1662SOL     OW 5884   0.514   0.093   3.572
 1662SOL    HW1 5885   0.457   0.048   3.640
 1662SOL    HW2 5886   0.583   0.029   3.538
 1663SOL     OW 5887   2.834   6.852   3.620
 1663SOL    HW1 5888   2.843   6.754   3.637
 1663SOL    HW2 5889   2.899   6.880   3.550
 1664SOL     OW 5890   2.545   5.626   4.335
 1664SOL    HW1 5891   2.473   5.665   4.392
 1664SOL    HW2 5892   2.567   5.690   4.261
 1665SOL     OW 5893   0.530   6.893   4.877
 1665SOL    HW1 5894   0.512   6.920   4.782
 1665SOL    HW2 5895   0.612   6.836   4.880
 1666SOL     OW 5896   5.647   3.141   6.350
 1666SOL    HW1 5897   5.564   3.170   6.302
 1666SOL    HW2 5898   5.623   3.101   6.438
 1667SOL     OW 5899   6.607   0.565   5.797
 1667SOL    HW1 5900   6.591   0.500   5.722
 1667SOL    HW2 5901   6.705   0.582   5.805
 1668SOL     OW 5902   3.298   0.959   5.204
 1668SOL    HW1 5903   3.270   0.985   5.112
 1668SOL    HW2 5904   3.359   1.029   5.241
 1669SOL     OW 5905   5.834   6.364   6.109
 1669SOL    HW1 5906   5.850   6.318   6.021
 1669SOL    HW2 5907   5.762   6.316   6.159
 1670SOL     OW 5908   5.770   3.794   5.728
 1670SOL    HW1 5909   5.671   3.806   5.738
 1670SOL    HW2 5910   5.789   3.712   5.673
 1671SOL     OW 5911   5.673   4.867   6.787
 1671SOL    HW1 5912   5.576   4.843   6.798
 1671SOL    HW2 5913   5.727   4.783   6.779
 1672SOL     OW 5914   2.356   5.255   2.590
 1672SOL    HW1 5915   2.342   5.162   2.625
 1672SOL    HW2 5916   2.416   5.252   2.510
 1673SOL     OW 5917   6.749   1.542   3.681
 1673SOL    HW1 5918   6.770   1.451   3.717
 1673SOL    HW2 5919   6.692   1.591   3.747
 1674SOL     OW 5920   1.401   4.936   6.538
 1674SOL    HW1 5921   1.328   4.940   6.470
 1674SOL    HW2 5922   1.368   4.889   6.620
 1675SOL     OW 5923   4.702   2.729   0.157
 1675SOL    HW1 5924   4.697   2.792   0.235
 1675SOL    HW2 5925   4.798   2.707   0.137
 1676SOL     OW 5926   2.732   0.764   3.478
 1676SOL    HW1 5927   2.670   0.778   3.401
 1676SOL    HW2 5928   2.687   0.709   3.548
 1677SOL     OW 5929   6.381   0.573   4.964
 1677SOL    HW1 5930   6.402   0.667   4.935
 1677SOL    HW2 5931   6.459   0.513   4.942
 1678SOL     OW 5932   4.888   6.927   1.262
 1678SOL    HW1 5933   4.797   6.950   1.297
 1678SOL    HW2 5934   4.880   6.889   1.170
 1679SOL     OW 5935   6.060   4.222   0.116
 1679SOL    HW1 5936   6.032   4.308   0.158
 1679SOL    HW2 5937   6.028   4.145   0.172
 1680SOL     OW 5938   1.197   2.333   4.748
 1680SOL    HW1 5939   1.229   2.312   4.656
 1680SOL    HW2 5940   1.154   2.423   4.749
 1681SOL     OW 5941   5.821   5.553   1.345
 1681SOL    HW1 5942   5.750   5.558   1.275
 1681SOL    HW2 5943   5.842   5.644   1.379
 1682SOL     OW 5944   6.631   3.534   5.553
 1682SOL    HW1 5945   6.559   3.601   5.569
 1682SOL    HW2 5946   6.704   3.546   5.621
 1683SOL     OW 5947   6.182   5.932   6.710
 1683SOL    HW1 5948   6.242   5.854   6.695
 1683SOL    HW2 5949   6.195   5.999   6.636
 1684SOL     OW 5950   0.436   5.484   4.644
 1684SOL    HW1 5951   0.450   5.483   4.545
 1684SOL    HW2 5952   0.347   5.525   4.664
 1685SOL     OW 5953   1.535   1.840   0.208
 1685SOL    HW1 5954   1.541   1.938   0.188
 1685SOL    HW2 5955   1.627   1.804   0.224
 1686SOL     OW 5956   1.909   5.976   6.568
 1686SOL    HW1 5957   1.829   5.981   6.627
 1686SOL    HW2 5958   1.913   6.058   6.510
 1687SOL     OW 5959   1.694   0.016   1.890
 1687SOL    HW1 5960   1.649   6.955   1.870
 1687SOL    HW2 5961   1.791   0.010   1.865
 1688SOL     OW 5962   0.017   1.815   3.787
 1688SOL    HW1 5963   6.971   1.778   3.728
 1688SOL    HW2 5964   7.002   1.866   3.862
 1689SOL     OW 5965   3.414   1.557   2.747
 1689SOL    HW1 5966   3.325   1.574   2.705
 1689SOL    HW2 5967   3.428   1.459   2.755
 1690SOL     OW 5968   0.240   1.935   0.931
 1690SOL    HW1 5969   0.328   1.905   0.895
 1690SOL    HW2 5970   0.226   2.031   0.908
 1691SOL     OW 5971   4.527   4.802   2.538
 1691SOL    HW1 5972   4.501   4.732   2.470
 1691SOL    HW2 5973   4.448   4.858   2.560
 1692SOL     OW 5974   1.499   0.507   3.718
 1692SOL    HW1 5975   1.541   0.502   3.809
 1692SOL    HW2 5976   1.569   0.524   3.650
 1693SOL     OW 5977   2.820   2.309   3.727
 1693SOL    HW1 5978   2.742   2.372   3.738
 1693SOL    HW2 5979   2.882   2.346   3.658
 1694SOL     OW 5980   4.670   6.072   5.736
 1694SOL    HW1 5981   4.768   6.059   5.720
 1694SOL    HW2 5982   4.628   6.109   5.653
 1695SOL     OW 5983   2.498   1.549   6.108
 1695SOL    HW1 5984   2.480   1.647   6.120
 1695SOL    HW2 5985   2.436   1.512   6.039
 1696SOL     OW 5986   3.304   5.824   1.575
 1696SOL    HW1 5987   3.252   5.831   1.490
 1696SOL    HW2 5988   3.395   5.862   1.563
 1697SOL     OW 5989   1.385   1.126   1.817
 1697SOL    HW1 5990   1.406   1.224   1.807
 1697SOL    HW2 5991   1.288   1.115   1.839
 1698SOL     OW 5992   5.386   2.091   1.031
 1698SOL    HW1 5993   5.478   2.125   1.015
 1698SOL    HW2 5994   5.321   2.142   0.974
 1699SOL     OW 5995   2.451   3.896   1.167
 1699SOL    HW1 5996   2.436   3.874   1.070
 1699SOL    HW2 5997   2.459   3.995   1.177
 1700SOL     OW 5998   6.592   2.983   4.515
 1700SOL    HW1 5999   6.685   3.013   4.537
 1700SOL    HW2 6000   6.534   2.991   4.597
 1701SOL     OW 6001   6.009   3.525   4.679
 1701SOL    HW1 6002   5.964   3.489   4.597
 1701SOL    HW2 6003   5.988   3.622   4.688
 1702SOL     OW 6004   4.905   2.787   1.614
 1702SOL    HW1 6005   4.954   2.851   1.555
 1702SOL    HW2 6006   4.881   2.832   1.700
 1703SOL     OW 6007   2.049   4.486   0.343
 1703SOL    HW1 6008   2.042   4.492   0.244
 1703SOL    HW2 6009   1.958   4.470   0.382
 1704SOL     OW 6010   1.152   1.020   1.914
 1704SOL    HW1 6011   1.069   1.070   1.941
 1704SOL    HW2 6012   1.149   0.928   1.953
 1705SOL     OW 6013   4.140   3.282   2.225
 1705SOL    HW1 6014   4.133   3.189   2.188
 1705SOL    HW2 6015   4.117   3.281   2.322
 1706SOL     OW 6016   2.525   0.698   6.661
 1706SOL    HW1 6017   2.490   0.682   6.753
 1706SOL    HW2 6018   2.621   0.724   6.665
 1707SOL     OW 6019   6.262   1.738   2.956
 1707SOL    HW1 6020   6.174   1.776   2.929
 1707SOL    HW2 6021   6.275   1.649   2.912
 1708SOL     OW 6022   0.314   4.761   2.154
 1708SOL    HW1 6023   0.278   4.677   2.114
 1708SOL    HW2 6024   0.252   4.837   2.133
 1709SOL     OW 6025   3.717   5.843   4.348
 1709SOL    HW1 6026   3.638   5.784   4.367
 1709SOL    HW2 6027   3.735   5.901   4.427
 1710SOL     OW 6028   0.192   5.933   3.914
 1710SOL    HW1 6029   0.145   5.848   3.936
 1710SOL    HW2 6030   0.210   5.984   3.998
 1711SOL     OW 6031   1.494   4.608   5.372
 1711SOL    HW1 6032   1.594   4.607   5.370
 1711SOL    HW2 6033   1.460   4.648   5.287
 1712SOL     OW 6034   1.170   4.738   1.040
 1712SOL    HW1 6035   1.087   4.781   1.074
 1712SOL    HW2 6036   1.241   4.808   1.029
 1713SOL     OW 6037   1.508   3.238   0.174
 1713SOL    HW1 6038   1.508   3.333   0.205
 1713SOL    HW2 6039   1.515   3.177   0.253
 1714SOL     OW 6040   3.787   1.511   0.453
 1714SOL    HW1 6041   3.865   1.547   0.403
 1714SOL    HW2 6042   3.724   1.467   0.389
 1715SOL     OW 6043   0.521   3.309   3.918
 1715SOL    HW1 6044   0.549   3.221   3.956
 1715SOL    HW2 6045   0.424   3.324   3.937
 1716SOL     OW 6046   6.906   6.575   0.309
 1716SOL    HW1 6047   6.996   6.539   0.282
 1716SOL    HW2 6048   6.905   6.592   0.407
 1717SOL     OW 6049   3.506   0.294   6.915
 1717SOL    HW1 6050   3.541   0.387   6.920
 1717SOL    HW2 6051   3.406   0.295   6.924
 1718SOL     OW 6052   1.188   4.945   5.456
 1718SOL    HW1 6053   1.123   4.877   5.424
 1718SOL    HW2 6054   1.216   4.922   5.549
 1719SOL     OW 6055   2.471   3.469   1.393
 1719SOL    HW1 6056   2.495   3.448   1.298
 1719SOL    HW2 6057   2.456   3.384   1.443
 1720SOL     OW 6058   6.456   1.379   1.791
 1720SOL    HW1 6059   6.488   1.457   1.845
 1720SOL    HW2 6060   6.527   1.309   1.788
 1721SOL     OW 6061   2.002   6.202   3.428
 1721SOL    HW1 6062   2.049   6.290   3.436
 1721SOL    HW2 6063   1.935   6.193   3.501
 1722SOL     OW 6064   5.766   6.768   2.137
 1722SOL    HW1 6065   5.753   6.711   2.219
 1722SOL    HW2 6066   5.778   6.709   2.058
 1723SOL     OW 6067   6.384   1.482   2.203
 1723SOL    HW1 6068   6.421   1.390   2.215
 1723SOL    HW2 6069   6.292   1.476   2.166
 1724SOL     OW 6070   4.743   0.426   0.225
 1724SOL    HW1 6071   4.775   0.355   0.287
 1724SOL    HW2 6072   4.818   0.455   0.166
 1725SOL     OW 6073   4.160   5.034   2.203
 1725SOL    HW1 6074   4.223   4.963   2.173
 1725SOL    HW2 6075   4.207   5.121   2.208
 1726SOL     OW 6076   0.141   5.159   4.297
 1726SOL    HW1 6077   0.043   5.177   4.293
 1726SOL    HW2 6078   0.185   5.193   4.213
 1727SOL     OW 6079   3.754   3.212   5.339
 1727SOL    HW1 6080   3.761   3.115   5.316
 1727SOL    HW2 6081   3.695   3.223   5.419
 1728SOL     OW 6082   4.685   4.341   3.473
 1728SOL    HW1 6083   4.749   4.416   3.454
 1728SOL    HW2 6084   4.683   4.278   3.395
 1729SOL     OW 6085   1.862   3.333   2.829
 1729SOL    HW1 6086   1.778   3.368   2.788
 1729SOL    HW2 6087   1.862   3.233   2.826
 1730SOL     OW 6088   5.700   2.263   4.513
 1730SOL    HW1 6089   5.660   2.298   4.428
 1730SOL    HW2 6090   5.631   2.213   4.565
 1731SOL     OW 6091   0.960   5.733   0.324
 1731SOL    HW1 6092   0.891   5.662   0.313
 1731SOL    HW2 6093   1.051   5.693   0.321
 1732SOL     OW 6094   0.379   4.511   6.912
 1732SOL    HW1 6095   0.308   4.500   6.842
 1732SOL    HW2 6096   0.337   4.513   7.003
 1733SOL     OW 6097   1.565   4.090   0.886
 1733SOL    HW1 6098   1.522   4.044   0.809
 1733SOL    HW2 6099   1.552   4.036   0.969
 1734SOL     OW 6100   4.875   2.711   1.247
 1734SOL    HW1 6101   4.909   2.654   1.321
 1734SOL    HW2 6102   4.900   2.671   1.159
 1735SOL     OW 6103   5.985   5.731   1.511
 1735SOL    HW1 6104   5.925   5.789   1.567
 1735SOL    HW2 6105   6.070   5.714   1.561
 1736SOL     OW 6106   3.014   3.949   0.911
 1736SOL    HW1 6107   3.003   3.888   0.833
 1736SOL    HW2 6108   2.954   4.028   0.901
 1737SOL     OW 6109   1.305   5.797   3.751
 1737SOL    HW1 6110   1.378   5.833   3.810
 1737SOL    HW2 6111   1.295   5.857   3.672
 1738SOL     OW 6112   0.884   2.092   1.476
 1738SOL    HW1 6113   0.816   2.052   1.537
 1738SOL    HW2 6114   0.976   2.073   1.512
 1739SOL     OW 6115   4.115   2.168   5.629
 1739SOL    HW1 6116   4.202   2.206   5.660
 1739SOL    HW2 6117   4.043   2.194   5.693
 1740SOL     OW 6118   0.972   0.967   5.734
 1740SOL    HW1 6119   0.913   0.992   5.810
 1740SOL    HW2 6120   1.005   1.050   5.689
 1741SOL     OW 6121   1.800   0.797   2.664
 1741SOL    HW1 6122   1.820   0.723   2.599
 1741SOL    HW2 6123   1.701   0.806   2.674
 1742SOL     OW 6124   5.762   6.660   4.392
 1742SOL    HW1 6125   5.836   6.599   4.420
 1742SOL    HW2 6126   5.710   6.688   4.473
 1743SOL     OW 6127   4.630   1.232   0.585
 1743SOL    HW1 6128   4.544   1.185   0.602
 1743SOL    HW2 6129   4.630   1.269   0.492
 1744SOL     OW 6130   3.126   0.804   1.476
 1744SOL    HW1 6131   3.036   0.821   1.517
 1744SOL    HW2 6132   3.197   0.812   1.546
 1745SOL     OW 6133   6.901   3.085   4.497
 1745SOL    HW1 6134   6.989   3.038   4.490
 1745SOL    HW2 6135   6.908   3.177   4.457
 1746SOL     OW 6136   2.977   0.696   5.957
 1746SOL    HW1 6137   3.071   0.663   5.963
 1746SOL    HW2 6138   2.916   0.635   6.007
 1747SOL     OW 6139   4.644   0.882   0.003
 1747SOL    HW1 6140   4.641   0.882   0.103
 1747SOL    HW2 6141   4.586   0.809   6.993
 1748SOL     OW 6142   6.221   1.686   1.787
 1748SOL    HW1 6143   6.207   1.592   1.755
 1748SOL    HW2 6144   6.284   1.733   1.726
 1749SOL     OW 6145   4.467   0.029   6.479
 1749SOL    HW1 6146   4.415   0.105   6.519
 1749SOL    HW2 6147   4.565   0.044   6.494
 1750SOL     OW 6148   5.147   0.403   3.447
 1750SOL    HW1 6149   5.217   0.472   3.467
 1750SOL    HW2 6150   5.057   0.445   3.452
 1751SOL     OW 6151   1.980   5.931   3.915
 1751SOL    HW1 6152   1.956   5.991   3.992
 1751SOL    HW2 6153   2.030   5.851   3.950
 1752SOL     OW 6154   6.693   2.491   0.450
 1752SOL    HW1 6155   6.721   2.395   0.457
 1752SOL    HW2 6156   6.595   2.498   0.468
 1753SOL     OW 6157   2.674   6.860   2.339
 1753SOL    HW1 6158   2.650   6.834   2.433
 1753SOL    HW2 6159   2.604   6.921   2.302
 1754SOL     OW 6160   3.977   2.422   0.991
 1754SOL    HW1 6161   4.017   2.419   1.082
 1754SOL    HW2 6162   3.955   2.329   0.961
 1755SOL     OW 6163   5.048   3.563   0.030
 1755SOL    HW1 6164   5.139   3.533   0.002
 1755SOL    HW2 6165   5.015   3.503   0.103
 1756SOL     OW 6166   5.764   5.680   4.523
 1756SOL    HW1 6167   5.743   5.746   4.595
 1756SOL    HW2 6168   5.863   5.676   4.510
 1757SOL     OW 6169   3.603   0.242   5.176
 1757SOL    HW1 6170   3.518   0.295   5.176
 1757SOL    HW2 6171   3.604   0.180   5.098
 1758SOL     OW 6172   2.694   1.152   3.307
 1758SOL    HW1 6173   2.717   1.229   3.367
 1758SOL    HW2 6174   2.772   1.131   3.250
 1759SOL     OW 6175   0.442   5.519   6.204
 1759SOL    HW1 6176   0.484   5.487   6.289
 1759SOL    HW2 6177   0.433   5.619   6.207
 1760SOL     OW 6178   5.561   0.533   2.309
 1760SOL    HW1 6179   5.608   0.570   2.228
 1760SOL    HW2 6180   5.625   0.480   2.363
 1761SOL     OW 6181   6.376   2.870   1.179
 1761SOL    HW1 6182   6.466   2.855   1.220
 1761SOL    HW2 6183   6.371   2.963   1.143
 1762SOL     OW 6184   5.947   2.056   0.254
 1762SOL    HW1 6185   5.932   2.097   0.344
 1762SOL    HW2 6186   5.904   1.966   0.250
 1763SOL     OW 6187   1.977   4.125   3.644
 1763SOL    HW1 6188   1.904   4.138   3.711
 1763SOL    HW2 6189   2.026   4.040   3.665
 1764SOL     OW 6190   6.414   3.128   4.346
 1764SOL    HW1 6191   6.360   3.052   4.310
 1764SOL    HW2 6192   6.485   3.092   4.407
 1765SOL     OW 6193   2.578   2.653   6.215
 1765SOL    HW1 6194   2.585   2.575   6.152
 1765SOL    HW2 6195   2.497   2.707   6.193
 1766SOL     OW 6196   6.129   3.216   5.302
 1766SOL    HW1 6197   6.139   3.238   5.399
 1766SOL    HW2 6198   6.139   3.300   5.248
 1767SOL     OW 6199   5.585   3.916   1.925
 1767SOL    HW1 6200   5.664   3.895   1.983
 1767SOL    HW2 6201   5.515   3.963   1.979
 1768SOL     OW 6202   5.846   6.210   3.883
 1768SOL    HW1 6203   5.889   6.266   3.954
 1768SOL    HW2 6204   5.804   6.269   3.815
 1769SOL     OW 6205   5.584   1.477   3.257
 1769SOL    HW1 6206   5.561   1.559   3.203
 1769SOL    HW2 6207   5.568   1.395   3.202
 1770SOL     OW 6208   2.850   5.219   5.144
 1770SOL    HW1 6209   2.801   5.301   5.175
 1770SOL    HW2 6210   2.942   5.245   5.115
 1771SOL     OW 6211   5.202   6.392   6.486
 1771SOL    HW1 6212   5.203   6.428   6.393
 1771SOL    HW2 6213   5.173   6.464   6.550
 1772SOL     OW 6214   3.474   6.320   2.622
 1772SOL    HW1 6215   3.507   6.278   2.537
 1772SOL    HW2 6216   3.391   6.273   2.652
 1773SOL     OW 6217   0.851   5.522   6.870
 1773SOL    HW1 6218   0.793   5.574   6.807
 1773SOL    HW2 6219   0.914   5.584   6.917
 1774SOL     OW 6220   3.442   5.125   1.938
 1774SOL    HW1 6221   3.511   5.085   1.999
 1774SOL    HW2 6222   3.368   5.059   1.925
 1775SOL     OW 6223   0.631   4.656   1.853
 1775SOL    HW1 6224   0.702   4.586   1.849
 1775SOL    HW2 6225   0.673   4.746   1.868
 1776SOL     OW 6226   3.270   5.605   5.037
 1776SOL    HW1 6227   3.314   5.680   4.988
 1776SOL    HW2 6228   3.171   5.618   5.037
 1777SOL     OW 6229   3.331   5.875   0.350
 1777SOL    HW1 6230   3.331   5.810   0.426
 1777SOL    HW2 6231   3.268   5.949   0.370
 1778SOL     OW 6232   6.401   3.715   5.601
 1778SOL    HW1 6233   6.422   3.799   5.550
 1778SOL    HW2 6234   6.303   3.696   5.594
 1779SOL     OW 6235   3.338   6.687   5.573
 1779SOL    HW1 6236   3.393   6.752   5.520
 1779SOL    HW2 6237   3.399   6.627   5.624
 1780SOL     OW 6238   3.317   3.606   6.445
 1780SOL    HW1 6239   3.272   3.643   6.364
 1780SOL    HW2 6240   3.264   3.529   6.480
 1781SOL     OW 6241   3.977   5.422   2.976
 1781SOL    HW1 6242   3.899   5.460   3.026
 1781SOL    HW2 6243   3.974   5.454   2.881
 1782SOL     OW 6244   3.278   1.667   4.263
 1782SOL    HW1 6245   3.312   1.573   4.255
 1782SOL    HW2 6246   3.334   1.728   4.208
 1783SOL     OW 6247   1.521   5.293   0.153
 1783SOL    HW1 6248   1.444   5.335   0.105
 1783SOL    HW2 6249   1.494   5.273   0.247
 1784SOL     OW 6250   3.377   6.451   5.371
 1784SOL    HW1 6251   3.457   6.406   5.410
 1784SOL    HW2 6252   3.343   6.520   5.435
 1785SOL     OW 6253   6.107   4.296   2.838
 1785SOL    HW1 6254   6.144   4.296   2.931
 1785SOL    HW2 6255   6.025   4.353   2.835
 1786SOL     OW 6256   3.274   2.807   1.191
 1786SOL    HW1 6257   3.231   2.817   1.281
 1786SOL    HW2 6258   3.373   2.818   1.199
 1787SOL     OW 6259   3.706   0.274   6.128
 1787SOL    HW1 6260   3.754   0.360   6.112
 1787SOL    HW2 6261   3.673   0.270   6.222
 1788SOL     OW 6262   1.784   4.630   5.344
 1788SOL    HW1 6263   1.807   4.601   5.437
 1788SOL    HW2 6264   1.862   4.610   5.283
 1789SOL     OW 6265   6.150   1.270   6.966
 1789SOL    HW1 6266   6.116   1.339   0.003
 1789SOL    HW2 6267   6.248   1.257   6.979
 1790SOL     OW 6268   3.889   6.816   2.970
 1790SOL    HW1 6269   3.864   6.786   2.878
 1790SOL    HW2 6270   3.883   6.915   2.976
 1791SOL     OW 6271   0.540   0.112   2.768
 1791SOL    HW1 6272   0.627   0.066   2.748
 1791SOL    HW2 6273   0.528   0.119   2.867
 1792SOL     OW 6274   1.304   3.366   5.731
 1792SOL    HW1 6275   1.296   3.383   5.633
 1792SOL    HW2 6276   1.280   3.271   5.751
 1793SOL     OW 6277   0.419   0.473   3.576
 1793SOL    HW1 6278   0.516   0.479   3.601
 1793SOL    HW2 6279   0.397   0.379   3.550
 1794SOL     OW 6280   4.689   5.934   6.218
 1794SOL    HW1 6281   4.625   5.867   6.256
 1794SOL    HW2 6282   4.713   5.908   6.125
 1795SOL     OW 6283   0.408   3.387   0.421
 1795SOL    HW1 6284   0.353   3.407   0.501
 1795SOL    HW2 6285   0.409   3.466   0.360
 1796SOL     OW 6286   3.209   0.280   6.506
 1796SOL    HW1 6287   3.210   0.202   6.569
 1796SOL    HW2 6288   3.123   0.280   6.456
 1797SOL     OW 6289   0.603   0.310   0.965
 1797SOL    HW1 6290   0.679   0.372   0.981
 1797SOL    HW2 6291   0.542   0.349   0.896
 1798SOL     OW 6292   5.732   2.676   3.125
 1798SOL    HW1 6293   5.745   2.752   3.188
 1798SOL    HW2 6294   5.817   2.624   3.118
 1799SOL     OW 6295   1.498   1.995   6.513
 1799SOL    HW1 6296   1.447   2.046   6.582
 1799SOL    HW2 6297   1.442   1.920   6.478
 1800SOL     OW 6298   3.962   5.188   2.386
 1800SOL    HW1 6299   3.944   5.234   2.298
 1800SOL    HW2 6300   4.060   5.183   2.401
 1801SOL     OW 6301   5.766   6.874   0.804
 1801SOL    HW1 6302   5.815   6.789   0.826
 1801SOL    HW2 6303   5.828   6.952   0.817
 1802SOL     OW 6304   5.501   5.371   3.884
 1802SOL    HW1 6305   5.514   5.470   3.881
 1802SOL    HW2 6306   5.583   5.328   3.922
 1803SOL     OW 6307   6.190   5.410   1.044
 1803SOL    HW1 6308   6.275   5.458   1.069
 1803SOL    HW2 6309   6.134   5.398   1.125
 1804SOL     OW 6310   3.300   3.222   5.279
 1804SOL    HW1 6311   3.202   3.231   5.297
 1804SOL    HW2 6312   3.336   3.142   5.327
 1805SOL     OW 6313   4.911   3.187   6.883
 1805SOL    HW1 6314   4.962   3.151   6.961
 1805SOL    HW2 6315   4.959   3.163   6.799
 1806SOL     OW 6316   0.813   6.597   1.293
 1806SOL    HW1 6317   0.817   6.544   1.378
 1806SOL    HW2 6318   0.906   6.619   1.264
 1807SOL     OW 6319   5.877   1.442   5.100
 1807SOL    HW1 6320   5.957   1.411   5.048
 1807SOL    HW2 6321   5.905   1.511   5.166
 1808SOL     OW 6322   1.435   4.783   3.803
 1808SOL    HW1 6323   1.464   4.830   3.887
 1808SOL    HW2 6324   1.452   4.685   3.813
 1809SOL     OW 6325   3.437   6.916   6.454
 1809SOL    HW1 6326   3.535   6.910   6.433
 1809SOL    HW2 6327   3.398   6.825   6.457
 1810SOL     OW 6328   3.265   6.097   2.971
 1810SOL    HW1 6329   3.347   6.112   3.026
 1810SOL    HW2 6330   3.219   6.014   3.001
 1811SOL     OW 6331   6.148   5.194   3.168
 1811SOL    HW1 6332   6.177   5.280   3.125
 1811SOL    HW2 6333   6.132   5.209   3.265
 1812SOL     OW 6334   4.043   5.195   6.211
 1812SOL    HW1 6335   4.045   5.097   6.191
 1812SOL    HW2 6336   3.949   5.229   6.200
 1813SOL     OW 6337   6.180   4.717   5.909
 1813SOL    HW1 6338   6.122   4.693   5.831
 1813SOL    HW2 6339   6.122   4.743   5.987
 1814SOL     OW 6340   4.916   6.987   1.971
 1814SOL    HW1 6341   4.932   6.891   1.950
 1814SOL    HW2 6342   4.981   0.017   1.919
 1815SOL     OW 6343   0.469   0.768   2.847
 1815SOL    HW1 6344   0.567   0.757   2.867
 1815SOL    HW2 6345   0.434   0.846   2.899
 1816SOL     OW 6346   0.613   4.441   0.156
 1816SOL    HW1 6347   0.642   4.424   0.250
 1816SOL    HW2 6348   0.549   4.369   0.128
 1817SOL     OW 6349   2.036   5.820   1.940
 1817SOL    HW1 6350   1.949   5.776   1.964
 1817SOL    HW2 6351   2.026   5.869   1.854
 1818SOL     OW 6352   2.621   1.368   3.077
 1818SOL    HW1 6353   2.600   1.466   3.085
 1818SOL    HW2 6354   2.642   1.332   3.168
 1819SOL     OW 6355   1.570   4.494   2.023
 1819SOL    HW1 6356   1.615   4.580   2.000
 1819SOL    HW2 6357   1.513   4.507   2.104
 1820SOL     OW 6358   5.243   0.143   2.685
 1820SOL    HW1 6359   5.227   0.080   2.760
 1820SOL    HW2 6360   5.155   0.179   2.653
 1821SOL     OW 6361   2.907   2.170   2.907
 1821SOL    HW1 6362   2.974   2.113   2.858
 1821SOL    HW2 6363   2.815   2.151   2.873
 1822SOL     OW 6364   3.549   3.021   1.688
 1822SOL    HW1 6365   3.601   2.998   1.771
 1822SOL    HW2 6366   3.597   3.093   1.638
 1823SOL     OW 6367   3.960   6.691   2.566
 1823SOL    HW1 6368   4.050   6.675   2.607
 1823SOL    HW2 6369   3.970   6.750   2.485
 1824SOL     OW 6370   5.299   2.962   1.369
 1824SOL    HW1 6371   5.395   2.950   1.345
 1824SOL    HW2 6372   5.263   2.877   1.408
 1825SOL     OW 6373   1.155   0.731   1.258
 1825SOL    HW1 6374   1.250   0.723   1.227
 1825SOL    HW2 6375   1.145   0.814   1.313
 1826SOL     OW 6376   3.173   6.641   6.699
 1826SOL    HW1 6377   3.077   6.650   6.673
 1826SOL    HW2 6378   3.188   6.551   6.740
 1827SOL     OW 6379   6.464   6.938   1.597
 1827SOL    HW1 6380   6.407   6.892   1.530
 1827SOL    HW2 6381   6.418   7.021   1.629
 1828SOL     OW 6382   1.834   2.147   0.051
 1828SOL    HW1 6383   1.881   2.235   0.061
 1828SOL    HW2 6384   1.796   2.120   0.139
 1829SOL     OW 6385   6.406   5.690   1.296
 1829SOL    HW1 6386   6.433   5.771   1.348
 1829SOL    HW2 6387   6.351   5.630   1.354
 1830SOL     OW 6388   5.182   6.282   4.022
 1830SOL    HW1 6389   5.169   6.381   4.016
 1830SOL    HW2 6390   5.106   6.236   3.977
 1831SOL     OW 6391   4.637   0.479   2.696
 1831SOL    HW1 6392   4.719   0.426   2.716
 1831SOL    HW2 6393   4.642   0.568   2.742
 1832SOL     OW 6394   5.336   2.803   0.399
 1832SOL    HW1 6395   5.264   2.751   0.445
 1832SOL    HW2 6396   5.347   2.771   0.305
 1833SOL     OW 6397   5.791   1.740   5.906
 1833SOL    HW1 6398   5.868   1.745   5.970
 1833SOL    HW2 6399   5.779   1.645   5.875
 1834SOL     OW 6400   2.771   3.490   0.558
 1834SOL    HW1 6401   2.761   3.562   0.489
 1834SOL    HW2 6402   2.691   3.430   0.556
 1835SOL     OW 6403   1.459   4.295   0.357
 1835SOL    HW1 6404   1.530   4.295   0.287
 1835SOL    HW2 6405   1.396   4.371   0.340
 1836SOL     OW 6406   0.409   5.716   0.881
 1836SOL    HW1 6407   0.321   5.735   0.837
 1836SOL    HW2 6408   0.428   5.785   0.950
 1837SOL     OW 6409   1.476   2.884   4.829
 1837SOL    HW1 6410   1.520   2.909   4.915
 1837SOL    HW2 6411   1.432   2.965   4.789
 1838SOL     OW 6412   6.744   2.580   4.566
 1838SOL    HW1 6413   6.796   2.596   4.650
 1838SOL    HW2 6414   6.653   2.546   4.589
 1839SOL     OW 6415   6.988   2.190   5.937
 1839SOL    HW1 6416   6.935   2.106   5.923
 1839SOL    HW2 6417   6.976   2.250   5.858
 1840SOL     OW 6418   1.439   4.896   1.059
 1840SOL    HW1 6419   1.430   4.975   1.120
 1840SOL    HW2 6420   1.531   4.857   1.069
 1841SOL     OW 6421   1.575   2.668   3.901
 1841SOL    HW1 6422   1.671   2.649   3.923
 1841SOL    HW2 6423   1.554   2.634   3.809
 1842SOL     OW 6424   1.109   4.468   0.018
 1842SOL    HW1 6425   1.036   4.419   6.996
 1842SOL    HW2 6426   1.193   4.414   0.014
 1843SOL     OW 6427   3.313   1.821   4.712
 1843SOL    HW1 6428   3.369   1.851   4.789
 1843SOL    HW2 6429   3.280   1.728   4.728
 1844SOL     OW 6430   5.120   3.388   4.015
 1844SOL    HW1 6431   5.035   3.441   4.014
 1844SOL    HW2 6432   5.179   3.424   4.088
 1845SOL     OW 6433   4.283   0.519   0.211
 1845SOL    HW1 6434   4.244   0.587   0.150
 1845SOL    HW2 6435   4.367   0.555   0.252
 1846SOL     OW 6436   3.394   1.169   5.374
 1846SOL    HW1 6437   3.468   1.207   5.431
 1846SOL    HW2 6438   3.381   1.228   5.294
 1847SOL     OW 6439   1.033   0.060   0.433
 1847SOL    HW1 6440   0.940   0.022   0.436
 1847SOL    HW2 6441   1.029   0.154   0.399
 1848SOL     OW 6442   3.406   6.662   2.055
 1848SOL    HW1 6443   3.333   6.595   2.070
 1848SOL    HW2 6444   3.371   6.739   2.002
 1849SOL     OW 6445   2.451   1.371   6.318
 1849SOL    HW1 6446   2.355   1.352   6.339
 1849SOL    HW2 6447   2.456   1.434   6.241
 1850SOL     OW 6448   5.798   1.633   2.046
 1850SOL    HW1 6449   5.875   1.682   2.004
 1850SOL    HW2 6450   5.716   1.690   2.043
 1851SOL     OW 6451   6.720   2.859   2.929
 1851SOL    HW1 6452   6.749   2.853   2.834
 1851SOL    HW2 6453   6.672   2.775   2.955
 1852SOL     OW 6454   5.421   2.933   7.023
 1852SOL    HW1 6455   5.442   3.029   0.015
 1852SOL    HW2 6456   5.500   2.890   6.980
 1853SOL     OW 6457   1.817   4.762   0.493
 1853SOL    HW1 6458   1.872   4.799   0.567
 1853SOL    HW2 6459   1.729   4.730   0.529
 1854SOL     OW 6460   3.068   5.991   4.218
 1854SOL    HW1 6461   3.015   5.906   4.213
 1854SOL    HW2 6462   3.028   6.059   4.157
 1855SOL     OW 6463   4.874   4.724   2.082
 1855SOL    HW1 6464   4.895   4.658   2.154
 1855SOL    HW2 6465   4.906   4.815   2.111
 1856SOL     OW 6466   4.970   2.425   5.501
 1856SOL    HW1 6467   4.970   2.326   5.490
 1856SOL    HW2 6468   4.926   2.468   5.422
 1857SOL     OW 6469   4.640   1.232   3.055
 1857SOL    HW1 6470   4.681   1.319   3.028
 1857SOL    HW2 6471   4.671   1.208   3.147
 1858SOL     OW 6472   5.211   4.250   3.713
 1858SOL    HW1 6473   5.167   4.324   3.763
 1858SOL    HW2 6474   5.309   4.250   3.733
 1859SOL     OW 6475   5.400   1.667   3.079
 1859SOL    HW1 6476   5.363   1.595   3.138
 1859SOL    HW2 6477   5.416   1.750   3.132
 1860SOL     OW 6478   4.508   1.634   4.774
 1860SOL    HW1 6479   4.419   1.606   4.737
 1860SOL    HW2 6480   4.494   1.706   4.843
 1861SOL     OW 6481   5.737   6.593   2.517
 1861SOL    HW1 6482   5.824   6.545   2.509
 1861SOL    HW2 6483   5.686   6.583   2.431
 1862SOL     OW 6484   2.053   1.906   0.259
 1862SOL    HW1 6485   2.111   1.981   0.291
 1862SOL    HW2 6486   2.109   1.825   0.245
 1863SOL     OW 6487   2.739   3.260   1.630
 1863SOL    HW1 6488   2.828   3.218   1.642
 1863SOL    HW2 6489   2.668   3.197   1.661
 1864SOL     OW 6490   1.199   6.500   4.106
 1864SOL    HW1 6491   1.263   6.452   4.046
 1864SOL    HW2 6492   1.182   6.592   4.070
 1865SOL     OW 6493   4.591   2.149   6.593
 1865SOL    HW1 6494   4.515   2.120   6.652
 1865SOL    HW2 6495   4.592   2.092   6.511
 1866SOL     OW 6496   4.840   5.176   2.764
 1866SOL    HW1 6497   4.871   5.269   2.785
 1866SOL    HW2 6498   4.905   5.133   2.701
 1867SOL     OW 6499   0.914   4.237   6.729
 1867SOL    HW1 6500   0.854   4.197   6.660
 1867SOL    HW2 6501   1.006   4.198   6.719
 1868SOL     OW 6502   6.066   3.847   4.963
 1868SOL    HW1 6503   6.010   3.839   4.881
 1868SOL    HW2 6504   6.105   3.757   4.986
 1869SOL     OW 6505   6.067   1.177   4.579
 1869SOL    HW1 6506   6.037   1.185   4.674
 1869SOL    HW2 6507   6.148   1.235   4.565
 1870SOL     OW 6508   2.082   5.383   4.626
 1870SOL    HW1 6509   2.062   5.430   4.540
 1870SOL    HW2 6510   2.160   5.322   4.613
 1871SOL     OW 6511   1.209   0.354   0.542
 1871SOL    HW1 6512   1.265   0.349   0.624
 1871SOL    HW2 6513   1.220   0.444   0.499
 1872SOL     OW 6514   2.465   4.849   0.370
 1872SOL    HW1 6515   2.508   4.791   0.439
 1872SOL    HW2 6516   2.398   4.909   0.413
 1873SOL     OW 6517   4.527   1.688   0.158
 1873SOL    HW1 6518   4.566   1.715   0.246
 1873SOL    HW2 6519   4.598   1.689   0.088
 1874SOL     OW 6520   0.867   2.869   2.545
 1874SOL    HW1 6521   0.925   2.838   2.621
 1874SOL    HW2 6522   0.771   2.856   2.570
 1875SOL     OW 6523   0.886   6.730   0.279
 1875SOL    HW1 6524   0.910   6.778   0.195
 1875SOL    HW2 6525   0.848   6.796   0.344
 1876SOL     OW 6526   1.996   6.949   4.742
 1876SOL    HW1 6527   1.915   6.897   4.712
 1876SOL    HW2 6528   1.987   6.971   4.839
 1877SOL     OW 6529   0.706   6.692   3.384
 1877SOL    HW1 6530   0.717   6.670   3.287
 1877SOL    HW2 6531   0.617   6.658   3.416
 1878SOL     OW 6532   5.934   2.642   5.713
 1878SOL    HW1 6533   5.960   2.564   5.771
 1878SOL    HW2 6534   5.996   2.646   5.635
 1879SOL     OW 6535   1.333   4.334   5.355
 1879SOL    HW1 6536   1.407   4.386   5.398
 1879SOL    HW2 6537   1.371   4.253   5.311
 1880SOL     OW 6538   6.015   0.752   5.464
 1880SOL    HW1 6539   6.030   0.654   5.464
 1880SOL    HW2 6540   5.932   0.774   5.412
 1881SOL     OW 6541   6.771   2.273   6.885
 1881SOL    HW1 6542   6.777   2.258   6.984
 1881SOL    HW2 6543   6.856   2.315   6.853
 1882SOL     OW 6544   0.967   5.360   6.189
 1882SOL    HW1 6545   0.945   5.263   6.177
 1882SOL    HW2 6546   0.886   5.415   6.165
 1883SOL     OW 6547   0.029   1.924   4.077
 1883SOL    HW1 6548   0.047   1.829   4.053
 1883SOL    HW2 6549   0.067   1.944   4.167
 1884SOL     OW 6550   6.849   3.058   1.490
 1884SOL    HW1 6551   6.857   3.011   1.578
 1884SOL    HW2 6552   6.754   3.088   1.477
 1885SOL     OW 6553   1.896   1.784   4.412
 1885SOL    HW1 6554   1.885   1.851   4.486
 1885SOL    HW2 6555   1.991   1.756   4.407
 1886SOL     OW 6556   1.385   6.998   3.526
 1886SOL    HW1 6557   1.404   6.996   3.428
 1886SOL    HW2 6558   1.471   6.989   3.577
 1887SOL     OW 6559   1.791   6.805   5.661
 1887SOL    HW1 6560   1.696   6.837   5.663
 1887SOL    HW2 6561   1.792   6.705   5.662
 1888SOL     OW 6562   2.495   1.085   2.452
 1888SOL    HW1 6563   2.456   1.004   2.408
 1888SOL    HW2 6564   2.558   1.130   2.389
 1889SOL     OW 6565   0.247   3.388   3.315
 1889SOL    HW1 6566   0.276   3.297   3.345
 1889SOL    HW2 6567   0.293   3.410   3.229
 1890SOL     OW 6568   0.577   5.940   4.083
 1890SOL    HW1 6569   0.516   5.942   4.162
 1890SOL    HW2 6570   0.523   5.951   3.999
 1891SOL     OW 6571   3.690   3.401   3.380
 1891SOL    HW1 6572   3.736   3.387   3.468
 1891SOL    HW2 6573   3.726   3.336   3.313
 1892SOL     OW 6574   0.670   0.747   2.373
 1892SOL    HW1 6575   0.629   0.697   2.449
 1892SOL    HW2 6576   0.614   0.828   2.353
 1893SOL     OW 6577   3.679   3.279   4.703
 1893SOL    HW1 6578   3.773   3.290   4.670
 1893SOL    HW2 6579   3.626   3.229   4.634
 1894SOL     OW 6580   3.039   3.193   4.085
 1894SOL    HW1 6581   3.024   3.214   4.181
 1894SOL    HW2 6582   3.075   3.100   4.077
 1895SOL     OW 6583   1.930   6.023   6.865
 1895SOL    HW1 6584   1.967   6.024   6.958
 1895SOL    HW2 6585   1.901   5.930   6.842
 1896SOL     OW 6586   5.587   2.696   0.791
 1896SOL    HW1 6587   5.671   2.654   0.826
 1896SOL    HW2 6588   5.590   2.795   0.809
 1897SOL     OW 6589   1.654   4.534   4.388
 1897SOL    HW1 6590   1.612   4.444   4.377
 1897SOL    HW2 6591   1.644   4.586   4.302
 1898SOL     OW 6592   1.568   6.409   3.808
 1898SOL    HW1 6593   1.546   6.470   3.883
 1898SOL    HW2 6594   1.659   6.432   3.772
 1899SOL     OW 6595   0.626   0.326   2.308
 1899SOL    HW1 6596   0.616   0.232   2.340
 1899SOL    HW2 6597   0.649   0.385   2.386
 1900SOL     OW 6598   2.408   6.944   0.131
 1900SOL    HW1 6599   2.353   6.886   0.070
 1900SOL    HW2 6600   2.455   6.886   0.198
 1901SOL     OW 6601   2.798   3.663   0.954
 1901SOL    HW1 6602   2.883   3.654   0.902
 1901SOL    HW2 6603   2.737   3.726   0.907
 1902SOL     OW 6604   1.045   0.052   4.046
 1902SOL    HW1 6605   0.967   0.073   3.988
 1902SOL    HW2 6606   1.030   6.991   4.092
 1903SOL     OW 6607   0.937   2.387   4.042
 1903SOL    HW1 6608   0.948   2.486   4.046
 1903SOL    HW2 6609   0.991   2.345   4.115
 1904SOL     OW 6610   5.767   5.312   1.468
 1904SOL    HW1 6611   5.670   5.319   1.493
 1904SOL    HW2 6612   5.795   5.395   1.420
 1905SOL     OW 6613   0.398   1.215   3.996
 1905SOL    HW1 6614   0.300   1.210   4.019
 1905SOL    HW2 6615   0.446   1.268   4.066
 1906SOL     OW 6616   1.552   7.017   5.377
 1906SOL    HW1 6617   1.641   0.032   5.395
 1906SOL    HW2 6618   1.498   0.052   5.319
 1907SOL     OW 6619   5.673   2.592   0.531
 1907SOL    HW1 6620   5.642   2.637   0.615
 1907SOL    HW2 6621   5.746   2.647   0.489
 1908SOL     OW 6622   3.054   1.299   0.970
 1908SOL    HW1 6623   3.014   1.252   1.049
 1908SOL    HW2 6624   3.149   1.271   0.959
 1909SOL     OW 6625   6.661   5.055   4.938
 1909SOL    HW1 6626   6.665   5.123   4.865
 1909SOL    HW2 6627   6.675   4.964   4.900
 1910SOL     OW 6628   0.063   6.282   5.344
 1910SOL    HW1 6629   0.159   6.301   5.367
 1910SOL    HW2 6630   0.045   6.311   5.250
 1911SOL     OW 6631   6.646   5.431   4.064
 1911SOL    HW1 6632   6.568   5.470   4.016
 1911SOL    HW2 6633   6.664   5.483   4.146
 1912SOL     OW 6634   3.174   5.304   1.885
 1912SOL    HW1 6635   3.274   5.305   1.889
 1912SOL    HW2 6636   3.137   5.349   1.966
 1913SOL     OW 6637   3.776   4.241   6.629
 1913SOL    HW1 6638   3.797   4.316   6.566
 1913SOL    HW2 6639   3.742   4.162   6.577
 1914SOL     OW 6640   2.970   4.602   6.462
 1914SOL    HW1 6641   3.064   4.567   6.463
 1914SOL    HW2 6642   2.965   4.684   6.519
 1915SOL     OW 6643   4.170   2.589   5.517
 1915SOL    HW1 6644   4.164   2.548   5.608
 1915SOL    HW2 6645   4.194   2.686   5.526
 1916SOL     OW 6646   4.008   0.949   2.612
 1916SOL    HW1 6647   3.920   0.943   2.660
 1916SOL    HW2 6648   4.000   1.014   2.537
 1917SOL     OW 6649   2.189   4.282   1.393
 1917SOL    HW1 6650   2.249   4.206   1.419
 1917SOL    HW2 6651   2.124   4.250   1.325
 1918SOL     OW 6652   5.712   2.515   3.544
 1918SOL    HW1 6653   5.630   2.572   3.545
 1918SOL    HW2 6654   5.721   2.468   3.632
 1919SOL     OW 6655   6.741   2.506   0.128
 1919SOL    HW1 6656   6.713   2.532   0.221
 1919SOL    HW2 6657   6.673   2.539   0.063
 1920SOL     OW 6658   4.533   2.973   1.098
 1920SOL    HW1 6659   4.516   2.904   1.028
 1920SOL    HW2 6660   4.628   2.965   1.130
 1921SOL     OW 6661   2.417   2.680   0.139
 1921SOL    HW1 6662   2.337   2.681   0.199
 1921SOL    HW2 6663   2.395   2.724   0.052
 1922SOL     OW 6664   3.122   3.014   2.509
 1922SOL    HW1 6665   3.118   2.922   2.471
 1922SOL    HW2 6666   3.148   3.079   2.437
 1923SOL     OW 6667   4.180   0.664   4.577
 1923SOL    HW1 6668   4.148   0.571   4.594
 1923SOL    HW2 6669   4.199   0.709   4.664
 1924SOL     OW 6670   4.390   1.073   6.648
 1924SOL    HW1 6671   4.317   1.098   6.711
 1924SOL    HW2 6672   4.477   1.071   6.697
 1925SOL     OW 6673   1.539   3.433   1.292
 1925SOL    HW1 6674   1.491   3.513   1.328
 1925SOL    HW2 6675   1.479   3.383   1.230
 1926SOL     OW 6676   3.954   0.313   1.463
 1926SOL    HW1 6677   3.906   0.388   1.417
 1926SOL    HW2 6678   4.051   0.316   1.440
 1927SOL     OW 6679   2.291   5.120   1.395
 1927SOL    HW1 6680   2.352   5.095   1.320
 1927SOL    HW2 6681   2.206   5.067   1.389
 1928SOL     OW 6682   5.175   4.480   3.242
 1928SOL    HW1 6683   5.096   4.422   3.223
 1928SOL    HW2 6684   5.172   4.562   3.185
 1929SOL     OW 6685   3.279   6.932   2.894
 1929SOL    HW1 6686   3.350   7.003   2.895
 1929SOL    HW2 6687   3.296   6.866   2.966
 1930SOL     OW 6688   4.167   3.314   6.892
 1930SOL    HW1 6689   4.091   3.368   6.927
 1930SOL    HW2 6690   4.253   3.354   6.923
 1931SOL     OW 6691   6.725   1.838   4.459
 1931SOL    HW1 6692   6.777   1.910   4.505
 1931SOL    HW2 6693   6.687   1.776   4.527
 1932SOL     OW 6694   4.601   2.305   2.143
 1932SOL    HW1 6695   4.593   2.303   2.044
 1932SOL    HW2 6696   4.519   2.347   2.183
 1933SOL     OW 6697   0.978   0.717   1.057
 1933SOL    HW1 6698   1.049   0.718   1.127
 1933SOL    HW2 6699   0.936   0.807   1.051
 1934SOL     OW 6700   0.033   0.536   0.018
 1934SOL    HW1 6701   0.045   0.506   6.950
 1934SOL    HW2 6702   7.013   0.465   0.070
 1935SOL     OW 6703   6.690   5.109   3.795
 1935SOL    HW1 6704   6.650   5.077   3.881
 1935SOL    HW2 6705   6.641   5.190   3.763
 1936SOL     OW 6706   4.429   2.568   5.755
 1936SOL    HW1 6707   4.422   2.564   5.655
 1936SOL    HW2 6708   4.525   2.567   5.782
 1937SOL     OW 6709   6.366   5.079   6.652
 1937SOL    HW1 6710   6.391   5.006   6.715
 1937SOL    HW2 6711   6.268   5.100   6.663
 1938SOL     OW 6712   6.865   2.939   6.649
 1938SOL    HW1 6713   6.931   2.867   6.674
 1938SOL    HW2 6714   6.775   2.898   6.638
 1939SOL     OW 6715   1.262   0.559   4.716
 1939SOL    HW1 6716   1.178   0.589   4.761
 1939SOL    HW2 6717   1.243   0.475   4.664
 1940SOL     OW 6718   0.057   5.207   0.816
 1940SOL    HW1 6719   0.080   5.128   0.873
 1940SOL    HW2 6720   0.102   5.288   0.854
 1941SOL     OW 6721   5.321   1.302   4.501
 1941SOL    HW1 6722   5.405   1.334   4.546
 1941SOL    HW2 6723   5.304   1.357   4.420
 1942SOL     OW 6724   6.139   4.030   2.795
 1942SOL    HW1 6725   6.096   4.119   2.780
 1942SOL    HW2 6726   6.223   4.042   2.848
 1943SOL     OW 6727   0.741   2.483   2.940
 1943SOL    HW1 6728   0.745   2.550   2.866
 1943SOL    HW2 6729   0.747   2.531   3.028
 1944SOL     OW 6730   0.246   2.818   3.836
 1944SOL    HW1 6731   0.218   2.748   3.770
 1944SOL    HW2 6732   0.215   2.792   3.927
 1945SOL     OW 6733   4.761   1.332   1.832
 1945SOL    HW1 6734   4.753   1.431   1.828
 1945SOL    HW2 6735   4.726   1.299   1.919
 1946SOL     OW 6736   6.687   5.867   0.879
 1946SOL    HW1 6737   6.623   5.925   0.929
 1946SOL    HW2 6738   6.745   5.923   0.820
 1947SOL     OW 6739   6.266   4.798   3.482
 1947SOL    HW1 6740   6.322   4.879   3.470
 1947SOL    HW2 6741   6.177   4.812   3.437
 1948SOL     OW 6742   5.236   3.465   3.779
 1948SOL    HW1 6743   5.181   3.430   3.855
 1948SOL    HW2 6744   5.217   3.562   3.765
 1949SOL     OW 6745   3.405   4.990   6.678
 1949SOL    HW1 6746   3.400   5.027   6.771
 1949SOL    HW2 6747   3.488   5.023   6.634
 1950SOL     OW 6748   3.794   3.885   3.233
 1950SOL    HW1 6749   3.864   3.857   3.299
 1950SOL    HW2 6750   3.717   3.927   3.282
 1951SOL     OW 6751   5.904   4.851   5.734
 1951SOL    HW1 6752   5.872   4.935   5.689
 1951SOL    HW2 6753   5.956   4.796   5.669
 1952SOL     OW 6754   6.238   5.737   0.181
 1952SOL    HW1 6755   6.209   5.794   0.105
 1952SOL    HW2 6756   6.250   5.643   0.150
 1953SOL     OW 6757   0.623   1.082   6.853
 1953SOL    HW1 6758   0.537   1.131   6.845
 1953SOL    HW2 6759   0.636   1.024   6.773
 1954SOL     OW 6760   4.648   6.844   1.962
 1954SOL    HW1 6761   4.715   6.913   1.992
 1954SOL    HW2 6762   4.580   6.887   1.903
 1955SOL     OW 6763   6.871   2.330   3.921
 1955SOL    HW1 6764   6.817   2.335   3.837
 1955SOL    HW2 6765   6.839   2.254   3.977
 1956SOL     OW 6766   5.348   0.569   1.733
 1956SOL    HW1 6767   5.300   0.523   1.807
 1956SOL    HW2 6768   5.371   0.662   1.760
 1957SOL     OW 6769   6.438   2.118   4.458
 1957SOL    HW1 6770   6.391   2.080   4.538
 1957SOL    HW2 6771   6.464   2.213   4.476
 1958SOL     OW 6772   4.175   1.657   0.652
 1958SOL    HW1 6773   4.205   1.636   0.558
 1958SOL    HW2 6774   4.097   1.599   0.676
 1959SOL     OW 6775   0.909   1.957   5.355
 1959SOL    HW1 6776   0.880   1.881   5.298
 1959SOL    HW2 6777   1.005   1.945   5.380
 1960SOL     OW 6778   5.733   4.265   4.368
 1960SOL    HW1 6779   5.736   4.265   4.268
 1960SOL    HW2 6780   5.674   4.339   4.399
 1961SOL     OW 6781   0.312   3.602   3.857
 1961SOL    HW1 6782   0.410   3.608   3.873
 1961SOL    HW2 6783   0.292   3.625   3.762
 1962SOL     OW 6784   0.814   0.384   2.604
 1962SOL    HW1 6785   0.733   0.395   2.661
 1962SOL    HW2 6786   0.866   0.304   2.634
 1963SOL     OW 6787   0.287   2.707   7.016
 1963SOL    HW1 6788   0.199   2.659   7.014
 1963SOL    HW2 6789   0.279   2.792   6.964
 1964SOL     OW 6790   5.406   3.622   0.519
 1964SOL    HW1 6791   5.334   3.659   0.579
 1964SOL    HW2 6792   5.391   3.656   0.426
 1965SOL     OW 6793   6.170   4.260   3.858
 1965SOL    HW1 6794   6.100   4.326   3.888
 1965SOL    HW2 6795   6.164   4.248   3.759
 1966SOL     OW 6796   1.336   4.325   6.984
 1966SOL    HW1 6797   1.340   4.360   6.891
 1966SOL    HW2 6798   1.387   4.239   6.990
 1967SOL     OW 6799   6.286   3.364   4.400
 1967SOL    HW1 6800   6.331   3.277   4.380
 1967SOL    HW2 6801   6.187   3.351   4.399
 1968SOL     OW 6802   2.659   1.773   5.015
 1968SOL    HW1 6803   2.703   1.757   4.927
 1968SOL    HW2 6804   2.691   1.859   5.053
 1969SOL     OW 6805   1.535   6.178   1.044
 1969SOL    HW1 6806   1.479   6.253   1.011
 1969SOL    HW2 6807   1.630   6.191   1.014
 1970SOL     OW 6808   5.498   5.507   4.306
 1970SOL    HW1 6809   5.561   5.453   4.362
 1970SOL    HW2 6810   5.491   5.600   4.344
 1971SOL     OW 6811   1.618   5.354   5.163
 1971SOL    HW1 6812   1.652   5.350   5.257
 1971SOL    HW2 6813   1.545   5.286   5.152
 1972SOL     OW 6814   5.771   2.614   2.592
 1972SOL    HW1 6815   5.832   2.632   2.515
 1972SOL    HW2 6816   5.696   2.680   2.592
 1973SOL     OW 6817   2.922   2.647   1.070
 1973SOL    HW1 6818   2.902   2.551   1.054
 1973SOL    HW2 6819   3.011   2.655   1.116
 1974SOL     OW 6820   2.720   5.970   4.899
 1974SOL    HW1 6821   2.687   6.059   4.929
 1974SOL    HW2 6822   2.809   5.951   4.942
 1975SOL     OW 6823   2.163   2.669   3.659
 1975SOL    HW1 6824   2.234   2.739   3.668
 1975SOL    HW2 6825   2.094   2.700   3.594
 1976SOL     OW 6826   0.814   0.632   5.533
 1976SOL    HW1 6827   0.801   0.731   5.546
 1976SOL    HW2 6828   0.911   0.613   5.521
 1977SOL     OW 6829   1.861   4.499   6.392
 1977SOL    HW1 6830   1.800   4.429   6.429
 1977SOL    HW2 6831   1.815   4.547   6.316
 1978SOL     OW 6832   3.096   0.017   1.942
 1978SOL    HW1 6833   2.998   0.034   1.954
 1978SOL    HW2 6834   3.122   0.036   1.848
 1979SOL     OW 6835   6.025   4.344   6.161
 1979SOL    HW1 6836   6.028   4.264   6.101
 1979SOL    HW2 6837   5.954   4.330   6.231
 1980SOL     OW 6838   3.667   0.973   1.047
 1980SOL    HW1 6839   3.727   0.906   1.090
 1980SOL    HW2 6840   3.577   0.933   1.033
 1981SOL     OW 6841   3.865   2.096   2.727
 1981SOL    HW1 6842   3.765   2.106   2.730
 1981SOL    HW2 6843   3.897   2.107   2.633
 1982SOL     OW 6844   0.853   2.993   5.666
 1982SOL    HW1 6845   0.910   3.049   5.606
 1982SOL    HW2 6846   0.777   3.048   5.702
 1983SOL     OW 6847   0.573   0.786   2.003
 1983SOL    HW1 6848   0.483   0.793   1.960
 1983SOL    HW2 6849   0.586   0.693   2.038
 1984SOL     OW 6850   4.460   3.198   5.738
 1984SOL    HW1 6851   4.550   3.242   5.742
 1984SOL    HW2 6852   4.403   3.245   5.671
 1985SOL     OW 6853   6.276   3.216   3.153
 1985SOL    HW1 6854   6.206   3.287   3.161
 1985SOL    HW2 6855   6.256   3.142   3.217
 1986SOL     OW 6856   3.017   3.165   2.075
 1986SOL    HW1 6857   2.926   3.207   2.071
 1986SOL    HW2 6858   3.056   3.162   1.983
 1987SOL     OW 6859   2.200   1.075   1.123
 1987SOL    HW1 6860   2.148   1.157   1.097
 1987SOL    HW2 6861   2.253   1.094   1.206
 1988SOL     OW 6862   0.677   1.991   1.683
 1988SOL    HW1 6863   0.604   1.943   1.731
 1988SOL    HW2 6864   0.667   2.090   1.697
 1989SOL     OW 6865   2.781   5.021   4.764
 1989SOL    HW1 6866   2.850   5.092   4.747
 1989SOL    HW2 6867   2.809   4.967   4.843
 1990SOL     OW 6868   4.090   0.184   0.021
 1990SOL    HW1 6869   4.080   0.085   0.012
 1990SOL    HW2 6870   4.132   0.205   0.110
 1991SOL     OW 6871   2.645   5.782   1.567
 1991SOL    HW1 6872   2.619   5.694   1.529
 1991SOL    HW2 6873   2.568   5.846   1.560
 1992SOL     OW 6874   1.116   6.591   2.672
 1992SOL    HW1 6875   1.110   6.630   2.581
 1992SOL    HW2 6876   1.130   6.492   2.665
 1993SOL     OW 6877   2.293   2.057   3.082
 1993SOL    HW1 6878   2.193   2.057   3.084
 1993SOL    HW2 6879   2.324   2.072   2.988
 1994SOL     OW 6880   3.801   2.710   0.761
 1994SOL    HW1 6881   3.826   2.631   0.705
 1994SOL    HW2 6882   3.713   2.695   0.804
 1995SOL     OW 6883   5.544   1.522   3.721
 1995SOL    HW1 6884   5.463   1.581   3.718
 1995SOL    HW2 6885   5.538   1.454   3.648
 1996SOL     OW 6886   4.595   0.635   1.110
 1996SOL    HW1 6887   4.633   0.726   1.091
 1996SOL    HW2 6888   4.497   0.642   1.125
 1997SOL     OW 6889   3.651   1.268   4.137
 1997SOL    HW1 6890   3.593   1.286   4.058
 1997SOL    HW2 6891   3.726   1.206   4.110
 1998SOL     OW 6892   2.221   3.924   1.741
 1998SOL    HW1 6893   2.165   3.988   1.794
 1998SOL    HW2 6894   2.311   3.963   1.725
 1999SOL     OW 6895   0.622   0.100   0.125
 1999SOL    HW1 6896   0.533   0.080   0.164
 1999SOL    HW2 6897   0.685   0.129   0.197
 2000SOL     OW 6898   4.452   4.598   5.838
 2000SOL    HW1 6899   4.534   4.608   5.783
 2000SOL    HW2 6900   4.478   4.583   5.934
 2001SOL     OW 6901   2.269   2.168   1.178
 2001SOL    HW1 6902   2.191   2.204   1.229
 2001SOL    HW2 6903   2.327   2.115   1.239
 2002SOL     OW 6904   6.931   5.674   0.663
 2002SOL    HW1 6905   6.925   5.587   0.614
 2002SOL    HW2 6906   6.914   5.749   0.599
 2003SOL     OW 6907   5.564   5.188   2.483
 2003SOL    HW1 6908   5.538   5.092   2.472
 2003SOL    HW2 6909   5.637   5.211   2.419
 2004SOL     OW 6910   3.634   6.770   3.104
 2004SOL    HW1 6911   3.624   6.692   3.167
 2004SOL    HW2 6912   3.687   6.741   3.024
 2005SOL     OW 6913   1.595   6.213   0.239
 2005SOL    HW1 6914   1.516   6.261   0.200
 2005SOL    HW2 6915   1.660   6.192   0.166
 2006SOL     OW 6916   5.596   6.238   2.153
 2006SOL    HW1 6917   5.631   6.328   2.178
 2006SOL    HW2 6918   5.634   6.211   2.064
 2007SOL     OW 6919   5.142   4.906   6.625
 2007SOL    HW1 6920   5.054   4.876   6.663
 2007SOL    HW2 6921   5.200   4.826   6.610
 2008SOL     OW 6922   1.997   3.473   3.039
 2008SOL    HW1 6923   1.948   3.425   2.966
 2008SOL    HW2 6924   1.953   3.455   3.127
 2009SOL     OW 6925   6.296   6.747   2.460
 2009SOL    HW1 6926   6.291   6.693   2.376
 2009SOL    HW2 6927   6.266   6.692   2.538
 2010SOL     OW 6928   6.998   1.901   1.946
 2010SOL    HW1 6929   6.908   1.864   1.921
 2010SOL    HW2 6930   0.027   1.913   1.864
 2011SOL     OW 6931   0.721   6.960   4.503
 2011SOL    HW1 6932   0.662   6.881   4.488
 2011SOL    HW2 6933   0.736   7.007   4.416
 2012SOL     OW 6934   0.846   3.059   1.242
 2012SOL    HW1 6935   0.804   3.061   1.333
 2012SOL    HW2 6936   0.929   3.114   1.243
 2013SOL     OW 6937   0.470   2.861   1.878
 2013SOL    HW1 6938   0.411   2.811   1.815
 2013SOL    HW2 6939   0.548   2.804   1.904
 2014SOL     OW 6940   4.271   0.722   4.823
 2014SOL    HW1 6941   4.279   0.647   4.888
 2014SOL    HW2 6942   4.258   0.808   4.873
 2015SOL     OW 6943   4.129   0.209   1.742
 2015SOL    HW1 6944   4.070   0.132   1.719
 2015SOL    HW2 6945   4.175   0.242   1.659
 2016SOL     OW 6946   1.963   0.741   4.470
 2016SOL    HW1 6947   1.949   0.714   4.375
 2016SOL    HW2 6948   1.875   0.745   4.517
 2017SOL     OW 6949   3.814   6.420   3.819
 2017SOL    HW1 6950   3.793   6.338   3.872
 2017SOL    HW2 6951   3.913   6.433   3.816
 2018SOL     OW 6952   1.337   0.759   4.394
 2018SOL    HW1 6953   1.389   0.674   4.393
 2018SOL    HW2 6954   1.385   0.829   4.341
 2019SOL     OW 6955   5.339   5.404   6.504
 2019SOL    HW1 6956   5.350   5.305   6.512
 2019SOL    HW2 6957   5.397   5.450   6.572
 2020SOL     OW 6958   1.889   6.709   6.862
 2020SOL    HW1 6959   1.955   6.668   6.797
 2020SOL    HW2 6960   1.798   6.708   6.821
 2021SOL     OW 6961   0.188   6.112   4.106
 2021SOL    HW1 6962   0.112   6.169   4.075
 2021SOL    HW2 6963   0.173   6.085   4.201
 2022SOL     OW 6964   1.863   3.462   4.065
 2022SOL    HW1 6965   1.882   3.560   4.070
 2022SOL    HW2 6966   1.932   3.418   4.008
 2023SOL     OW 6967   6.704   6.549   6.802
 2023SOL    HW1 6968   6.696   6.623   6.869
 2023SOL    HW2 6969   6.650   6.471   6.832
 2024SOL     OW 6970   0.460   5.920   3.836
 2024SOL    HW1 6971   0.362   5.922   3.856
 2024SOL    HW2 6972   0.483   5.997   3.777
 2025SOL     OW 6973   1.980   5.694   4.982
 2025SOL    HW1 6974   1.959   5.779   4.936
 2025SOL    HW2 6975   1.957   5.617   4.923
 2026SOL     OW 6976   6.949   0.262   5.934
 2026SOL    HW1 6977   6.963   0.359   5.950
 2026SOL    HW2 6978   6.880   0.249   5.863
 2027SOL     OW 6979   7.023   6.337   2.297
 2027SOL    HW1 6980   0.027   6.244   2.319
 2027SOL    HW2 6981   0.076   6.399   2.300
 2028SOL     OW 6982   2.986   4.973   4.972
 2028SOL    HW1 6983   2.989   4.905   5.045
 2028SOL    HW2 6984   3.030   5.058   5.003
 2029SOL     OW 6985   6.191   2.807   6.090
 2029SOL    HW1 6986   6.131   2.819   6.011
 2029SOL    HW2 6987   6.142   2.833   6.173
 2030SOL     OW 6988   2.651   6.704   2.572
 2030SOL    HW1 6989   2.715   6.627   2.577
 2030SOL    HW2 6990   2.560   6.674   2.601
 2031SOL     OW 6991   0.878   6.104   4.865
 2031SOL    HW1 6992   0.949   6.166   4.899
 2031SOL    HW2 6993   0.822   6.152   4.798
 2032SOL     OW 6994   2.672   3.156   5.762
 2032SOL    HW1 6995   2.639   3.188   5.673
 2032SOL    HW2 6996   2.593   3.145   5.824
 2033SOL     OW 6997   2.375   1.672   0.632
 2033SOL    HW1 6998   2.366   1.724   0.717
 2033SOL    HW2 6999   2.294   1.685   0.576
 2034SOL     OW 7000   0.785   4.663   5.409
 2034SOL    HW1 7001   0.882   4.670   5.389
 2034SOL    HW2 7002   0.733   4.713   5.340
 2035SOL     OW 7003   5.220   6.638   3.333
 2035SOL    HW1 7004   5.219   6.737   3.318
 2035SOL    HW2 7005   5.294   6.614   3.395
 2036SOL     OW 7006   0.353   4.991   6.364
 2036SOL    HW1 7007   0.296   4.926   6.414
 2036SOL    HW2 7008   0.434   4.945   6.330
 2037SOL     OW 7009   0.817   2.568   0.014
 2037SOL    HW1 7010   0.810   2.554   0.113
 2037SOL    HW2 7011   0.887   2.506   7.003
 2038SOL     OW 7012   0.769   0.740   6.314
 2038SOL    HW1 7013   0.842   0.783   6.262
 2038SOL    HW2 7014   0.686   0.796   6.307
 2039SOL     OW 7015   5.285   6.288   3.711
 2039SOL    HW1 7016   5.213   6.334   3.764
 2039SOL    HW2 7017   5.372   6.336   3.725
 2040SOL     OW 7018   2.431   2.150   6.926
 2040SOL    HW1 7019   2.521   2.110   6.945
 2040SOL    HW2 7020   2.434   2.248   6.947
 2041SOL     OW 7021   2.682   0.074   6.307
 2041SOL    HW1 7022   2.656   0.047   6.214
 2041SOL    HW2 7023   2.661   0.171   6.320
 2042SOL     OW 7024   6.108   1.070   5.854
 2042SOL    HW1 7025   6.088   1.047   5.759
 2042SOL    HW2 7026   6.112   1.169   5.865
 2043SOL     OW 7027   0.725   3.784   1.030
 2043SOL    HW1 7028   0.758   3.814   1.119
 2043SOL    HW2 7029   0.638   3.829   1.010
 2044SOL     OW 7030   4.089   0.638   1.405
 2044SOL    HW1 7031   4.149   0.630   1.484
 2044SOL    HW2 7032   4.069   0.734   1.387
 2045SOL     OW 7033   2.060   6.254   4.509
 2045SOL    HW1 7034   2.156   6.225   4.504
 2045SOL    HW2 7035   2.049   6.325   4.578
 2046SOL     OW 7036   0.648   3.159   5.276
 2046SOL    HW1 7037   0.672   3.064   5.295
 2046SOL    HW2 7038   0.691   3.188   5.190
 2047SOL     OW 7039   0.132   0.072   0.746
 2047SOL    HW1 7040   0.187   0.096   0.825
 2047SOL    HW2 7041   0.105   0.156   0.697
 2048SOL     OW 7042   1.860   1.761   3.862
 2048SOL    HW1 7043   1.777   1.759   3.917
 2048SOL    HW2 7044   1.838   1.735   3.768
 2049SOL     OW 7045   4.666   2.676   4.851
 2049SOL    HW1 7046   4.696   2.741   4.782
 2049SOL    HW2 7047   4.593   2.619   4.813
 2050SOL     OW 7048   0.575   1.029   3.448
 2050SOL    HW1 7049   0.610   0.961   3.513
 2050SOL    HW2 7050   0.615   1.013   3.358
 2051SOL     OW 7051   2.783   6.332   0.728
 2051SOL    HW1 7052   2.766   6.427   0.699
 2051SOL    HW2 7053   2.881   6.319   0.740
 2052SOL     OW 7054   0.851   4.173   0.535
 2052SOL    HW1 7055   0.812   4.145   0.622
 2052SOL    HW2 7056   0.911   4.100   0.501
 2053SOL     OW 7057   6.645   5.214   2.519
 2053SOL    HW1 7058   6.719   5.249   2.577
 2053SOL    HW2 7059   6.560   5.261   2.541
 2054SOL     OW 7060   3.042   3.956   2.802
 2054SOL    HW1 7061   3.071   3.990   2.891
 2054SOL    HW2 7062   2.959   3.902   2.812
 2055SOL     OW 7063   3.844   2.589   5.318
 2055SOL    HW1 7064   3.850   2.655   5.393
 2055SOL    HW2 7065   3.817   2.636   5.235
 2056SOL     OW 7066   2.985   5.252   1.516
 2056SOL    HW1 7067   2.967   5.231   1.612
 2056SOL    HW2 7068   2.912   5.309   1.480
 2057SOL     OW 7069   5.386   3.213   4.044
 2057SOL    HW1 7070   5.315   3.174   3.985
 2057SOL    HW2 7071   5.475   3.199   4.001
 2058SOL     OW 7072   6.217   6.714   3.800
 2058SOL    HW1 7073   6.263   6.797   3.831
 2058SOL    HW2 7074   6.238   6.638   3.862
 2059SOL     OW 7075   1.744   1.475   5.106
 2059SOL    HW1 7076   1.823   1.511   5.056
 2059SOL    HW2 7077   1.777   1.425   5.187
 2060SOL     OW 7078   1.797   2.914   6.571
 2060SOL    HW1 7079   1.885   2.938   6.612
 2060SOL    HW2 7080   1.729   2.901   6.643
 2061SOL     OW 7081   1.566   2.488   3.148
 2061SOL    HW1 7082   1.491   2.478   3.213
 2061SOL    HW2 7083   1.593   2.397   3.115
 2062SOL     OW 7084   6.267   4.934   4.323
 2062SOL    HW1 7085   6.302   4.848   4.286
 2062SOL    HW2 7086   6.171   4.923   4.348
 2063SOL     OW 7087   0.633   2.008   3.789
 2063SOL    HW1 7088   0.533   2.010   3.778
 2063SOL    HW2 7089   0.675   2.047   3.707
 2064SOL     OW 7090   0.718   3.094   4.154
 2064SOL    HW1 7091   0.624   3.079   4.187
 2064SOL    HW2 7092   0.773   3.013   4.172
 2065SOL     OW 7093   4.010   3.580   5.733
 2065SOL    HW1 7094   3.913   3.598   5.717
 2065SOL    HW2 7095   4.021   3.488   5.772
 2066SOL     OW 7096   1.131   3.398   5.307
 2066SOL    HW1 7097   1.160   3.464   5.376
 2066SOL    HW2 7098   1.124   3.308   5.348
 2067SOL     OW 7099   6.692   4.695   1.620
 2067SOL    HW1 7100   6.697   4.638   1.702
 2067SOL    HW2 7101   6.662   4.787   1.644
 2068SOL     OW 7102   4.615   0.572   4.289
 2068SOL    HW1 7103   4.548   0.515   4.336
 2068SOL    HW2 7104   4.579   0.601   4.200
 2069SOL     OW 7105   6.990   1.279   3.517
 2069SOL    HW1 7106   7.014   1.212   3.447
 2069SOL    HW2 7107   7.019   1.245   3.607
 2070SOL     OW 7108   1.397   5.015   1.368
 2070SOL    HW1 7109   1.367   4.926   1.399
 2070SOL    HW2 7110   1.472   5.048   1.427
 2071SOL     OW 7111   0.564   2.161   5.645
 2071SOL    HW1 7112   0.530   2.078   5.689
 2071SOL    HW2 7113   0.492   2.200   5.588
 2072SOL     OW 7114   5.405   4.450   5.714
 2072SOL    HW1 7115   5.369   4.359   5.694
 2072SOL    HW2 7116   5.493   4.463   5.668
 2073SOL     OW 7117   3.410   5.879   6.639
 2073SOL    HW1 7118   3.348   5.888   6.717
 2073SOL    HW2 7119   3.358   5.859   6.557
 2074SOL     OW 7120   2.073   4.785   5.472
 2074SOL    HW1 7121   2.169   4.757   5.467
 2074SOL    HW2 7122   2.039   4.804   5.379
 2075SOL     OW 7123   5.698   2.562   1.570
 2075SOL    HW1 7124   5.772   2.611   1.617
 2075SOL    HW2 7125   5.687   2.471   1.611
 2076SOL     OW 7126   6.377   6.410   4.425
 2076SOL    HW1 7127   6.369   6.457   4.337
 2076SOL    HW2 7128   6.300   6.434   4.483
 2077SOL     OW 7129   6.166   4.689   0.482
 2077SOL    HW1 7130   6.162   4.725   0.576
 2077SOL    HW2 7131   6.109   4.747   0.423
 2078SOL     OW 7132   0.767   3.360   5.431
 2078SOL    HW1 7133   0.717   3.397   5.510
 2078SOL    HW2 7134   0.711   3.290   5.386
 2079SOL     OW 7135   5.379   0.920   2.859
 2079SOL    HW1 7136   5.371   0.955   2.952
 2079SOL    HW2 7137   5.322   0.839   2.848
 2080SOL     OW 7138   2.637   3.550   6.365
 2080SOL    HW1 7139   2.551   3.570   6.319
 2080SOL    HW2 7140   2.702   3.624   6.348
 2081SOL     OW 7141   6.472   6.297   1.863
 2081SOL    HW1 7142   6.495   6.202   1.886
 2081SOL    HW2 7143   6.435   6.300   1.769
 2082SOL     OW 7144   6.946   5.493   4.378
 2082SOL    HW1 7145   6.933   5.396   4.358
 2082SOL    HW2 7146   7.018   5.530   4.320
 2083SOL     OW 7147   0.010   6.466   3.901
 2083SOL    HW1 7148   0.093   6.457   3.957
 2083SOL    HW2 7149   7.002   6.375   3.878
 2084SOL     OW 7150   6.693   1.826   0.960
 2084SOL    HW1 7151   6.702   1.844   1.058
 2084SOL    HW2 7152   6.668   1.730   0.946
 2085SOL     OW 7153   6.479   6.093   0.667
 2085SOL    HW1 7154   6.440   6.185   0.667
 2085SOL    HW2 7155   6.559   6.090   0.728
 2086SOL     OW 7156   4.926   0.997   0.054
 2086SOL    HW1 7157   5.017   0.990   0.014
 2086SOL    HW2 7158   4.877   0.911   0.038
 2087SOL     OW 7159   4.037   1.595   7.021
 2087SOL    HW1 7160   4.028   1.675   6.962
 2087SOL    HW2 7161   4.013   1.512   6.971
 2088SOL     OW 7162   0.440   4.703   5.648
 2088SOL    HW1 7163   0.492   4.710   5.734
 2088SOL    HW2 7164   0.353   4.750   5.658
 2089SOL     OW 7165   2.344   3.976   6.347
 2089SOL    HW1 7166   2.405   3.916   6.399
 2089SOL    HW2 7167   2.250   3.958   6.374
 2090SOL     OW 7168   5.105   2.946   6.203
 2090SOL    HW1 7169   5.147   2.891   6.275
 2090SOL    HW2 7170   5.054   3.021   6.244
 2091SOL     OW 7171   5.887   6.331   0.465
 2091SOL    HW1 7172   5.925   6.260   0.406
 2091SOL    HW2 7173   5.961   6.389   0.499
 2092SOL     OW 7174   3.580   3.458   2.216
 2092SOL    HW1 7175   3.593   3.514   2.298
 2092SOL    HW2 7176   3.507   3.498   2.160
 2093SOL     OW 7177   4.329   0.834   1.683
 2093SOL    HW1 7178   4.423   0.855   1.709
 2093SOL    HW2 7179   4.308   0.880   1.596
 2094SOL     OW 7180   5.438   2.130   0.141
 2094SOL    HW1 7181   5.519   2.086   0.103
 2094SOL    HW2 7182   5.466   2.193   0.214
 2095SOL     OW 7183   5.378   5.278   4.165
 2095SOL    HW1 7184   5.436   5.344   4.211
 2095SOL    HW2 7185   5.372   5.300   4.068
 2096SOL     OW 7186   4.076   6.701   1.967
 2096SOL    HW1 7187   4.046   6.679   2.059
 2096SOL    HW2 7188   4.028   6.643   1.901
 2097SOL     OW 7189   0.942   5.607   5.692
 2097SOL    HW1 7190   0.958   5.624   5.595
 2097SOL    HW2 7191   1.024   5.565   5.732
 2098SOL     OW 7192   3.176   6.485   3.554
 2098SOL    HW1 7193   3.093   6.428   3.559
 2098SOL    HW2 7194   3.183   6.539   3.637
 2099SOL     OW 7195   4.396   2.169   6.775
 2099SOL    HW1 7196   4.318   2.106   6.780
 2099SOL    HW2 7197   4.362   2.263   6.765
 2100SOL     OW 7198   4.816   0.343   0.699
 2100SOL    HW1 7199   4.731   0.371   0.745
 2100SOL    HW2 7200   4.876   0.422   0.689
 2101SOL     OW 7201   1.017   0.540   2.762
 2101SOL    HW1 7202   1.040   0.597   2.683
 2101SOL    HW2 7203   0.943   0.478   2.737
 2102SOL     OW 7204   4.240   2.706   1.074
 2102SOL    HW1 7205   4.167   2.715   1.007
 2102SOL    HW2 7206   4.208   2.740   1.163
 2103SOL     OW 7207   1.853   6.371   0.708
 2103SOL    HW1 7208   1.950   6.361   0.688
 2103SOL    HW2 7209   1.799   6.326   0.637
 2104SOL     OW 7210   1.884   3.370   3.299
 2104SOL    HW1 7211   1.879   3.327   3.390
 2104SOL    HW2 7212   1.876   3.469   3.309
 2105SOL     OW 7213   5.831   0.258   5.051
 2105SOL    HW1 7214   5.738   0.234   5.077
 2105SOL    HW2 7215   5.862   0.336   5.106
 2106SOL     OW 7216   4.043   3.100   1.396
 2106SOL    HW1 7217   3.999   3.114   1.307
 2106SOL    HW2 7218   4.136   3.068   1.382
 2107SOL     OW 7219   4.990   4.617   4.847
 2107SOL    HW1 7220   4.976   4.520   4.829
 2107SOL    HW2 7221   4.901   4.662   4.857
 2108SOL     OW 7222   4.879   0.171   4.922
 2108SOL    HW1 7223   4.883   0.261   4.966
 2108SOL    HW2 7224   4.812   0.114   4.968
 2109SOL     OW 7225   2.714   6.323   2.349
 2109SOL    HW1 7226   2.780   6.305   2.276
 2109SOL    HW2 7227   2.674   6.237   2.380
 2110SOL     OW 7228   3.425   6.124   6.986
 2110SOL    HW1 7229   3.434   6.209   0.013
 2110SOL    HW2 7230   3.505   6.114   6.926
 2111SOL     OW 7231   1.030   2.534   5.868
 2111SOL    HW1 7232   1.019   2.630   5.841
 2111SOL    HW2 7233   1.124   2.506   5.850
 2112SOL     OW 7234   0.933   0.028   6.781
 2112SOL    HW1 7235   0.843   0.063   6.807
 2112SOL    HW2 7236   1.004   0.092   6.809
 2113SOL     OW 7237   6.578   1.354   4.840
 2113SOL    HW1 7238   6.670   1.328   4.809
 2113SOL    HW2 7239   6.552   1.297   4.917
 2114SOL     OW 7240   2.206   1.076   5.754
 2114SOL    HW1 7241   2.249   1.052   5.668
 2114SOL    HW2 7242   2.238   1.015   5.826
 2115SOL     OW 7243   6.704   5.475   3.278
 2115SOL    HW1 7244   6.615   5.509   3.308
 2115SOL    HW2 7245   6.775   5.540   3.303
 2116SOL     OW 7246   1.629   1.564   6.858
 2116SOL    HW1 7247   1.645   1.633   6.787
 2116SOL    HW2 7248   1.536   1.529   6.850
 2117SOL     OW 7249   6.818   2.332   2.836
 2117SOL    HW1 7250   6.731   2.338   2.884
 2117SOL    HW2 7251   6.801   2.320   2.738
 2118SOL     OW 7252   0.311   2.258   2.669
 2118SOL    HW1 7253   0.370   2.284   2.746
 2118SOL    HW2 7254   0.288   2.160   2.676
 2119SOL     OW 7255   0.210   2.755   0.446
 2119SOL    HW1 7256   0.141   2.793   0.384
 2119SOL    HW2 7257   0.237   2.825   0.512
 2120SOL     OW 7258   5.660   2.177   0.979
 2120SOL    HW1 7259   5.735   2.136   1.031
 2120SOL    HW2 7260   5.625   2.257   1.028
 2121SOL     OW 7261   1.826   6.742   1.123
 2121SOL    HW1 7262   1.833   6.747   1.023
 2121SOL    HW2 7263   1.761   6.671   1.149
 2122SOL     OW 7264   6.013   0.455   4.404
 2122SOL    HW1 7265   5.962   0.483   4.322
 2122SOL    HW2 7266   6.090   0.398   4.377
 2123SOL     OW 7267   1.393   5.271   3.133
 2123SOL    HW1 7268   1.337   5.228   3.062
 2123SOL    HW2 7269   1.489   5.270   3.104
 2124SOL     OW 7270   4.405   3.448   6.262
 2124SOL    HW1 7271   4.366   3.454   6.171
 2124SOL    HW2 7272   4.470   3.373   6.266
 2125SOL     OW 7273   1.748   5.580   4.392
 2125SOL    HW1 7274   1.767   5.501   4.450
 2125SOL    HW2 7275   1.689   5.644   4.442
 2126SOL     OW 7276   2.651   3.769   0.398
 2126SOL    HW1 7277   2.720   3.745   0.330
 2126SOL    HW2 7278   2.616   3.861   0.380
 2127SOL     OW 7279   1.186   3.406   4.427
 2127SOL    HW1 7280   1.115   3.474   4.408
 2127SOL    HW2 7281   1.144   3.316   4.440
 2128SOL     OW 7282   5.118   2.932   2.471
 2128SOL    HW1 7283   5.082   3.025   2.486
 2128SOL    HW2 7284   5.055   2.881   2.414
 2129SOL     OW 7285   4.837   4.960   4.432
 2129SOL    HW1 7286   4.754   4.993   4.387
 2129SOL    HW2 7287   4.819   4.870   4.473
 2130SOL     OW 7288   1.972   0.732   1.251
 2130SOL    HW1 7289   2.020   0.765   1.170
 2130SOL    HW2 7290   2.021   0.761   1.333
 2131SOL     OW 7291   5.807   0.738   6.134
 2131SOL    HW1 7292   5.887   0.705   6.186
 2131SOL    HW2 7293   5.730   0.677   6.150
 2132SOL     OW 7294   2.802   2.725   6.978
 2132SOL    HW1 7295   2.817   2.789   6.903
 2132SOL    HW2 7296   2.785   2.634   6.941
 2133SOL     OW 7297   3.385   2.218   1.257
 2133SOL    HW1 7298   3.307   2.165   1.290
 2133SOL    HW2 7299   3.441   2.247   1.335
 2134SOL     OW 7300   2.166   6.134   5.225
 2134SOL    HW1 7301   2.092   6.199   5.209
 2134SOL    HW2 7302   2.247   6.183   5.257
 2135SOL     OW 7303   1.132   5.684   3.919
 2135SOL    HW1 7304   1.110   5.596   3.878
 2135SOL    HW2 7305   1.185   5.739   3.855
 2136SOL     OW 7306   1.225   4.860   3.648
 2136SOL    HW1 7307   1.248   4.791   3.580
 2136SOL    HW2 7308   1.303   4.875   3.709
 2137SOL     OW 7309   1.181   1.048   4.761
 2137SOL    HW1 7310   1.185   0.970   4.823
 2137SOL    HW2 7311   1.225   1.127   4.803
 2138SOL     OW 7312   1.017   2.834   5.845
 2138SOL    HW1 7313   1.085   2.893   5.889
 2138SOL    HW2 7314   0.970   2.885   5.773
 2139SOL     OW 7315   2.650   0.155   4.723
 2139SOL    HW1 7316   2.743   0.165   4.687
 2139SOL    HW2 7317   2.628   0.058   4.731
 2140SOL     OW 7318   1.708   5.976   3.640
 2140SOL    HW1 7319   1.757   5.901   3.683
 2140SOL    HW2 7320   1.722   5.974   3.541
 2141SOL     OW 7321   6.848   1.994   6.414
 2141SOL    HW1 7322   6.898   2.035   6.491
 2141SOL    HW2 7323   6.750   2.013   6.424
 2142SOL     OW 7324   3.205   1.067   3.610
 2142SOL    HW1 7325   3.200   0.968   3.619
 2142SOL    HW2 7326   3.118   1.102   3.574
 2143SOL     OW 7327   4.070   6.304   7.000
 2143SOL    HW1 7328   4.104   6.306   0.068
 2143SOL    HW2 7329   4.145   6.323   6.937
 2144SOL     OW 7330   1.096   0.743   1.685
 2144SOL    HW1 7331   1.132   0.737   1.778
 2144SOL    HW2 7332   1.098   0.838   1.655
 2145SOL     OW 7333   3.027   5.804   2.535
 2145SOL    HW1 7334   2.998   5.711   2.512
 2145SOL    HW2 7335   2.954   5.851   2.583
 2146SOL     OW 7336   2.992   2.337   0.754
 2146SOL    HW1 7337   3.075   2.386   0.730
 2146SOL    HW2 7338   2.942   2.313   0.671
 2147SOL     OW 7339   0.290   0.895   5.067
 2147SOL    HW1 7340   0.282   0.824   4.997
 2147SOL    HW2 7341   0.386   0.904   5.093
 2148SOL     OW 7342   5.508   3.642   3.976
 2148SOL    HW1 7343   5.498   3.598   4.066
 2148SOL    HW2 7344   5.493   3.575   3.904
 2149SOL     OW 7345   3.195   0.030   2.661
 2149SOL    HW1 7346   3.212   7.000   2.742
 2149SOL    HW2 7347   3.170   0.123   2.690
 2150SOL     OW 7348   4.047   0.409   3.111
 2150SOL    HW1 7349   4.023   0.420   3.015
 2150SOL    HW2 7350   4.063   0.499   3.152
 2151SOL     OW 7351   3.383   3.945   5.505
 2151SOL    HW1 7352   3.359   3.945   5.408
 2151SOL    HW2 7353   3.473   3.988   5.518
 2152SOL     OW 7354   6.635   6.736   2.103
 2152SOL    HW1 7355   6.572   6.794   2.154
 2152SOL    HW2 7356   6.616   6.744   2.005
 2153SOL     OW 7357   4.814   2.092   3.291
 2153SOL    HW1 7358   4.778   2.093   3.384
 2153SOL    HW2 7359   4.791   2.178   3.245
 2154SOL     OW 7360   4.166   6.618   5.359
 2154SOL    HW1 7361   4.105   6.587   5.431
 2154SOL    HW2 7362   4.182   6.544   5.294
 2155SOL     OW 7363   6.177   4.315   6.888
 2155SOL    HW1 7364   6.251   4.383   6.894
 2155SOL    HW2 7365   6.162   4.274   6.977
 2156SOL     OW 7366   0.157   0.642   1.059
 2156SOL    HW1 7367   0.090   0.593   1.114
 2156SOL    HW2 7368   0.153   0.610   0.964
 2157SOL     OW 7369   6.314   1.122   4.044
 2157SOL    HW1 7370   6.256   1.142   4.123
 2157SOL    HW2 7371   6.348   1.028   4.051
 2158SOL     OW 7372   4.533   0.114   3.249
 2158SOL    HW1 7373   4.497   0.077   3.163
 2158SOL    HW2 7374   4.463   0.110   3.320
 2159SOL     OW 7375   2.229   0.248   5.026
 2159SOL    HW1 7376   2.315   0.227   4.978
 2159SOL    HW2 7377   2.211   0.177   5.094
 2160SOL     OW 7378   2.876   2.866   0.642
 2160SOL    HW1 7379   2.949   2.861   0.710
 2160SOL    HW2 7380   2.788   2.842   0.685
 2161SOL     OW 7381   5.376   2.357   3.619
 2161SOL    HW1 7382   5.370   2.429   3.550
 2161SOL    HW2 7383   5.307   2.372   3.690
 2162SOL     OW 7384   1.754   0.949   1.048
 2162SOL    HW1 7385   1.852   0.940   1.031
 2162SOL    HW2 7386   1.709   0.862   1.026
 2163SOL     OW 7387   2.315   1.660   1.449
 2163SOL    HW1 7388   2.251   1.673   1.524
 2163SOL    HW2 7389   2.268   1.670   1.362
 2164SOL     OW 7390   0.066   0.154   1.109
 2164SOL    HW1 7391   0.150   0.193   1.071
 2164SOL    HW2 7392   0.089   0.071   1.160
 2165SOL     OW 7393   2.834   0.345   1.857
 2165SOL    HW1 7394   2.849   0.416   1.925
 2165SOL    HW2 7395   2.842   0.255   1.901
 2166SOL     OW 7396   6.104   2.453   5.854
 2166SOL    HW1 7397   6.177   2.507   5.895
 2166SOL    HW2 7398   6.104   2.361   5.893
 2167SOL     OW 7399   2.766   1.153   1.484
 2167SOL    HW1 7400   2.816   1.103   1.554
 2167SOL    HW2 7401   2.748   1.093   1.406
 2168SOL     OW 7402   5.992   6.363   4.723
 2168SOL    HW1 7403   5.984   6.413   4.637
 2168SOL    HW2 7404   6.020   6.426   4.795
 2169SOL     OW 7405   6.544   1.423   5.910
 2169SOL    HW1 7406   6.502   1.336   5.886
 2169SOL    HW2 7407   6.643   1.415   5.904
 2170SOL     OW 7408   5.231   4.239   4.591
 2170SOL    HW1 7409   5.159   4.233   4.660
 2170SOL    HW2 7410   5.283   4.324   4.604
 2171SOL     OW 7411   6.859   3.371   0.337
 2171SOL    HW1 7412   6.918   3.451   0.347
 2171SOL    HW2 7413   6.775   3.398   0.289
 2172SOL     OW 7414   2.516   0.283   1.811
 2172SOL    HW1 7415   2.574   0.344   1.757
 2172SOL    HW2 7416   2.424   0.322   1.819
 2173SOL     OW 7417   4.716   2.124   4.870
 2173SOL    HW1 7418   4.685   2.151   4.778
 2173SOL    HW2 7419   4.652   2.057   4.908
 2174SOL     OW 7420   1.449   5.591   5.112
 2174SOL    HW1 7421   1.502   5.675   5.108
 2174SOL    HW2 7422   1.500   5.522   5.164
 2175SOL     OW 7423   1.754   6.104   6.087
 2175SOL    HW1 7424   1.732   6.049   6.167
 2175SOL    HW2 7425   1.669   6.132   6.041
 2176SOL     OW 7426   1.543   2.935   2.377
 2176SOL    HW1 7427   1.565   3.028   2.349
 2176SOL    HW2 7428   1.454   2.934   2.422
 2177SOL     OW 7429   0.411   2.241   1.552
 2177SOL    HW1 7430   0.481   2.221   1.484
 2177SOL    HW2 7431   0.426   2.184   1.632
 2178SOL     OW 7432   6.967   6.293   1.081
 2178SOL    HW1 7433   0.034   6.321   1.102
 2178SOL    HW2 7434   6.968   6.227   1.007
 2179SOL     OW 7435   1.200   3.822   4.069
 2179SOL    HW1 7436   1.245   3.873   3.995
 2179SOL    HW2 7437   1.259   3.822   4.149
 2180SOL     OW 7438   3.725   2.610   1.422
 2180SOL    HW1 7439   3.772   2.699   1.418
 2180SOL    HW2 7440   3.791   2.540   1.449
 2181SOL     OW 7441   3.998   6.810   1.489
 2181SOL    HW1 7442   3.966   6.833   1.397
 2181SOL    HW2 7443   4.094   6.836   1.498
 2182SOL     OW 7444   5.679   2.309   0.559
 2182SOL    HW1 7445   5.589   2.267   0.556
 2182SOL    HW2 7446   5.670   2.409   0.563
 2183SOL     OW 7447   2.822   2.785   0.242
 2183SOL    HW1 7448   2.824   2.723   0.163
 2183SOL    HW2 7449   2.915   2.807   0.270
 2184SOL     OW 7450   4.373   3.122   6.020
 2184SOL    HW1 7451   4.381   3.221   6.011
 2184SOL    HW2 7452   4.296   3.090   5.966
 2185SOL     OW 7453   6.980   6.944   2.166
 2185SOL    HW1 7454   6.948   6.856   2.203
 2185SOL    HW2 7455   7.024   6.928   2.078
 2186SOL     OW 7456   0.276   4.308   3.079
 2186SOL    HW1 7457   0.298   4.344   3.170
 2186SOL    HW2 7458   0.199   4.360   3.042
 2187SOL     OW 7459   6.171   1.311   6.543
 2187SOL    HW1 7460   6.215   1.315   6.632
 2187SOL    HW2 7461   6.081   1.355   6.548
 2188SOL     OW 7462   4.922   1.402   3.751
 2188SOL    HW1 7463   4.885   1.345   3.825
 2188SOL    HW2 7464   5.020   1.387   3.744
 2189SOL     OW 7465   2.789   0.002   6.766
 2189SOL    HW1 7466   2.753   0.094   6.745
 2189SOL    HW2 7467   2.883   7.022   6.733
 2190SOL     OW 7468   4.940   2.549   1.051
 2190SOL    HW1 7469   5.017   2.542   0.987
 2190SOL    HW2 7470   4.950   2.479   1.122
 2191SOL     OW 7471   2.683   2.073   0.003
 2191SOL    HW1 7472   2.640   2.020   0.077
 2191SOL    HW2 7473   2.744   2.142   0.042
 2192SOL     OW 7474   3.783   5.282   2.600
 2192SOL    HW1 7475   3.691   5.243   2.594
 2192SOL    HW2 7476   3.835   5.256   2.518
 2193SOL     OW 7477   6.509   6.024   4.949
 2193SOL    HW1 7478   6.433   6.089   4.953
 2193SOL    HW2 7479   6.577   6.056   4.883
 2194SOL     OW 7480   2.755   0.287   1.590
 2194SOL    HW1 7481   2.844   0.299   1.544
 2194SOL    HW2 7482   2.769   0.289   1.689
 2195SOL     OW 7483   0.824   5.323   2.503
 2195SOL    HW1 7484   0.745   5.384   2.495
 2195SOL    HW2 7485   0.827   5.261   2.425
 2196SOL     OW 7486   4.301   2.951   0.176
 2196SOL    HW1 7487   4.285   2.883   0.105
 2196SOL    HW2 7488   4.247   2.928   0.257
 2197SOL     OW 7489   4.398   4.425   6.800
 2197SOL    HW1 7490   4.414   4.365   6.722
 2197SOL    HW2 7491   4.486   4.462   6.832
 2198SOL     OW 7492   6.054   4.384   0.536
 2198SOL    HW1 7493   5.989   4.411   0.608
 2198SOL    HW2 7494   6.147   4.386   0.573
 2199SOL     OW 7495   4.361   1.341   2.930
 2199SOL    HW1 7496   4.300   1.287   2.873
 2199SOL    HW2 7497   4.437   1.284   2.961
 2200SOL     OW 7498   2.687   6.809   4.498
 2200SOL    HW1 7499   2.774   6.842   4.535
 2200SOL    HW2 7500   2.703   6.727   4.444
 2201SOL     OW 7501   4.906   3.989   3.892
 2201SOL    HW1 7502   4.835   4.060   3.900
 2201SOL    HW2 7503   4.992   4.024   3.929
 2202SOL     OW 7504   4.796   5.879   3.890
 2202SOL    HW1 7505   4.860   5.883   3.814
 2202SOL    HW2 7506   4.799   5.788   3.932
 2203SOL     OW 7507   2.989   1.983   2.731
 2203SOL    HW1 7508   2.906   1.969   2.677
 2203SOL    HW2 7509   3.058   1.916   2.705
 2204SOL     OW 7510   2.587   2.872   0.376
 2204SOL    HW1 7511   2.517   2.905   0.313
 2204SOL    HW2 7512   2.667   2.841   0.324
 2205SOL     OW 7513   2.702   0.959   1.929
 2205SOL    HW1 7514   2.711   1.022   1.853
 2205SOL    HW2 7515   2.633   0.993   1.993
 2206SOL     OW 7516   1.910   2.881   6.967
 2206SOL    HW1 7517   1.975   2.818   6.925
 2206SOL    HW2 7518   1.884   2.952   6.901
 2207SOL     OW 7519   0.566   4.685   4.990
 2207SOL    HW1 7520   0.642   4.726   5.039
 2207SOL    HW2 7521   0.591   4.671   4.894
 2208SOL     OW 7522   6.735   5.029   2.146
 2208SOL    HW1 7523   6.664   4.961   2.165
 2208SOL    HW2 7524   6.699   5.099   2.085
 2209SOL     OW 7525   1.227   7.002   1.813
 2209SOL    HW1 7526   1.211   0.056   1.754
 2209SOL    HW2 7527   1.287   6.938   1.766
 2210SOL     OW 7528   2.333   5.308   3.517
 2210SOL    HW1 7529   2.328   5.275   3.611
 2210SOL    HW2 7530   2.264   5.262   3.461
 2211SOL     OW 7531   0.018   1.803   5.250
 2211SOL    HW1 7532   6.964   1.775   5.197
 2211SOL    HW2 7533   0.024   1.903   5.251
 2212SOL     OW 7534   2.002   0.188   6.432
 2212SOL    HW1 7535   1.914   0.205   6.388
 2212SOL    HW2 7536   2.072   0.173   6.362
 2213SOL     OW 7537   3.644   0.211   3.204
 2213SOL    HW1 7538   3.655   0.122   3.159
 2213SOL    HW2 7539   3.583   0.268   3.149
 2214SOL     OW 7540   4.415   0.444   4.409
 2214SOL    HW1 7541   4.420   0.488   4.499
 2214SOL    HW2 7542   4.319   0.426   4.386
 2215SOL     OW 7543   5.703   2.248   5.465
 2215SOL    HW1 7544   5.722   2.166   5.410
 2215SOL    HW2 7545   5.756   2.244   5.549
 2216SOL     OW 7546   2.978   0.859   2.400
 2216SOL    HW1 7547   3.059   0.882   2.345
 2216SOL    HW2 7548   2.898   0.856   2.341
 2217SOL     OW 7549   4.319   0.936   2.053
 2217SOL    HW1 7550   4.238   0.964   2.105
 2217SOL    HW2 7551   4.378   0.880   2.111
 2218SOL     OW 7552   1.529   0.188   3.259
 2218SOL    HW1 7553   1.515   0.092   3.233
 2218SOL    HW2 7554   1.580   0.234   3.187
 2219SOL     OW 7555   1.183   2.519   2.773
 2219SOL    HW1 7556   1.110   2.460   2.737
 2219SOL    HW2 7557   1.232   2.562   2.696
 2220SOL     OW 7558   0.406   0.171   2.086
 2220SOL    HW1 7559   0.337   0.181   2.014
 2220SOL    HW2 7560   0.494   0.148   2.044
 2221SOL     OW 7561   0.381   0.957   6.538
 2221SOL    HW1 7562   0.454   0.904   6.581
 2221SOL    HW2 7563   0.311   0.895   6.503
 2222SOL     OW 7564   6.314   5.601   3.119
 2222SOL    HW1 7565   6.334   5.516   3.071
 2222SOL    HW2 7566   6.303   5.675   3.053
 2223SOL     OW 7567   6.697   6.444   1.805
 2223SOL    HW1 7568   6.605   6.409   1.824
 2223SOL    HW2 7569   6.735   6.395   1.727
 2224SOL     OW 7570   0.930   4.643   1.604
 2224SOL    HW1 7571   0.869   4.590   1.663
 2224SOL    HW2 7572   1.025   4.616   1.623
 2225SOL     OW 7573   0.355   4.103   1.112
 2225SOL    HW1 7574   0.258   4.114   1.093
 2225SOL    HW2 7575   0.402   4.191   1.104
 2226SOL     OW 7576   4.113   3.809   2.074
 2226SOL    HW1 7577   4.209   3.837   2.083
 2226SOL    HW2 7578   4.080   3.776   2.162
 2227SOL     OW 7579   0.879   2.963   4.731
 2227SOL    HW1 7580   0.866   3.049   4.780
 2227SOL    HW2 7581   0.961   2.917   4.764
 2228SOL     OW 7582   3.295   4.978   4.395
 2228SOL    HW1 7583   3.217   4.931   4.436
 2228SOL    HW2 7584   3.263   5.044   4.327
 2229SOL     OW 7585   5.841   6.336   3.427
 2229SOL    HW1 7586   5.930   6.366   3.460
 2229SOL    HW2 7587   5.807   6.400   3.358
 2230SOL     OW 7588   2.612   5.297   1.816
 2230SOL    HW1 7589   2.687   5.340   1.865
 2230SOL    HW2 7590   2.565   5.365   1.759
 2231SOL     OW 7591   2.864   6.431   1.118
 2231SOL    HW1 7592   2.810   6.367   1.174
 2231SOL    HW2 7593   2.802   6.491   1.067
 2232SOL     OW 7594   5.509   2.826   3.847
 2232SOL    HW1 7595   5.584   2.762   3.864
 2232SOL    HW2 7596   5.497   2.887   3.925
 2233SOL     OW 7597   2.776   1.534   6.044
 2233SOL    HW1 7598   2.809   1.481   6.122
 2233SOL    HW2 7599   2.679   1.557   6.058
 2234SOL     OW 7600   3.525   2.588   1.236
 2234SOL    HW1 7601   3.592   2.584   1.310
 2234SOL    HW2 7602   3.446   2.532   1.260
 2235SOL     OW 7603   2.369   2.078   1.436
 2235SOL    HW1 7604   2.434   2.112   1.504
 2235SOL    HW2 7605   2.293   2.033   1.482
 2236SOL     OW 7606   0.973   4.765   6.351
 2236SOL    HW1 7607   0.905   4.729   6.416
 2236SOL    HW2 7608   1.003   4.855   6.381
 2237SOL     OW 7609   6.053   3.222   4.322
 2237SOL    HW1 7610   6.021   3.148   4.262
 2237SOL    HW2 7611   6.081   3.184   4.410
 2238SOL     OW 7612   6.608   6.126   0.958
 2238SOL    HW1 7613   6.652   6.216   0.945
 2238SOL    HW2 7614   6.515   6.139   0.992
 2239SOL     OW 7615   6.065   6.128   2.142
 2239SOL    HW1 7616   6.149   6.177   2.165
 2239SOL    HW2 7617   6.048   6.136   2.044
 2240SOL     OW 7618   5.805   3.648   1.709
 2240SOL    HW1 7619   5.879   3.709   1.739
 2240SOL    HW2 7620   5.739   3.701   1.654
 2241SOL     OW 7621   1.503   6.853   2.716
 2241SOL    HW1 7622   1.520   6.760   2.684
 2241SOL    HW2 7623   1.556   6.917   2.662
 2242SOL     OW 7624   3.577   1.658   2.390
 2242SOL    HW1 7625   3.479   1.676   2.386
 2242SOL    HW2 7626   3.621   1.728   2.446
 2243SOL     OW 7627   2.544   0.119   5.183
 2243SOL    HW1 7628   2.476   0.062   5.136
 2243SOL    HW2 7629   2.537   0.213   5.150
 2244SOL     OW 7630   3.025   1.412   4.561
 2244SOL    HW1 7631   2.976   1.408   4.648
 2244SOL    HW2 7632   3.076   1.498   4.555
 2245SOL     OW 7633   0.361   2.516   1.883
 2245SOL    HW1 7634   0.351   2.589   1.816
 2245SOL    HW2 7635   0.278   2.509   1.937
 2246SOL     OW 7636   1.645   4.787   4.996
 2246SOL    HW1 7637   1.701   4.749   4.922
 2246SOL    HW2 7638   1.558   4.738   5.001
 2247SOL     OW 7639   1.923   1.148   4.415
 2247SOL    HW1 7640   1.928   1.090   4.333
 2247SOL    HW2 7641   1.968   1.235   4.397
 2248SOL     OW 7642   4.309   3.923   5.769
 2248SOL    HW1 7643   4.328   3.894   5.863
 2248SOL    HW2 7644   4.364   3.868   5.706
 2249SOL     OW 7645   3.833   5.232   5.087
 2249SOL    HW1 7646   3.800   5.319   5.050
 2249SOL    HW2 7647   3.759   5.165   5.085
 2250SOL     OW 7648   4.521   4.937   1.574
 2250SOL    HW1 7649   4.455   4.989   1.520
 2250SOL    HW2 7650   4.559   4.995   1.646
 2251SOL     OW 7651   0.208   0.418   5.940
 2251SOL    HW1 7652   0.301   0.453   5.926
 2251SOL    HW2 7653   0.207   0.319   5.927
 2252SOL     OW 7654   3.395   0.599   6.286
 2252SOL    HW1 7655   3.433   0.541   6.214
 2252SOL    HW2 7656   3.417   0.695   6.266
 2253SOL     OW 7657   1.068   3.132   6.496
 2253SOL    HW1 7658   1.073   3.117   6.595
 2253SOL    HW2 7659   0.973   3.127   6.466
 2254SOL     OW 7660   1.722   4.727   6.282
 2254SOL    HW1 7661   1.706   4.820   6.247
 2254SOL    HW2 7662   1.716   4.662   6.206
 2255SOL     OW 7663   5.863   3.415   6.869
 2255SOL    HW1 7664   5.941   3.423   6.807
 2255SOL    HW2 7665   5.779   3.440   6.820
 2256SOL     OW 7666   2.855   4.741   2.529
 2256SOL    HW1 7667   2.893   4.833   2.527
 2256SOL    HW2 7668   2.910   4.680   2.472
 2257SOL     OW 7669   1.867   3.580   4.363
 2257SOL    HW1 7670   1.911   3.556   4.277
 2257SOL    HW2 7671   1.877   3.504   4.428
 2258SOL     OW 7672   1.758   5.036   5.575
 2258SOL    HW1 7673   1.709   5.123   5.579
 2258SOL    HW2 7674   1.694   4.961   5.562
 2259SOL     OW 7675   6.605   3.218   6.446
 2259SOL    HW1 7676   6.577   3.281   6.518
 2259SOL    HW2 7677   6.603   3.124   6.480
 2260SOL     OW 7678   4.086   3.480   1.213
 2260SOL    HW1 7679   3.995   3.461   1.176
 2260SOL    HW2 7680   4.077   3.528   1.300
 2261SOL     OW 7681   2.773   6.667   4.862
 2261SOL    HW1 7682   2.720   6.601   4.809
 2261SOL    HW2 7683   2.718   6.749   4.878
 2262SOL     OW 7684   3.386   1.796   3.119
 2262SOL    HW1 7685   3.403   1.715   3.175
 2262SOL    HW2 7686   3.299   1.837   3.146
 2263SOL     OW 7687   0.829   4.092   5.695
 2263SOL    HW1 7688   0.784   4.145   5.767
 2263SOL    HW2 7689   0.802   4.127   5.606
 2264SOL     OW 7690   2.914   3.751   3.113
 2264SOL    HW1 7691   2.873   3.662   3.091
 2264SOL    HW2 7692   2.982   3.775   3.044
 2265SOL     OW 7693   0.942   6.820   3.482
 2265SOL    HW1 7694   1.032   6.804   3.442
 2265SOL    HW2 7695   0.873   6.770   3.430
 2266SOL     OW 7696   6.579   0.293   6.278
 2266SOL    HW1 7697   6.628   0.288   6.191
 2266SOL    HW2 7698   6.507   0.362   6.271
 2267SOL     OW 7699   5.723   1.929   5.529
 2267SOL    HW1 7700   5.645   1.936   5.591
 2267SOL    HW2 7701   5.802   1.896   5.580
 2268SOL     OW 7702   6.850   5.311   6.587
 2268SOL    HW1 7703   6.911   5.316   6.666
 2268SOL    HW2 7704   6.811   5.401   6.569
 2269SOL     OW 7705   0.472   6.861   3.326
 2269SOL    HW1 7706   0.536   6.913   3.383
 2269SOL    HW2 7707   0.463   6.768   3.363
 2270SOL     OW 7708   3.512   3.281   3.022
 2270SOL    HW1 7709   3.602   3.294   3.064
 2270SOL    HW2 7710   3.521   3.223   2.941
 2271SOL     OW 7711   0.768   4.914   3.142
 2271SOL    HW1 7712   0.861   4.878   3.156
 2271SOL    HW2 7713   0.710   4.888   3.219
 2272SOL     OW 7714   5.406   2.152   5.816
 2272SOL    HW1 7715   5.457   2.134   5.900
 2272SOL    HW2 7716   5.308   2.146   5.835
 2273SOL     OW 7717   0.620   1.259   3.119
 2273SOL    HW1 7718   0.584   1.296   3.033
 2273SOL    HW2 7719   0.685   1.186   3.099
 2274SOL     OW 7720   0.838   4.062   3.157
 2274SOL    HW1 7721   0.778   4.049   3.236
 2274SOL    HW2 7722   0.790   4.035   3.074
 2275SOL     OW 7723   4.932   6.236   3.827
 2275SOL    HW1 7724   4.962   6.331   3.818
 2275SOL    HW2 7725   4.879   6.210   3.747
 2276SOL     OW 7726   2.918   5.878   2.198
 2276SOL    HW1 7727   2.918   5.903   2.101
 2276SOL    HW2 7728   3.007   5.900   2.238
 2277SOL     OW 7729   2.963   3.843   1.201
 2277SOL    HW1 7730   3.046   3.861   1.256
 2277SOL    HW2 7731   2.980   3.871   1.107
 2278SOL     OW 7732   5.179   6.669   1.201
 2278SOL    HW1 7733   5.277   6.652   1.215
 2278SOL    HW2 7734   5.156   6.759   1.238
 2279SOL     OW 7735   6.025   3.776   5.847
 2279SOL    HW1 7736   5.931   3.794   5.818
 2279SOL    HW2 7737   6.025   3.702   5.914
 2280SOL     OW 7738   5.546   0.251   5.910
 2280SOL    HW1 7739   5.577   0.177   5.850
 2280SOL    HW2 7740   5.606   0.330   5.900
 2281SOL     OW 7741   2.242   1.764   0.153
 2281SOL    HW1 7742   2.254   1.667   0.133
 2281SOL    HW2 7743   2.254   1.817   0.069
 2282SOL     OW 7744   4.070   6.080   2.103
 2282SOL    HW1 7745   4.077   6.048   2.009
 2282SOL    HW2 7746   4.087   6.179   2.106
 2283SOL     OW 7747   0.130   3.930   1.975
 2283SOL    HW1 7748   0.146   4.028   1.967
 2283SOL    HW2 7749   0.137   3.902   2.071
 2284SOL     OW 7750   2.512   2.143   2.199
 2284SOL    HW1 7751   2.419   2.180   2.202
 2284SOL    HW2 7752   2.575   2.213   2.165
 2285SOL     OW 7753   1.823   3.802   6.853
 2285SOL    HW1 7754   1.810   3.715   6.902
 2285SOL    HW2 7755   1.814   3.878   6.918
 2286SOL     OW 7756   6.324   6.524   4.200
 2286SOL    HW1 7757   6.241   6.580   4.202
 2286SOL    HW2 7758   6.391   6.566   4.139
 2287SOL     OW 7759   2.068   2.332   0.669
 2287SOL    HW1 7760   2.094   2.255   0.609
 2287SOL    HW2 7761   2.148   2.363   0.719
 2288SOL     OW 7762   2.388   5.278   4.810
 2288SOL    HW1 7763   2.308   5.279   4.870
 2288SOL    HW2 7764   2.468   5.312   4.860
 2289SOL     OW 7765   4.098   1.037   0.211
 2289SOL    HW1 7766   4.078   0.950   0.168
 2289SOL    HW2 7767   4.154   1.093   0.150
 2290SOL     OW 7768   3.414   3.729   3.719
 2290SOL    HW1 7769   3.360   3.748   3.637
 2290SOL    HW2 7770   3.512   3.738   3.697
 2291SOL     OW 7771   1.763   2.035   6.767
 2291SOL    HW1 7772   1.803   2.058   6.856
 2291SOL    HW2 7773   1.808   2.090   6.696
 2292SOL     OW 7774   4.951   1.697   2.958
 2292SOL    HW1 7775   4.882   1.768   2.966
 2292SOL    HW2 7776   5.022   1.726   2.894
 2293SOL     OW 7777   0.593   0.873   0.181
 2293SOL    HW1 7778   0.649   0.870   0.097
 2293SOL    HW2 7779   0.511   0.818   0.168
 2294SOL     OW 7780   0.059   0.745   5.777
 2294SOL    HW1 7781   7.017   0.813   5.750
 2294SOL    HW2 7782   0.048   0.662   5.723
 2295SOL     OW 7783   6.038   6.077   1.293
 2295SOL    HW1 7784   6.030   6.115   1.201
 2295SOL    HW2 7785   6.074   5.984   1.288
 2296SOL     OW 7786   3.728   5.200   4.191
 2296SOL    HW1 7787   3.754   5.132   4.259
 2296SOL    HW2 7788   3.632   5.187   4.167
 2297SOL     OW 7789   5.723   3.942   5.040
 2297SOL    HW1 7790   5.797   4.001   5.071
 2297SOL    HW2 7791   5.751   3.846   5.046
 2298SOL     OW 7792   3.102   3.290   4.896
 2298SOL    HW1 7793   3.090   3.211   4.836
 2298SOL    HW2 7794   3.199   3.301   4.918
 2299SOL     OW 7795   5.695   3.211   4.555
 2299SOL    HW1 7796   5.758   3.267   4.501
 2299SOL    HW2 7797   5.649   3.146   4.495
 2300SOL     OW 7798   5.244   0.053   2.066
 2300SOL    HW1 7799   5.256   6.985   2.035
 2300SOL    HW2 7800   5.187   0.103   2.000
 2301SOL     OW 7801   4.002   3.232   4.885
 2301SOL    HW1 7802   4.086   3.241   4.939
 2301SOL    HW2 7803   3.924   3.221   4.946
 2302SOL     OW 7804   6.160   3.218   6.220
 2302SOL    HW1 7805   6.127   3.282   6.288
 2302SOL    HW2 7806   6.260   3.220   6.218
 2303SOL     OW 7807   2.979   2.228   6.721
 2303SOL    HW1 7808   3.005   2.324   6.725
 2303SOL    HW2 7809   2.982   2.189   6.814
 2304SOL     OW 7810   6.780   7.017   2.412
 2304SOL    HW1 7811   6.741   7.020   2.503
 2304SOL    HW2 7812   6.853   6.949   2.409
 2305SOL     OW 7813   2.489   6.978   5.580
 2305SOL    HW1 7814   2.428   6.997   5.657
 2305SOL    HW2 7815   2.552   0.029   5.568
 2306SOL     OW 7816   2.113   4.675   4.587
 2306SOL    HW1 7817   2.146   4.769   4.584
 2306SOL    HW2 7818   2.158   4.626   4.661
 2307SOL     OW 7819   6.573   3.503   4.994
 2307SOL    HW1 7820   6.481   3.479   4.963
 2307SOL    HW2 7821   6.573   3.516   5.093
 2308SOL     OW 7822   0.930   5.671   2.183
 2308SOL    HW1 7823   1.006   5.659   2.247
 2308SOL    HW2 7824   0.856   5.721   2.228
 2309SOL     OW 7825   2.508   0.590   4.552
 2309SOL    HW1 7826   2.538   0.651   4.625
 2309SOL    HW2 7827   2.587   0.558   4.501
 2310SOL     OW 7828   4.666   6.869   0.942
 2310SOL    HW1 7829   4.640   6.852   1.037
 2310SOL    HW2 7830   4.583   6.870   0.885
 2311SOL     OW 7831   2.285   5.957   1.003
 2311SOL    HW1 7832   2.196   5.918   1.027
 2311SOL    HW2 7833   2.309   5.930   0.910
 2312SOL     OW 7834   3.266   4.859   2.291
 2312SOL    HW1 7835   3.342   4.923   2.281
 2312SOL    HW2 7836   3.242   4.821   2.202
 2313SOL     OW 7837   5.172   4.548   1.767
 2313SOL    HW1 7838   5.078   4.526   1.790
 2313SOL    HW2 7839   5.176   4.640   1.726
 2314SOL     OW 7840   2.633   4.823   4.334
 2314SOL    HW1 7841   2.594   4.748   4.281
 2314SOL    HW2 7842   2.708   4.864   4.283
 2315SOL     OW 7843   5.135   2.142   6.623
 2315SOL    HW1 7844   5.083   2.224   6.645
 2315SOL    HW2 7845   5.210   2.132   6.690
 2316SOL     OW 7846   4.920   3.247   2.059
 2316SOL    HW1 7847   4.981   3.271   1.984
 2316SOL    HW2 7848   4.864   3.169   2.033
 2317SOL     OW 7849   0.896   6.228   2.915
 2317SOL    HW1 7850   0.996   6.225   2.908
 2317SOL    HW2 7851   0.859   6.285   2.841
 2318SOL     OW 7852   0.366   1.429   4.312
 2318SOL    HW1 7853   0.354   1.330   4.315
 2318SOL    HW2 7854   0.288   1.474   4.357
 2319SOL     OW 7855   1.407   4.520   2.222
 2319SOL    HW1 7856   1.364   4.610   2.209
 2319SOL    HW2 7857   1.362   4.472   2.297
 2320SOL     OW 7858   6.592   4.817   4.564
 2320SOL    HW1 7859   6.530   4.896   4.554
 2320SOL    HW2 7860   6.592   4.787   4.659
 2321SOL     OW 7861   3.646   4.973   4.716
 2321SOL    HW1 7862   3.732   4.950   4.761
 2321SOL    HW2 7863   3.593   4.890   4.700
 2322SOL     OW 7864   3.095   0.514   5.200
 2322SOL    HW1 7865   3.074   0.572   5.122
 2322SOL    HW2 7866   3.067   0.561   5.284
 2323SOL     OW 7867   4.943   3.536   2.063
 2323SOL    HW1 7868   5.040   3.514   2.052
 2323SOL    HW2 7869   4.891   3.451   2.072
 2324SOL     OW 7870   1.046   4.852   3.268
 2324SOL    HW1 7871   1.112   4.787   3.229
 2324SOL    HW2 7872   1.070   4.945   3.240
 2325SOL     OW 7873   0.233   2.121   0.262
 2325SOL    HW1 7874   0.194   2.152   0.349
 2325SOL    HW2 7875   0.193   2.032   0.238
 2326SOL     OW 7876   0.858   4.039   0.215
 2326SOL    HW1 7877   0.922   4.091   0.157
 2326SOL    HW2 7878   0.908   4.000   0.292
 2327SOL     OW 7879   5.214   1.473   3.641
 2327SOL    HW1 7880   5.248   1.525   3.562
 2327SOL    HW2 7881   5.232   1.524   3.725
 2328SOL     OW 7882   6.471   5.600   3.337
 2328SOL    HW1 7883   6.524   5.684   3.350
 2328SOL    HW2 7884   6.423   5.605   3.249
 2329SOL     OW 7885   0.291   5.598   2.956
 2329SOL    HW1 7886   0.366   5.636   3.010
 2329SOL    HW2 7887   0.277   5.502   2.981
 2330SOL     OW 7888   0.561   4.372   1.556
 2330SOL    HW1 7889   0.509   4.388   1.472
 2330SOL    HW2 7890   0.551   4.277   1.585
 2331SOL     OW 7891   1.429   4.242   6.157
 2331SOL    HW1 7892   1.354   4.188   6.194
 2331SOL    HW2 7893   1.407   4.269   6.063
 2332SOL     OW 7894   5.225   2.583   5.405
 2332SOL    HW1 7895   5.247   2.507   5.466
 2332SOL    HW2 7896   5.130   2.611   5.420
 2333SOL     OW 7897   3.123   5.033   4.059
 2333SOL    HW1 7898   3.133   5.044   3.960
 2333SOL    HW2 7899   3.026   5.021   4.082
 2334SOL     OW 7900   2.492   0.058   6.897
 2334SOL    HW1 7901   2.454   0.020   6.981
 2334SOL    HW2 7902   2.522   7.010   6.837
 2335SOL     OW 7903   4.555   5.150   4.610
 2335SOL    HW1 7904   4.651   5.148   4.640
 2335SOL    HW2 7905   4.528   5.060   4.577
 2336SOL     OW 7906   4.455   2.934   5.755
 2336SOL    HW1 7907   4.475   3.023   5.797
 2336SOL    HW2 7908   4.420   2.872   5.825
 2337SOL     OW 7909   6.271   0.291   4.361
 2337SOL    HW1 7910   6.281   0.303   4.262
 2337SOL    HW2 7911   6.353   0.325   4.408
 2338SOL     OW 7912   1.374   0.097   6.683
 2338SOL    HW1 7913   1.328   0.027   6.627
 2338SOL    HW2 7914   1.330   0.185   6.667
 2339SOL     OW 7915   4.417   5.006   6.887
 2339SOL    HW1 7916   4.484   5.034   6.955
 2339SOL    HW2 7917   4.341   5.071   6.885
 2340SOL     OW 7918   4.003   4.891   3.921
 2340SOL    HW1 7919   3.913   4.848   3.931
 2340SOL    HW2 7920   4.073   4.832   3.962
 2341SOL     OW 7921   5.891   4.792   6.499
 2341SOL    HW1 7922   5.808   4.736   6.499
 2341SOL    HW2 7923   5.870   4.884   6.530
 2342SOL     OW 7924   6.804   0.228   4.821
 2342SOL    HW1 7925   6.737   0.227   4.747
 2342SOL    HW2 7926   6.769   0.174   4.898
 2343SOL     OW 7927   0.739   0.170   0.422
 2343SOL    HW1 7928   0.647   0.186   0.458
 2343SOL    HW2 7929   0.784   0.258   0.406
 2344SOL     OW 7930   2.808   1.622   2.867
 2344SOL    HW1 7931   2.793   1.580   2.957
 2344SOL    HW2 7932   2.772   1.715   2.868
 2345SOL     OW 7933   1.315   1.738   2.405
 2345SOL    HW1 7934   1.276   1.830   2.407
 2345SOL    HW2 7935   1.414   1.744   2.390
 2346SOL     OW 7936   4.860   3.241   5.447
 2346SOL    HW1 7937   4.824   3.147   5.440
 2346SOL    HW2 7938   4.794   3.304   5.408
 2347SOL     OW 7939   1.590   3.475   0.867
 2347SOL    HW1 7940   1.563   3.486   0.771
 2347SOL    HW2 7941   1.675   3.423   0.873
 2348SOL     OW 7942   2.980   6.821   1.717
 2348SOL    HW1 7943   2.912   6.888   1.687
 2348SOL    HW2 7944   2.938   6.756   1.780
 2349SOL     OW 7945   4.603   4.419   6.342
 2349SOL    HW1 7946   4.629   4.428   6.246
 2349SOL    HW2 7947   4.584   4.510   6.380
 2350SOL     OW 7948   2.535   5.862   5.392
 2350SOL    HW1 7949   2.460   5.892   5.332
 2350SOL    HW2 7950   2.572   5.775   5.358
 2351SOL     OW 7951   1.874   5.180   3.227
 2351SOL    HW1 7952   1.784   5.199   3.267
 2351SOL    HW2 7953   1.946   5.209   3.291
 2352SOL     OW 7954   5.629   4.455   0.836
 2352SOL    HW1 7955   5.725   4.469   0.812
 2352SOL    HW2 7956   5.570   4.485   0.761
 2353SOL     OW 7957   2.366   3.673   6.612
 2353SOL    HW1 7958   2.323   3.718   6.690
 2353SOL    HW2 7959   2.372   3.574   6.629
 2354SOL     OW 7960   4.290   1.902   2.146
 2354SOL    HW1 7961   4.212   1.960   2.124
 2354SOL    HW2 7962   4.296   1.892   2.246
 2355SOL     OW 7963   0.327   1.670   1.839
 2355SOL    HW1 7964   0.284   1.648   1.927
 2355SOL    HW2 7965   0.261   1.717   1.780
 2356SOL     OW 7966   3.085   5.361   3.725
 2356SOL    HW1 7967   3.028   5.399   3.798
 2356SOL    HW2 7968   3.142   5.288   3.763
 2357SOL     OW 7969   0.418   4.596   0.622
 2357SOL    HW1 7970   0.489   4.660   0.594
 2357SOL    HW2 7971   0.400   4.607   0.720
 2358SOL     OW 7972   3.269   1.584   4.908
 2358SOL    HW1 7973   3.169   1.584   4.897
 2358SOL    HW2 7974   3.293   1.636   4.989
 2359SOL     OW 7975   2.109   1.818   5.583
 2359SOL    HW1 7976   2.169   1.764   5.643
 2359SOL    HW2 7977   2.137   1.807   5.488
 2360SOL     OW 7978   3.133   5.481   0.566
 2360SOL    HW1 7979   3.071   5.511   0.493
 2360SOL    HW2 7980   3.081   5.425   0.631
 2361SOL     OW 7981   3.640   5.865   1.259
 2361SOL    HW1 7982   3.693   5.927   1.200
 2361SOL    HW2 7983   3.546   5.897   1.266
 2362SOL     OW 7984   3.371   4.925   3.875
 2362SOL    HW1 7985   3.392   4.890   3.967
 2362SOL    HW2 7986   3.281   4.969   3.876
 2363SOL     OW 7987   2.063   3.930   0.718
 2363SOL    HW1 7988   2.035   3.844   0.676
 2363SOL    HW2 7989   2.070   3.918   0.817
 2364SOL     OW 7990   4.278   1.866   2.449
 2364SOL    HW1 7991   4.303   1.960   2.474
 2364SOL    HW2 7992   4.304   1.804   2.523
 2365SOL     OW 7993   4.940   4.360   2.582
 2365SOL    HW1 7994   4.895   4.448   2.569
 2365SOL    HW2 7995   4.878   4.298   2.630
 2366SOL     OW 7996   3.202   5.101   5.754
 2366SOL    HW1 7997   3.115   5.058   5.781
 2366SOL    HW2 7998   3.200   5.123   5.657
 2367SOL     OW 7999   5.975   5.249   5.956
 2367SOL    HW1 8000   6.048   5.181   5.950
 2367SOL    HW2 8001   5.951   5.264   6.052
 2368SOL     OW 8002   5.434   1.004   5.495
 2368SOL    HW1 8003   5.430   0.907   5.521
 2368SOL    HW2 8004   5.485   1.055   5.563
 2369SOL     OW 8005   3.721   2.103   4.042
 2369SOL    HW1 8006   3.706   2.159   4.123
 2369SOL    HW2 8007   3.816   2.109   4.014
 2370SOL     OW 8008   5.139   1.858   1.812
 2370SOL    HW1 8009   5.172   1.765   1.798
 2370SOL    HW2 8010   5.054   1.856   1.865
 2371SOL     OW 8011   1.168   6.473   1.792
 2371SOL    HW1 8012   1.236   6.455   1.862
 2371SOL    HW2 8013   1.152   6.390   1.739
 2372SOL     OW 8014   6.789   6.901   6.424
 2372SOL    HW1 8015   6.702   6.862   6.395
 2372SOL    HW2 8016   6.805   6.988   6.377
 2373SOL     OW 8017   5.812   4.412   5.932
 2373SOL    HW1 8018   5.812   4.480   6.005
 2373SOL    HW2 8019   5.843   4.324   5.968
 2374SOL     OW 8020   6.023   6.591   2.352
 2374SOL    HW1 8021   6.028   6.559   2.447
 2374SOL    HW2 8022   6.113   6.586   2.310
 2375SOL     OW 8023   2.306   0.544   4.372
 2375SOL    HW1 8024   2.337   0.464   4.322
 2375SOL    HW2 8025   2.383   0.587   4.418
 2376SOL     OW 8026   5.262   1.985   2.992
 2376SOL    HW1 8027   5.249   2.083   2.974
 2376SOL    HW2 8028   5.233   1.964   3.085
 2377SOL     OW 8029   4.591   3.501   5.669
 2377SOL    HW1 8030   4.649   3.420   5.669
 2377SOL    HW2 8031   4.519   3.490   5.737
 2378SOL     OW 8032   0.868   1.734   0.281
 2378SOL    HW1 8033   0.937   1.672   0.244
 2378SOL    HW2 8034   0.790   1.738   0.219
 2379SOL     OW 8035   0.208   5.343   2.261
 2379SOL    HW1 8036   0.266   5.399   2.202
 2379SOL    HW2 8037   0.141   5.294   2.205
 2380SOL     OW 8038   4.716   5.262   6.921
 2380SOL    HW1 8039   4.695   5.210   7.004
 2380SOL    HW2 8040   4.637   5.259   6.860
 2381SOL     OW 8041   2.143   3.891   3.544
 2381SOL    HW1 8042   2.152   3.800   3.504
 2381SOL    HW2 8043   2.126   3.883   3.642
 2382SOL     OW 8044   6.854   5.105   2.995
 2382SOL    HW1 8045   6.874   5.201   3.017
 2382SOL    HW2 8046   6.761   5.083   3.024
 2383SOL     OW 8047   5.331   4.180   6.057
 2383SOL    HW1 8048   5.361   4.084   6.053
 2383SOL    HW2 8049   5.234   4.184   6.080
 2384SOL     OW 8050   0.546   1.955   2.871
 2384SOL    HW1 8051   0.539   1.952   2.771
 2384SOL    HW2 8052   0.466   1.912   2.912
 2385SOL     OW 8053   0.090   1.265   0.727
 2385SOL    HW1 8054   0.069   1.267   0.629
 2385SOL    HW2 8055   0.046   1.344   0.771
 2386SOL     OW 8056   5.853   6.143   4.683
 2386SOL    HW1 8057   5.914   6.064   4.679
 2386SOL    HW2 8058   5.906   6.225   4.705
 2387SOL     OW 8059   0.968   1.116   4.110
 2387SOL    HW1 8060   0.935   1.079   4.196
 2387SOL    HW2 8061   1.062   1.085   4.093
 2388SOL     OW 8062   0.463   3.318   5.415
 2388SOL    HW1 8063   0.413   3.279   5.492
 2388SOL    HW2 8064   0.511   3.245   5.366
 2389SOL     OW 8065   4.407   5.424   2.788
 2389SOL    HW1 8066   4.501   5.392   2.801
 2389SOL    HW2 8067   4.393   5.509   2.837
 2390SOL     OW 8068   4.355   2.708   6.660
 2390SOL    HW1 8069   4.405   2.758   6.730
 2390SOL    HW2 8070   4.396   2.725   6.570
 2391SOL     OW 8071   3.671   4.638   6.442
 2391SOL    HW1 8072   3.663   4.689   6.527
 2391SOL    HW2 8073   3.601   4.567   6.439
 2392SOL     OW 8074   4.255   4.768   5.782
 2392SOL    HW1 8075   4.323   4.695   5.787
 2392SOL    HW2 8076   4.301   4.857   5.789
 2393SOL     OW 8077   4.471   4.659   0.824
 2393SOL    HW1 8078   4.564   4.637   0.794
 2393SOL    HW2 8079   4.421   4.574   0.841
 2394SOL     OW 8080   0.286   1.729   3.702
 2394SOL    HW1 8081   0.190   1.731   3.730
 2394SOL    HW2 8082   0.321   1.822   3.696
 2395SOL     OW 8083   0.893   3.229   4.000
 2395SOL    HW1 8084   0.824   3.196   4.063
 2395SOL    HW2 8085   0.978   3.248   4.050
 2396SOL     OW 8086   0.052   0.164   6.872
 2396SOL    HW1 8087   6.996   0.138   6.925
 2396SOL    HW2 8088   0.050   0.118   6.783
 2397SOL     OW 8089   1.370   3.699   5.096
 2397SOL    HW1 8090   1.386   3.610   5.053
 2397SOL    HW2 8091   1.290   3.694   5.155
 2398SOL     OW 8092   4.130   6.792   3.748
 2398SOL    HW1 8093   4.171   6.725   3.686
 2398SOL    HW2 8094   4.098   6.870   3.695
 2399SOL     OW 8095   3.544   2.053   3.078
 2399SOL    HW1 8096   3.592   2.047   3.165
 2399SOL    HW2 8097   3.474   1.982   3.074
 2400SOL     OW 8098   1.761   3.735   0.600
 2400SOL    HW1 8099   1.821   3.753   0.523
 2400SOL    HW2 8100   1.798   3.660   0.655
 2401SOL     OW 8101   1.784   6.217   6.465
 2401SOL    HW1 8102   1.862   6.264   6.424
 2401SOL    HW2 8103   1.711   6.283   6.484
 2402SOL     OW 8104   0.904   3.789   2.119
 2402SOL    HW1 8105   0.839   3.750   2.185
 2402SOL    HW2 8106   0.870   3.878   2.087
 2403SOL     OW 8107   3.199   3.545   4.905
 2403SOL    HW1 8108   3.149   3.460   4.891
 2403SOL    HW2 8109   3.144   3.608   4.960
 2404SOL     OW 8110   6.051   1.342   1.187
 2404SOL    HW1 8111   5.972   1.280   1.194
 2404SOL    HW2 8112   6.082   1.346   1.092
 2405SOL     OW 8113   1.724   3.239   0.413
 2405SOL    HW1 8114   1.757   3.332   0.398
 2405SOL    HW2 8115   1.634   3.242   0.456
 2406SOL     OW 8116   3.250   5.448   4.705
 2406SOL    HW1 8117   3.329   5.508   4.703
 2406SOL    HW2 8118   3.279   5.354   4.723
 2407SOL     OW 8119   3.018   1.281   3.040
 2407SOL    HW1 8120   3.112   1.293   3.006
 2407SOL    HW2 8121   2.971   1.369   3.039
 2408SOL     OW 8122   2.592   0.232   5.578
 2408SOL    HW1 8123   2.514   0.287   5.548
 2408SOL    HW2 8124   2.677   0.280   5.557
 2409SOL     OW 8125   0.920   3.470   0.420
 2409SOL    HW1 8126   0.907   3.465   0.519
 2409SOL    HW2 8127   1.011   3.436   0.397
 2410SOL     OW 8128   0.124   3.128   4.241
 2410SOL    HW1 8129   0.043   3.132   4.183
 2410SOL    HW2 8130   0.157   3.034   4.246
 2411SOL     OW 8131   2.803   1.864   6.920
 2411SOL    HW1 8132   2.749   1.946   6.942
 2411SOL    HW2 8133   2.777   1.790   6.982
 2412SOL     OW 8134   3.229   1.741   5.603
 2412SOL    HW1 8135   3.172   1.661   5.620
 2412SOL    HW2 8136   3.216   1.808   5.677
 2413SOL     OW 8137   0.318   3.099   0.234
 2413SOL    HW1 8138   0.331   3.001   0.222
 2413SOL    HW2 8139   0.398   3.148   0.200
 2414SOL     OW 8140   6.433   0.902   4.960
 2414SOL    HW1 8141   6.384   0.853   5.032
 2414SOL    HW2 8142   6.525   0.924   4.991
 2415SOL     OW 8143   2.846   4.877   6.197
 2415SOL    HW1 8144   2.923   4.916   6.146
 2415SOL    HW2 8145   2.842   4.919   6.287
 2416SOL     OW 8146   0.205   2.330   2.958
 2416SOL    HW1 8147   0.302   2.338   2.935
 2416SOL    HW2 8148   0.166   2.251   2.911
 2417SOL     OW 8149   2.805   2.655   1.479
 2417SOL    HW1 8150   2.720   2.647   1.429
 2417SOL    HW2 8151   2.850   2.566   1.482
 2418SOL     OW 8152   4.966   3.763   6.698
 2418SOL    HW1 8153   5.011   3.691   6.645
 2418SOL    HW2 8154   5.021   3.783   6.779
 2419SOL     OW 8155   2.771   0.418   3.412
 2419SOL    HW1 8156   2.834   0.483   3.371
 2419SOL    HW2 8157   2.727   0.460   3.491
 2420SOL     OW 8158   1.032   4.063   2.746
 2420SOL    HW1 8159   1.107   4.110   2.793
 2420SOL    HW2 8160   1.070   3.990   2.688
 2421SOL     OW 8161   3.442   6.739   3.511
 2421SOL    HW1 8162   3.482   6.795   3.438
 2421SOL    HW2 8163   3.402   6.657   3.472
 2422SOL     OW 8164   4.479   4.887   1.008
 2422SOL    HW1 8165   4.449   4.867   1.101
 2422SOL    HW2 8166   4.440   4.819   0.945
 2423SOL     OW 8167   2.399   5.612   3.544
 2423SOL    HW1 8168   2.352   5.621   3.631
 2423SOL    HW2 8169   2.398   5.516   3.514
 2424SOL     OW 8170   4.758   6.600   6.220
 2424SOL    HW1 8171   4.815   6.637   6.147
 2424SOL    HW2 8172   4.663   6.597   6.190
 2425SOL     OW 8173   4.524   5.669   5.154
 2425SOL    HW1 8174   4.532   5.661   5.055
 2425SOL    HW2 8175   4.481   5.587   5.191
 2426SOL     OW 8176   2.550   2.531   5.141
 2426SOL    HW1 8177   2.629   2.547   5.201
 2426SOL    HW2 8178   2.508   2.443   5.164
 2427SOL     OW 8179   5.031   1.082   0.394
 2427SOL    HW1 8180   5.004   1.113   0.485
 2427SOL    HW2 8181   4.976   1.128   0.325
 2428SOL     OW 8182   1.473   1.502   2.840
 2428SOL    HW1 8183   1.412   1.424   2.855
 2428SOL    HW2 8184   1.515   1.528   2.927
 2429SOL     OW 8185   6.478   5.363   1.531
 2429SOL    HW1 8186   6.569   5.357   1.490
 2429SOL    HW2 8187   6.448   5.458   1.532
 2430SOL     OW 8188   6.530   0.906   6.278
 2430SOL    HW1 8189   6.514   0.971   6.352
 2430SOL    HW2 8190   6.534   0.954   6.190
 2431SOL     OW 8191   0.618   3.047   1.727
 2431SOL    HW1 8192   0.545   2.988   1.762
 2431SOL    HW2 8193   0.672   3.082   1.803
 2432SOL     OW 8194   2.434   5.182   1.970
 2432SOL    HW1 8195   2.362   5.138   1.915
 2432SOL    HW2 8196   2.505   5.218   1.909
 2433SOL     OW 8197   6.933   4.037   5.418
 2433SOL    HW1 8198   6.999   4.091   5.365
 2433SOL    HW2 8199   6.851   4.092   5.435
 2434SOL     OW 8200   4.343   0.797   2.786
 2434SOL    HW1 8201   4.384   0.850   2.712
 2434SOL    HW2 8202   4.416   0.751   2.838
 2435SOL     OW 8203   5.966   6.876   0.088
 2435SOL    HW1 8204   5.966   6.803   0.021
 2435SOL    HW2 8205   5.924   6.844   0.173
 2436SOL     OW 8206   0.241   2.913   0.664
 2436SOL    HW1 8207   0.217   2.935   0.758
 2436SOL    HW2 8208   0.229   2.994   0.606
 2437SOL     OW 8209   6.832   3.767   1.880
 2437SOL    HW1 8210   6.794   3.711   1.806
 2437SOL    HW2 8211   6.874   3.849   1.840
 2438SOL     OW 8212   3.626   1.659   4.712
 2438SOL    HW1 8213   3.616   1.644   4.811
 2438SOL    HW2 8214   3.543   1.628   4.665
 2439SOL     OW 8215   1.739   5.387   1.352
 2439SOL    HW1 8216   1.785   5.399   1.264
 2439SOL    HW2 8217   1.677   5.465   1.367
 2440SOL     OW 8218   6.557   1.049   5.472
 2440SOL    HW1 8219   6.472   1.002   5.492
 2440SOL    HW2 8220   6.580   1.112   5.547
 2441SOL     OW 8221   5.861   0.754   0.911
 2441SOL    HW1 8222   5.866   0.844   0.869
 2441SOL    HW2 8223   5.814   0.691   0.849
 2442SOL     OW 8224   5.441   2.899   1.652
 2442SOL    HW1 8225   5.387   2.946   1.721
 2442SOL    HW2 8226   5.447   2.956   1.570
 2443SOL     OW 8227   0.500   3.451   1.448
 2443SOL    HW1 8228   0.458   3.534   1.412
 2443SOL    HW2 8229   0.465   3.371   1.399
 2444SOL     OW 8230   3.381   5.315   2.502
 2444SOL    HW1 8231   3.459   5.356   2.454
 2444SOL    HW2 8232   3.414   5.246   2.566
 2445SOL     OW 8233   0.335   1.614   1.100
 2445SOL    HW1 8234   0.374   1.527   1.071
 2445SOL    HW2 8235   0.240   1.600   1.128
 2446SOL     OW 8236   0.905   5.696   1.911
 2446SOL    HW1 8237   0.940   5.667   2.000
 2446SOL    HW2 8238   0.931   5.791   1.893
 2447SOL     OW 8239   2.141   6.865   0.269
 2447SOL    HW1 8240   2.058   6.836   0.222
 2447SOL    HW2 8241   2.195   6.924   0.209
 2448SOL     OW 8242   5.450   1.039   4.724
 2448SOL    HW1 8243   5.473   1.036   4.821
 2448SOL    HW2 8244   5.366   0.987   4.708
 2449SOL     OW 8245   1.174   4.511   1.578
 2449SOL    HW1 8246   1.203   4.480   1.487
 2449SOL    HW2 8247   1.179   4.434   1.641
 2450SOL     OW 8248   1.182   6.409   4.876
 2450SOL    HW1 8249   1.233   6.476   4.930
 2450SOL    HW2 8250   1.183   6.436   4.780
 2451SOL     OW 8251   1.417   6.633   5.644
 2451SOL    HW1 8252   1.402   6.732   5.645
 2451SOL    HW2 8253   1.438   6.604   5.550
 2452SOL     OW 8254   2.477   1.602   3.330
 2452SOL    HW1 8255   2.474   1.524   3.392
 2452SOL    HW2 8256   2.393   1.656   3.340
 2453SOL     OW 8257   1.105   1.484   6.089
 2453SOL    HW1 8258   1.179   1.448   6.032
 2453SOL    HW2 8259   1.026   1.504   6.032
 2454SOL     OW 8260   3.498   6.150   1.208
 2454SOL    HW1 8261   3.486   6.101   1.294
 2454SOL    HW2 8262   3.417   6.205   1.188
 2455SOL     OW 8263   4.253   2.431   0.814
 2455SOL    HW1 8264   4.286   2.474   0.729
 2455SOL    HW2 8265   4.154   2.444   0.821
 2456SOL     OW 8266   0.620   3.475   5.641
 2456SOL    HW1 8267   0.665   3.536   5.707
 2456SOL    HW2 8268   0.525   3.461   5.669
 2457SOL     OW 8269   4.167   2.044   5.316
 2457SOL    HW1 8270   4.169   1.945   5.305
 2457SOL    HW2 8271   4.240   2.072   5.378
 2458SOL     OW 8272   0.590   7.023   3.074
 2458SOL    HW1 8273   0.543   6.945   3.114
 2458SOL    HW2 8274   0.689   7.005   3.073
 2459SOL     OW 8275   1.884   6.948   0.673
 2459SOL    HW1 8276   1.981   6.932   0.691
 2459SOL    HW2 8277   1.874   7.007   0.593
 2460SOL     OW 8278   0.740   1.007   4.962
 2460SOL    HW1 8279   0.714   1.100   4.987
 2460SOL    HW2 8280   0.672   0.942   4.996
 2461SOL     OW 8281   4.557   1.157   3.340
 2461SOL    HW1 8282   4.604   1.203   3.416
 2461SOL    HW2 8283   4.461   1.186   3.338
 2462SOL     OW 8284   0.288   5.007   0.343
 2462SOL    HW1 8285   0.231   4.926   0.353
 2462SOL    HW2 8286   0.284   5.039   0.248
 2463SOL     OW 8287   6.180   0.695   0.077
 2463SOL    HW1 8288   6.159   0.633   0.002
 2463SOL    HW2 8289   6.197   0.786   0.041
 2464SOL     OW 8290   0.743   2.441   4.266
 2464SOL    HW1 8291   0.737   2.375   4.341
 2464SOL    HW2 8292   0.740   2.392   4.179
 2465SOL     OW 8293   6.984   6.619   6.070
 2465SOL    HW1 8294   6.999   6.556   5.994
 2465SOL    HW2 8295   0.035   6.682   6.076
 2466SOL     OW 8296   0.823   1.753   1.547
 2466SOL    HW1 8297   0.786   1.662   1.530
 2466SOL    HW2 8298   0.754   1.809   1.592
 2467SOL     OW 8299   6.110   2.629   5.350
 2467SOL    HW1 8300   6.056   2.556   5.308
 2467SOL    HW2 8301   6.199   2.592   5.378
 2468SOL     OW 8302   3.803   6.803   5.358
 2468SOL    HW1 8303   3.801   6.718   5.305
 2468SOL    HW2 8304   3.776   6.784   5.452
 2469SOL     OW 8305   3.580   1.890   5.360
 2469SOL    HW1 8306   3.553   1.929   5.271
 2469SOL    HW2 8307   3.556   1.793   5.362
 2470SOL     OW 8308   2.748   5.181   6.166
 2470SOL    HW1 8309   2.749   5.117   6.243
 2470SOL    HW2 8310   2.840   5.184   6.126
 2471SOL     OW 8311   2.877   5.473   1.807
 2471SOL    HW1 8312   2.943   5.516   1.869
 2471SOL    HW2 8313   2.905   5.378   1.791
 2472SOL     OW 8314   4.937   1.417   3.473
 2472SOL    HW1 8315   4.910   1.412   3.569
 2472SOL    HW2 8316   4.950   1.512   3.446
 2473SOL     OW 8317   0.427   4.328   3.960
 2473SOL    HW1 8318   0.438   4.362   3.867
 2473SOL    HW2 8319   0.330   4.326   3.983
 2474SOL     OW 8320   0.959   5.984   1.873
 2474SOL    HW1 8321   0.914   6.066   1.909
 2474SOL    HW2 8322   1.034   6.012   1.813
 2475SOL     OW 8323   4.497   0.884   0.243
 2475SOL    HW1 8324   4.445   0.919   0.320
 2475SOL    HW2 8325   4.442   0.816   0.194
 2476SOL     OW 8326   4.950   0.606   0.634
 2476SOL    HW1 8327   4.947   0.665   0.716
 2476SOL    HW2 8328   4.911   0.656   0.557
 2477SOL     OW 8329   3.892   0.067   3.071
 2477SOL    HW1 8330   3.890   0.116   3.158
 2477SOL    HW2 8331   3.859   0.127   2.998
 2478SOL     OW 8332   5.065   0.064   4.736
 2478SOL    HW1 8333   4.997   0.110   4.794
 2478SOL    HW2 8334   5.154   0.110   4.747
 2479SOL     OW 8335   6.056   3.332   0.508
 2479SOL    HW1 8336   5.992   3.348   0.583
 2479SOL    HW2 8337   6.016   3.266   0.444
 2480SOL     OW 8338   3.488   2.375   1.446
 2480SOL    HW1 8339   3.585   2.397   1.460
 2480SOL    HW2 8340   3.439   2.380   1.533
 2481SOL     OW 8341   3.033   0.213   1.475
 2481SOL    HW1 8342   3.095   0.256   1.540
 2481SOL    HW2 8343   3.073   0.127   1.442
 2482SOL     OW 8344   6.340   3.645   6.925
 2482SOL    HW1 8345   6.256   3.663   6.873
 2482SOL    HW2 8346   6.419   3.658   6.867
 2483SOL     OW 8347   1.475   2.540   0.838
 2483SOL    HW1 8348   1.421   2.565   0.758
 2483SOL    HW2 8349   1.450   2.447   0.867
 2484SOL     OW 8350   4.516   1.283   0.945
 2484SOL    HW1 8351   4.580   1.216   0.907
 2484SOL    HW2 8352   4.524   1.369   0.895
 2485SOL     OW 8353   0.023   2.208   6.518
 2485SOL    HW1 8354   6.984   2.283   6.502
 2485SOL    HW2 8355   0.106   2.244   6.560
 2486SOL     OW 8356   6.585   5.259   4.780
 2486SOL    HW1 8357   6.531   5.342   4.797
 2486SOL    HW2 8358   6.682   5.283   4.776
 2487SOL     OW 8359   5.044   6.580   6.621
 2487SOL    HW1 8360   5.069   6.609   6.714
 2487SOL    HW2 8361   4.955   6.619   6.597
 2488SOL     OW 8362   6.157   4.042   0.799
 2488SOL    HW1 8363   6.243   3.992   0.805
 2488SOL    HW2 8364   6.107   4.035   0.885
 2489SOL     OW 8365   6.515   5.755   4.812
 2489SOL    HW1 8366   6.605   5.745   4.770
 2489SOL    HW2 8367   6.503   5.849   4.842
 2490SOL     OW 8368   2.729   5.718   3.235
 2490SOL    HW1 8369   2.714   5.734   3.332
 2490SOL    HW2 8370   2.686   5.632   3.208
 2491SOL     OW 8371   3.507   4.717   1.486
 2491SOL    HW1 8372   3.432   4.652   1.491
 2491SOL    HW2 8373   3.534   4.729   1.390
 2492SOL     OW 8374   6.817   4.818   1.368
 2492SOL    HW1 8375   6.759   4.783   1.442
 2492SOL    HW2 8376   6.913   4.805   1.392
 2493SOL     OW 8377   5.492   6.810   0.991
 2493SOL    HW1 8378   5.503   6.910   0.982
 2493SOL    HW2 8379   5.428   6.777   0.921
 2494SOL     OW 8380   6.438   3.814   2.347
 2494SOL    HW1 8381   6.375   3.865   2.407
 2494SOL    HW2 8382   6.517   3.872   2.325
 2495SOL     OW 8383   0.340   4.628   3.046
 2495SOL    HW1 8384   0.340   4.614   3.145
 2495SOL    HW2 8385   0.255   4.591   3.008
 2496SOL     OW 8386   6.072   4.617   6.191
 2496SOL    HW1 8387   6.146   4.620   6.258
 2496SOL    HW2 8388   6.053   4.522   6.165
 2497SOL     OW 8389   0.308   0.370   2.288
 2497SOL    HW1 8390   0.323   0.303   2.214
 2497SOL    HW2 8391   0.381   0.360   2.356
 2498SOL     OW 8392   2.356   4.106   5.831
 2498SOL    HW1 8393   2.275   4.126   5.776
 2498SOL    HW2 8394   2.424   4.061   5.773
 2499SOL     OW 8395   6.506   3.633   2.044
 2499SOL    HW1 8396   6.417   3.678   2.048
 2499SOL    HW2 8397   6.501   3.544   2.089
 2500SOL     OW 8398   3.263   3.916   0.346
 2500SOL    HW1 8399   3.348   3.918   0.293
 2500SOL    HW2 8400   3.243   3.822   0.373
 2501SOL     OW 8401   5.937   5.346   6.640
 2501SOL    HW1 8402   5.848   5.318   6.605
 2501SOL    HW2 8403   5.936   5.444   6.660
 2502SOL     OW 8404   2.881   5.329   4.295
 2502SOL    HW1 8405   2.845   5.316   4.387
 2502SOL    HW2 8406   2.807   5.326   4.228
 2503SOL     OW 8407   2.475   6.862   5.874
 2503SOL    HW1 8408   2.458   6.958   5.856
 2503SOL    HW2 8409   2.572   6.842   5.859
 2504SOL     OW 8410   3.592   6.805   3.744
 2504SOL    HW1 8411   3.687   6.792   3.717
 2504SOL    HW2 8412   3.532   6.754   3.682
 2505SOL     OW 8413   0.308   4.941   3.527
 2505SOL    HW1 8414   0.217   4.962   3.493
 2505SOL    HW2 8415   0.376   4.963   3.457
 2506SOL     OW 8416   5.109   5.597   5.921
 2506SOL    HW1 8417   5.115   5.642   6.010
 2506SOL    HW2 8418   5.201   5.580   5.886
 2507SOL     OW 8419   6.630   3.333   1.354
 2507SOL    HW1 8420   6.671   3.422   1.374
 2507SOL    HW2 8421   6.535   3.333   1.386
 2508SOL     OW 8422   5.131   1.532   4.485
 2508SOL    HW1 8423   5.093   1.577   4.566
 2508SOL    HW2 8424   5.078   1.449   4.465
 2509SOL     OW 8425   0.129   3.954   5.618
 2509SOL    HW1 8426   0.071   3.997   5.548
 2509SOL    HW2 8427   0.147   4.019   5.691
 2510SOL     OW 8428   3.314   3.994   1.797
 2510SOL    HW1 8429   3.325   4.010   1.895
 2510SOL    HW2 8430   3.355   4.070   1.747
 2511SOL     OW 8431   1.920   0.563   5.022
 2511SOL    HW1 8432   1.906   0.660   5.003
 2511SOL    HW2 8433   2.016   0.546   5.045
 2512SOL     OW 8434   3.466   5.150   4.146
 2512SOL    HW1 8435   3.492   5.059   4.179
 2512SOL    HW2 8436   3.398   5.190   4.207
 2513SOL     OW 8437   2.558   5.499   5.898
 2513SOL    HW1 8438   2.569   5.400   5.905
 2513SOL    HW2 8439   2.517   5.535   5.982
 2514SOL     OW 8440   1.472   2.386   2.796
 2514SOL    HW1 8441   1.571   2.387   2.804
 2514SOL    HW2 8442   1.446   2.417   2.704
 2515SOL     OW 8443   1.126   1.369   1.188
 2515SOL    HW1 8444   1.055   1.434   1.161
 2515SOL    HW2 8445   1.097   1.276   1.162
 2516SOL     OW 8446   5.974   1.741   4.211
 2516SOL    HW1 8447   5.916   1.784   4.280
 2516SOL    HW2 8448   5.916   1.704   4.138
 2517SOL     OW 8449   1.750   1.511   4.144
 2517SOL    HW1 8450   1.731   1.557   4.231
 2517SOL    HW2 8451   1.837   1.463   4.150
 2518SOL     OW 8452   2.914   5.257   1.116
 2518SOL    HW1 8453   2.921   5.174   1.171
 2518SOL    HW2 8454   2.997   5.312   1.128
 2519SOL     OW 8455   1.238   1.202   0.830
 2519SOL    HW1 8456   1.245   1.300   0.812
 2519SOL    HW2 8457   1.240   1.186   0.929
 2520SOL     OW 8458   2.607   2.150   0.609
 2520SOL    HW1 8459   2.640   2.219   0.544
 2520SOL    HW2 8460   2.626   2.059   0.573
 2521SOL     OW 8461   4.910   1.387   5.454
 2521SOL    HW1 8462   4.884   1.322   5.383
 2521SOL    HW2 8463   4.836   1.453   5.469
 2522SOL     OW 8464   0.901   2.592   6.108
 2522SOL    HW1 8465   0.917   2.546   6.020
 2522SOL    HW2 8466   0.958   2.674   6.114
 2523SOL     OW 8467   2.220   4.953   6.696
 2523SOL    HW1 8468   2.205   4.855   6.685
 2523SOL    HW2 8469   2.135   4.997   6.725
 2524SOL     OW 8470   1.615   0.037   4.061
 2524SOL    HW1 8471   1.615   7.011   4.146
 2524SOL    HW2 8472   1.523   0.036   4.021
 2525SOL     OW 8473   6.844   2.400   4.843
 2525SOL    HW1 8474   6.766   2.430   4.898
 2525SOL    HW2 8475   6.892   2.480   4.807
 2526SOL     OW 8476   1.072   6.635   1.200
 2526SOL    HW1 8477   1.024   6.668   1.119
 2526SOL    HW2 8478   1.106   6.543   1.183
 2527SOL     OW 8479   5.016   4.649   6.361
 2527SOL    HW1 8480   5.006   4.741   6.322
 2527SOL    HW2 8481   4.942   4.632   6.426
 2528SOL     OW 8482   4.392   5.798   6.578
 2528SOL    HW1 8483   4.312   5.858   6.580
 2528SOL    HW2 8484   4.467   5.842   6.627
 2529SOL     OW 8485   0.185   6.843   6.811
 2529SOL    HW1 8486   0.118   6.770   6.820
 2529SOL    HW2 8487   0.153   6.910   6.743
 2530SOL     OW 8488   1.940   5.630   6.407
 2530SOL    HW1 8489   1.961   5.533   6.392
 2530SOL    HW2 8490   1.977   5.684   6.332
 2531SOL     OW 8491   6.477   5.255   5.851
 2531SOL    HW1 8492   6.453   5.168   5.807
 2531SOL    HW2 8493   6.574   5.274   5.837
 2532SOL     OW 8494   6.069   6.552   1.225
 2532SOL    HW1 8495   6.154   6.596   1.195
 2532SOL    HW2 8496   6.048   6.580   1.319
 2533SOL     OW 8497   4.854   0.915   3.485
 2533SOL    HW1 8498   4.924   0.977   3.449
 2533SOL    HW2 8499   4.899   0.845   3.541
 2534SOL     OW 8500   4.502   1.811   3.046
 2534SOL    HW1 8501   4.472   1.733   2.991
 2534SOL    HW2 8502   4.430   1.836   3.110
 2535SOL     OW 8503   3.773   2.837   6.233
 2535SOL    HW1 8504   3.741   2.810   6.323
 2535SOL    HW2 8505   3.696   2.870   6.179
 2536SOL     OW 8506   1.244   0.606   0.445
 2536SOL    HW1 8507   1.259   0.605   0.346
 2536SOL    HW2 8508   1.327   0.637   0.491
 2537SOL     OW 8509   4.153   0.504   6.713
 2537SOL    HW1 8510   4.090   0.432   6.683
 2537SOL    HW2 8511   4.200   0.475   6.796
 2538SOL     OW 8512   6.784   3.576   4.143
 2538SOL    HW1 8513   6.758   3.554   4.049
 2538SOL    HW2 8514   6.879   3.605   4.146
 2539SOL     OW 8515   5.122   2.140   5.589
 2539SOL    HW1 8516   5.158   2.103   5.503
 2539SOL    HW2 8517   5.129   2.071   5.660
 2540SOL     OW 8518   3.617   1.746   2.016
 2540SOL    HW1 8519   3.540   1.778   2.070
 2540SOL    HW2 8520   3.620   1.646   2.018
 2541SOL     OW 8521   3.448   6.348   4.820
 2541SOL    HW1 8522   3.369   6.399   4.855
 2541SOL    HW2 8523   3.473   6.383   4.729
 2542SOL     OW 8524   1.672   4.923   6.115
 2542SOL    HW1 8525   1.610   4.996   6.143
 2542SOL    HW2 8526   1.747   4.963   6.061
 2543SOL     OW 8527   2.039   1.050   3.704
 2543SOL    HW1 8528   1.942   1.072   3.709
 2543SOL    HW2 8529   2.054   0.956   3.733
 2544SOL     OW 8530   0.960   4.558   0.251
 2544SOL    HW1 8531   1.012   4.530   0.171
 2544SOL    HW2 8532   0.977   4.494   0.327
 2545SOL     OW 8533   2.568   6.240   3.164
 2545SOL    HW1 8534   2.657   6.281   3.145
 2545SOL    HW2 8535   2.575   6.141   3.153
 2546SOL     OW 8536   6.345   1.512   1.153
 2546SOL    HW1 8537   6.284   1.435   1.136
 2546SOL    HW2 8538   6.366   1.558   1.066
 2547SOL     OW 8539   0.406   3.784   4.804
 2547SOL    HW1 8540   0.370   3.771   4.897
 2547SOL    HW2 8541   0.439   3.697   4.768
 2548SOL     OW 8542   0.899   6.642   4.485
 2548SOL    HW1 8543   0.835   6.633   4.409
 2548SOL    HW2 8544   0.964   6.716   4.466
 2549SOL     OW 8545   6.682   2.637   1.076
 2549SOL    HW1 8546   6.683   2.625   0.976
 2549SOL    HW2 8547   6.666   2.548   1.119
 2550SOL     OW 8548   6.287   6.042   0.238
 2550SOL    HW1 8549   6.221   6.037   0.314
 2550SOL    HW2 8550   6.249   5.994   0.159
 2551SOL     OW 8551   1.486   4.067   7.000
 2551SOL    HW1 8552   1.567   4.099   6.951
 2551SOL    HW2 8553   1.440   3.997   6.946
 2552SOL     OW 8554   2.086   6.000   3.636
 2552SOL    HW1 8555   2.058   6.062   3.563
 2552SOL    HW2 8556   2.008   5.981   3.696
 2553SOL     OW 8557   3.611   3.690   0.033
 2553SOL    HW1 8558   3.659   3.669   6.974
 2553SOL    HW2 8559   3.640   3.627   0.105
 2554SOL     OW 8560   1.386   1.331   6.974
 2554SOL    HW1 8561   1.417   1.408   0.004
 2554SOL    HW2 8562   1.305   1.357   6.923
 2555SOL     OW 8563   6.192   1.776   0.087
 2555SOL    HW1 8564   6.093   1.789   0.095
 2555SOL    HW2 8565   6.237   1.804   0.172
 2556SOL     OW 8566   3.042   6.202   0.714
 2556SOL    HW1 8567   3.089   6.185   0.801
 2556SOL    HW2 8568   3.061   6.127   0.651
 2557SOL     OW 8569   2.471   3.950   6.965
 2557SOL    HW1 8570   2.402   3.890   6.924
 2557SOL    HW2 8571   2.438   3.982   0.027
 2558SOL     OW 8572   4.085   0.480   5.914
 2558SOL    HW1 8573   4.170   0.525   5.887
 2558SOL    HW2 8574   4.069   0.401   5.855
 2559SOL     OW 8575   0.336   4.796   4.897
 2559SOL    HW1 8576   0.422   4.756   4.931
 2559SOL    HW2 8577   0.337   4.895   4.913
 2560SOL     OW 8578   6.051   1.992   6.631
 2560SOL    HW1 8579   6.061   1.957   6.724
 2560SOL    HW2 8580   5.955   1.988   6.604
 2561SOL     OW 8581   3.309   5.183   4.788
 2561SOL    HW1 8582   3.298   5.085   4.770
 2561SOL    HW2 8583   3.401   5.200   4.823
 2562SOL     OW 8584   1.872   3.982   0.059
 2562SOL    HW1 8585   1.821   4.038   0.124
 2562SOL    HW2 8586   1.944   3.931   0.107
 2563SOL     OW 8587   2.263   1.263   0.254
 2563SOL    HW1 8588   2.288   1.270   0.351
 2563SOL    HW2 8589   2.226   1.171   0.236
 2564SOL     OW 8590   1.974   5.455   1.499
 2564SOL    HW1 8591   1.892   5.408   1.466
 2564SOL    HW2 8592   2.046   5.449   1.430
 2565SOL     OW 8593   2.055   0.365   0.909
 2565SOL    HW1 8594   2.013   0.421   0.981
 2565SOL    HW2 8595   2.145   0.335   0.940
 2566SOL     OW 8596   1.837   6.484   6.611
 2566SOL    HW1 8597   1.808   6.402   6.660
 2566SOL    HW2 8598   1.773   6.559   6.631
 2567SOL     OW 8599   1.319   6.352   6.983
 2567SOL    HW1 8600   1.365   6.401   0.031
 2567SOL    HW2 8601   1.229   6.392   6.968
 2568SOL     OW 8602   4.753   2.887   6.907
 2568SOL    HW1 8603   4.718   2.838   6.987
 2568SOL    HW2 8604   4.733   2.984   6.916
 2569SOL     OW 8605   2.677   0.379   3.027
 2569SOL    HW1 8606   2.664   0.472   3.059
 2569SOL    HW2 8607   2.709   0.322   3.102
 2570SOL     OW 8608   5.402   1.937   6.422
 2570SOL    HW1 8609   5.435   2.031   6.410
 2570SOL    HW2 8610   5.316   1.926   6.373
 2571SOL     OW 8611   1.331   4.262   4.692
 2571SOL    HW1 8612   1.267   4.338   4.697
 2571SOL    HW2 8613   1.299   4.195   4.625
 2572SOL     OW 8614   2.064   4.615   3.021
 2572SOL    HW1 8615   1.965   4.633   3.028
 2572SOL    HW2 8616   2.113   4.702   3.015
 2573SOL     OW 8617   0.980   0.274   0.972
 2573SOL    HW1 8618   0.926   0.287   0.889
 2573SOL    HW2 8619   1.078   0.275   0.949
 2574SOL     OW 8620   6.580   3.225   6.991
 2574SOL    HW1 8621   6.678   3.207   6.995
 2574SOL    HW2 8622   6.546   3.204   6.899
 2575SOL     OW 8623   0.183   5.420   5.764
 2575SOL    HW1 8624   0.222   5.475   5.838
 2575SOL    HW2 8625   0.249   5.415   5.688
 2576SOL     OW 8626   4.146   6.151   3.787
 2576SOL    HW1 8627   4.210   6.137   3.863
 2576SOL    HW2 8628   4.146   6.069   3.729
 2577SOL     OW 8629   2.431   4.447   2.344
 2577SOL    HW1 8630   2.385   4.362   2.318
 2577SOL    HW2 8631   2.481   4.483   2.265
 2578SOL     OW 8632   3.990   2.167   4.073
 2578SOL    HW1 8633   4.072   2.127   4.112
 2578SOL    HW2 8634   4.009   2.199   3.980
 2579SOL     OW 8635   1.054   6.382   3.800
 2579SOL    HW1 8636   1.105   6.297   3.787
 2579SOL    HW2 8637   1.113   6.452   3.839
 2580SOL     OW 8638   1.535   2.589   6.381
 2580SOL    HW1 8639   1.535   2.584   6.481
 2580SOL    HW2 8640   1.587   2.511   6.345
 2581SOL     OW 8641   3.831   0.214   5.334
 2581SOL    HW1 8642   3.763   0.233   5.263
 2581SOL    HW2 8643   3.787   0.170   5.412
 2582SOL     OW 8644   7.018   2.993   1.740
 2582SOL    HW1 8645   0.049   3.069   1.707
 2582SOL    HW2 8646   0.021   2.908   1.696
 2583SOL     OW 8647   5.734   0.185   1.009
 2583SOL    HW1 8648   5.714   0.278   0.978
 2583SOL    HW2 8649   5.651   0.129   1.001
 2584SOL     OW 8650   4.675   4.911   5.764
 2584SOL    HW1 8651   4.744   4.981   5.785
 2584SOL    HW2 8652   4.589   4.935   5.808
 2585SOL     OW 8653   3.523   5.448   6.212
 2585SOL    HW1 8654   3.509   5.463   6.310
 2585SOL    HW2 8655   3.565   5.529   6.171
 2586SOL     OW 8656   2.328   0.775   3.953
 2586SOL    HW1 8657   2.290   0.745   4.040
 2586SOL    HW2 8658   2.424   0.801   3.965
 2587SOL     OW 8659   6.765   1.290   3.770
 2587SOL    HW1 8660   6.707   1.261   3.847
 2587SOL    HW2 8661   6.860   1.263   3.788
 2588SOL     OW 8662   4.071   0.944   6.120
 2588SOL    HW1 8663   4.087   1.027   6.175
 2588SOL    HW2 8664   4.145   0.879   6.137
 2589SOL     OW 8665   1.877   6.440   0.031
 2589SOL    HW1 8666   1.837   6.504   6.991
 2589SOL    HW2 8667   1.885   6.350   7.015
 2590SOL     OW 8668   2.745   5.929   0.946
 2590SOL    HW1 8669   2.765   5.854   1.010
 2590SOL    HW2 8670   2.830   5.961   0.904
 2591SOL     OW 8671   6.029   5.632   3.958
 2591SOL    HW1 8672   6.078   5.615   4.043
 2591SOL    HW2 8673   6.093   5.663   3.887
 2592SOL     OW 8674   2.429   4.163   0.884
 2592SOL    HW1 8675   2.360   4.185   0.953
 2592SOL    HW2 8676   2.439   4.063   0.877
 2593SOL     OW 8677   3.224   4.386   0.557
 2593SOL    HW1 8678   3.143   4.329   0.545
 2593SOL    HW2 8679   3.306   4.330   0.546
 2594SOL     OW 8680   1.468   3.944   4.541
 2594SOL    HW1 8681   1.546   3.998   4.509
 2594SOL    HW2 8682   1.484   3.914   4.635
 2595SOL     OW 8683   1.570   1.216   2.703
 2595SOL    HW1 8684   1.641   1.283   2.678
 2595SOL    HW2 8685   1.509   1.203   2.625
 2596SOL     OW 8686   1.015   2.424   6.903
 2596SOL    HW1 8687   1.090   2.469   6.854
 2596SOL    HW2 8688   1.022   2.325   6.890
 2597SOL     OW 8689   6.959   6.052   6.250
 2597SOL    HW1 8690   6.935   5.955   6.251
 2597SOL    HW2 8691   6.995   6.078   6.340
 2598SOL     OW 8692   5.409   2.624   2.698
 2598SOL    HW1 8693   5.453   2.596   2.783
 2598SOL    HW2 8694   5.446   2.712   2.668
 2599SOL     OW 8695   2.823   6.178   1.567
 2599SOL    HW1 8696   2.900   6.239   1.587
 2599SOL    HW2 8697   2.846   6.084   1.593
 2600SOL     OW 8698   6.111   4.245   4.308
 2600SOL    HW1 8699   6.045   4.191   4.256
 2600SOL    HW2 8700   6.064   4.319   4.355
 2601SOL     OW 8701   6.862   1.790   3.581
 2601SOL    HW1 8702   6.804   1.711   3.603
 2601SOL    HW2 8703   6.874   1.796   3.482
 2602SOL     OW 8704   1.439   4.353   3.492
 2602SOL    HW1 8705   1.379   4.280   3.461
 2602SOL    HW2 8706   1.527   4.314   3.521
 2603SOL     OW 8707   3.199   6.527   2.918
 2603SOL    HW1 8708   3.276   6.510   2.857
 2603SOL    HW2 8709   3.232   6.568   3.003
 2604SOL     OW 8710   4.961   2.601   3.342
 2604SOL    HW1 8711   4.898   2.542   3.393
 2604SOL    HW2 8712   4.912   2.647   3.268
 2605SOL     OW 8713   2.062   4.010   1.527
 2605SOL    HW1 8714   2.159   4.013   1.549
 2605SOL    HW2 8715   2.010   4.059   1.597
 2606SOL     OW 8716   4.362   3.406   1.472
 2606SOL    HW1 8717   4.264   3.428   1.465
 2606SOL    HW2 8718   4.388   3.344   1.398
 2607SOL     OW 8719   2.707   2.252   1.326
 2607SOL    HW1 8720   2.673   2.316   1.256
 2607SOL    HW2 8721   2.710   2.160   1.288
 2608SOL     OW 8722   2.694   5.014   5.734
 2608SOL    HW1 8723   2.670   4.936   5.676
 2608SOL    HW2 8724   2.611   5.051   5.776
 2609SOL     OW 8725   6.705   2.554   0.732
 2609SOL    HW1 8726   6.660   2.644   0.733
 2609SOL    HW2 8727   6.797   2.563   0.694
 2610SOL     OW 8728   1.388   4.731   4.607
 2610SOL    HW1 8729   1.380   4.647   4.660
 2610SOL    HW2 8730   1.366   4.810   4.665
 2611SOL     OW 8731   5.105   6.901   6.753
 2611SOL    HW1 8732   5.081   6.817   6.802
 2611SOL    HW2 8733   5.051   6.976   6.789
 2612SOL     OW 8734   6.461   0.311   5.403
 2612SOL    HW1 8735   6.510   0.334   5.319
 2612SOL    HW2 8736   6.434   0.395   5.450
 2613SOL     OW 8737   0.831   6.581   6.800
 2613SOL    HW1 8738   0.762   6.565   6.870
 2613SOL    HW2 8739   0.847   6.680   6.790
 2614SOL     OW 8740   6.505   1.319   6.495
 2614SOL    HW1 8741   6.443   1.318   6.573
 2614SOL    HW2 8742   6.595   1.284   6.522
 2615SOL     OW 8743   0.706   3.451   0.239
 2615SOL    HW1 8744   0.772   3.464   0.312
 2615SOL    HW2 8745   0.745   3.485   0.153
 2616SOL     OW 8746   1.388   0.909   5.663
 2616SOL    HW1 8747   1.355   0.914   5.568
 2616SOL    HW2 8748   1.312   0.882   5.723
 2617SOL     OW 8749   5.056   0.279   0.895
 2617SOL    HW1 8750   5.038   0.355   0.957
 2617SOL    HW2 8751   5.041   0.192   0.943
 2618SOL     OW 8752   0.914   6.277   6.042
 2618SOL    HW1 8753   0.831   6.238   6.083
 2618SOL    HW2 8754   0.971   6.315   6.115
 2619SOL     OW 8755   5.509   1.158   2.262
 2619SOL    HW1 8756   5.414   1.142   2.290
 2619SOL    HW2 8757   5.571   1.111   2.326
 2620SOL     OW 8758   5.542   1.031   1.259
 2620SOL    HW1 8759   5.545   1.083   1.174
 2620SOL    HW2 8760   5.586   1.083   1.332
 2621SOL     OW 8761   1.376   6.478   1.996
 2621SOL    HW1 8762   1.467   6.472   1.955
 2621SOL    HW2 8763   1.353   6.574   2.010
 2622SOL     OW 8764   3.504   3.599   6.656
 2622SOL    HW1 8765   3.465   3.532   6.720
 2622SOL    HW2 8766   3.444   3.608   6.576
 2623SOL     OW 8767   0.851   6.502   3.645
 2623SOL    HW1 8768   0.866   6.601   3.644
 2623SOL    HW2 8769   0.926   6.457   3.695
 2624SOL     OW 8770   0.191   1.605   5.191
 2624SOL    HW1 8771   0.156   1.519   5.230
 2624SOL    HW2 8772   0.130   1.680   5.217
 2625SOL     OW 8773   2.399   4.811   6.320
 2625SOL    HW1 8774   2.347   4.728   6.336
 2625SOL    HW2 8775   2.481   4.790   6.267
 2626SOL     OW 8776   6.909   5.746   6.969
 2626SOL    HW1 8777   6.810   5.760   6.968
 2626SOL    HW2 8778   6.953   5.818   7.024
 2627SOL     OW 8779   2.120   0.540   6.096
 2627SOL    HW1 8780   2.140   0.474   6.167
 2627SOL    HW2 8781   2.025   0.529   6.065
 2628SOL     OW 8782   0.446   4.439   1.887
 2628SOL    HW1 8783   0.396   4.386   1.818
 2628SOL    HW2 8784   0.488   4.518   1.843
 2629SOL     OW 8785   3.321   3.739   2.633
 2629SOL    HW1 8786   3.242   3.794   2.664
 2629SOL    HW2 8787   3.388   3.800   2.591
 2630SOL     OW 8788   3.837   0.886   4.203
 2630SOL    HW1 8789   3.932   0.856   4.193
 2630SOL    HW2 8790   3.806   0.869   4.296
 2631SOL     OW 8791   5.904   0.702   7.004
 2631SOL    HW1 8792   5.811   0.671   7.024
 2631SOL    HW2 8793   5.957   0.626   6.965
 2632SOL     OW 8794   5.487   4.774   2.401
 2632SOL    HW1 8795   5.524   4.817   2.319
 2632SOL    HW2 8796   5.482   4.842   2.475
 2633SOL     OW 8797   0.279   3.357   6.093
 2633SOL    HW1 8798   0.342   3.351   6.170
 2633SOL    HW2 8799   0.193   3.311   6.116
 2634SOL     OW 8800   0.451   0.541   5.911
 2634SOL    HW1 8801   0.528   0.545   5.975
 2634SOL    HW2 8802   0.484   0.555   5.818
 2635SOL     OW 8803   4.857   5.571   3.426
 2635SOL    HW1 8804   4.912   5.522   3.494
 2635SOL    HW2 8805   4.807   5.505   3.370
 2636SOL     OW 8806   3.947   5.941   5.272
 2636SOL    HW1 8807   4.001   5.895   5.201
 2636SOL    HW2 8808   3.890   5.875   5.319
 2637SOL     OW 8809   0.852   0.883   3.319
 2637SOL    HW1 8810   0.882   0.971   3.282
 2637SOL    HW2 8811   0.776   0.848   3.265
 2638SOL     OW 8812   0.751   6.277   4.700
 2638SOL    HW1 8813   0.656   6.306   4.692
 2638SOL    HW2 8814   0.796   6.287   4.611
 2639SOL     OW 8815   4.343   4.801   5.316
 2639SOL    HW1 8816   4.408   4.848   5.256
 2639SOL    HW2 8817   4.251   4.838   5.300
 2640SOL     OW 8818   2.074   0.358   3.620
 2640SOL    HW1 8819   2.074   0.422   3.696
 2640SOL    HW2 8820   2.084   0.265   3.654
 2641SOL     OW 8821   6.112   2.248   6.511
 2641SOL    HW1 8822   6.205   2.235   6.477
 2641SOL    HW2 8823   6.086   2.170   6.568
 2642SOL     OW 8824   6.273   0.776   3.699
 2642SOL    HW1 8825   6.301   0.864   3.662
 2642SOL    HW2 8826   6.350   0.712   3.698
 2643SOL     OW 8827   2.098   4.611   3.686
 2643SOL    HW1 8828   2.120   4.516   3.663
 2643SOL    HW2 8829   2.089   4.664   3.602
 2644SOL     OW 8830   4.813   5.237   4.699
 2644SOL    HW1 8831   4.885   5.267   4.638
 2644SOL    HW2 8832   4.833   5.269   4.792
 2645SOL     OW 8833   5.073   5.858   3.552
 2645SOL    HW1 8834   5.112   5.923   3.617
 2645SOL    HW2 8835   5.143   5.825   3.490
 2646SOL     OW 8836   1.019   2.833   6.196
 2646SOL    HW1 8837   1.109   2.859   6.231
 2646SOL    HW2 8838   0.968   2.915   6.170
 2647SOL     OW 8839   5.199   0.300   2.263
 2647SOL    HW1 8840   5.120   0.330   2.210
 2647SOL    HW2 8841   5.271   0.269   2.200
 2648SOL     OW 8842   0.771   6.905   6.574
 2648SOL    HW1 8843   0.755   6.958   6.490
 2648SOL    HW2 8844   0.834   6.955   6.633
 2649SOL     OW 8845   5.003   1.480   3.102
 2649SOL    HW1 8846   4.986   1.499   3.198
 2649SOL    HW2 8847   4.974   1.559   3.047
 2650SOL     OW 8848   3.018   6.159   4.497
 2650SOL    HW1 8849   3.063   6.079   4.457
 2650SOL    HW2 8850   3.072   6.240   4.477
 2651SOL     OW 8851   4.606   2.173   4.614
 2651SOL    HW1 8852   4.574   2.078   4.607
 2651SOL    HW2 8853   4.529   2.235   4.598
 2652SOL     OW 8854   5.043   4.224   5.412
 2652SOL    HW1 8855   5.054   4.175   5.326
 2652SOL    HW2 8856   4.973   4.295   5.402
 2653SOL     OW 8857   2.506   5.900   6.921
 2653SOL    HW1 8858   2.432   5.959   6.889
 2653SOL    HW2 8859   2.569   5.953   6.977
 2654SOL     OW 8860   6.397   1.322   0.583
 2654SOL    HW1 8861   6.297   1.320   0.591
 2654SOL    HW2 8862   6.425   1.263   0.507
 2655SOL     OW 8863   5.172   6.833   2.569
 2655SOL    HW1 8864   5.212   6.859   2.656
 2655SOL    HW2 8865   5.183   6.907   2.503
 2656SOL     OW 8866   4.582   6.143   3.386
 2656SOL    HW1 8867   4.484   6.158   3.382
 2656SOL    HW2 8868   4.603   6.075   3.457
 2657SOL     OW 8869   0.306   3.821   6.882
 2657SOL    HW1 8870   0.307   3.859   6.975
 2657SOL    HW2 8871   0.333   3.891   6.817
 2658SOL     OW 8872   3.586   5.394   0.858
 2658SOL    HW1 8873   3.670   5.340   0.852
 2658SOL    HW2 8874   3.598   5.467   0.925
 2659SOL     OW 8875   0.061   2.064   5.246
 2659SOL    HW1 8876   0.133   2.125   5.277
 2659SOL    HW2 8877   0.064   2.056   5.146
 2660SOL     OW 8878   0.529   1.839   1.870
 2660SOL    HW1 8879   0.453   1.773   1.868
 2660SOL    HW2 8880   0.614   1.791   1.887
 2661SOL     OW 8881   1.015   1.122   1.153
 2661SOL    HW1 8882   0.952   1.048   1.176
 2661SOL    HW2 8883   1.096   1.083   1.108
 2662SOL     OW 8884   3.034   1.577   2.177
 2662SOL    HW1 8885   3.059   1.630   2.096
 2662SOL    HW2 8886   3.018   1.639   2.254
 2663SOL     OW 8887   4.184   6.994   0.325
 2663SOL    HW1 8888   4.183   6.930   0.402
 2663SOL    HW2 8889   4.272   0.015   0.322
 2664SOL     OW 8890   4.697   3.936   5.381
 2664SOL    HW1 8891   4.623   3.869   5.386
 2664SOL    HW2 8892   4.659   4.028   5.391
 2665SOL     OW 8893   2.128   3.578   4.229
 2665SOL    HW1 8894   2.125   3.493   4.282
 2665SOL    HW2 8895   2.145   3.655   4.291
 2666SOL     OW 8896   1.744   4.297   1.961
 2666SOL    HW1 8897   1.689   4.379   1.978
 2666SOL    HW2 8898   1.684   4.219   1.942
 2667SOL     OW 8899   0.037   2.983   4.953
 2667SOL    HW1 8900   0.007   3.023   5.039
 2667SOL    HW2 8901   6.984   2.965   4.894
 2668SOL     OW 8902   6.340   0.596   3.153
 2668SOL    HW1 8903   6.365   0.512   3.201
 2668SOL    HW2 8904   6.318   0.575   3.058
 2669SOL     OW 8905   2.345   0.440   0.033
 2669SOL    HW1 8906   2.312   0.504   0.102
 2669SOL    HW2 8907   2.326   0.346   0.061
 2670SOL     OW 8908   0.312   0.131   6.392
 2670SOL    HW1 8909   0.345   0.173   6.476
 2670SOL    HW2 8910   0.214   0.149   6.382
 2671SOL     OW 8911   5.327   4.678   6.225
 2671SOL    HW1 8912   5.421   4.647   6.239
 2671SOL    HW2 8913   5.272   4.601   6.193
 2672SOL     OW 8914   3.569   1.419   2.065
 2672SOL    HW1 8915   3.667   1.436   2.062
 2672SOL    HW2 8916   3.552   1.323   2.085
 2673SOL     OW 8917   3.597   0.803   2.678
 2673SOL    HW1 8918   3.659   0.737   2.721
 2673SOL    HW2 8919   3.502   0.781   2.702
 2674SOL     OW 8920   0.516   5.745   3.089
 2674SOL    HW1 8921   0.554   5.687   3.161
 2674SOL    HW2 8922   0.531   5.841   3.112
 2675SOL     OW 8923   4.870   1.351   4.014
 2675SOL    HW1 8924   4.794   1.363   4.078
 2675SOL    HW2 8925   4.946   1.306   4.061
 2676SOL     OW 8926   3.721   4.095   3.693
 2676SOL    HW1 8927   3.623   4.077   3.702
 2676SOL    HW2 8928   3.751   4.148   3.772
 2677SOL     OW 8929   2.210   5.746   1.373
 2677SOL    HW1 8930   2.173   5.680   1.439
 2677SOL    HW2 8931   2.255   5.697   1.299
 2678SOL     OW 8932   3.841   1.807   2.996
 2678SOL    HW1 8933   3.869   1.716   2.967
 2678SOL    HW2 8934   3.789   1.852   2.923
 2679SOL     OW 8935   2.196   3.001   2.521
 2679SOL    HW1 8936   2.209   2.903   2.503
 2679SOL    HW2 8937   2.205   3.051   2.435
 2680SOL     OW 8938   5.812   1.819   0.187
 2680SOL    HW1 8939   5.760   1.765   0.121
 2680SOL    HW2 8940   5.849   1.759   0.257
 2681SOL     OW 8941   1.728   2.256   3.768
 2681SOL    HW1 8942   1.809   2.259   3.709
 2681SOL    HW2 8943   1.745   2.195   3.845
 2682SOL     OW 8944   3.976   4.392   1.345
 2682SOL    HW1 8945   4.039   4.409   1.421
 2682SOL    HW2 8946   3.886   4.368   1.382
 2683SOL     OW 8947   2.365   4.215   1.965
 2683SOL    HW1 8948   2.364   4.160   2.048
 2683SOL    HW2 8949   2.274   4.213   1.922
 2684SOL     OW 8950   6.920   0.286   4.052
 2684SOL    HW1 8951   6.981   0.291   3.973
 2684SOL    HW2 8952   6.845   0.223   4.032
 2685SOL     OW 8953   0.769   6.037   5.482
 2685SOL    HW1 8954   0.694   5.987   5.523
 2685SOL    HW2 8955   0.733   6.107   5.421
 2686SOL     OW 8956   0.965   0.874   5.455
 2686SOL    HW1 8957   0.897   0.915   5.394
 2686SOL    HW2 8958   0.930   0.875   5.549
 2687SOL     OW 8959   4.004   1.833   1.321
 2687SOL    HW1 8960   4.023   1.838   1.419
 2687SOL    HW2 8961   4.076   1.882   1.271
 2688SOL     OW 8962   3.857   2.527   6.573
 2688SOL    HW1 8963   3.817   2.613   6.540
 2688SOL    HW2 8964   3.804   2.492   6.649
 2689SOL     OW 8965   1.017   4.076   3.611
 2689SOL    HW1 8966   0.974   4.114   3.693
 2689SOL    HW2 8967   1.115   4.092   3.615
 2690SOL     OW 8968   4.510   1.550   5.880
 2690SOL    HW1 8969   4.416   1.540   5.846
 2690SOL    HW2 8970   4.533   1.471   5.937
 2691SOL     OW 8971   0.032   3.493   5.501
 2691SOL    HW1 8972   0.068   3.574   5.548
 2691SOL    HW2 8973   0.016   3.420   5.568
 2692SOL     OW 8974   2.235   5.930   2.138
 2692SOL    HW1 8975   2.238   5.922   2.237
 2692SOL    HW2 8976   2.144   5.960   2.110
 2693SOL     OW 8977   1.487   6.231   3.609
 2693SOL    HW1 8978   1.506   6.293   3.685
 2693SOL    HW2 8979   1.556   6.244   3.538
 2694SOL     OW 8980   2.798   0.114   2.469
 2694SOL    HW1 8981   2.841   0.024   2.473
 2694SOL    HW2 8982   2.703   0.103   2.439
 2695SOL     OW 8983   0.460   5.409   3.687
 2695SOL    HW1 8984   0.381   5.454   3.647
 2695SOL    HW2 8985   0.525   5.385   3.615
 2696SOL     OW 8986   4.742   5.331   6.188
 2696SOL    HW1 8987   4.821   5.358   6.133
 2696SOL    HW2 8988   4.734   5.393   6.267
 2697SOL     OW 8989   4.255   2.456   6.695
 2697SOL    HW1 8990   4.198   2.423   6.620
 2697SOL    HW2 8991   4.281   2.551   6.679
 2698SOL     OW 8992   1.541   5.284   6.363
 2698SOL    HW1 8993   1.470   5.235   6.313
 2698SOL    HW2 8994   1.579   5.225   6.435
 2699SOL     OW 8995   2.759   6.255   2.033
 2699SOL    HW1 8996   2.854   6.249   2.064
 2699SOL    HW2 8997   2.731   6.167   1.994
 2700SOL     OW 8998   4.132   1.538   1.505
 2700SOL    HW1 8999   4.098   1.626   1.538
 2700SOL    HW2 9000   4.055   1.479   1.479
 2701SOL     OW 9001   4.806   3.091   4.721
 2701SOL    HW1 9002   4.804   2.992   4.705
 2701SOL    HW2 9003   4.800   3.109   4.819
 2702SOL     OW 9004   2.552   1.012   4.857
 2702SOL    HW1 9005   2.622   1.053   4.797
 2702SOL    HW2 9006   2.554   1.058   4.946
 2703SOL     OW 9007   2.559   6.541   2.297
 2703SOL    HW1 9008   2.592   6.448   2.310
 2703SOL    HW2 9009   2.578   6.596   2.378
 2704SOL     OW 9010   5.032   0.587   3.183
 2704SOL    HW1 9011   4.982   0.501   3.177
 2704SOL    HW2 9012   5.128   0.572   3.162
 2705SOL     OW 9013   0.463   0.244   5.469
 2705SOL    HW1 9014   0.453   0.172   5.399
 2705SOL    HW2 9015   0.476   0.201   5.558
 2706SOL     OW 9016   6.614   3.578   3.310
 2706SOL    HW1 9017   6.633   3.579   3.408
 2706SOL    HW2 9018   6.697   3.550   3.261
 2707SOL     OW 9019   4.311   1.177   3.278
 2707SOL    HW1 9020   4.241   1.248   3.279
 2707SOL    HW2 9021   4.299   1.120   3.196
 2708SOL     OW 9022   5.359   3.586   5.851
 2708SOL    HW1 9023   5.334   3.569   5.756
 2708SOL    HW2 9024   5.431   3.656   5.855
 2709SOL     OW 9025   5.452   1.524   5.822
 2709SOL    HW1 9026   5.443   1.561   5.729
 2709SOL    HW2 9027   5.422   1.593   5.888
 2710SOL     OW 9028   0.526   2.565   4.972
 2710SOL    HW1 9029   0.618   2.601   4.957
 2710SOL    HW2 9030   0.461   2.616   4.916
 2711SOL     OW 9031   3.917   1.186   1.934
 2711SOL    HW1 9032   3.979   1.239   1.876
 2711SOL    HW2 9033   3.863   1.248   1.990
 2712SOL     OW 9034   4.356   6.263   2.147
 2712SOL    HW1 9035   4.377   6.256   2.245
 2712SOL    HW2 9036   4.273   6.317   2.134
 2713SOL     OW 9037   3.826   5.032   5.328
 2713SOL    HW1 9038   3.904   4.971   5.341
 2713SOL    HW2 9039   3.844   5.094   5.252
 2714SOL     OW 9040   3.300   4.748   6.684
 2714SOL    HW1 9041   3.235   4.761   6.758
 2714SOL    HW2 9042   3.357   4.830   6.674
 2715SOL     OW 9043   4.108   0.266   6.548
 2715SOL    HW1 9044   4.207   0.265   6.562
 2715SOL    HW2 9045   4.088   0.278   6.450
 2716SOL     OW 9046   4.024   1.421   2.553
 2716SOL    HW1 9047   3.941   1.472   2.533
 2716SOL    HW2 9048   4.002   1.338   2.604
 2717SOL     OW 9049   1.083   1.782   2.077
 2717SOL    HW1 9050   1.181   1.767   2.092
 2717SOL    HW2 9051   1.069   1.868   2.028
 2718SOL     OW 9052   0.159   1.078   5.615
 2718SOL    HW1 9053   0.185   1.170   5.645
 2718SOL    HW2 9054   0.199   1.010   5.678
 2719SOL     OW 9055   1.394   4.975   3.018
 2719SOL    HW1 9056   1.423   4.896   2.964
 2719SOL    HW2 9057   1.332   5.032   2.964
 2720SOL     OW 9058   1.788   6.438   6.098
 2720SOL    HW1 9059   1.826   6.435   6.190
 2720SOL    HW2 9060   1.835   6.372   6.039
 2721SOL     OW 9061   2.804   6.607   1.815
 2721SOL    HW1 9062   2.757   6.584   1.900
 2721SOL    HW2 9063   2.738   6.640   1.748
 2722SOL     OW 9064   3.860   5.652   6.419
 2722SOL    HW1 9065   3.862   5.587   6.342
 2722SOL    HW2 9066   3.892   5.606   6.502
 2723SOL     OW 9067   3.352   6.264   6.630
 2723SOL    HW1 9068   3.375   6.172   6.664
 2723SOL    HW2 9069   3.284   6.256   6.558
 2724SOL     OW 9070   0.308   6.174   0.732
 2724SOL    HW1 9071   0.248   6.250   0.760
 2724SOL    HW2 9072   0.255   6.108   0.680
 2725SOL     OW 9073   5.897   4.162   4.573
 2725SOL    HW1 9074   5.857   4.210   4.494
 2725SOL    HW2 9075   5.827   4.105   4.615
 2726SOL     OW 9076   6.657   1.869   2.199
 2726SOL    HW1 9077   6.565   1.888   2.166
 2726SOL    HW2 9078   6.714   1.839   2.123
 2727SOL     OW 9079   1.610   5.201   3.736
 2727SOL    HW1 9080   1.590   5.108   3.707
 2727SOL    HW2 9081   1.671   5.244   3.669
 2728SOL     OW 9082   4.787   5.656   5.964
 2728SOL    HW1 9083   4.704   5.612   5.929
 2728SOL    HW2 9084   4.767   5.752   5.983
 2729SOL     OW 9085   5.627   0.854   6.523
 2729SOL    HW1 9086   5.613   0.882   6.618
 2729SOL    HW2 9087   5.719   0.817   6.512
 2730SOL     OW 9088   1.372   5.622   2.446
 2730SOL    HW1 9089   1.430   5.552   2.404
 2730SOL    HW2 9090   1.426   5.702   2.470
 2731SOL     OW 9091   2.920   3.694   4.113
 2731SOL    HW1 9092   2.984   3.630   4.156
 2731SOL    HW2 9093   2.896   3.766   4.179
 2732SOL     OW 9094   5.658   0.562   2.061
 2732SOL    HW1 9095   5.738   0.622   2.072
 2732SOL    HW2 9096   5.664   0.514   1.974
 2733SOL     OW 9097   0.917   5.808   6.978
 2733SOL    HW1 9098   0.849   5.855   0.008
 2733SOL    HW2 9099   0.966   5.741   0.009
 2734SOL     OW 9100   3.545   6.018   2.673
 2734SOL    HW1 9101   3.478   6.091   2.687
 2734SOL    HW2 9102   3.499   5.938   2.636
 2735SOL     OW 9103   0.619   1.093   1.361
 2735SOL    HW1 9104   0.639   1.184   1.398
 2735SOL    HW2 9105   0.521   1.078   1.361
 2736SOL     OW 9106   5.081   4.096   2.964
 2736SOL    HW1 9107   5.161   4.064   3.013
 2736SOL    HW2 9108   5.105   4.115   2.868
 2737SOL     OW 9109   3.046   0.638   5.447
 2737SOL    HW1 9110   3.079   0.731   5.432
 2737SOL    HW2 9111   2.949   0.633   5.421
 2738SOL     OW 9112   5.388   5.921   1.491
 2738SOL    HW1 9113   5.448   5.850   1.454
 2738SOL    HW2 9114   5.293   5.890   1.487
 2739SOL     OW 9115   6.734   5.347   1.415
 2739SOL    HW1 9116   6.763   5.260   1.373
 2739SOL    HW2 9117   6.808   5.383   1.471
 2740SOL     OW 9118   0.241   5.918   3.028
 2740SOL    HW1 9119   0.293   5.851   3.080
 2740SOL    HW2 9120   0.214   5.878   2.940
 2741SOL     OW 9121   1.189   0.315   5.590
 2741SOL    HW1 9122   1.178   0.339   5.494
 2741SOL    HW2 9123   1.161   0.220   5.604
 2742SOL     OW 9124   3.176   5.684   1.922
 2742SOL    HW1 9125   3.238   5.646   1.854
 2742SOL    HW2 9126   3.131   5.609   1.972
 2743SOL     OW 9127   5.595   1.816   2.011
 2743SOL    HW1 9128   5.512   1.826   2.066
 2743SOL    HW2 9129   5.571   1.818   1.914
 2744SOL     OW 9130   3.187   4.007   2.575
 2744SOL    HW1 9131   3.142   4.004   2.664
 2744SOL    HW2 9132   3.119   3.996   2.502
 2745SOL     OW 9133   0.449   6.115   0.249
 2745SOL    HW1 9134   0.528   6.091   0.306
 2745SOL    HW2 9135   0.481   6.145   0.159
 2746SOL     OW 9136   1.611   1.177   3.328
 2746SOL    HW1 9137   1.595   1.079   3.315
 2746SOL    HW2 9138   1.613   1.223   3.239
 2747SOL     OW 9139   3.757   4.874   0.838
 2747SOL    HW1 9140   3.843   4.851   0.883
 2747SOL    HW2 9141   3.682   4.870   0.904
 2748SOL     OW 9142   4.438   0.080   0.403
 2748SOL    HW1 9143   4.427   0.033   0.490
 2748SOL    HW2 9144   4.502   0.156   0.414
 2749SOL     OW 9145   3.088   1.722   0.529
 2749SOL    HW1 9146   3.139   1.636   0.519
 2749SOL    HW2 9147   3.007   1.706   0.584
 2750SOL     OW 9148   3.269   5.481   2.249
 2750SOL    HW1 9149   3.273   5.581   2.256
 2750SOL    HW2 9150   3.362   5.444   2.244
 2751SOL     OW 9151   5.911   5.265   1.103
 2751SOL    HW1 9152   5.952   5.176   1.085
 2751SOL    HW2 9153   5.813   5.254   1.121
 2752SOL     OW 9154   4.238   5.074   0.081
 2752SOL    HW1 9155   4.251   5.056   0.178
 2752SOL    HW2 9156   4.327   5.085   0.037
 2753SOL     OW 9157   5.599   5.518   5.359
 2753SOL    HW1 9158   5.570   5.423   5.348
 2753SOL    HW2 9159   5.647   5.529   5.446
 2754SOL     OW 9160   1.179   0.057   5.942
 2754SOL    HW1 9161   1.125   0.112   6.006
 2754SOL    HW2 9162   1.270   0.097   5.933
 2755SOL     OW 9163   3.381   0.750   2.306
 2755SOL    HW1 9164   3.317   0.780   2.235
 2755SOL    HW2 9165   3.418   0.829   2.354
 2756SOL     OW 9166   4.762   5.891   0.268
 2756SOL    HW1 9167   4.749   5.842   0.354
 2756SOL    HW2 9168   4.705   5.974   0.268
 2757SOL     OW 9169   0.154   5.022   1.410
 2757SOL    HW1 9170   0.080   5.072   1.456
 2757SOL    HW2 9171   0.124   4.930   1.388
 2758SOL     OW 9172   3.906   0.485   6.112
 2758SOL    HW1 9173   3.963   0.492   6.031
 2758SOL    HW2 9174   3.881   0.577   6.143
 2759SOL     OW 9175   4.809   5.439   4.935
 2759SOL    HW1 9176   4.820   5.386   5.020
 2759SOL    HW2 9177   4.897   5.476   4.907
 2760SOL     OW 9178   2.412   6.526   3.947
 2760SOL    HW1 9179   2.353   6.454   3.910
 2760SOL    HW2 9180   2.480   6.486   4.008
 2761SOL     OW 9181   1.974   5.175   3.768
 2761SOL    HW1 9182   2.002   5.263   3.807
 2761SOL    HW2 9183   1.894   5.189   3.710
 2762SOL     OW 9184   1.251   0.131   4.974
 2762SOL    HW1 9185   1.170   0.077   4.999
 2762SOL    HW2 9186   1.242   0.223   5.012
 2763SOL     OW 9187   4.971   2.441   2.045
 2763SOL    HW1 9188   4.977   2.534   2.010
 2763SOL    HW2 9189   5.061   2.412   2.077
 2764SOL     OW 9190   6.696   1.166   2.086
 2764SOL    HW1 9191   6.698   1.164   1.987
 2764SOL    HW2 9192   6.761   1.099   2.122
 2765SOL     OW 9193   5.152   2.045   2.250
 2765SOL    HW1 9194   5.135   2.098   2.333
 2765SOL    HW2 9195   5.135   2.102   2.170
 2766SOL     OW 9196   6.082   0.209   2.792
 2766SOL    HW1 9197   5.998   0.177   2.748
 2766SOL    HW2 9198   6.106   0.146   2.866
 2767SOL     OW 9199   6.448   4.331   5.533
 2767SOL    HW1 9200   6.464   4.348   5.630
 2767SOL    HW2 9201   6.375   4.264   5.522
 2768SOL     OW 9202   5.899   1.445   6.642
 2768SOL    HW1 9203   5.830   1.373   6.643
 2768SOL    HW2 9204   5.881   1.507   6.565
 2769SOL     OW 9205   0.914   4.458   1.292
 2769SOL    HW1 9206   0.921   4.390   1.365
 2769SOL    HW2 9207   1.002   4.503   1.279
 2770SOL     OW 9208   6.067   6.098   1.838
 2770SOL    HW1 9209   6.106   6.129   1.752
 2770SOL    HW2 9210   6.043   6.001   1.832
 2771SOL     OW 9211   4.810   0.620   1.278
 2771SOL    HW1 9212   4.808   0.687   1.352
 2771SOL    HW2 9213   4.721   0.616   1.234
 2772SOL     OW 9214   3.387   2.851   6.296
 2772SOL    HW1 9215   3.375   2.789   6.374
 2772SOL    HW2 9216   3.299   2.867   6.252
 2773SOL     OW 9217   3.927   4.374   0.265
 2773SOL    HW1 9218   3.958   4.303   0.328
 2773SOL    HW2 9219   4.001   4.397   0.201
 2774SOL     OW 9220   5.532   3.247   2.550
 2774SOL    HW1 9221   5.451   3.303   2.534
 2774SOL    HW2 9222   5.614   3.302   2.535
 2775SOL     OW 9223   6.936   6.810   2.440
 2775SOL    HW1 9224   6.941   6.750   2.360
 2775SOL    HW2 9225   0.003   6.837   2.467
 2776SOL     OW 9226   3.421   5.929   5.716
 2776SOL    HW1 9227   3.457   5.887   5.633
 2776SOL    HW2 9228   3.497   5.964   5.772
 2777SOL     OW 9229   3.191   0.754   3.260
 2777SOL    HW1 9230   3.215   0.831   3.201
 2777SOL    HW2 9231   3.223   0.772   3.353
 2778SOL     OW 9232   2.285   1.961   4.550
 2778SOL    HW1 9233   2.373   1.953   4.597
 2778SOL    HW2 9234   2.296   2.018   4.468
 2779SOL     OW 9235   5.837   0.733   0.466
 2779SOL    HW1 9236   5.818   0.772   0.376
 2779SOL    HW2 9237   5.921   0.680   0.463
 2780SOL     OW 9238   4.432   5.612   0.394
 2780SOL    HW1 9239   4.428   5.605   0.294
 2780SOL    HW2 9240   4.508   5.555   0.427
 2781SOL     OW 9241   5.046   4.310   0.451
 2781SOL    HW1 9242   5.005   4.285   0.538
 2781SOL    HW2 9243   4.974   4.333   0.385
 2782SOL     OW 9244   2.604   2.086   6.263
 2782SOL    HW1 9245   2.603   2.006   6.323
 2782SOL    HW2 9246   2.628   2.167   6.316
 2783SOL     OW 9247   0.209   4.127   5.804
 2783SOL    HW1 9248   0.167   4.210   5.841
 2783SOL    HW2 9249   0.305   4.143   5.786
 2784SOL     OW 9250   1.861   2.196   2.084
 2784SOL    HW1 9251   1.960   2.190   2.092
 2784SOL    HW2 9252   1.832   2.166   1.993
 2785SOL     OW 9253   6.184   1.397   1.697
 2785SOL    HW1 9254   6.281   1.385   1.714
 2785SOL    HW2 9255   6.162   1.366   1.604
 2786SOL     OW 9256   3.364   0.015   0.656
 2786SOL    HW1 9257   3.283   0.073   0.647
 2786SOL    HW2 9258   3.444   0.064   0.619
 2787SOL     OW 9259   1.947   2.589   5.602
 2787SOL    HW1 9260   1.964   2.680   5.640
 2787SOL    HW2 9261   1.898   2.598   5.516
 2788SOL     OW 9262   0.852   3.477   0.693
 2788SOL    HW1 9263   0.945   3.478   0.731
 2788SOL    HW2 9264   0.787   3.502   0.765
 2789SOL     OW 9265   6.870   2.052   4.605
 2789SOL    HW1 9266   6.912   2.111   4.674
 2789SOL    HW2 9267   6.899   2.081   4.514
 2790SOL     OW 9268   4.306   5.919   3.580
 2790SOL    HW1 9269   4.208   5.916   3.601
 2790SOL    HW2 9270   4.320   5.962   3.491
 2791SOL     OW 9271   2.364   2.755   3.386
 2791SOL    HW1 9272   2.299   2.717   3.320
 2791SOL    HW2 9273   2.353   2.855   3.389
 2792SOL     OW 9274   1.222   2.660   4.906
 2792SOL    HW1 9275   1.223   2.630   4.811
 2792SOL    HW2 9276   1.130   2.652   4.943
 2793SOL     OW 9277   5.569   0.996   3.844
 2793SOL    HW1 9278   5.610   1.087   3.849
 2793SOL    HW2 9279   5.508   0.991   3.765
 2794SOL     OW 9280   0.629   0.792   0.741
 2794SOL    HW1 9281   0.723   0.810   0.712
 2794SOL    HW2 9282   0.615   0.829   0.833
 2795SOL     OW 9283   2.112   4.233   1.828
 2795SOL    HW1 9284   2.033   4.178   1.800
 2795SOL    HW2 9285   2.082   4.303   1.893
 2796SOL     OW 9286   5.152   3.992   2.531
 2796SOL    HW1 9287   5.074   3.968   2.474
 2796SOL    HW2 9288   5.220   4.042   2.477
 2797SOL     OW 9289   4.321   4.774   4.967
 2797SOL    HW1 9290   4.246   4.796   5.030
 2797SOL    HW2 9291   4.333   4.674   4.963
 2798SOL     OW 9292   1.522   3.592   4.146
 2798SOL    HW1 9293   1.477   3.654   4.211
 2798SOL    HW2 9294   1.528   3.501   4.186
 2799SOL     OW 9295   6.576   5.360   5.534
 2799SOL    HW1 9296   6.490   5.310   5.522
 2799SOL    HW2 9297   6.614   5.338   5.623
 2800SOL     OW 9298   3.111   2.855   6.897
 2800SOL    HW1 9299   3.075   2.806   6.818
 2800SOL    HW2 9300   3.189   2.911   6.870
 2801SOL     OW 9301   4.519   5.837   2.236
 2801SOL    HW1 9302   4.531   5.785   2.320
 2801SOL    HW2 9303   4.603   5.887   2.216
 2802SOL     OW 9304   5.426   0.742   6.033
 2802SOL    HW1 9305   5.443   0.819   5.972
 2802SOL    HW2 9306   5.363   0.770   6.105
 2803SOL     OW 9307   2.004   5.757   6.164
 2803SOL    HW1 9308   2.035   5.694   6.093
 2803SOL    HW2 9309   2.003   5.850   6.128
 2804SOL     OW 9310   6.934   4.613   2.818
 2804SOL    HW1 9311   6.981   4.691   2.778
 2804SOL    HW2 9312   6.837   4.616   2.793
 2805SOL     OW 9313   5.281   4.184   6.440
 2805SOL    HW1 9314   5.222   4.113   6.403
 2805SOL    HW2 9315   5.353   4.142   6.495
 2806SOL     OW 9316   0.025   5.612   3.072
 2806SOL    HW1 9317   0.111   5.663   3.077
 2806SOL    HW2 9318   7.020   5.589   3.165
 2807SOL     OW 9319   4.194   4.843   3.736
 2807SOL    HW1 9320   4.116   4.875   3.789
 2807SOL    HW2 9321   4.169   4.834   3.640
 2808SOL     OW 9322   4.761   6.332   4.074
 2808SOL    HW1 9323   4.668   6.345   4.039
 2808SOL    HW2 9324   4.812   6.273   4.012
 2809SOL     OW 9325   4.981   3.214   0.826
 2809SOL    HW1 9326   4.968   3.304   0.784
 2809SOL    HW2 9327   4.896   3.185   0.870
 2810SOL     OW 9328   1.694   0.621   5.439
 2810SOL    HW1 9329   1.728   0.591   5.350
 2810SOL    HW2 9330   1.606   0.668   5.426
 2811SOL     OW 9331   0.151   1.155   4.087
 2811SOL    HW1 9332   0.180   1.096   4.163
 2811SOL    HW2 9333   0.108   1.100   4.016
 2812SOL     OW 9334   5.248   3.583   2.713
 2812SOL    HW1 9335   5.336   3.538   2.700
 2812SOL    HW2 9336   5.210   3.610   2.625
 2813SOL     OW 9337   6.192   1.121   6.214
 2813SOL    HW1 9338   6.226   1.077   6.298
 2813SOL    HW2 9339   6.185   1.052   6.142
 2814SOL     OW 9340   5.079   4.171   5.107
 2814SOL    HW1 9341   5.154   4.146   5.046
 2814SOL    HW2 9342   5.091   4.265   5.138
 2815SOL     OW 9343   0.359   1.193   5.312
 2815SOL    HW1 9344   0.451   1.204   5.349
 2815SOL    HW2 9345   0.360   1.127   5.238
 2816SOL     OW 9346   5.696   6.187   3.608
 2816SOL    HW1 9347   5.689   6.088   3.611
 2816SOL    HW2 9348   5.772   6.214   3.549
 2817SOL     OW 9349   1.034   1.875   1.153
 2817SOL    HW1 9350   0.977   1.957   1.159
 2817SOL    HW2 9351   1.035   1.829   1.242
 2818SOL     OW 9352   6.952   4.367   5.304
 2818SOL    HW1 9353   6.864   4.327   5.280
 2818SOL    HW2 9354   6.949   4.466   5.289
 2819SOL     OW 9355   6.433   2.891   0.377
 2819SOL    HW1 9356   6.403   2.815   0.320
 2819SOL    HW2 9357   6.380   2.973   0.356
 2820SOL     OW 9358   6.634   2.744   4.366
 2820SOL    HW1 9359   6.674   2.677   4.429
 2820SOL    HW2 9360   6.599   2.822   4.419
 2821SOL     OW 9361   1.340   3.410   4.655
 2821SOL    HW1 9362   1.305   3.425   4.562
 2821SOL    HW2 9363   1.400   3.330   4.656
 2822SOL     OW 9364   3.294   1.654   6.780
 2822SOL    HW1 9365   3.237   1.643   6.699
 2822SOL    HW2 9366   3.245   1.708   6.848
 2823SOL     OW 9367   2.144   6.438   3.374
 2823SOL    HW1 9368   2.167   6.518   3.430
 2823SOL    HW2 9369   2.126   6.467   3.280
 2824SOL     OW 9370   2.976   1.747   4.605
 2824SOL    HW1 9371   2.988   1.846   4.599
 2824SOL    HW2 9372   3.064   1.702   4.588
 2825SOL     OW 9373   6.686   6.375   1.032
 2825SOL    HW1 9374   6.641   6.384   1.121
 2825SOL    HW2 9375   6.785   6.374   1.044
 2826SOL     OW 9376   4.870   2.289   4.563
 2826SOL    HW1 9377   4.797   2.222   4.578
 2826SOL    HW2 9378   4.886   2.301   4.465
 2827SOL     OW 9379   5.725   0.804   5.623
 2827SOL    HW1 9380   5.745   0.887   5.571
 2827SOL    HW2 9381   5.805   0.781   5.679
 2828SOL     OW 9382   3.200   2.248   6.118
 2828SOL    HW1 9383   3.219   2.210   6.209
 2828SOL    HW2 9384   3.260   2.206   6.051
 2829SOL     OW 9385   1.785   6.994   6.829
 2829SOL    HW1 9386   1.817   6.922   6.891
 2829SOL    HW2 9387   1.839   6.991   6.744
 2830SOL     OW 9388   3.588   3.247   6.727
 2830SOL    HW1 9389   3.534   3.165   6.743
 2830SOL    HW2 9390   3.535   3.328   6.753
 2831SOL     OW 9391   5.978   5.812   4.254
 2831SOL    HW1 9392   6.034   5.751   4.198
 2831SOL    HW2 9393   5.978   5.780   4.349
 2832SOL     OW 9394   0.514   0.782   1.696
 2832SOL    HW1 9395   0.494   0.712   1.764
 2832SOL    HW2 9396   0.603   0.822   1.715
 2833SOL     OW 9397   5.938   2.984   2.024
 2833SOL    HW1 9398   5.907   3.075   1.996
 2833SOL    HW2 9399   5.900   2.961   2.113
 2834SOL     OW 9400   3.467   0.846   6.196
 2834SOL    HW1 9401   3.548   0.838   6.137
 2834SOL    HW2 9402   3.451   0.942   6.218
 2835SOL     OW 9403   0.964   6.585   2.900
 2835SOL    HW1 9404   1.020   6.598   2.819
 2835SOL    HW2 9405   1.021   6.552   2.976
 2836SOL     OW 9406   6.639   0.849   0.680
 2836SOL    HW1 9407   6.689   0.766   0.704
 2836SOL    HW2 9408   6.599   0.839   0.589
 2837SOL     OW 9409   5.788   3.328   3.461
 2837SOL    HW1 9410   5.707   3.270   3.450
 2837SOL    HW2 9411   5.842   3.296   3.538
 2838SOL     OW 9412   2.731   5.106   3.605
 2838SOL    HW1 9413   2.830   5.106   3.593
 2838SOL    HW2 9414   2.690   5.173   3.543
 2839SOL     OW 9415   4.980   2.106   1.166
 2839SOL    HW1 9416   4.895   2.105   1.217
 2839SOL    HW2 9417   4.972   2.046   1.086
 2840SOL     OW 9418   6.959   1.805   5.627
 2840SOL    HW1 9419   0.007   1.759   5.577
 2840SOL    HW2 9420   6.933   1.889   5.579
 2841SOL     OW 9421   0.651   6.261   1.238
 2841SOL    HW1 9422   0.579   6.192   1.234
 2841SOL    HW2 9423   0.638   6.327   1.164
 2842SOL     OW 9424   6.201   3.346   3.523
 2842SOL    HW1 9425   6.170   3.317   3.433
 2842SOL    HW2 9426   6.231   3.266   3.576
 2843SOL     OW 9427   4.137   2.006   4.722
 2843SOL    HW1 9428   4.155   1.984   4.818
 2843SOL    HW2 9429   4.168   2.099   4.704
 2844SOL     OW 9430   6.834   3.745   6.050
 2844SOL    HW1 9431   6.900   3.673   6.027
 2844SOL    HW2 9432   6.754   3.705   6.094
 2845SOL     OW 9433   6.284   4.324   5.153
 2845SOL    HW1 9434   6.196   4.309   5.108
 2845SOL    HW2 9435   6.269   4.353   5.247
 2846SOL     OW 9436   4.632   1.956   6.395
 2846SOL    HW1 9437   4.654   1.902   6.314
 2846SOL    HW2 9438   4.542   1.929   6.430
 2847SOL     OW 9439   4.816   4.570   4.015
 2847SOL    HW1 9440   4.856   4.602   3.929
 2847SOL    HW2 9441   4.742   4.631   4.042
 2848SOL     OW 9442   0.907   5.652   5.028
 2848SOL    HW1 9443   0.832   5.627   5.090
 2848SOL    HW2 9444   0.995   5.629   5.071
 2849SOL     OW 9445   2.069   2.523   1.727
 2849SOL    HW1 9446   2.129   2.551   1.652
 2849SOL    HW2 9447   2.115   2.541   1.814
 2850SOL     OW 9448   3.626   1.219   0.053
 2850SOL    HW1 9449   3.660   1.133   0.091
 2850SOL    HW2 9450   3.596   1.204   6.985
 2851SOL     OW 9451   2.354   4.586   6.513
 2851SOL    HW1 9452   2.427   4.653   6.524
 2851SOL    HW2 9453   2.341   4.535   6.598
 2852SOL     OW 9454   0.576   3.561   6.330
 2852SOL    HW1 9455   0.504   3.622   6.363
 2852SOL    HW2 9456   0.650   3.557   6.397
 2853SOL     OW 9457   3.344   3.419   1.339
 2853SOL    HW1 9458   3.256   3.449   1.378
 2853SOL    HW2 9459   3.357   3.322   1.357
 2854SOL     OW 9460   1.744   1.334   3.509
 2854SOL    HW1 9461   1.696   1.301   3.590
 2854SOL    HW2 9462   1.736   1.267   3.435
 2855SOL     OW 9463   2.919   1.071   5.169
 2855SOL    HW1 9464   3.004   1.060   5.117
 2855SOL    HW2 9465   2.861   0.991   5.154
 2856SOL     OW 9466   2.502   2.091   4.892
 2856SOL    HW1 9467   2.530   2.015   4.834
 2856SOL    HW2 9468   2.413   2.071   4.934
 2857SOL     OW 9469   2.859   3.410   2.788
 2857SOL    HW1 9470   2.841   3.485   2.723
 2857SOL    HW2 9471   2.872   3.325   2.737
 2858SOL     OW 9472   6.170   3.469   2.929
 2858SOL    HW1 9473   6.158   3.414   2.846
 2858SOL    HW2 9474   6.264   3.503   2.933
 2859SOL     OW 9475   6.150   6.669   0.321
 2859SOL    HW1 9476   6.070   6.728   0.333
 2859SOL    HW2 9477   6.218   6.716   0.266
 2860SOL     OW 9478   4.331   1.559   1.747
 2860SOL    HW1 9479   4.293   1.584   1.658
 2860SOL    HW2 9480   4.314   1.632   1.813
 2861SOL     OW 9481   3.534   5.810   5.510
 2861SOL    HW1 9482   3.576   5.726   5.544
 2861SOL    HW2 9483   3.470   5.788   5.437
 2862SOL     OW 9484   5.526   0.654   4.469
 2862SOL    HW1 9485   5.500   0.745   4.437
 2862SOL    HW2 9486   5.603   0.661   4.532
 2863SOL     OW 9487   6.233   1.738   6.831
 2863SOL    HW1 9488   6.332   1.739   6.814
 2863SOL    HW2 9489   6.216   1.726   6.929
 2864SOL     OW 9490   3.085   1.177   0.028
 2864SOL    HW1 9491   3.089   1.084   0.064
 2864SOL    HW2 9492   3.030   1.178   6.971
 2865SOL     OW 9493   4.717   4.983   4.792
 2865SOL    HW1 9494   4.676   5.044   4.859
 2865SOL    HW2 9495   4.817   4.995   4.792
 2866SOL     OW 9496   0.237   6.639   6.568
 2866SOL    HW1 9497   0.150   6.595   6.547
 2866SOL    HW2 9498   0.240   6.729   6.525
 2867SOL     OW 9499   6.366   4.176   3.629
 2867SOL    HW1 9500   6.389   4.272   3.648
 2867SOL    HW2 9501   6.281   4.172   3.577
 2868SOL     OW 9502   1.426   4.803   5.870
 2868SOL    HW1 9503   1.423   4.814   5.970
 2868SOL    HW2 9504   1.522   4.795   5.841
 2869SOL     OW 9505   6.223   1.825   2.559
 2869SOL    HW1 9506   6.127   1.799   2.571
 2869SOL    HW2 9507   6.269   1.758   2.500
 2870SOL     OW 9508   4.902   1.902   2.606
 2870SOL    HW1 9509   5.001   1.889   2.606
 2870SOL    HW2 9510   4.873   1.937   2.695
 2871SOL     OW 9511   1.572   2.056   5.780
 2871SOL    HW1 9512   1.475   2.032   5.777
 2871SOL    HW2 9513   1.627   1.974   5.794
 2872SOL     OW 9514   2.612   6.398   4.114
 2872SOL    HW1 9515   2.698   6.389   4.065
 2872SOL    HW2 9516   2.584   6.309   4.150
 2873SOL     OW 9517   6.967   5.358   1.578
 2873SOL    HW1 9518   6.958   5.393   1.671
 2873SOL    HW2 9519   0.038   5.347   1.555
 2874SOL     OW 9520   6.001   2.066   2.082
 2874SOL    HW1 9521   5.903   2.063   2.062
 2874SOL    HW2 9522   6.019   2.022   2.170
 2875SOL     OW 9523   3.577   5.128   0.305
 2875SOL    HW1 9524   3.579   5.219   0.263
 2875SOL    HW2 9525   3.629   5.129   0.390
 2876SOL     OW 9526   6.873   1.400   2.131
 2876SOL    HW1 9527   6.789   1.346   2.125
 2876SOL    HW2 9528   6.880   1.458   2.050
 2877SOL     OW 9529   2.518   3.254   6.204
 2877SOL    HW1 9530   2.598   3.299   6.243
 2877SOL    HW2 9531   2.435   3.297   6.240
 2878SOL     OW 9532   3.390   4.489   6.779
 2878SOL    HW1 9533   3.400   4.579   6.737
 2878SOL    HW2 9534   3.323   4.494   6.853
 2879SOL     OW 9535   5.323   5.058   6.792
 2879SOL    HW1 9536   5.350   4.975   6.840
 2879SOL    HW2 9537   5.253   5.036   6.725
 2880SOL     OW 9538   1.190   6.216   1.535
 2880SOL    HW1 9539   1.269   6.180   1.485
 2880SOL    HW2 9540   1.148   6.290   1.483
 2881SOL     OW 9541   0.031   0.093   0.406
 2881SOL    HW1 9542   6.982   0.150   0.439
 2881SOL    HW2 9543   0.113   0.112   0.459
 2882SOL     OW 9544   6.763   2.990   3.314
 2882SOL    HW1 9545   6.813   3.066   3.272
 2882SOL    HW2 9546   6.681   2.971   3.260
 2883SOL     OW 9547   4.638   6.898   2.358
 2883SOL    HW1 9548   4.718   6.908   2.300
 2883SOL    HW2 9549   4.591   6.986   2.366
 2884SOL     OW 9550   1.299   5.927   3.042
 2884SOL    HW1 9551   1.362   6.002   3.020
 2884SOL    HW2 9552   1.328   5.882   3.126
 2885SOL     OW 9553   0.395   2.168   3.519
 2885SOL    HW1 9554   0.370   2.265   3.529
 2885SOL    HW2 9555   0.453   2.157   3.438
 2886SOL     OW 9556   2.357   2.789   6.143
 2886SOL    HW1 9557   2.323   2.881   6.126
 2886SOL    HW2 9558   2.348   2.734   6.060
 2887SOL     OW 9559   1.848   0.936   4.731
 2887SOL    HW1 9560   1.945   0.937   4.708
 2887SOL    HW2 9561   1.806   1.022   4.701
 2888SOL     OW 9562   6.718   5.096   6.709
 2888SOL    HW1 9563   6.668   5.120   6.792
 2888SOL    HW2 9564   6.744   5.180   6.661
 2889SOL     OW 9565   0.861   0.045   2.436
 2889SOL    HW1 9566   0.915   7.002   2.388
 2889SOL    HW2 9567   0.815   0.104   2.369
 2890SOL     OW 9568   3.709   0.188   0.904
 2890SOL    HW1 9569   3.652   0.264   0.935
 2890SOL    HW2 9570   3.707   0.183   0.804
 2891SOL     OW 9571   2.649   5.202   3.897
 2891SOL    HW1 9572   2.659   5.157   3.808
 2891SOL    HW2 9573   2.738   5.204   3.943
 2892SOL     OW 9574   4.574   4.352   5.647
 2892SOL    HW1 9575   4.562   4.296   5.729
 2892SOL    HW2 9576   4.569   4.449   5.672
 2893SOL     OW 9577   2.936   0.501   6.304
 2893SOL    HW1 9578   3.001   0.576   6.295
 2893SOL    HW2 9579   2.912   0.466   6.213
 2894SOL     OW 9580   3.303   3.389   0.721
 2894SOL    HW1 9581   3.371   3.351   0.784
 2894SOL    HW2 9582   3.347   3.411   0.634
 2895SOL     OW 9583   3.188   3.802   6.267
 2895SOL    HW1 9584   3.147   3.887   6.302
 2895SOL    HW2 9585   3.149   3.781   6.178
 2896SOL     OW 9586   2.160   5.476   1.296
 2896SOL    HW1 9587   2.135   5.537   1.220
 2896SOL    HW2 9588   2.252   5.440   1.282
 2897SOL     OW 9589   1.581   6.641   3.953
 2897SOL    HW1 9590   1.583   6.703   4.032
 2897SOL    HW2 9591   1.615   6.689   3.872
 2898SOL     OW 9592   2.722   5.376   2.123
 2898SOL    HW1 9593   2.769   5.463   2.133
 2898SOL    HW2 9594   2.624   5.392   2.112
 2899SOL     OW 9595   6.830   0.041   6.963
 2899SOL    HW1 9596   6.840   0.017   0.033
 2899SOL    HW2 9597   6.733   0.055   6.942
 2900SOL     OW 9598   2.261   5.364   6.059
 2900SOL    HW1 9599   2.260   5.266   6.074
 2900SOL    HW2 9600   2.168   5.401   6.067
 2901SOL     OW 9601   2.980   1.255   1.824
 2901SOL    HW1 9602   2.970   1.217   1.916
 2901SOL    HW2 9603   2.898   1.306   1.799
 2902SOL     OW 9604   5.805   6.072   1.460
 2902SOL    HW1 9605   5.858   6.078   1.376
 2902SOL    HW2 9606   5.708   6.087   1.440
 2903SOL     OW 9607   2.194   2.235   2.111
 2903SOL    HW1 9608   2.201   2.326   2.152
 2903SOL    HW2 9609   2.198   2.165   2.182
 2904SOL     OW 9610   1.822   3.150   5.077
 2904SOL    HW1 9611   1.893   3.220   5.079
 2904SOL    HW2 9612   1.863   3.061   5.058
 2905SOL     OW 9613   1.636   2.494   1.379
 2905SOL    HW1 9614   1.697   2.498   1.458
 2905SOL    HW2 9615   1.583   2.409   1.382
 2906SOL     OW 9616   5.545   5.790   2.026
 2906SOL    HW1 9617   5.495   5.750   1.949
 2906SOL    HW2 9618   5.500   5.874   2.055
 2907SOL     OW 9619   6.486   0.990   3.724
 2907SOL    HW1 9620   6.554   1.046   3.773
 2907SOL    HW2 9621   6.420   1.050   3.679
 2908SOL     OW 9622   4.162   6.515   4.472
 2908SOL    HW1 9623   4.067   6.530   4.445
 2908SOL    HW2 9624   4.213   6.476   4.396
 2909SOL     OW 9625   2.254   5.765   5.013
 2909SOL    HW1 9626   2.157   5.744   5.024
 2909SOL    HW2 9627   2.287   5.813   5.095
 2910SOL     OW 9628   5.627   6.183   6.218
 2910SOL    HW1 9629   5.583   6.235   6.145
 2910SOL    HW2 9630   5.580   6.200   6.305
 2911SOL     OW 9631   1.695   3.944   3.510
 2911SOL    HW1 9632   1.766   3.999   3.465
 2911SOL    HW2 9633   1.635   4.004   3.563
 2912SOL     OW 9634   2.508   5.749   0.815
 2912SOL    HW1 9635   2.576   5.704   0.874
 2912SOL    HW2 9636   2.535   5.843   0.798
 2913SOL     OW 9637   1.153   2.879   3.135
 2913SOL    HW1 9638   1.214   2.957   3.152
 2913SOL    HW2 9639   1.185   2.800   3.187
 2914SOL     OW 9640   5.151   5.428   5.602
 2914SOL    HW1 9641   5.194   5.366   5.537
 2914SOL    HW2 9642   5.148   5.385   5.693
 2915SOL     OW 9643   4.449   1.137   4.297
 2915SOL    HW1 9644   4.440   1.218   4.239
 2915SOL    HW2 9645   4.358   1.103   4.320
 2916SOL     OW 9646   5.140   5.993   4.367
 2916SOL    HW1 9647   5.078   6.068   4.345
 2916SOL    HW2 9648   5.109   5.910   4.320
 2917SOL     OW 9649   4.764   1.023   2.712
 2917SOL    HW1 9650   4.712   1.099   2.674
 2917SOL    HW2 9651   4.850   1.056   2.751
 2918SOL     OW 9652   6.790   3.880   3.751
 2918SOL    HW1 9653   6.717   3.931   3.706
 2918SOL    HW2 9654   6.830   3.937   3.823
 2919SOL     OW 9655   6.789   5.997   0.089
 2919SOL    HW1 9656   6.707   5.958   0.130
 2919SOL    HW2 9657   6.846   6.038   0.160
 2920SOL     OW 9658   4.520   2.363   3.547
 2920SOL    HW1 9659   4.436   2.414   3.530
 2920SOL    HW2 9660   4.510   2.309   3.630
 2921SOL     OW 9661   0.648   0.074   1.990
 2921SOL    HW1 9662   0.706   0.114   1.919
 2921SOL    HW2 9663   0.704   0.023   2.055
 2922SOL     OW 9664   4.383   6.807   5.370
 2922SOL    HW1 9665   4.331   6.729   5.405
 2922SOL    HW2 9666   4.370   6.885   5.431
 2923SOL     OW 9667   6.265   4.108   1.629
 2923SOL    HW1 9668   6.300   4.195   1.594
 2923SOL    HW2 9669   6.175   4.122   1.670
 2924SOL     OW 9670   6.418   1.206   5.057
 2924SOL    HW1 9671   6.380   1.125   5.013
 2924SOL    HW2 9672   6.350   1.279   5.056
 2925SOL     OW 9673   5.549   3.941   1.183
 2925SOL    HW1 9674   5.535   3.990   1.097
 2925SOL    HW2 9675   5.468   3.888   1.205
 2926SOL     OW 9676   0.117   1.067   4.751
 2926SOL    HW1 9677   0.114   1.127   4.831
 2926SOL    HW2 9678   0.199   1.088   4.697
 2927SOL     OW 9679   0.456   2.383   2.867
 2927SOL    HW1 9680   0.467   2.378   2.966
 2927SOL    HW2 9681   0.465   2.478   2.837
 2928SOL     OW 9682   6.302   6.488   0.938
 2928SOL    HW1 9683   6.315   6.421   1.011
 2928SOL    HW2 9684   6.358   6.462   0.859
 2929SOL     OW 9685   0.841   6.813   6.215
 2929SOL    HW1 9686   0.850   6.713   6.217
 2929SOL    HW2 9687   0.863   6.846   6.124
 2930SOL     OW 9688   3.676   6.536   4.702
 2930SOL    HW1 9689   3.772   6.557   4.685
 2930SOL    HW2 9690   3.657   6.543   4.800
 2931SOL     OW 9691   4.257   5.969   5.963
 2931SOL    HW1 9692   4.346   5.991   6.002
 2931SOL    HW2 9693   4.256   5.995   5.866
 2932SOL     OW 9694   1.270   4.695   1.764
 2932SOL    HW1 9695   1.243   4.644   1.682
 2932SOL    HW2 9696   1.294   4.630   1.836
 2933SOL     OW 9697   4.949   1.744   3.526
 2933SOL    HW1 9698   5.026   1.793   3.486
 2933SOL    HW2 9699   4.949   1.756   3.625
 2934SOL     OW 9700   2.673   0.364   0.240
 2934SOL    HW1 9701   2.600   0.351   0.173
 2934SOL    HW2 9702   2.761   0.372   0.193
 2935SOL     OW 9703   6.009   2.193   1.292
 2935SOL    HW1 9704   6.088   2.136   1.313
 2935SOL    HW2 9705   5.959   2.155   1.215
 2936SOL     OW 9706   4.011   6.025   0.594
 2936SOL    HW1 9707   4.026   6.100   0.530
 2936SOL    HW2 9708   4.065   5.946   0.565
 2937SOL     OW 9709   3.050   4.610   0.875
 2937SOL    HW1 9710   3.099   4.614   0.788
 2937SOL    HW2 9711   2.970   4.551   0.866
 2938SOL     OW 9712   4.826   5.343   5.768
 2938SOL    HW1 9713   4.817   5.424   5.710
 2938SOL    HW2 9714   4.882   5.365   5.848
 2939SOL     OW 9715   0.167   6.311   5.673
 2939SOL    HW1 9716   0.183   6.393   5.617
 2939SOL    HW2 9717   0.195   6.230   5.622
 2940SOL     OW 9718   4.458   0.444   5.599
 2940SOL    HW1 9719   4.519   0.513   5.638
 2940SOL    HW2 9720   4.365   0.479   5.596
 2941SOL     OW 9721   2.234   2.393   5.009
 2941SOL    HW1 9722   2.277   2.469   4.961
 2941SOL    HW2 9723   2.302   2.345   5.064
 2942SOL     OW 9724   3.517   6.421   4.118
 2942SOL    HW1 9725   3.551   6.327   4.124
 2942SOL    HW2 9726   3.471   6.434   4.030
 2943SOL     OW 9727   5.931   4.265   3.396
 2943SOL    HW1 9728   5.973   4.226   3.314
 2943SOL    HW2 9729   5.919   4.364   3.383
 2944SOL     OW 9730   3.624   6.060   5.914
 2944SOL    HW1 9731   3.684   6.001   5.968
 2944SOL    HW2 9732   3.585   6.130   5.973
 2945SOL     OW 9733   3.131   3.040   3.512
 2945SOL    HW1 9734   3.075   3.053   3.594
 2945SOL    HW2 9735   3.112   3.112   3.446
 2946SOL     OW 9736   6.670   6.133   6.248
 2946SOL    HW1 9737   6.631   6.222   6.272
 2946SOL    HW2 9738   6.769   6.137   6.256
 2947SOL     OW 9739   6.605   4.835   6.986
 2947SOL    HW1 9740   6.691   4.862   6.943
 2947SOL    HW2 9741   6.617   4.745   0.003
 2948SOL     OW 9742   6.399   4.561   4.820
 2948SOL    HW1 9743   6.360   4.614   4.745
 2948SOL    HW2 9744   6.378   4.464   4.807
 2949SOL     OW 9745   1.250   6.584   0.321
 2949SOL    HW1 9746   1.194   6.565   0.240
 2949SOL    HW2 9747   1.195   6.632   0.389
 2950SOL     OW 9748   5.191   3.561   4.230
 2950SOL    HW1 9749   5.169   3.605   4.317
 2950SOL    HW2 9750   5.290   3.553   4.220
 2951SOL     OW 9751   6.605   1.062   1.260
 2951SOL    HW1 9752   6.582   0.971   1.227
 2951SOL    HW2 9753   6.527   1.100   1.310
 2952SOL     OW 9754   1.646   3.550   2.199
 2952SOL    HW1 9755   1.730   3.602   2.186
 2952SOL    HW2 9756   1.646   3.508   2.289
 2953SOL     OW 9757   5.851   0.888   2.763
 2953SOL    HW1 9758   5.844   0.987   2.760
 2953SOL    HW2 9759   5.772   0.848   2.717
 2954SOL     OW 9760   6.160   6.762   1.837
 2954SOL    HW1 9761   6.122   6.775   1.928
 2954SOL    HW2 9762   6.166   6.851   1.790
 2955SOL     OW 9763   6.279   2.973   0.602
 2955SOL    HW1 9764   6.265   3.072   0.607
 2955SOL    HW2 9765   6.349   2.953   0.533
 2956SOL     OW 9766   6.680   5.596   2.528
 2956SOL    HW1 9767   6.709   5.531   2.458
 2956SOL    HW2 9768   6.581   5.591   2.540
 2957SOL     OW 9769   0.895   3.715   1.304
 2957SOL    HW1 9770   0.892   3.615   1.305
 2957SOL    HW2 9771   0.990   3.746   1.308
 2958SOL     OW 9772   2.747   4.559   5.795
 2958SOL    HW1 9773   2.827   4.579   5.851
 2958SOL    HW2 9774   2.776   4.523   5.707
 2959SOL     OW 9775   3.827   5.446   6.839
 2959SOL    HW1 9776   3.858   5.372   6.899
 2959SOL    HW2 9777   3.747   5.491   6.879
 2960SOL     OW 9778   2.289   1.878   6.935
 2960SOL    HW1 9779   2.364   1.851   6.874
 2960SOL    HW2 9780   2.262   1.972   6.913
 2961SOL     OW 9781   5.627   2.971   4.440
 2961SOL    HW1 9782   5.674   3.020   4.368
 2961SOL    HW2 9783   5.528   2.982   4.429
 2962SOL     OW 9784   4.023   1.059   3.839
 2962SOL    HW1 9785   4.101   1.011   3.878
 2962SOL    HW2 9786   4.011   1.031   3.744
 2963SOL     OW 9787   2.094   2.670   4.634
 2963SOL    HW1 9788   2.106   2.645   4.730
 2963SOL    HW2 9789   2.157   2.743   4.611
 2964SOL     OW 9790   3.390   6.287   0.478
 2964SOL    HW1 9791   3.316   6.267   0.413
 2964SOL    HW2 9792   3.351   6.326   0.562
 2965SOL     OW 9793   0.800   2.413   5.803
 2965SOL    HW1 9794   0.823   2.366   5.717
 2965SOL    HW2 9795   0.882   2.454   5.841
 2966SOL     OW 9796   4.551   4.431   3.909
 2966SOL    HW1 9797   4.637   4.476   3.932
 2966SOL    HW2 9798   4.524   4.457   3.816
 2967SOL     OW 9799   5.796   1.665   3.996
 2967SOL    HW1 9800   5.820   1.694   3.903
 2967SOL    HW2 9801   5.759   1.572   3.993
 2968SOL     OW 9802   6.944   3.931   3.359
 2968SOL    HW1 9803   6.849   3.938   3.327
 2968SOL    HW2 9804   6.951   3.855   3.424
 2969SOL     OW 9805   4.706   1.415   5.284
 2969SOL    HW1 9806   4.647   1.490   5.254
 2969SOL    HW2 9807   4.680   1.331   5.237
 2970SOL     OW 9808   1.286   4.581   6.583
 2970SOL    HW1 9809   1.271   4.563   6.486
 2970SOL    HW2 9810   1.264   4.500   6.636
 2971SOL     OW 9811   5.176   3.189   3.584
 2971SOL    HW1 9812   5.181   3.165   3.487
 2971SOL    HW2 9813   5.215   3.280   3.599
 2972SOL     OW 9814   0.458   3.846   5.698
 2972SOL    HW1 9815   0.432   3.942   5.701
 2972SOL    HW2 9816   0.551   3.838   5.660
 2973SOL     OW 9817   5.315   5.830   4.531
 2973SOL    HW1 9818   5.298   5.923   4.499
 2973SOL    HW2 9819   5.262   5.814   4.615
 2974SOL     OW 9820   0.556   3.566   2.102
 2974SOL    HW1 9821   0.539   3.575   2.004
 2974SOL    HW2 9822   0.491   3.501   2.141
 2975SOL     OW 9823   0.427   0.866   4.790
 2975SOL    HW1 9824   0.380   0.846   4.704
 2975SOL    HW2 9825   0.417   0.963   4.812
 2976SOL     OW 9826   3.726   0.162   2.167
 2976SOL    HW1 9827   3.814   0.203   2.192
 2976SOL    HW2 9828   3.652   0.211   2.214
 2977SOL     OW 9829   3.254   6.475   4.198
 2977SOL    HW1 9830   3.253   6.567   4.237
 2977SOL    HW2 9831   3.348   6.445   4.185
 2978SOL     OW 9832   4.492   6.067   6.988
 2978SOL    HW1 9833   4.462   5.979   7.024
 2978SOL    HW2 9834   4.588   6.061   6.960
 2979SOL     OW 9835   3.298   0.500   3.264
 2979SOL    HW1 9836   3.232   0.568   3.235
 2979SOL    HW2 9837   3.259   0.444   3.337
 2980SOL     OW 9838   6.827   6.433   4.086
 2980SOL    HW1 9839   6.851   6.382   4.169
 2980SOL    HW2 9840   6.909   6.479   4.051
 2981SOL     OW 9841   2.375   0.859   5.204
 2981SOL    HW1 9842   2.371   0.900   5.295
 2981SOL    HW2 9843   2.282   0.846   5.169
 2982SOL     OW 9844   4.410   7.001   3.045
 2982SOL    HW1 9845   4.422   0.040   2.970
 2982SOL    HW2 9846   4.323   6.953   3.035
 2983SOL     OW 9847   6.386   0.372   3.362
 2983SOL    HW1 9848   6.349   0.308   3.295
 2983SOL    HW2 9849   6.311   0.410   3.417
 2984SOL     OW 9850   5.125   4.955   1.948
 2984SOL    HW1 9851   5.067   5.002   2.014
 2984SOL    HW2 9852   5.197   4.904   1.996
 2985SOL     OW 9853   6.351   1.955   3.268
 2985SOL    HW1 9854   6.370   2.032   3.329
 2985SOL    HW2 9855   6.252   1.939   3.264
 2986SOL     OW 9856   2.226   3.772   5.207
 2986SOL    HW1 9857   2.292   3.838   5.169
 2986SOL    HW2 9858   2.183   3.722   5.132
 2987SOL     OW 9859   4.482   2.483   4.763
 2987SOL    HW1 9860   4.387   2.455   4.780
 2987SOL    HW2 9861   4.528   2.413   4.708
 2988SOL     OW 9862   0.809   0.379   2.123
 2988SOL    HW1 9863   0.737   0.338   2.179
 2988SOL    HW2 9864   0.844   0.461   2.168
 2989SOL     OW 9865   6.465   4.741   0.942
 2989SOL    HW1 9866   6.494   4.813   0.879
 2989SOL    HW2 9867   6.425   4.782   1.023
 2990SOL     OW 9868   3.503   0.434   1.132
 2990SOL    HW1 9869   3.497   0.336   1.146
 2990SOL    HW2 9870   3.411   0.472   1.122
 2991SOL     OW 9871   6.330   4.302   0.646
 2991SOL    HW1 9872   6.383   4.356   0.711
 2991SOL    HW2 9873   6.374   4.213   0.633
 2992SOL     OW 9874   4.215   4.478   6.302
 2992SOL    HW1 9875   4.289   4.509   6.243
 2992SOL    HW2 9876   4.207   4.379   6.297
 2993SOL     OW 9877   1.718   5.150   1.058
 2993SOL    HW1 9878   1.627   5.175   1.024
 2993SOL    HW2 9879   1.768   5.232   1.084
 2994SOL     OW 9880   4.457   6.652   0.205
 2994SOL    HW1 9881   4.507   6.565   0.199
 2994SOL    HW2 9882   4.454   6.681   0.301
 2995SOL     OW 9883   2.721   1.201   6.029
 2995SOL    HW1 9884   2.667   1.272   5.983
 2995SOL    HW2 9885   2.731   1.224   6.126
 2996SOL     OW 9886   4.240   5.651   5.596
 2996SOL    HW1 9887   4.245   5.672   5.694
 2996SOL    HW2 9888   4.316   5.592   5.570
 2997SOL     OW 9889   5.383   6.477   0.209
 2997SOL    HW1 9890   5.295   6.434   0.185
 2997SOL    HW2 9891   5.428   6.423   0.280
 2998SOL     OW 9892   6.546   5.698   5.184
 2998SOL    HW1 9893   6.638   5.699   5.222
 2998SOL    HW2 9894   6.497   5.617   5.216
 2999SOL     OW 9895   3.286   6.150   2.702
 2999SOL    HW1 9896   3.284   6.110   2.794
 2999SOL    HW2 9897   3.278   6.077   2.634
 3000SOL     OW 9898   1.897   2.919   4.915
 3000SOL    HW1 9899   1.988   2.961   4.919
 3000SOL    HW2 9900   1.879   2.889   4.822
 3001SOL     OW 9901   4.280   0.130   5.929
 3001SOL    HW1 9902   4.207   0.177   5.879
 3001SOL    HW2 9903   4.333   0.196   5.981
 3002SOL     OW 9904   4.176   0.182   5.395
 3002SOL    HW1 9905   4.127   0.249   5.450
 3002SOL    HW2 9906   4.124   0.097   5.393
 3003SOL     OW 9907   2.502   0.308   6.340
 3003SOL    HW1 9908   2.504   0.401   6.378
 3003SOL    HW2 9909   2.411   0.269   6.353
 3004SOL     OW 9910   6.407   3.352   4.663
 3004SOL    HW1 9911   6.336   3.319   4.600
 3004SOL    HW2 9912   6.497   3.332   4.624
 3005SOL     OW 9913   4.551   2.263   1.479
 3005SOL    HW1 9914   4.473   2.209   1.511
 3005SOL    HW2 9915   4.527   2.360   1.482
 3006SOL     OW 9916   5.585   0.543   1.566
 3006SOL    HW1 9917   5.494   0.545   1.608
 3006SOL    HW2 9918   5.577   0.510   1.472
 3007SOL     OW 9919   6.566   5.495   2.221
 3007SOL    HW1 9920   6.499   5.420   2.228
 3007SOL    HW2 9921   6.518   5.579   2.195
 3008SOL     OW 9922   3.534   5.331   5.914
 3008SOL    HW1 9923   3.583   5.312   5.829
 3008SOL    HW2 9924   3.595   5.376   5.979
 3009SOL     OW 9925   1.425   0.758   3.382
 3009SOL    HW1 9926   1.393   0.669   3.349
 3009SOL    HW2 9927   1.364   0.791   3.455
 3010SOL     OW 9928   4.121   6.901   1.767
 3010SOL    HW1 9929   4.134   6.837   1.844
 3010SOL    HW2 9930   4.038   6.877   1.717
 3011SOL     OW 9931   5.719   0.821   6.808
 3011SOL    HW1 9932   5.782   0.891   6.842
 3011SOL    HW2 9933   5.771   0.739   6.785
 3012SOL     OW 9934   6.839   4.149   2.538
 3012SOL    HW1 9935   6.912   4.178   2.475
 3012SOL    HW2 9936   6.836   4.049   2.542
 3013SOL     OW 9937   5.752   4.778   2.089
 3013SOL    HW1 9938   5.725   4.822   2.174
 3013SOL    HW2 9939   5.697   4.695   2.076
 3014SOL     OW 9940   4.631   1.177   5.156
 3014SOL    HW1 9941   4.614   1.246   5.085
 3014SOL    HW2 9942   4.717   1.130   5.136
 3015SOL     OW 9943   2.997   2.707   6.661
 3015SOL    HW1 9944   3.002   2.790   6.605
 3015SOL    HW2 9945   2.954   2.634   6.609
 3016SOL     OW 9946   3.673   6.406   3.580
 3016SOL    HW1 9947   3.713   6.384   3.669
 3016SOL    HW2 9948   3.732   6.469   3.531
 3017SOL     OW 9949   7.011   6.019   1.298
 3017SOL    HW1 9950   0.069   6.032   1.245
 3017SOL    HW2 9951   6.967   5.934   1.269
 3018SOL     OW 9952   3.520   6.635   6.717
 3018SOL    HW1 9953   3.467   6.594   6.643
 3018SOL    HW2 9954   3.616   6.610   6.707
 3019SOL     OW 9955   4.941   0.363   2.143
 3019SOL    HW1 9956   4.968   0.418   2.064
 3019SOL    HW2 9957   4.898   0.423   2.212
 3020SOL     OW 9958   1.198   1.954   0.701
 3020SOL    HW1 9959   1.196   2.044   0.745
 3020SOL    HW2 9960   1.283   1.946   0.648
 3021SOL     OW 9961   3.119   1.096   6.618
 3021SOL    HW1 9962   3.061   1.133   6.691
 3021SOL    HW2 9963   3.111   1.153   6.536
 3022SOL     OW 9964   4.949   6.785   2.905
 3022SOL    HW1 9965   4.906   6.725   2.973
 3022SOL    HW2 9966   4.933   6.881   2.931
 3023SOL     OW 9967   5.556   6.618   2.311
 3023SOL    HW1 9968   5.521   6.708   2.337
 3023SOL    HW2 9969   5.480   6.561   2.280
 3024SOL     OW 9970   2.929   6.134   0.253
 3024SOL    HW1 9971   2.941   6.201   0.326
 3024SOL    HW2 9972   2.945   6.179   0.165
 3025SOL     OW 9973   2.058   2.352   1.310
 3025SOL    HW1 9974   2.010   2.301   1.382
 3025SOL    HW2 9975   1.993   2.413   1.264
 3026SOL     OW 9976   2.158   4.541   1.003
 3026SOL    HW1 9977   2.195   4.449   0.999
 3026SOL    HW2 9978   2.104   4.552   1.086
 3027SOL     OW 9979   1.196   1.905   3.994
 3027SOL    HW1 9980   1.269   1.850   3.954
 3027SOL    HW2 9981   1.136   1.847   4.049
 3028SOL     OW 9982   1.634   0.056   4.510
 3028SOL    HW1 9983   1.552   0.002   4.528
 3028SOL    HW2 9984   1.697   0.047   4.587
 3029SOL     OW 9985   5.155   6.790   5.564
 3029SOL    HW1 9986   5.245   6.757   5.592
 3029SOL    HW2 9987   5.101   6.812   5.646
 3030SOL     OW 9988   1.421   2.021   5.459
 3030SOL    HW1 9989   1.521   2.028   5.461
 3030SOL    HW2 9990   1.382   2.089   5.522
 3031SOL     OW 9991   1.301   4.793   6.741
 3031SOL    HW1 9992   1.297   4.712   6.683
 3031SOL    HW2 9993   1.244   4.780   6.822
 3032SOL     OW 9994   4.369   0.285   6.154
 3032SOL    HW1 9995   4.452   0.233   6.174
 3032SOL    HW2 9996   4.293   0.247   6.207
 3033SOL     OW 9997   5.389   3.962   6.558
 3033SOL    HW1 9998   5.365   3.873   6.520
 3033SOL    HW2 9999   5.486   3.963   6.582
 3034SOL     OW10000   2.438   0.100   4.339
 3034SOL    HW110001   2.347   0.117   4.301
 3034SOL    HW210002   2.444   0.143   4.429
 3035SOL     OW10003   6.499   0.284   0.291
 3035SOL    HW110004   6.554   0.205   0.320
 3035SOL    HW210005   6.554   0.367   0.301
 3036SOL     OW10006   1.580   4.692   6.680
 3036SOL    HW110007   1.580   4.738   6.591
 3036SOL    HW210008   1.490   4.701   6.722
 3037SOL     OW10009   6.677   6.410   5.450
 3037SOL    HW110010   6.760   6.375   5.493
 3037SOL    HW210011   6.672   6.509   5.462
 3038SOL     OW10012   5.295   0.326   5.919
 3038SOL    HW110013   5.271   0.363   6.009
 3038SOL    HW210014   5.388   0.288   5.922
 3039SOL     OW10015   0.588   5.057   1.306
 3039SOL    HW110016   0.582   5.018   1.214
 3039SOL    HW210017   0.644   4.999   1.364
 3040SOL     OW10018   2.687   3.397   6.570
 3040SOL    HW110019   2.663   3.458   6.494
 3040SOL    HW210020   2.622   3.410   6.645
 3041SOL     OW10021   1.635   2.262   5.589
 3041SOL    HW110022   1.732   2.287   5.587
 3041SOL    HW210023   1.618   2.204   5.669
 3042SOL     OW10024   4.629   0.928   1.587
 3042SOL    HW110025   4.638   1.027   1.590
 3042SOL    HW210026   4.661   0.888   1.673
 3043SOL     OW10027   0.050   5.088   0.522
 3043SOL    HW110028   0.138   5.045   0.499
 3043SOL    HW210029   0.054   5.122   0.616
 3044SOL     OW10030   3.502   4.411   6.430
 3044SOL    HW110031   3.519   4.417   6.331
 3044SOL    HW210032   3.501   4.316   6.458
 3045SOL     OW10033   5.979   2.181   3.430
 3045SOL    HW110034   5.918   2.124   3.485
 3045SOL    HW210035   5.982   2.273   3.469
 3046SOL     OW10036   2.097   2.605   6.154
 3046SOL    HW110037   2.190   2.568   6.158
 3046SOL    HW210038   2.093   2.679   6.087
 3047SOL     OW10039   6.499   4.798   2.112
 3047SOL    HW110040   6.410   4.762   2.140
 3047SOL    HW210041   6.503   4.804   2.013
 3048SOL     OW10042   3.383   2.482   1.679
 3048SOL    HW110043   3.425   2.566   1.644
 3048SOL    HW210044   3.284   2.494   1.683
 3049SOL     OW10045   1.015   0.236   2.228
 3049SOL    HW110046   1.091   0.184   2.188
 3049SOL    HW210047   0.964   0.283   2.155
 3050SOL     OW10048   4.031   5.618   3.944
 3050SOL    HW110049   4.047   5.524   3.975
 3050SOL    HW210050   3.936   5.643   3.963
 3051SOL     OW10051   2.560   4.363   5.827
 3051SOL    HW110052   2.489   4.362   5.898
 3051SOL    HW210053   2.631   4.429   5.852
 3052SOL     OW10054   4.365   6.626   2.931
 3052SOL    HW110055   4.388   6.544   2.984
 3052SOL    HW210056   4.436   6.643   2.863
 3053SOL     OW10057   5.089   6.427   0.255
 3053SOL    HW110058   5.133   6.367   0.321
 3053SOL    HW210059   5.091   6.521   0.289
 3054SOL     OW10060   1.278   3.702   6.470
 3054SOL    HW110061   1.341   3.644   6.521
 3054SOL    HW210062   1.251   3.656   6.386
 3055SOL     OW10063   6.282   6.278   2.906
 3055SOL    HW110064   6.332   6.357   2.942
 3055SOL    HW210065   6.247   6.224   2.982
 3056SOL     OW10066   6.819   0.985   1.030
 3056SOL    HW110067   6.793   0.888   1.038
 3056SOL    HW210068   6.917   0.992   1.015
 3057SOL     OW10069   5.989   5.634   2.554
 3057SOL    HW110070   6.022   5.551   2.597
 3057SOL    HW210071   5.929   5.683   2.617
 3058SOL     OW10072   6.337   4.861   1.483
 3058SOL    HW110073   6.356   4.959   1.491
 3058SOL    HW210074   6.395   4.822   1.410
 3059SOL     OW10075   1.870   2.885   4.630
 3059SOL    HW110076   1.919   2.958   4.582
 3059SOL    HW210077   1.933   2.809   4.648
 3060SOL     OW10078   6.388   7.023   1.014
 3060SOL    HW110079   6.360   6.968   0.936
 3060SOL    HW210080   6.326   7.007   1.091
 3061SOL     OW10081   0.006   0.058   6.085
 3061SOL    HW110082   6.977   7.024   6.028
 3061SOL    HW210083   0.010   0.149   6.044
 3062SOL     OW10084   2.605   6.279   6.931
 3062SOL    HW110085   2.660   6.196   6.941
 3062SOL    HW210086   2.558   6.299   7.017
 3063SOL     OW10087   2.076   4.984   1.340
 3063SOL    HW110088   1.985   4.987   1.297
 3063SOL    HW210089   2.125   4.902   1.310
 3064SOL     OW10090   6.465   4.094   2.966
 3064SOL    HW110091   6.498   4.159   2.897
 3064SOL    HW210092   6.485   4.001   2.936
 3065SOL     OW10093   1.738   0.978   0.677
 3065SOL    HW110094   1.650   1.007   0.716
 3065SOL    HW210095   1.812   1.002   0.740
 3066SOL     OW10096   6.160   5.220   1.539
 3066SOL    HW110097   6.078   5.163   1.548
 3066SOL    HW210098   6.195   5.215   1.446
 3067SOL     OW10099   5.255   6.949   3.809
 3067SOL    HW110100   5.334   6.898   3.775
 3067SOL    HW210101   5.182   6.947   3.741
 3068SOL     OW10102   6.003   5.061   0.423
 3068SOL    HW110103   5.975   5.127   0.352
 3068SOL    HW210104   5.992   5.103   0.513
 3069SOL     OW10105   0.788   5.701   2.963
 3069SOL    HW110106   0.776   5.636   2.888
 3069SOL    HW210107   0.701   5.711   3.012
 3070SOL     OW10108   4.132   1.133   4.329
 3070SOL    HW110109   4.061   1.202   4.313
 3070SOL    HW210110   4.107   1.077   4.407
 3071SOL     OW10111   6.165   6.410   3.460
 3071SOL    HW110112   6.188   6.506   3.443
 3071SOL    HW210113   6.171   6.392   3.558
 3072SOL     OW10114   0.562   0.381   2.741
 3072SOL    HW110115   0.565   0.283   2.759
 3072SOL    HW210116   0.500   0.425   2.806
 3073SOL     OW10117   1.479   3.551   4.850
 3073SOL    HW110118   1.531   3.467   4.864
 3073SOL    HW210119   1.417   3.539   4.772
 3074SOL     OW10120   4.946   3.014   5.724
 3074SOL    HW110121   5.038   2.994   5.689
 3074SOL    HW210122   4.948   3.101   5.774
 3075SOL     OW10123   2.212   5.691   1.677
 3075SOL    HW110124   2.134   5.628   1.677
 3075SOL    HW210125   2.218   5.738   1.765
 3076SOL     OW10126   0.532   0.227   5.112
 3076SOL    HW110127   0.459   0.288   5.081
 3076SOL    HW210128   0.492   0.147   5.158
 3077SOL     OW10129   4.932   4.662   3.797
 3077SOL    HW110130   4.890   4.741   3.841
 3077SOL    HW210131   4.949   4.681   3.701
 3078SOL     OW10132   2.119   3.194   1.122
 3078SOL    HW110133   2.074   3.154   1.042
 3078SOL    HW210134   2.111   3.131   1.199
 3079SOL     OW10135   6.419   2.320   5.744
 3079SOL    HW110136   6.419   2.405   5.796
 3079SOL    HW210137   6.460   2.336   5.654
 3080SOL     OW10138   6.526   5.481   0.937
 3080SOL    HW110139   6.474   5.558   0.973
 3080SOL    HW210140   6.622   5.507   0.926
 3081SOL     OW10141   6.861   4.742   5.528
 3081SOL    HW110142   6.847   4.833   5.568
 3081SOL    HW210143   6.782   4.684   5.548
 3082SOL     OW10144   2.829   6.897   2.660
 3082SOL    HW110145   2.895   6.907   2.586
 3082SOL    HW210146   2.760   6.829   2.635
 3083SOL     OW10147   3.100   0.395   2.008
 3083SOL    HW110148   3.066   0.385   2.102
 3083SOL    HW210149   3.179   0.336   1.995
 3084SOL     OW10150   4.995   6.253   4.930
 3084SOL    HW110151   4.965   6.329   4.873
 3084SOL    HW210152   4.976   6.166   4.884
 3085SOL     OW10153   0.847   5.500   1.706
 3085SOL    HW110154   0.866   5.561   1.629
 3085SOL    HW210155   0.861   5.549   1.792
 3086SOL     OW10156   5.210   1.210   3.700
 3086SOL    HW110157   5.217   1.306   3.675
 3086SOL    HW210158   5.297   1.164   3.683
 3087SOL     OW10159   6.131   3.024   3.326
 3087SOL    HW110160   6.093   2.957   3.390
 3087SOL    HW210161   6.064   3.097   3.311
 3088SOL     OW10162   3.056   4.718   5.892
 3088SOL    HW110163   3.134   4.778   5.912
 3088SOL    HW210164   3.008   4.698   5.977
 3089SOL     OW10165   1.677   2.515   0.461
 3089SOL    HW110166   1.672   2.536   0.559
 3089SOL    HW210167   1.598   2.553   0.414
 3090SOL     OW10168   0.830   1.662   1.231
 3090SOL    HW110169   0.766   1.725   1.188
 3090SOL    HW210170   0.885   1.711   1.299
 3091SOL     OW10171   2.594   0.028   0.442
 3091SOL    HW110172   2.527   0.085   0.489
 3091SOL    HW210173   2.666   0.001   0.506
 3092SOL     OW10174   4.624   5.955   0.879
 3092SOL    HW110175   4.586   5.987   0.792
 3092SOL    HW210176   4.664   6.032   0.929
 3093SOL     OW10177   5.098   5.749   4.246
 3093SOL    HW110178   5.017   5.714   4.198
 3093SOL    HW210179   5.178   5.699   4.214
 3094SOL     OW10180   3.039   5.588   5.594
 3094SOL    HW110181   3.073   5.519   5.530
 3094SOL    HW210182   2.978   5.544   5.660
 3095SOL     OW10183   3.314   4.791   5.185
 3095SOL    HW110184   3.220   4.791   5.151
 3095SOL    HW210185   3.323   4.723   5.258
 3096SOL     OW10186   1.020   0.616   6.037
 3096SOL    HW110187   1.118   0.607   6.053
 3096SOL    HW210188   0.989   0.542   5.977
 3097SOL     OW10189   1.334   2.876   0.095
 3097SOL    HW110190   1.396   2.823   0.153
 3097SOL    HW210191   1.258   2.818   0.066
 3098SOL     OW10192   4.025   2.277   0.614
 3098SOL    HW110193   3.948   2.220   0.642
 3098SOL    HW210194   4.110   2.238   0.650
 3099SOL     OW10195   0.895   6.445   5.374
 3099SOL    HW110196   0.881   6.356   5.416
 3099SOL    HW210197   0.876   6.440   5.276
 3100SOL     OW10198   6.541   6.843   0.578
 3100SOL    HW110199   6.526   6.912   0.508
 3100SOL    HW210200   6.627   6.794   0.559
 3101SOL     OW10201   4.395   7.002   0.672
 3101SOL    HW110202   4.324   6.993   0.742
 3101SOL    HW210203   4.476   0.020   0.711
 3102SOL     OW10204   1.804   4.996   1.279
 3102SOL    HW110205   1.780   5.054   1.201
 3102SOL    HW210206   1.779   5.042   1.364
 3103SOL     OW10207   3.712   3.266   2.376
 3103SOL    HW110208   3.624   3.247   2.421
 3103SOL    HW210209   3.697   3.324   2.297
 3104SOL     OW10210   6.970   5.574   3.354
 3104SOL    HW110211   6.969   5.504   3.425
 3104SOL    HW210212   7.016   5.656   3.389
 3105SOL     OW10213   6.460   6.690   4.050
 3105SOL    HW110214   6.515   6.656   3.973
 3105SOL    HW210215   6.447   6.789   4.040
 3106SOL     OW10216   6.878   2.454   4.369
 3106SOL    HW110217   6.836   2.472   4.280
 3106SOL    HW210218   6.823   2.497   4.441
 3107SOL     OW10219   3.057   6.952   4.612
 3107SOL    HW110220   3.038   6.854   4.626
 3107SOL    HW210221   2.981   6.994   4.563
 3108SOL     OW10222   3.678   0.484   3.401
 3108SOL    HW110223   3.646   0.391   3.381
 3108SOL    HW210224   3.775   0.491   3.378
 3109SOL     OW10225   5.001   5.656   3.101
 3109SOL    HW110226   4.984   5.727   3.169
 3109SOL    HW210227   5.099   5.638   3.096
 3110SOL     OW10228   0.585   3.231   2.345
 3110SOL    HW110229   0.535   3.150   2.314
 3110SOL    HW210230   0.666   3.202   2.396
 3111SOL     OW10231   6.796   4.335   3.547
 3111SOL    HW110232   6.749   4.398   3.485
 3111SOL    HW210233   6.731   4.297   3.613
 3112SOL     OW10234   3.744   3.669   6.818
 3112SOL    HW110235   3.815   3.673   6.748
 3112SOL    HW210236   3.656   3.652   6.774
 3113SOL     OW10237   3.447   0.003   3.836
 3113SOL    HW110238   3.372   0.019   3.773
 3113SOL    HW210239   3.495   6.945   3.810
 3114SOL     OW10240   5.596   5.633   0.814
 3114SOL    HW110241   5.580   5.637   0.715
 3114SOL    HW210242   5.659   5.706   0.840
 3115SOL     OW10243   2.659   3.706   1.385
 3115SOL    HW110244   2.645   3.649   1.305
 3115SOL    HW210245   2.743   3.759   1.374
 3116SOL     OW10246   0.095   1.979   6.967
 3116SOL    HW110247   0.121   2.072   6.992
 3116SOL    HW210248   0.139   1.914   0.003
 3117SOL     OW10249   3.897   4.119   4.942
 3117SOL    HW110250   3.965   4.100   5.013
 3117SOL    HW210251   3.915   4.209   4.902
 3118SOL     OW10252   5.566   4.141   0.293
 3118SOL    HW110253   5.552   4.050   0.331
 3118SOL    HW210254   5.649   4.181   0.332
 3119SOL     OW10255   1.497   4.401   5.632
 3119SOL    HW110256   1.526   4.318   5.679
 3119SOL    HW210257   1.538   4.405   5.541
 3120SOL     OW10258   3.651   5.586   5.307
 3120SOL    HW110259   3.626   5.532   5.227
 3120SOL    HW210260   3.573   5.592   5.369
 3121SOL     OW10261   0.371   6.805   2.612
 3121SOL    HW110262   0.428   6.831   2.534
 3121SOL    HW210263   0.423   6.745   2.673
 3122SOL     OW10264   3.336   5.756   1.108
 3122SOL    HW110265   3.433   5.738   1.093
 3122SOL    HW210266   3.293   5.785   1.022
 3123SOL     OW10267   3.786   6.880   4.378
 3123SOL    HW110268   3.723   6.957   4.365
 3123SOL    HW210269   3.749   6.799   4.332
 3124SOL     OW10270   4.057   0.245   6.281
 3124SOL    HW110271   4.056   0.169   6.215
 3124SOL    HW210272   4.000   0.320   6.247
 3125SOL     OW10273   6.905   1.920   5.881
 3125SOL    HW110274   6.972   1.891   5.950
 3125SOL    HW210275   6.925   1.873   5.795
 3126SOL     OW10276   4.352   5.875   0.475
 3126SOL    HW110277   4.392   5.787   0.449
 3126SOL    HW210278   4.272   5.859   0.533
 3127SOL     OW10279   0.518   1.408   3.520
 3127SOL    HW110280   0.431   1.367   3.490
 3127SOL    HW210281   0.554   1.356   3.597
 3128SOL     OW10282   1.284   1.464   0.518
 3128SOL    HW110283   1.320   1.556   0.502
 3128SOL    HW210284   1.283   1.413   0.432
 3129SOL     OW10285   0.977   3.054   5.044
 3129SOL    HW110286   0.936   3.139   5.077
 3129SOL    HW210287   1.029   3.073   4.960
 3130SOL     OW10288   1.847   5.818   3.178
 3130SOL    HW110289   1.938   5.805   3.138
 3130SOL    HW210290   1.788   5.743   3.150
 3131SOL     OW10291   7.002   3.217   3.422
 3131SOL    HW110292   7.026   3.314   3.428
 3131SOL    HW210293   6.936   3.204   3.348
 3132SOL     OW10294   5.315   6.302   5.611
 3132SOL    HW110295   5.260   6.349   5.680
 3132SOL    HW210296   5.289   6.206   5.607
 3133SOL     OW10297   2.892   1.552   3.111
 3133SOL    HW110298   2.964   1.610   3.072
 3133SOL    HW210299   2.852   1.598   3.190
 3134SOL     OW10300   4.811   2.882   2.654
 3134SOL    HW110301   4.883   2.817   2.629
 3134SOL    HW210302   4.803   2.952   2.583
 3135SOL     OW10303   3.215   1.334   3.303
 3135SOL    HW110304   3.279   1.374   3.369
 3135SOL    HW210305   3.247   1.354   3.210
 3136SOL     OW10306   5.762   6.641   5.266
 3136SOL    HW110307   5.793   6.603   5.179
 3136SOL    HW210308   5.814   6.601   5.341
 3137SOL     OW10309   6.259   1.663   4.416
 3137SOL    HW110310   6.201   1.697   4.341
 3137SOL    HW210311   6.351   1.645   4.381
 3138SOL     OW10312   5.445   1.296   5.342
 3138SOL    HW110313   5.508   1.279   5.265
 3138SOL    HW210314   5.384   1.218   5.353
 3139SOL     OW10315   4.961   6.233   5.210
 3139SOL    HW110316   4.985   6.231   5.113
 3139SOL    HW210317   4.971   6.141   5.248
 3140SOL     OW10318   6.500   6.656   6.632
 3140SOL    HW110319   6.489   6.752   6.659
 3140SOL    HW210320   6.570   6.614   6.689
 3141SOL     OW10321   1.103   4.786   0.361
 3141SOL    HW110322   1.049   4.719   0.310
 3141SOL    HW210323   1.053   4.872   0.365
 3142SOL     OW10324   3.946   6.669   6.989
 3142SOL    HW110325   3.886   6.590   6.997
 3142SOL    HW210326   3.893   6.753   7.006
 3143SOL     OW10327   6.907   1.551   0.655
 3143SOL    HW110328   6.886   1.593   0.567
 3143SOL    HW210329   6.979   1.603   0.701
 3144SOL     OW10330   1.607   3.826   6.652
 3144SOL    HW110331   1.624   3.886   6.574
 3144SOL    HW210332   1.685   3.830   6.715
 3145SOL     OW10333   3.600   6.795   4.006
 3145SOL    HW110334   3.597   6.791   3.906
 3145SOL    HW210335   3.545   6.872   4.038
 3146SOL     OW10336   2.409   0.452   3.868
 3146SOL    HW110337   2.324   0.506   3.868
 3146SOL    HW210338   2.389   0.357   3.846
 3147SOL     OW10339   4.222   3.633   0.069
 3147SOL    HW110340   4.260   3.677   0.150
 3147SOL    HW210341   4.288   3.569   0.031
 3148SOL     OW10342   3.664   5.626   4.826
 3148SOL    HW110343   3.582   5.672   4.791
 3148SOL    HW210344   3.688   5.665   4.915
 3149SOL     OW10345   3.703   6.739   5.719
 3149SOL    HW110346   3.621   6.698   5.679
 3149SOL    HW210347   3.679   6.789   5.802
 3150SOL     OW10348   5.962   0.183   4.449
 3150SOL    HW110349   5.961   0.283   4.452
 3150SOL    HW210350   5.981   0.152   4.356
 3151SOL     OW10351   3.575   0.554   6.866
 3151SOL    HW110352   3.534   0.593   6.948
 3151SOL    HW210353   3.567   0.618   6.790
 3152SOL     OW10354   1.754   5.085   0.619
 3152SOL    HW110355   1.777   5.156   0.553
 3152SOL    HW210356   1.658   5.058   0.606
 3153SOL     OW10357   6.976   4.458   2.553
 3153SOL    HW110358   7.017   4.440   2.643
 3153SOL    HW210359   7.010   4.392   2.487
 3154SOL     OW10360   5.665   2.149   6.601
 3154SOL    HW110361   5.728   2.109   6.667
 3154SOL    HW210362   5.697   2.240   6.576
 3155SOL     OW10363   5.257   5.856   0.298
 3155SOL    HW110364   5.265   5.802   0.214
 3155SOL    HW210365   5.160   5.876   0.315
 3156SOL     OW10366   3.583   3.780   3.406
 3156SOL    HW110367   3.488   3.754   3.423
 3156SOL    HW210368   3.641   3.739   3.476
 3157SOL     OW10369   2.237   3.075   4.409
 3157SOL    HW110370   2.278   3.043   4.323
 3157SOL    HW210371   2.266   3.015   4.483
 3158SOL     OW10372   4.841   5.836   0.997
 3158SOL    HW110373   4.923   5.823   0.942
 3158SOL    HW210374   4.768   5.876   0.941
 3159SOL     OW10375   5.626   4.708   1.134
 3159SOL    HW110376   5.553   4.682   1.198
 3159SOL    HW210377   5.585   4.751   1.053
 3160SOL     OW10378   5.501   4.262   6.899
 3160SOL    HW110379   5.402   4.251   6.894
 3160SOL    HW210380   5.536   4.287   6.809
 3161SOL     OW10381   0.983   1.898   2.928
 3161SOL    HW110382   0.892   1.859   2.945
 3161SOL    HW210383   1.030   1.841   2.861
 3162SOL     OW10384   6.483   6.342   6.399
 3162SOL    HW110385   6.532   6.430   6.394
 3162SOL    HW210386   6.401   6.353   6.456
 3163SOL     OW10387   2.570   4.014   5.631
 3163SOL    HW110388   2.577   3.914   5.638
 3163SOL    HW210389   2.531   4.038   5.543
 3164SOL     OW10390   5.710   5.292   6.470
 3164SOL    HW110391   5.726   5.254   6.379
 3164SOL    HW210392   5.636   5.241   6.515
 3165SOL     OW10393   0.041   2.762   1.533
 3165SOL    HW110394   6.982   2.713   1.515
 3165SOL    HW210395   0.077   2.798   1.447
 3166SOL     OW10396   5.422   3.212   6.172
 3166SOL    HW110397   5.390   3.262   6.091
 3166SOL    HW210398   5.362   3.134   6.189
 3167SOL     OW10399   0.756   4.413   2.534
 3167SOL    HW110400   0.805   4.357   2.601
 3167SOL    HW210401   0.667   4.439   2.572
 3168SOL     OW10402   5.554   2.949   0.827
 3168SOL    HW110403   5.622   2.993   0.768
 3168SOL    HW210404   5.538   3.007   0.907
 3169SOL     OW10405   1.302   1.829   4.786
 3169SOL    HW110406   1.327   1.792   4.697
 3169SOL    HW210407   1.236   1.767   4.831
 3170SOL     OW10408   4.401   0.843   6.542
 3170SOL    HW110409   4.404   0.932   6.587
 3170SOL    HW210410   4.306   0.810   6.540
 3171SOL     OW10411   6.306   6.293   3.244
 3171SOL    HW110412   6.310   6.358   3.168
 3171SOL    HW210413   6.283   6.342   3.328
 3172SOL     OW10414   6.066   0.344   5.724
 3172SOL    HW110415   6.082   0.245   5.731
 3172SOL    HW210416   5.997   0.371   5.790
 3173SOL     OW10417   1.852   1.176   1.198
 3173SOL    HW110418   1.809   1.089   1.221
 3173SOL    HW210419   1.782   1.247   1.194
 3174SOL     OW10420   1.628   4.200   5.761
 3174SOL    HW110421   1.555   4.151   5.809
 3174SOL    HW210422   1.677   4.258   5.825
 3175SOL     OW10423   0.115   5.822   1.059
 3175SOL    HW110424   0.126   5.812   0.960
 3175SOL    HW210425   0.027   5.786   1.087
 3176SOL     OW10426   0.951   5.063   6.348
 3176SOL    HW110427   0.884   5.094   6.280
 3176SOL    HW210428   0.974   5.139   6.409
 3177SOL     OW10429   6.684   6.963   4.631
 3177SOL    HW110430   6.685   6.928   4.725
 3177SOL    HW210431   6.648   0.030   4.630
 3178SOL     OW10432   1.887   3.181   1.519
 3178SOL    HW110433   1.912   3.089   1.489
 3178SOL    HW210434   1.883   3.242   1.439
 3179SOL     OW10435   1.172   2.370   3.265
 3179SOL    HW110436   1.203   2.366   3.170
 3179SOL    HW210437   1.248   2.398   3.324
 3180SOL     OW10438   5.925   1.189   5.463
 3180SOL    HW110439   5.853   1.250   5.495
 3180SOL    HW210440   5.995   1.243   5.417
 3181SOL     OW10441   0.573   1.826   3.221
 3181SOL    HW110442   0.499   1.834   3.288
 3181SOL    HW210443   0.546   1.763   3.149
 3182SOL     OW10444   1.383   4.682   5.045
 3182SOL    HW110445   1.374   4.781   5.057
 3182SOL    HW210446   1.309   4.636   5.094
 3183SOL     OW10447   3.801   3.461   1.142
 3183SOL    HW110448   3.722   3.429   1.196
 3183SOL    HW210449   3.792   3.428   1.048
 3184SOL     OW10450   2.861   1.132   2.781
 3184SOL    HW110451   2.793   1.201   2.806
 3184SOL    HW210452   2.947   1.152   2.828
 3185SOL     OW10453   0.341   6.477   5.927
 3185SOL    HW110454   0.330   6.416   6.006
 3185SOL    HW210455   0.340   6.423   5.843
 3186SOL     OW10456   3.143   0.373   1.734
 3186SOL    HW110457   3.185   0.283   1.725
 3186SOL    HW210458   3.066   0.368   1.798
 3187SOL     OW10459   3.035   4.839   0.157
 3187SOL    HW110460   3.075   4.915   0.105
 3187SOL    HW210461   2.936   4.840   0.146
 3188SOL     OW10462   4.807   0.114   3.223
 3188SOL    HW110463   4.838   0.095   3.316
 3188SOL    HW210464   4.708   0.130   3.223
 3189SOL     OW10465   0.799   0.480   1.567
 3189SOL    HW110466   0.822   0.392   1.527
 3189SOL    HW210467   0.801   0.551   1.497
 3190SOL     OW10468   0.668   6.557   1.814
 3190SOL    HW110469   0.574   6.574   1.841
 3190SOL    HW210470   0.719   6.520   1.892
 3191SOL     OW10471   3.241   0.514   1.060
 3191SOL    HW110472   3.181   0.561   1.124
 3191SOL    HW210473   3.200   0.427   1.033
 3192SOL     OW10474   6.327   2.519   3.639
 3192SOL    HW110475   6.305   2.426   3.668
 3192SOL    HW210476   6.333   2.522   3.539
 3193SOL     OW10477   4.858   4.253   0.253
 3193SOL    HW110478   4.880   4.187   0.181
 3193SOL    HW210479   4.788   4.215   0.313
 3194SOL     OW10480   1.334   4.539   5.832
 3194SOL    HW110481   1.379   4.626   5.850
 3194SOL    HW210482   1.369   4.499   5.747
 3195SOL     OW10483   0.863   3.781   3.229
 3195SOL    HW110484   0.911   3.790   3.142
 3195SOL    HW210485   0.884   3.859   3.288
 3196SOL     OW10486   0.188   6.608   5.235
 3196SOL    HW110487   0.247   6.551   5.291
 3196SOL    HW210488   0.231   6.625   5.146
 3197SOL     OW10489   1.042   4.060   4.076
 3197SOL    HW110490   0.980   4.003   4.130
 3197SOL    HW210491   1.079   4.132   4.135
 3198SOL     OW10492   6.327   1.026   6.893
 3198SOL    HW110493   6.309   1.035   6.991
 3198SOL    HW210494   6.244   0.995   6.846
 3199SOL     OW10495   3.937   2.060   3.002
 3199SOL    HW110496   3.888   2.103   2.926
 3199SOL    HW210497   3.907   1.965   3.011
 3200SOL     OW10498   6.547   2.255   0.915
 3200SOL    HW110499   6.618   2.267   0.846
 3200SOL    HW210500   6.488   2.336   0.916
 3201SOL     OW10501   4.624   4.298   2.916
 3201SOL    HW110502   4.623   4.238   2.996
 3201SOL    HW210503   4.546   4.360   2.920
 3202SOL     OW10504   1.704   5.801   1.706
 3202SOL    HW110505   1.737   5.766   1.794
 3202SOL    HW210506   1.763   5.768   1.633
 3203SOL     OW10507   6.289   0.519   1.631
 3203SOL    HW110508   6.303   0.530   1.729
 3203SOL    HW210509   6.356   0.575   1.581
 3204SOL     OW10510   6.462   5.881   1.699
 3204SOL    HW110511   6.385   5.943   1.714
 3204SOL    HW210512   6.485   5.879   1.602
 3205SOL     OW10513   1.437   3.968   2.902
 3205SOL    HW110514   1.402   3.892   2.957
 3205SOL    HW210515   1.520   3.939   2.855
 3206SOL     OW10516   1.683   6.808   0.401
 3206SOL    HW110517   1.761   6.859   0.366
 3206SOL    HW210518   1.710   6.756   0.482
 3207SOL     OW10519   1.238   1.167   3.482
 3207SOL    HW110520   1.144   1.188   3.509
 3207SOL    HW210521   1.291   1.252   3.476
 3208SOL     OW10522   6.273   0.484   5.187
 3208SOL    HW110523   6.181   0.483   5.147
 3208SOL    HW210524   6.337   0.520   5.119
 3209SOL     OW10525   2.802   0.137   2.794
 3209SOL    HW110526   2.809   0.062   2.728
 3209SOL    HW210527   2.805   0.101   2.887
 3210SOL     OW10528   0.091   4.892   2.932
 3210SOL    HW110529   0.102   4.918   3.028
 3210SOL    HW210530   0.168   4.835   2.904
 3211SOL     OW10531   0.911   4.436   2.150
 3211SOL    HW110532   0.831   4.485   2.183
 3211SOL    HW210533   0.908   4.341   2.183
 3212SOL     OW10534   4.996   3.233   5.182
 3212SOL    HW110535   4.964   3.217   5.276
 3212SOL    HW210536   5.004   3.332   5.166
 3213SOL     OW10537   5.531   6.390   1.657
 3213SOL    HW110538   5.538   6.295   1.627
 3213SOL    HW210539   5.524   6.393   1.757
 3214SOL     OW10540   4.110   4.202   6.017
 3214SOL    HW110541   4.089   4.203   6.115
 3214SOL    HW210542   4.148   4.291   5.991
 3215SOL     OW10543   6.171   1.380   0.246
 3215SOL    HW110544   6.269   1.388   0.263
 3215SOL    HW210545   6.132   1.313   0.309
 3216SOL     OW10546   6.043   6.575   4.890
 3216SOL    HW110547   5.951   6.611   4.905
 3216SOL    HW210548   6.111   6.639   4.926
 3217SOL     OW10549   6.478   4.087   0.561
 3217SOL    HW110550   6.480   3.996   0.603
 3217SOL    HW210551   6.429   4.082   0.474
 3218SOL     OW10552   3.171   0.848   2.119
 3218SOL    HW110553   3.231   0.839   2.040
 3218SOL    HW210554   3.110   0.926   2.105
 3219SOL     OW10555   6.814   6.849   4.087
 3219SOL    HW110556   6.749   6.798   4.031
 3219SOL    HW210557   6.879   6.897   4.027
 3220SOL     OW10558   6.320   2.580   5.545
 3220SOL    HW110559   6.354   2.564   5.637
 3220SOL    HW210560   6.350   2.669   5.513
 3221SOL     OW10561   4.209   0.107   2.397
 3221SOL    HW110562   4.182   0.200   2.424
 3221SOL    HW210563   4.127   0.049   2.395
 3222SOL     OW10564   5.830   3.528   2.759
 3222SOL    HW110565   5.798   3.607   2.811
 3222SOL    HW210566   5.919   3.499   2.794
 3223SOL     OW10567   2.523   4.627   4.196
 3223SOL    HW110568   2.506   4.608   4.099
 3223SOL    HW210569   2.444   4.672   4.236
 3224SOL     OW10570   3.719   5.821   1.497
 3224SOL    HW110571   3.809   5.785   1.475
 3224SOL    HW210572   3.676   5.856   1.414
 3225SOL     OW10573   2.589   2.392   1.133
 3225SOL    HW110574   2.581   2.492   1.135
 3225SOL    HW210575   2.502   2.352   1.103
 3226SOL     OW10576   0.114   0.921   4.352
 3226SOL    HW110577   0.016   0.903   4.355
 3226SOL    HW210578   0.156   0.869   4.278
 3227SOL     OW10579   2.111   1.834   5.280
 3227SOL    HW110580   2.159   1.845   5.193
 3227SOL    HW210581   2.019   1.800   5.263
 3228SOL     OW10582   5.176   3.275   4.855
 3228SOL    HW110583   5.119   3.293   4.935
 3228SOL    HW210584   5.173   3.178   4.832
 3229SOL     OW10585   3.789   2.095   5.070
 3229SOL    HW110586   3.872   2.132   5.112
 3229SOL    HW210587   3.797   2.098   4.971
 3230SOL     OW10588   1.630   0.558   4.168
 3230SOL    HW110589   1.557   0.557   4.236
 3230SOL    HW210590   1.649   0.465   4.138
 3231SOL     OW10591   5.362   5.718   0.556
 3231SOL    HW110592   5.461   5.721   0.546
 3231SOL    HW210593   5.321   5.790   0.500
 3232SOL     OW10594   2.232   4.159   3.061
 3232SOL    HW110595   2.230   4.254   3.028
 3232SOL    HW210596   2.242   4.097   2.984
 3233SOL     OW10597   1.921   3.770   1.019
 3233SOL    HW110598   1.846   3.706   1.004
 3233SOL    HW210599   1.892   3.862   0.990
 3234SOL     OW10600   6.599   1.870   4.828
 3234SOL    HW110601   6.521   1.863   4.765
 3234SOL    HW210602   6.568   1.914   4.912
 3235SOL     OW10603   5.881   0.592   2.496
 3235SOL    HW110604   5.805   0.656   2.511
 3235SOL    HW210605   5.962   0.642   2.466
 3236SOL     OW10606   0.690   2.727   1.929
 3236SOL    HW110607   0.673   2.635   1.962
 3236SOL    HW210608   0.770   2.765   1.974
 3237SOL     OW10609   3.431   6.070   4.546
 3237SOL    HW110610   3.400   6.042   4.456
 3237SOL    HW210611   3.508   6.133   4.538
 3238SOL     OW10612   6.160   6.713   6.460
 3238SOL    HW110613   6.140   6.668   6.373
 3238SOL    HW210614   6.089   6.690   6.526
 3239SOL     OW10615   0.716   5.811   5.735
 3239SOL    HW110616   0.733   5.714   5.718
 3239SOL    HW210617   0.797   5.851   5.778
 3240SOL     OW10618   0.252   1.759   4.706
 3240SOL    HW110619   0.183   1.812   4.656
 3240SOL    HW210620   0.209   1.681   4.750
 3241SOL     OW10621   5.024   0.344   5.502
 3241SOL    HW110622   5.052   0.414   5.567
 3241SOL    HW210623   5.011   0.257   5.550
 3242SOL     OW10624   3.244   6.637   0.487
 3242SOL    HW110625   3.331   6.679   0.512
 3242SOL    HW210626   3.170   6.704   0.501
 3243SOL     OW10627   3.622   5.067   0.646
 3243SOL    HW110628   3.537   5.102   0.685
 3243SOL    HW210629   3.612   4.971   0.621
 3244SOL     OW10630   1.921   6.017   5.542
 3244SOL    HW110631   1.877   6.032   5.631
 3244SOL    HW210632   1.928   5.919   5.524
 3245SOL     OW10633   2.452   2.144   5.688
 3245SOL    HW110634   2.549   2.127   5.705
 3245SOL    HW210635   2.413   2.193   5.766
 3246SOL     OW10636   5.550   6.397   3.732
 3246SOL    HW110637   5.588   6.325   3.675
 3246SOL    HW210638   5.624   6.458   3.763
 3247SOL     OW10639   6.553   1.753   5.135
 3247SOL    HW110640   6.522   1.845   5.158
 3247SOL    HW210641   6.546   1.694   5.215
 3248SOL     OW10642   5.185   3.662   2.459
 3248SOL    HW110643   5.235   3.729   2.515
 3248SOL    HW210644   5.197   3.685   2.362
 3249SOL     OW10645   3.119   4.196   5.221
 3249SOL    HW110646   3.055   4.130   5.262
 3249SOL    HW210647   3.077   4.286   5.219
 3250SOL     OW10648   4.667   5.913   1.433
 3250SOL    HW110649   4.692   6.009   1.420
 3250SOL    HW210650   4.567   5.904   1.427
 3251SOL     OW10651   3.700   1.107   3.643
 3251SOL    HW110652   3.701   1.065   3.733
 3251SOL    HW210653   3.781   1.078   3.591
 3252SOL     OW10654   3.141   2.152   3.674
 3252SOL    HW110655   3.103   2.221   3.612
 3252SOL    HW210656   3.084   2.070   3.671
 3253SOL     OW10657   4.296   3.781   1.025
 3253SOL    HW110658   4.341   3.826   0.948
 3253SOL    HW210659   4.355   3.784   1.105
 3254SOL     OW10660   5.119   4.257   2.377
 3254SOL    HW110661   5.067   4.176   2.351
 3254SOL    HW210662   5.060   4.320   2.428
 3255SOL     OW10663   3.694   4.952   1.374
 3255SOL    HW110664   3.790   4.925   1.379
 3255SOL    HW210665   3.677   4.998   1.286
 3256SOL     OW10666   6.085   6.667   5.886
 3256SOL    HW110667   6.160   6.712   5.839
 3256SOL    HW210668   6.027   6.621   5.820
 3257SOL     OW10669   2.343   1.753   1.029
 3257SOL    HW110670   2.302   1.806   0.955
 3257SOL    HW210671   2.442   1.762   1.025
 3258SOL     OW10672   5.147   0.231   1.524
 3258SOL    HW110673   5.236   0.237   1.570
 3258SOL    HW210674   5.083   0.295   1.566
 3259SOL     OW10675   6.140   6.112   3.146
 3259SOL    HW110676   6.202   6.173   3.196
 3259SOL    HW210677   6.159   6.018   3.172
 3260SOL     OW10678   1.394   2.842   0.523
 3260SOL    HW110679   1.437   2.821   0.436
 3260SOL    HW210680   1.330   2.918   0.512
 3261SOL     OW10681   4.387   0.211   3.445
 3261SOL    HW110682   4.290   0.221   3.466
 3261SOL    HW210683   4.422   0.127   3.488
 3262SOL     OW10684   3.990   1.408   4.802
 3262SOL    HW110685   3.950   1.382   4.714
 3262SOL    HW210686   3.926   1.467   4.851
 3263SOL     OW10687   3.623   5.442   2.860
 3263SOL    HW110688   3.630   5.450   2.960
 3263SOL    HW210689   3.622   5.345   2.835
 3264SOL     OW10690   4.947   4.591   5.681
 3264SOL    HW110691   4.974   4.656   5.610
 3264SOL    HW210692   5.024   4.574   5.742
 3265SOL     OW10693   5.275   0.591   6.747
 3265SOL    HW110694   5.330   0.613   6.827
 3265SOL    HW210695   5.323   0.617   6.664
 3266SOL     OW10696   0.508   2.531   6.934
 3266SOL    HW110697   0.593   2.546   6.986
 3266SOL    HW210698   0.431   2.570   6.985
 3267SOL     OW10699   4.861   2.543   1.527
 3267SOL    HW110700   4.886   2.634   1.560
 3267SOL    HW210701   4.804   2.497   1.595
 3268SOL     OW10702   1.835   4.966   6.676
 3268SOL    HW110703   1.866   4.941   6.584
 3268SOL    HW210704   1.821   4.883   6.730
 3269SOL     OW10705   4.423   3.583   0.826
 3269SOL    HW110706   4.383   3.569   0.916
 3269SOL    HW210707   4.482   3.505   0.803
 3270SOL     OW10708   0.483   5.355   4.290
 3270SOL    HW110709   0.561   5.297   4.312
 3270SOL    HW210710   0.428   5.312   4.219
 3271SOL     OW10711   4.872   0.951   1.811
 3271SOL    HW110712   4.958   0.964   1.860
 3271SOL    HW210713   4.878   0.995   1.722
 3272SOL     OW10714   4.953   0.094   6.797
 3272SOL    HW110715   4.943   0.071   6.894
 3272SOL    HW210716   4.913   0.184   6.780
 3273SOL     OW10717   1.321   0.542   3.253
 3273SOL    HW110718   1.379   0.567   3.175
 3273SOL    HW210719   1.321   0.443   3.265
 3274SOL     OW10720   3.083   2.105   6.959
 3274SOL    HW110721   3.154   2.142   7.017
 3274SOL    HW210722   3.023   2.045   7.012
 3275SOL     OW10723   4.332   0.629   0.690
 3275SOL    HW110724   4.283   0.613   0.775
 3275SOL    HW210725   4.282   0.694   0.634
 3276SOL     OW10726   1.975   6.649   0.388
 3276SOL    HW110727   2.068   6.612   0.383
 3276SOL    HW210728   1.968   6.714   0.463
 3277SOL     OW10729   0.325   5.727   5.670
 3277SOL    HW110730   0.337   5.679   5.757
 3277SOL    HW210731   0.299   5.662   5.599
 3278SOL     OW10732   1.023   1.094   0.420
 3278SOL    HW110733   0.983   1.184   0.403
 3278SOL    HW210734   0.970   1.025   0.372
 3279SOL     OW10735   2.402   5.884   1.556
 3279SOL    HW110736   2.392   5.910   1.460
 3279SOL    HW210737   2.320   5.835   1.586
 3280SOL     OW10738   2.864   5.847   4.650
 3280SOL    HW110739   2.819   5.918   4.705
 3280SOL    HW210740   2.803   5.768   4.641
 3281SOL     OW10741   2.317   6.458   0.736
 3281SOL    HW110742   2.254   6.392   0.695
 3281SOL    HW210743   2.388   6.409   0.788
 3282SOL     OW10744   2.411   5.761   2.613
 3282SOL    HW110745   2.358   5.683   2.579
 3282SOL    HW210746   2.391   5.842   2.558
 3283SOL     OW10747   2.181   0.176   4.316
 3283SOL    HW110748   2.148   0.200   4.225
 3283SOL    HW210749   2.154   0.246   4.381
 3284SOL     OW10750   1.043   4.654   5.827
 3284SOL    HW110751   1.102   4.574   5.821
 3284SOL    HW210752   1.004   4.660   5.919
 3285SOL     OW10753   0.257   2.274   4.823
 3285SOL    HW110754   0.273   2.350   4.886
 3285SOL    HW210755   0.292   2.190   4.864
 3286SOL     OW10756   4.440   4.975   5.878
 3286SOL    HW110757   4.371   4.980   5.949
 3286SOL    HW210758   4.473   5.068   5.857
 3287SOL     OW10759   0.351   4.200   1.742
 3287SOL    HW110760   0.410   4.172   1.666
 3287SOL    HW210761   0.260   4.222   1.709
 3288SOL     OW10762   1.262   6.556   6.351
 3288SOL    HW110763   1.337   6.493   6.328
 3288SOL    HW210764   1.299   6.637   6.395
 3289SOL     OW10765   1.426   5.434   4.903
 3289SOL    HW110766   1.495   5.390   4.845
 3289SOL    HW210767   1.471   5.481   4.979
 3290SOL     OW10768   6.995   4.363   3.194
 3290SOL    HW110769   7.018   4.266   3.205
 3290SOL    HW210770   0.028   4.418   3.252
 3291SOL     OW10771   1.711   0.350   1.790
 3291SOL    HW110772   1.679   0.430   1.739
 3291SOL    HW210773   1.808   0.360   1.812
 3292SOL     OW10774   0.674   5.482   4.809
 3292SOL    HW110775   0.591   5.477   4.754
 3292SOL    HW210776   0.751   5.445   4.756
 3293SOL     OW10777   6.154   0.754   2.441
 3293SOL    HW110778   6.189   0.838   2.483
 3293SOL    HW210779   6.217   0.679   2.459
 3294SOL     OW10780   0.803   6.915   0.463
 3294SOL    HW110781   0.709   6.942   0.483
 3294SOL    HW210782   0.844   6.873   0.544
 3295SOL     OW10783   1.613   2.158   6.028
 3295SOL    HW110784   1.591   2.163   5.930
 3295SOL    HW210785   1.678   2.084   6.043
 3296SOL     OW10786   0.835   6.944   2.123
 3296SOL    HW110787   0.903   6.927   2.194
 3296SOL    HW210788   0.779   6.862   2.109
 3297SOL     OW10789   2.845   1.757   6.257
 3297SOL    HW110790   2.815   1.668   6.289
 3297SOL    HW210791   2.902   1.746   6.176
 3298SOL     OW10792   6.408   4.051   2.511
 3298SOL    HW110793   6.452   3.983   2.569
 3298SOL    HW210794   6.456   4.138   2.518
 3299SOL     OW10795   0.996   0.913   4.979
 3299SOL    HW110796   0.903   0.950   4.979
 3299SOL    HW210797   1.049   0.958   5.051
 3300SOL     OW10798   0.016   0.178   4.626
 3300SOL    HW110799   6.993   0.197   4.711
 3300SOL    HW210800   6.984   0.123   4.566
 3301SOL     OW10801   0.297   3.715   2.391
 3301SOL    HW110802   0.381   3.769   2.383
 3301SOL    HW210803   0.312   3.623   2.354
 3302SOL     OW10804   1.080   5.889   5.245
 3302SOL    HW110805   0.997   5.931   5.210
 3302SOL    HW210806   1.140   5.959   5.283
 3303SOL     OW10807   3.241   3.403   3.576
 3303SOL    HW110808   3.243   3.306   3.552
 3303SOL    HW210809   3.147   3.438   3.567
 3304SOL     OW10810   1.823   1.010   3.090
 3304SOL    HW110811   1.859   0.988   2.999
 3304SOL    HW210812   1.747   0.949   3.111
 3305SOL     OW10813   0.419   2.452   0.864
 3305SOL    HW110814   0.348   2.522   0.854
 3305SOL    HW210815   0.421   2.421   0.959
 3306SOL     OW10816   1.015   3.665   1.914
 3306SOL    HW110817   1.042   3.570   1.929
 3306SOL    HW210818   0.972   3.701   1.997
 3307SOL     OW10819   0.760   6.217   0.625
 3307SOL    HW110820   0.812   6.233   0.709
 3307SOL    HW210821   0.816   6.244   0.546
 3308SOL     OW10822   5.917   6.649   0.627
 3308SOL    HW110823   5.973   6.568   0.613
 3308SOL    HW210824   5.935   6.688   0.717
 3309SOL     OW10825   1.519   5.386   2.345
 3309SOL    HW110826   1.454   5.318   2.382
 3309SOL    HW210827   1.555   5.353   2.258
 3310SOL     OW10828   1.229   6.708   2.081
 3310SOL    HW110829   1.165   6.732   2.008
 3310SOL    HW210830   1.179   6.702   2.167
 3311SOL     OW10831   3.922   6.606   1.188
 3311SOL    HW110832   3.862   6.552   1.130
 3311SOL    HW210833   3.884   6.698   1.199
 3312SOL     OW10834   2.001   3.040   6.700
 3312SOL    HW110835   1.912   3.081   6.720
 3312SOL    HW210836   2.072   3.084   6.756
 3313SOL     OW10837   6.289   6.282   4.999
 3313SOL    HW110838   6.328   6.252   5.086
 3313SOL    HW210839   6.191   6.299   5.010
 3314SOL     OW10840   0.357   4.054   6.774
 3314SOL    HW110841   0.273   4.044   6.721
 3314SOL    HW210842   0.368   4.150   6.800
 3315SOL     OW10843   6.342   3.578   3.430
 3315SOL    HW110844   6.432   3.586   3.387
 3315SOL    HW210845   6.320   3.481   3.445
 3316SOL     OW10846   4.363   2.032   0.545
 3316SOL    HW110847   4.381   1.949   0.597
 3316SOL    HW210848   4.328   2.103   0.607
 3317SOL     OW10849   4.107   2.924   1.787
 3317SOL    HW110850   4.173   2.999   1.786
 3317SOL    HW210851   4.137   2.852   1.725
 3318SOL     OW10852   2.607   5.394   4.936
 3318SOL    HW110853   2.619   5.430   5.029
 3318SOL    HW210854   2.679   5.431   4.877
 3319SOL     OW10855   6.784   6.255   6.592
 3319SOL    HW110856   6.823   6.276   6.681
 3319SOL    HW210857   6.687   6.279   6.591
 3320SOL     OW10858   0.771   0.779   0.010
 3320SOL    HW110859   0.755   0.786   6.937
 3320SOL    HW210860   0.838   0.707   0.028
 3321SOL     OW10861   3.999   3.580   4.272
 3321SOL    HW110862   3.907   3.544   4.286
 3321SOL    HW210863   4.061   3.505   4.246
 3322SOL     OW10864   4.142   2.644   1.642
 3322SOL    HW110865   4.136   2.633   1.543
 3322SOL    HW210866   4.060   2.607   1.685
 3323SOL     OW10867   2.777   4.854   0.089
 3323SOL    HW110868   2.776   4.883   7.019
 3323SOL    HW210869   2.691   4.882   0.133
 3324SOL     OW10870   6.068   3.026   1.784
 3324SOL    HW110871   5.992   3.074   1.740
 3324SOL    HW210872   6.043   3.001   1.877
 3325SOL     OW10873   1.155   4.093   6.640
 3325SOL    HW110874   1.192   4.088   6.547
 3325SOL    HW210875   1.198   4.024   6.697
 3326SOL     OW10876   6.727   0.878   1.751
 3326SOL    HW110877   6.655   0.847   1.688
 3326SOL    HW210878   6.808   0.902   1.698
 3327SOL     OW10879   4.343   6.228   1.455
 3327SOL    HW110880   4.395   6.314   1.461
 3327SOL    HW210881   4.366   6.181   1.370
 3328SOL     OW10882   5.927   0.018   3.931
 3328SOL    HW110883   5.928   6.945   3.929
 3328SOL    HW210884   5.833   0.051   3.925
 3329SOL     OW10885   5.143   0.920   6.936
 3329SOL    HW110886   5.227   0.968   6.911
 3329SOL    HW210887   5.139   0.833   6.887
 3330SOL     OW10888   0.009   6.734   3.339
 3330SOL    HW110889   0.017   6.636   3.360
 3330SOL    HW210890   0.005   6.746   3.240
 3331SOL     OW10891   1.378   3.737   3.029
 3331SOL    HW110892   1.373   3.732   3.129
 3331SOL    HW210893   1.437   3.663   2.995
 3332SOL     OW10894   3.091   5.080   6.937
 3332SOL    HW110895   3.126   5.128   6.857
 3332SOL    HW210896   3.166   5.057   6.998
 3333SOL     OW10897   2.312   3.228   1.445
 3333SOL    HW110898   2.303   3.275   1.533
 3333SOL    HW210899   2.225   3.181   1.424
 3334SOL     OW10900   1.698   2.377   1.937
 3334SOL    HW110901   1.634   2.371   2.014
 3334SOL    HW210902   1.653   2.348   1.853
 3335SOL     OW10903   3.297   4.084   4.945
 3335SOL    HW110904   3.220   4.048   4.892
 3335SOL    HW210905   3.312   4.027   5.026
 3336SOL     OW10906   4.467   5.860   4.803
 3336SOL    HW110907   4.477   5.760   4.805
 3336SOL    HW210908   4.545   5.902   4.849
 3337SOL     OW10909   3.752   3.083   3.264
 3337SOL    HW110910   3.786   3.139   3.187
 3337SOL    HW210911   3.687   3.015   3.230
 3338SOL     OW10912   2.695   3.003   1.391
 3338SOL    HW110913   2.720   3.083   1.336
 3338SOL    HW210914   2.663   2.930   1.332
 3339SOL     OW10915   1.119   0.180   6.890
 3339SOL    HW110916   1.194   0.242   6.869
 3339SOL    HW210917   1.140   0.130   6.974
 3340SOL     OW10918   3.686   0.917   5.618
 3340SOL    HW110919   3.625   0.974   5.673
 3340SOL    HW210920   3.733   0.973   5.550
 3341SOL     OW10921   0.772   4.439   1.745
 3341SOL    HW110922   0.803   4.357   1.793
 3341SOL    HW210923   0.696   4.416   1.684
 3342SOL     OW10924   6.672   0.969   2.395
 3342SOL    HW110925   6.651   1.062   2.426
 3342SOL    HW210926   6.761   0.968   2.348
 3343SOL     OW10927   3.774   5.545   0.568
 3343SOL    HW110928   3.705   5.605   0.609
 3343SOL    HW210929   3.845   5.600   0.524
 3344SOL     OW10930   0.964   3.446   1.502
 3344SOL    HW110931   1.001   3.523   1.555
 3344SOL    HW210932   0.969   3.363   1.558
 3345SOL     OW10933   5.915   5.092   1.547
 3345SOL    HW110934   5.922   5.013   1.487
 3345SOL    HW210935   5.858   5.162   1.505
 3346SOL     OW10936   1.352   0.588   0.182
 3346SOL    HW110937   1.310   0.652   0.118
 3346SOL    HW210938   1.450   0.606   0.188
 3347SOL     OW10939   1.090   3.828   5.786
 3347SOL    HW110940   1.014   3.868   5.734
 3347SOL    HW210941   1.071   3.732   5.804
 3348SOL     OW10942   3.783   4.303   6.125
 3348SOL    HW110943   3.796   4.214   6.170
 3348SOL    HW210944   3.847   4.369   6.164
 3349SOL     OW10945   2.131   5.348   2.267
 3349SOL    HW110946   2.220   5.321   2.228
 3349SOL    HW210947   2.058   5.317   2.207
 3350SOL     OW10948   1.806   4.896   4.525
 3350SOL    HW110949   1.858   4.943   4.597
 3350SOL    HW210950   1.777   4.806   4.557
 3351SOL     OW10951   5.652   0.900   1.897
 3351SOL    HW110952   5.747   0.871   1.898
 3351SOL    HW210953   5.642   0.982   1.953
 3352SOL     OW10954   5.503   1.428   0.092
 3352SOL    HW110955   5.487   1.332   0.116
 3352SOL    HW210956   5.416   1.477   0.094
 3353SOL     OW10957   3.876   0.369   7.018
 3353SOL    HW110958   3.853   0.408   0.081
 3353SOL    HW210959   3.966   0.325   7.023
 3354SOL     OW10960   2.129   3.510   0.469
 3354SOL    HW110961   2.228   3.506   0.468
 3354SOL    HW210962   2.092   3.456   0.393
 3355SOL     OW10963   0.971   0.280   4.470
 3355SOL    HW110964   0.886   0.325   4.498
 3355SOL    HW210965   1.000   0.318   4.382
 3356SOL     OW10966   2.159   0.989   6.589
 3356SOL    HW110967   2.104   0.983   6.672
 3356SOL    HW210968   2.101   0.972   6.509
 3357SOL     OW10969   3.202   3.035   3.076
 3357SOL    HW110970   3.235   2.978   3.151
 3357SOL    HW210971   3.225   2.992   2.989
 3358SOL     OW10972   0.572   1.555   1.638
 3358SOL    HW110973   0.496   1.617   1.657
 3358SOL    HW210974   0.644   1.569   1.706
 3359SOL     OW10975   0.760   6.742   4.775
 3359SOL    HW110976   0.833   6.805   4.803
 3359SOL    HW210977   0.781   6.704   4.685
 3360SOL     OW10978   2.092   4.996   4.117
 3360SOL    HW110979   2.189   4.986   4.097
 3360SOL    HW210980   2.079   5.009   4.215
 3361SOL     OW10981   6.492   6.625   5.236
 3361SOL    HW110982   6.407   6.575   5.254
 3361SOL    HW210983   6.538   6.645   5.323
 3362SOL     OW10984   3.863   0.419   3.805
 3362SOL    HW110985   3.770   0.393   3.778
 3362SOL    HW210986   3.889   0.367   3.887
 3363SOL     OW10987   5.650   4.315   0.097
 3363SOL    HW110988   5.610   4.292   0.008
 3363SOL    HW210989   5.629   4.243   0.163
 3364SOL     OW10990   1.426   3.604   1.825
 3364SOL    HW110991   1.394   3.689   1.868
 3364SOL    HW210992   1.446   3.536   1.896
 3365SOL     OW10993   1.336   3.209   2.440
 3365SOL    HW110994   1.306   3.119   2.408
 3365SOL    HW210995   1.266   3.249   2.498
 3366SOL     OW10996   6.141   3.139   4.593
 3366SOL    HW110997   6.223   3.081   4.591
 3366SOL    HW210998   6.061   3.082   4.610
 3367SOL     OW10999   3.762   3.026   3.834
 3367SOL    HW111000   3.795   2.995   3.745
 3367SOL    HW211001   3.680   3.082   3.821
 3368SOL     OW11002   2.774   0.871   3.074
 3368SOL    HW111003   2.742   0.797   3.133
 3368SOL    HW211004   2.818   0.941   3.129
 3369SOL     OW11005   4.875   2.809   0.752
 3369SOL    HW111006   4.896   2.724   0.802
 3369SOL    HW211007   4.922   2.808   0.664
 3370SOL     OW11008   0.765   5.515   2.769
 3370SOL    HW111009   0.751   5.494   2.672
 3370SOL    HW211010   0.861   5.498   2.793
 3371SOL     OW11011   2.196   2.551   1.448
 3371SOL    HW111012   2.294   2.532   1.442
 3371SOL    HW211013   2.146   2.493   1.383
 3372SOL     OW11014   5.583   3.167   3.490
 3372SOL    HW111015   5.585   3.069   3.470
 3372SOL    HW211016   5.573   3.180   3.589
 3373SOL     OW11017   0.135   3.947   1.395
 3373SOL    HW111018   0.053   4.004   1.400
 3373SOL    HW211019   0.164   3.921   1.487
 3374SOL     OW11020   0.696   6.256   4.297
 3374SOL    HW111021   0.736   6.315   4.367
 3374SOL    HW211022   0.757   6.179   4.278
 3375SOL     OW11023   0.596   6.076   5.809
 3375SOL    HW111024   0.676   6.119   5.850
 3375SOL    HW211025   0.622   5.989   5.768
 3376SOL     OW11026   3.145   3.124   4.683
 3376SOL    HW111027   3.222   3.178   4.648
 3376SOL    HW211028   3.156   3.029   4.654
 3377SOL     OW11029   6.980   5.047   4.695
 3377SOL    HW111030   6.973   4.961   4.746
 3377SOL    HW211031   6.922   5.116   4.738
 3378SOL     OW11032   1.309   5.960   0.643
 3378SOL    HW111033   1.369   6.017   0.587
 3378SOL    HW211034   1.357   5.935   0.728
 3379SOL     OW11035   5.991   3.824   4.261
 3379SOL    HW111036   6.086   3.833   4.291
 3379SOL    HW211037   5.951   3.915   4.250
 3380SOL     OW11038   2.457   5.392   1.224
 3380SOL    HW111039   2.450   5.367   1.127
 3380SOL    HW211040   2.492   5.315   1.276
 3381SOL     OW11041   2.764   4.046   6.257
 3381SOL    HW111042   2.759   4.070   6.160
 3381SOL    HW211043   2.699   4.103   6.308
 3382SOL     OW11044   6.454   4.118   6.886
 3382SOL    HW111045   6.354   4.122   6.897
 3382SOL    HW211046   6.476   4.115   6.789
 3383SOL     OW11047   3.751   5.281   0.522
 3383SOL    HW111048   3.696   5.230   0.589
 3383SOL    HW211049   3.741   5.379   0.539
 3384SOL     OW11050   2.723   2.891   6.283
 3384SOL    HW111051   2.631   2.853   6.280
 3384SOL    HW211052   2.767   2.879   6.193
 3385SOL     OW11053   6.249   2.490   4.430
 3385SOL    HW111054   6.298   2.434   4.496
 3385SOL    HW211055   6.153   2.460   4.425
 3386SOL     OW11056   0.382   5.804   4.382
 3386SOL    HW111057   0.377   5.708   4.355
 3386SOL    HW211058   0.453   5.814   4.452
 3387SOL     OW11059   6.241   1.017   3.004
 3387SOL    HW111060   6.222   1.099   2.950
 3387SOL    HW211061   6.161   0.958   3.005
 3388SOL     OW11062   6.745   3.779   0.796
 3388SOL    HW111063   6.747   3.710   0.869
 3388SOL    HW211064   6.681   3.852   0.821
 3389SOL     OW11065   6.284   5.333   6.494
 3389SOL    HW111066   6.280   5.287   6.406
 3389SOL    HW211067   6.313   5.268   6.565
 3390SOL     OW11068   2.962   5.816   0.667
 3390SOL    HW111069   2.967   5.885   0.595
 3390SOL    HW211070   2.911   5.737   0.635
 3391SOL     OW11071   4.859   3.999   5.090
 3391SOL    HW111072   4.812   4.038   5.011
 3391SOL    HW211073   4.930   4.062   5.121
 3392SOL     OW11074   4.632   6.149   6.404
 3392SOL    HW111075   4.693   6.227   6.413
 3392SOL    HW211076   4.673   6.082   6.342
 3393SOL     OW11077   4.031   6.230   0.409
 3393SOL    HW111078   3.977   6.287   0.347
 3393SOL    HW211079   4.106   6.187   0.359
 3394SOL     OW11080   3.249   5.244   1.450
 3394SOL    HW111081   3.155   5.278   1.458
 3394SOL    HW211082   3.262   5.168   1.513
 3395SOL     OW11083   2.089   6.311   2.925
 3395SOL    HW111084   2.112   6.403   2.955
 3395SOL    HW211085   2.083   6.250   3.004
 3396SOL     OW11086   4.638   0.310   4.045
 3396SOL    HW111087   4.642   0.224   4.096
 3396SOL    HW211088   4.715   0.368   4.072
 3397SOL     OW11089   2.238   6.107   0.489
 3397SOL    HW111090   2.291   6.192   0.481
 3397SOL    HW211091   2.261   6.046   0.413
 3398SOL     OW11092   6.339   1.347   6.204
 3398SOL    HW111093   6.278   1.268   6.210
 3398SOL    HW211094   6.434   1.316   6.207
 3399SOL     OW11095   6.551   5.979   2.379
 3399SOL    HW111096   6.500   6.051   2.333
 3399SOL    HW211097   6.612   6.020   2.448
 3400SOL     OW11098   3.806   2.959   5.200
 3400SOL    HW111099   3.885   2.905   5.228
 3400SOL    HW211100   3.785   2.941   5.104
 3401SOL     OW11101   0.114   3.425   3.892
 3401SOL    HW111102   0.021   3.460   3.893
 3401SOL    HW211103   0.178   3.501   3.889
 3402SOL     OW11104   5.901   3.639   0.704
 3402SOL    HW111105   5.842   3.564   0.736
 3402SOL    HW211106   5.867   3.726   0.740
 3403SOL     OW11107   4.990   6.388   6.135
 3403SOL    HW111108   4.906   6.369   6.186
 3403SOL    HW211109   5.042   6.460   6.181
 3404SOL     OW11110   4.847   5.433   3.175
 3404SOL    HW111111   4.890   5.522   3.159
 3404SOL    HW211112   4.917   5.361   3.173
 3405SOL     OW11113   4.013   5.899   0.333
 3405SOL    HW111114   4.089   5.963   0.320
 3405SOL    HW211115   3.926   5.948   0.325
 3406SOL     OW11116   3.431   5.420   1.545
 3406SOL    HW111117   3.521   5.376   1.552
 3406SOL    HW211118   3.367   5.358   1.500
 3407SOL     OW11119   1.083   3.443   0.077
 3407SOL    HW111120   1.138   3.445   0.161
 3407SOL    HW211121   1.053   3.536   0.055
 3408SOL     OW11122   4.470   7.001   3.599
 3408SOL    HW111123   4.440   6.928   3.661
 3408SOL    HW211124   4.562   6.980   3.565
 3409SOL     OW11125   3.999   1.836   6.862
 3409SOL    HW111126   3.903   1.820   6.886
 3409SOL    HW211127   4.008   1.839   6.762
 3410SOL     OW11128   6.257   0.563   2.862
 3410SOL    HW111129   6.309   0.584   2.780
 3410SOL    HW211130   6.168   0.526   2.836
 3411SOL     OW11131   5.960   3.097   5.799
 3411SOL    HW111132   5.892   3.133   5.863
 3411SOL    HW211133   5.922   3.099   5.706
 3412SOL     OW11134   5.489   2.981   3.211
 3412SOL    HW111135   5.586   2.958   3.223
 3412SOL    HW211136   5.458   2.950   3.121
 3413SOL     OW11137   6.916   1.908   0.751
 3413SOL    HW111138   6.833   1.853   0.755
 3413SOL    HW211139   6.916   1.976   0.824
 3414SOL     OW11140   3.573   3.218   2.118
 3414SOL    HW111141   3.569   3.309   2.158
 3414SOL    HW211142   3.566   3.149   2.191
 3415SOL     OW11143   2.321   1.460   5.922
 3415SOL    HW111144   2.222   1.455   5.938
 3415SOL    HW211145   2.350   1.382   5.867
 3416SOL     OW11146   6.438   6.737   6.133
 3416SOL    HW111147   6.452   6.819   6.079
 3416SOL    HW211148   6.383   6.671   6.081
 3417SOL     OW11149   6.076   0.202   2.376
 3417SOL    HW111150   6.054   0.106   2.396
 3417SOL    HW211151   6.121   0.243   2.455
 3418SOL     OW11152   4.252   5.659   1.058
 3418SOL    HW111153   4.168   5.655   1.111
 3418SOL    HW211154   4.253   5.584   0.991
 3419SOL     OW11155   2.713   4.635   5.332
 3419SOL    HW111156   2.765   4.606   5.252
 3419SOL    HW211157   2.662   4.557   5.369
 3420SOL     OW11158   4.434   1.016   2.602
 3420SOL    HW111159   4.398   1.011   2.508
 3420SOL    HW211160   4.500   1.091   2.607
 3421SOL     OW11161   6.942   1.725   4.827
 3421SOL    HW111162   6.992   1.641   4.809
 3421SOL    HW211163   6.844   1.706   4.823
 3422SOL     OW11164   3.254   6.307   1.656
 3422SOL    HW111165   3.220   6.378   1.717
 3422SOL    HW211166   3.354   6.306   1.659
 3423SOL     OW11167   2.763   4.198   5.715
 3423SOL    HW111168   2.706   4.274   5.744
 3423SOL    HW211169   2.705   4.125   5.677
 3424SOL     OW11170   4.920   0.854   2.275
 3424SOL    HW111171   4.897   0.916   2.350
 3424SOL    HW211172   4.837   0.811   2.239
 3425SOL     OW11173   6.512   2.900   6.125
 3425SOL    HW111174   6.561   2.924   6.041
 3425SOL    HW211175   6.418   2.936   6.120
 3426SOL     OW11176   5.891   4.556   0.365
 3426SOL    HW111177   5.957   4.507   0.421
 3426SOL    HW211178   5.889   4.652   0.390
 3427SOL     OW11179   1.947   1.535   6.254
 3427SOL    HW111180   1.862   1.560   6.300
 3427SOL    HW211181   2.021   1.592   6.288
 3428SOL     OW11182   5.544   0.291   4.858
 3428SOL    HW111183   5.468   0.258   4.802
 3428SOL    HW211184   5.582   0.215   4.911
 3429SOL     OW11185   4.133   6.715   0.887
 3429SOL    HW111186   4.109   6.618   0.882
 3429SOL    HW211187   4.117   6.757   0.798
 3430SOL     OW11188   2.524   4.185   6.340
 3430SOL    HW111189   2.523   4.238   6.424
 3430SOL    HW211190   2.456   4.112   6.345
 3431SOL     OW11191   0.757   4.383   2.892
 3431SOL    HW111192   0.662   4.361   2.915
 3431SOL    HW211193   0.816   4.356   2.968
 3432SOL     OW11194   0.497   4.676   0.078
 3432SOL    HW111195   0.465   4.644   7.015
 3432SOL    HW211196   0.528   4.599   0.132
 3433SOL     OW11197   0.876   0.920   0.277
 3433SOL    HW111198   0.861   0.935   0.179
 3433SOL    HW211199   0.874   0.823   0.297
 3434SOL     OW11200   3.684   2.566   1.794
 3434SOL    HW111201   3.609   2.615   1.838
 3434SOL    HW211202   3.682   2.470   1.820
 3435SOL     OW11203   1.868   2.283   1.027
 3435SOL    HW111204   1.862   2.375   1.065
 3435SOL    HW211205   1.859   2.287   0.927
 3436SOL     OW11206   3.911   6.637   5.955
 3436SOL    HW111207   3.974   6.677   6.022
 3436SOL    HW211208   3.955   6.635   5.865
 3437SOL     OW11209   1.435   6.492   6.770
 3437SOL    HW111210   1.353   6.519   6.720
 3437SOL    HW211211   1.411   6.429   6.844
 3438SOL     OW11212   2.622   4.339   0.794
 3438SOL    HW111213   2.574   4.386   0.720
 3438SOL    HW211214   2.565   4.263   0.827
 3439SOL     OW11215   3.461   6.379   0.132
 3439SOL    HW111216   3.474   6.329   0.218
 3439SOL    HW211217   3.545   6.428   0.109
 3440SOL     OW11218   3.743   3.685   5.725
 3440SOL    HW111219   3.688   3.769   5.735
 3440SOL    HW211220   3.683   3.608   5.707
 3441SOL     OW11221   6.877   4.974   4.450
 3441SOL    HW111222   6.912   5.004   4.539
 3441SOL    HW211223   6.824   4.890   4.462
 3442SOL     OW11224   1.046   2.815   0.741
 3442SOL    HW111225   1.117   2.880   0.769
 3442SOL    HW211226   0.972   2.865   0.696
 3443SOL     OW11227   0.613   6.086   2.632
 3443SOL    HW111228   0.611   6.057   2.536
 3443SOL    HW211229   0.525   6.126   2.657
 3444SOL     OW11230   7.021   3.555   5.949
 3444SOL    HW111231   0.059   3.494   5.995
 3444SOL    HW211232   6.988   3.511   5.865
 3445SOL     OW11233   6.162   4.936   4.580
 3445SOL    HW111234   6.222   4.862   4.550
 3445SOL    HW211235   6.066   4.908   4.571
 3446SOL     OW11236   4.437   1.805   0.750
 3446SOL    HW111237   4.487   1.719   0.745
 3446SOL    HW211238   4.339   1.786   0.750
 3447SOL     OW11239   5.121   1.198   6.514
 3447SOL    HW111240   5.089   1.126   6.575
 3447SOL    HW211241   5.204   1.239   6.550
 3448SOL     OW11242   0.801   5.095   5.540
 3448SOL    HW111243   0.817   5.053   5.451
 3448SOL    HW211244   0.764   5.027   5.603
 3449SOL     OW11245   0.930   3.871   5.407
 3449SOL    HW111246   0.971   3.959   5.381
 3449SOL    HW211247   0.887   3.830   5.326
 3450SOL     OW11248   2.850   6.649   2.287
 3450SOL    HW111249   2.810   6.739   2.301
 3450SOL    HW211250   2.827   6.589   2.364
 3451SOL     OW11251   2.206   2.603   0.934
 3451SOL    HW111252   2.268   2.681   0.940
 3451SOL    HW211253   2.234   2.545   0.858
 3452SOL     OW11254   4.233   1.418   5.891
 3452SOL    HW111255   4.216   1.322   5.910
 3452SOL    HW211256   4.244   1.468   5.977
 3453SOL     OW11257   4.438   6.289   6.276
 3453SOL    HW111258   4.469   6.236   6.356
 3453SOL    HW211259   4.339   6.279   6.267
 3454SOL     OW11260   0.771   3.476   2.508
 3454SOL    HW111261   0.860   3.454   2.548
 3454SOL    HW211262   0.708   3.504   2.580
 3455SOL     OW11263   0.699   3.756   6.641
 3455SOL    HW111264   0.724   3.851   6.623
 3455SOL    HW211265   0.746   3.697   6.576
 3456SOL     OW11266   4.562   5.670   3.389
 3456SOL    HW111267   4.604   5.580   3.376
 3456SOL    HW211268   4.462   5.661   3.383
 3457SOL     OW11269   4.191   4.768   0.384
 3457SOL    HW111270   4.176   4.701   0.311
 3457SOL    HW211271   4.268   4.738   0.440
 3458SOL     OW11272   4.323   1.668   2.017
 3458SOL    HW111273   4.309   1.757   2.060
 3458SOL    HW211274   4.385   1.613   2.073
 3459SOL     OW11275   5.853   6.405   2.012
 3459SOL    HW111276   5.819   6.480   1.956
 3459SOL    HW211277   5.817   6.318   1.977
 3460SOL     OW11278   3.787   1.668   5.344
 3460SOL    HW111279   3.702   1.616   5.350
 3460SOL    HW211280   3.793   1.711   5.254
 3461SOL     OW11281   4.838   4.872   3.919
 3461SOL    HW111282   4.910   4.865   3.987
 3461SOL    HW211283   4.794   4.961   3.925
 3462SOL     OW11284   0.870   4.438   6.513
 3462SOL    HW111285   0.929   4.394   6.580
 3462SOL    HW211286   0.906   4.423   6.421
 3463SOL     OW11287   5.455   3.592   7.021
 3463SOL    HW111288   5.381   3.527   7.002
 3463SOL    HW211289   5.433   3.645   0.076
 3464SOL     OW11290   0.222   4.498   3.667
 3464SOL    HW111291   0.139   4.547   3.640
 3464SOL    HW211292   0.254   4.533   3.755
 3465SOL     OW11293   0.586   2.844   2.580
 3465SOL    HW111294   0.495   2.871   2.548
 3465SOL    HW211295   0.577   2.793   2.666
 3466SOL     OW11296   6.795   3.390   3.855
 3466SOL    HW111297   6.737   3.469   3.832
 3466SOL    HW211298   6.799   3.328   3.777
 3467SOL     OW11299   1.580   2.576   5.958
 3467SOL    HW111300   1.518   2.533   5.893
 3467SOL    HW211301   1.674   2.552   5.936
 3468SOL     OW11302   5.178   6.430   2.052
 3468SOL    HW111303   5.079   6.438   2.060
 3468SOL    HW211304   5.205   6.442   1.956
 3469SOL     OW11305   5.469   3.922   0.630
 3469SOL    HW111306   5.483   3.888   0.537
 3469SOL    HW211307   5.515   4.010   0.640
 3470SOL     OW11308   6.421   4.875   1.174
 3470SOL    HW111309   6.412   4.967   1.212
 3470SOL    HW211310   6.330   4.838   1.154
 3471SOL     OW11311   4.392   6.614   4.127
 3471SOL    HW111312   4.385   6.524   4.171
 3471SOL    HW211313   4.383   6.686   4.195
 3472SOL     OW11314   4.005   1.004   5.077
 3472SOL    HW111315   3.984   1.094   5.115
 3472SOL    HW211316   3.954   0.992   4.992
 3473SOL     OW11317   4.615   0.187   3.800
 3473SOL    HW111318   4.603   0.245   3.881
 3473SOL    HW211319   4.527   0.176   3.754
 3474SOL     OW11320   4.934   4.224   0.680
 3474SOL    HW111321   4.854   4.166   0.699
 3474SOL    HW211322   4.921   4.314   0.723
 3475SOL     OW11323   1.931   5.768   5.264
 3475SOL    HW111324   1.841   5.805   5.286
 3475SOL    HW211325   1.930   5.730   5.171
 3476SOL     OW11326   4.085   1.764   4.570
 3476SOL    HW111327   3.986   1.772   4.560
 3476SOL    HW211328   4.120   1.844   4.620
 3477SOL     OW11329   4.636   5.359   1.782
 3477SOL    HW111330   4.574   5.378   1.706
 3477SOL    HW211331   4.643   5.260   1.795
 3478SOL     OW11332   4.232   4.275   0.328
 3478SOL    HW111333   4.275   4.280   0.238
 3478SOL    HW211334   4.255   4.358   0.379
 3479SOL     OW11335   1.245   0.212   0.924
 3479SOL    HW111336   1.209   0.174   0.839
 3479SOL    HW211337   1.288   0.139   0.977
 3480SOL     OW11338   1.369   0.036   4.248
 3480SOL    HW111339   1.282   0.064   4.289
 3480SOL    HW211340   1.400   6.977   4.290
 3481SOL     OW11341   1.756   6.259   6.879
 3481SOL    HW111342   1.811   6.178   6.857
 3481SOL    HW211343   1.659   6.236   6.875
 3482SOL     OW11344   0.687   2.517   2.126
 3482SOL    HW111345   0.590   2.528   2.149
 3482SOL    HW211346   0.735   2.478   2.205
 3483SOL     OW11347   3.564   1.657   0.622
 3483SOL    HW111348   3.624   1.627   0.548
 3483SOL    HW211349   3.582   1.603   0.704
 3484SOL     OW11350   4.058   3.863   3.953
 3484SOL    HW111351   4.036   3.899   4.043
 3484SOL    HW211352   4.149   3.821   3.955
 3485SOL     OW11353   5.909   1.617   5.317
 3485SOL    HW111354   5.823   1.669   5.325
 3485SOL    HW211355   5.961   1.626   5.402
 3486SOL     OW11356   4.915   0.706   2.827
 3486SOL    HW111357   4.888   0.801   2.842
 3486SOL    HW211358   5.012   0.696   2.849
 3487SOL     OW11359   0.647   0.528   0.625
 3487SOL    HW111360   0.612   0.545   0.533
 3487SOL    HW211361   0.665   0.615   0.671
 3488SOL     OW11362   6.287   3.906   4.075
 3488SOL    HW111363   6.297   4.005   4.079
 3488SOL    HW211364   6.293   3.868   4.168
 3489SOL     OW11365   2.717   5.220   6.830
 3489SOL    HW111366   2.627   5.189   6.862
 3489SOL    HW211367   2.739   5.308   6.874
 3490SOL     OW11368   4.067   3.286   0.948
 3490SOL    HW111369   4.047   3.221   1.022
 3490SOL    HW211370   4.165   3.306   0.948
 3491SOL     OW11371   6.604   3.332   5.867
 3491SOL    HW111372   6.687   3.312   5.813
 3491SOL    HW211373   6.630   3.377   5.952
 3492SOL     OW11374   6.026   4.729   6.728
 3492SOL    HW111375   6.006   4.636   6.757
 3492SOL    HW211376   5.975   4.749   6.644
 3493SOL     OW11377   6.989   4.918   1.764
 3493SOL    HW111378   6.936   5.000   1.741
 3493SOL    HW211379   6.944   4.869   1.839
 3494SOL     OW11380   3.058   6.772   1.064
 3494SOL    HW111381   2.989   6.760   1.136
 3494SOL    HW211382   3.106   6.859   1.078
 3495SOL     OW11383   5.794   3.919   6.843
 3495SOL    HW111384   5.755   3.866   6.919
 3495SOL    HW211385   5.827   4.007   6.878
 3496SOL     OW11386   0.717   4.888   0.912
 3496SOL    HW111387   0.754   4.800   0.881
 3496SOL    HW211388   0.790   4.956   0.911
 3497SOL     OW11389   4.255   7.010   4.370
 3497SOL    HW111390   4.269   6.912   4.360
 3497SOL    HW211391   4.306   0.032   4.298
 3498SOL     OW11392   1.139   1.855   0.384
 3498SOL    HW111393   1.216   1.791   0.387
 3498SOL    HW211394   1.054   1.804   0.400
 3499SOL     OW11395   0.177   4.225   4.337
 3499SOL    HW111396   0.162   4.215   4.435
 3499SOL    HW211397   0.102   4.183   4.287
 3500SOL     OW11398   5.875   3.322   0.752
 3500SOL    HW111399   5.872   3.353   0.847
 3500SOL    HW211400   5.839   3.229   0.747
 3501SOL     OW11401   0.622   4.659   3.207
 3501SOL    HW111402   0.568   4.668   3.124
 3501SOL    HW211403   0.645   4.562   3.221
 3502SOL     OW11404   0.818   5.000   1.635
 3502SOL    HW111405   0.800   5.092   1.670
 3502SOL    HW211406   0.826   4.936   1.711
 3503SOL     OW11407   3.356   0.106   3.310
 3503SOL    HW111408   3.447   0.101   3.269
 3503SOL    HW211409   3.336   0.020   3.358
 3504SOL     OW11410   2.061   2.628   3.000
 3504SOL    HW111411   2.083   2.620   3.098
 3504SOL    HW211412   1.964   2.610   2.986
 3505SOL     OW11413   4.573   0.028   4.694
 3505SOL    HW111414   4.615   7.022   4.609
 3505SOL    HW211415   4.595   6.990   4.768
 3506SOL     OW11416   6.031   5.061   2.169
 3506SOL    HW111417   5.955   5.028   2.113
 3506SOL    HW211418   6.081   5.132   2.120
 3507SOL     OW11419   6.776   0.296   5.741
 3507SOL    HW111420   6.682   0.268   5.723
 3507SOL    HW211421   6.793   0.384   5.697
 3508SOL     OW11422   6.324   4.045   0.363
 3508SOL    HW111423   6.243   4.082   0.408
 3508SOL    HW211424   6.345   4.099   0.282
 3509SOL     OW11425   5.629   0.501   6.533
 3509SOL    HW111426   5.676   0.472   6.450
 3509SOL    HW211427   5.683   0.572   6.579
 3510SOL     OW11428   1.907   2.007   2.484
 3510SOL    HW111429   1.887   1.909   2.483
 3510SOL    HW211430   1.830   2.058   2.446
 3511SOL     OW11431   0.699   1.017   4.681
 3511SOL    HW111432   0.706   0.993   4.778
 3511SOL    HW211433   0.666   0.938   4.630
 3512SOL     OW11434   3.303   2.912   0.901
 3512SOL    HW111435   3.359   2.945   0.825
 3512SOL    HW211436   3.340   2.826   0.935
 3513SOL     OW11437   5.464   4.112   0.958
 3513SOL    HW111438   5.400   4.052   0.911
 3513SOL    HW211439   5.428   4.206   0.958
 3514SOL     OW11440   2.290   6.477   1.955
 3514SOL    HW111441   2.367   6.431   1.911
 3514SOL    HW211442   2.211   6.416   1.956
 3515SOL     OW11443   4.062   5.977   3.347
 3515SOL    HW111444   4.037   5.880   3.348
 3515SOL    HW211445   4.001   6.028   3.408
 3516SOL     OW11446   2.052   1.207   0.560
 3516SOL    HW111447   2.138   1.257   0.569
 3516SOL    HW211448   2.026   1.204   0.463
 3517SOL     OW11449   0.255   0.746   6.416
 3517SOL    HW111450   0.225   0.719   6.325
 3517SOL    HW211451   0.244   0.669   6.479
 3518SOL     OW11452   4.313   3.513   5.764
 3518SOL    HW111453   4.237   3.449   5.759
 3518SOL    HW211454   4.290   3.596   5.713
 3519SOL     OW11455   3.529   6.790   0.409
 3519SOL    HW111456   3.564   6.831   0.494
 3519SOL    HW211457   3.465   6.853   0.366
 3520SOL     OW11458   3.726   5.390   1.492
 3520SOL    HW111459   3.702   5.480   1.455
 3520SOL    HW211460   3.806   5.399   1.552
 3521SOL     OW11461   6.566   2.538   6.418
 3521SOL    HW111462   6.663   2.556   6.401
 3521SOL    HW211463   6.557   2.460   6.479
 3522SOL     OW11464   2.686   0.711   0.460
 3522SOL    HW111465   2.635   0.794   0.483
 3522SOL    HW211466   2.720   0.717   0.366
 3523SOL     OW11467   2.801   4.347   5.370
 3523SOL    HW111468   2.824   4.250   5.378
 3523SOL    HW211469   2.866   4.391   5.308
 3524SOL     OW11470   2.300   0.404   2.562
 3524SOL    HW111471   2.242   0.479   2.593
 3524SOL    HW211472   2.320   0.343   2.639
 3525SOL     OW11473   1.198   3.861   2.571
 3525SOL    HW111474   1.273   3.926   2.557
 3525SOL    HW211475   1.168   3.825   2.483
 3526SOL     OW11476   3.997   6.455   3.537
 3526SOL    HW111477   3.938   6.528   3.501
 3526SOL    HW211478   4.020   6.474   3.632
 3527SOL     OW11479   5.304   3.281   6.541
 3527SOL    HW111480   5.362   3.362   6.551
 3527SOL    HW211481   5.317   3.221   6.620
 3528SOL     OW11482   1.905   6.269   4.922
 3528SOL    HW111483   1.811   6.277   4.957
 3528SOL    HW211484   1.959   6.347   4.954
 3529SOL     OW11485   3.933   6.043   7.024
 3529SOL    HW111486   3.982   6.127   6.999
 3529SOL    HW211487   3.924   6.039   0.098
 3530SOL     OW11488   1.546   6.668   2.963
 3530SOL    HW111489   1.644   6.652   2.961
 3530SOL    HW211490   1.521   6.729   2.888
 3531SOL     OW11491   5.150   4.653   6.813
 3531SOL    HW111492   5.112   4.593   6.883
 3531SOL    HW211493   5.139   4.611   6.723
 3532SOL     OW11494   1.877   6.725   0.850
 3532SOL    HW111495   1.940   6.790   0.806
 3532SOL    HW211496   1.916   6.633   0.846
 3533SOL     OW11497   1.609   0.818   3.688
 3533SOL    HW111498   1.616   0.791   3.784
 3533SOL    HW211499   1.515   0.846   3.668
 3534SOL     OW11500   5.277   0.552   5.158
 3534SOL    HW111501   5.376   0.549   5.171
 3534SOL    HW211502   5.243   0.460   5.139
 3535SOL     OW11503   5.019   6.429   7.020
 3535SOL    HW111504   5.036   6.415   0.091
 3535SOL    HW211505   5.078   6.367   6.967
 3536SOL     OW11506   0.882   3.602   2.805
 3536SOL    HW111507   0.929   3.514   2.800
 3536SOL    HW211508   0.828   3.607   2.889
 3537SOL     OW11509   2.955   4.908   1.635
 3537SOL    HW111510   3.053   4.926   1.625
 3537SOL    HW211511   2.938   4.811   1.619
 3538SOL     OW11512   3.962   0.951   3.595
 3538SOL    HW111513   4.034   0.883   3.611
 3538SOL    HW211514   3.886   0.908   3.547
 3539SOL     OW11515   5.075   5.755   6.132
 3539SOL    HW111516   5.057   5.832   6.193
 3539SOL    HW211517   4.989   5.723   6.092
 3540SOL     OW11518   3.209   4.625   6.224
 3540SOL    HW111519   3.227   4.617   6.321
 3540SOL    HW211520   3.110   4.623   6.208
 3541SOL     OW11521   1.150   2.546   1.786
 3541SOL    HW111522   1.143   2.644   1.766
 3541SOL    HW211523   1.108   2.528   1.875
 3542SOL     OW11524   5.973   1.712   6.737
 3542SOL    HW111525   5.963   1.622   6.695
 3542SOL    HW211526   6.062   1.717   6.784
 3543SOL     OW11527   0.355   1.997   3.745
 3543SOL    HW111528   0.381   2.060   3.671
 3543SOL    HW211529   0.277   2.035   3.794
 3544SOL     OW11530   2.835   4.424   0.412
 3544SOL    HW111531   2.903   4.453   0.344
 3544SOL    HW211532   2.752   4.395   0.366
 3545SOL     OW11533   4.171   6.556   0.438
 3545SOL    HW111534   4.177   6.565   0.338
 3545SOL    HW211535   4.075   6.550   0.465
 3546SOL     OW11536   6.643   4.555   1.067
 3546SOL    HW111537   6.588   4.616   1.011
 3546SOL    HW211538   6.737   4.551   1.032
 3547SOL     OW11539   0.875   4.153   4.761
 3547SOL    HW111540   0.816   4.077   4.791
 3547SOL    HW211541   0.968   4.135   4.792
 3548SOL     OW11542   6.439   0.324   5.994
 3548SOL    HW111543   6.409   0.415   6.023
 3548SOL    HW211544   6.391   0.255   6.048
 3549SOL     OW11545   2.162   6.348   6.875
 3549SOL    HW111546   2.221   6.417   6.834
 3549SOL    HW211547   2.146   6.370   6.972
 3550SOL     OW11548   5.691   1.437   5.468
 3550SOL    HW111549   5.595   1.408   5.464
 3550SOL    HW211550   5.719   1.473   5.379
 3551SOL     OW11551   5.660   2.108   4.861
 3551SOL    HW111552   5.737   2.171   4.850
 3551SOL    HW211553   5.593   2.124   4.789
 3552SOL     OW11554   6.761   6.975   3.402
 3552SOL    HW111555   6.820   6.930   3.469
 3552SOL    HW211556   6.681   6.917   3.384
 3553SOL     OW11557   6.412   5.673   6.431
 3553SOL    HW111558   6.482   5.611   6.396
 3553SOL    HW211559   6.410   5.756   6.376
 3554SOL     OW11560   4.649   4.516   6.860
 3554SOL    HW111561   4.684   4.480   6.947
 3554SOL    HW211562   4.688   4.464   6.784
 3555SOL     OW11563   2.439   1.900   5.369
 3555SOL    HW111564   2.536   1.900   5.392
 3555SOL    HW211565   2.428   1.876   5.272
 3556SOL     OW11566   5.966   1.603   0.298
 3556SOL    HW111567   6.048   1.545   0.306
 3556SOL    HW211568   5.902   1.562   0.234
 3557SOL     OW11569   5.502   6.419   1.936
 3557SOL    HW111570   5.454   6.335   1.960
 3557SOL    HW211571   5.499   6.482   2.013
 3558SOL     OW11572   3.255   5.749   2.203
 3558SOL    HW111573   3.259   5.756   2.104
 3558SOL    HW211574   3.218   5.833   2.242
 3559SOL     OW11575   4.178   6.541   6.318
 3559SOL    HW111576   4.195   6.443   6.325
 3559SOL    HW211577   4.080   6.559   6.321
 3560SOL     OW11578   2.229   5.638   4.255
 3560SOL    HW111579   2.270   5.676   4.338
 3560SOL    HW211580   2.169   5.562   4.280
 3561SOL     OW11581   4.698   3.456   5.396
 3561SOL    HW111582   4.716   3.510   5.314
 3561SOL    HW211583   4.621   3.496   5.445
 3562SOL     OW11584   2.674   1.263   0.738
 3562SOL    HW111585   2.610   1.316   0.793
 3562SOL    HW211586   2.724   1.198   0.795
 3563SOL     OW11587   0.191   2.282   6.729
 3563SOL    HW111588   0.276   2.310   6.685
 3563SOL    HW211589   0.212   2.222   6.807
 3564SOL     OW11590   6.422   3.358   2.766
 3564SOL    HW111591   6.435   3.275   2.819
 3564SOL    HW211592   6.491   3.362   2.693
 3565SOL     OW11593   5.220   6.466   5.827
 3565SOL    HW111594   5.277   6.498   5.903
 3565SOL    HW211595   5.125   6.460   5.856
 3566SOL     OW11596   1.236   0.930   5.413
 3566SOL    HW111597   1.150   0.880   5.417
 3566SOL    HW211598   1.232   0.998   5.339
 3567SOL     OW11599   6.840   3.827   0.185
 3567SOL    HW111600   6.749   3.846   0.221
 3567SOL    HW211601   6.873   3.740   0.220
 3568SOL     OW11602   4.720   3.279   5.699
 3568SOL    HW111603   4.767   3.309   5.782
 3568SOL    HW211604   4.780   3.291   5.620
 3569SOL     OW11605   1.773   0.471   3.605
 3569SOL    HW111606   1.752   0.525   3.687
 3569SOL    HW211607   1.855   0.417   3.621
 3570SOL     OW11608   5.946   1.422   4.478
 3570SOL    HW111609   6.016   1.350   4.481
 3570SOL    HW211610   5.936   1.462   4.570
 3571SOL     OW11611   6.418   5.481   4.885
 3571SOL    HW111612   6.462   5.567   4.859
 3571SOL    HW211613   6.443   5.459   4.979
 3572SOL     OW11614   6.131   6.301   5.714
 3572SOL    HW111615   6.185   6.355   5.649
 3572SOL    HW211616   6.139   6.204   5.692
 3573SOL     OW11617   0.435   1.935   1.453
 3573SOL    HW111618   0.399   1.913   1.362
 3573SOL    HW211619   0.473   2.027   1.453
 3574SOL     OW11620   6.283   3.786   0.468
 3574SOL    HW111621   6.226   3.741   0.400
 3574SOL    HW211622   6.298   3.881   0.440
 3575SOL     OW11623   6.434   6.210   2.290
 3575SOL    HW111624   6.478   6.295   2.319
 3575SOL    HW211625   6.404   6.218   2.195
 3576SOL     OW11626   6.688   0.839   6.852
 3576SOL    HW111627   6.688   0.742   6.876
 3576SOL    HW211628   6.598   0.865   6.816
 3577SOL     OW11629   3.021   3.984   6.980
 3577SOL    HW111630   2.968   4.064   7.010
 3577SOL    HW211631   3.108   3.981   0.003
 3578SOL     OW11632   3.670   4.374   1.735
 3578SOL    HW111633   3.680   4.311   1.812
 3578SOL    HW211634   3.638   4.463   1.768
 3579SOL     OW11635   1.799   4.404   5.050
 3579SOL    HW111636   1.875   4.432   4.991
 3579SOL    HW211637   1.712   4.429   5.007
 3580SOL     OW11638   6.772   3.233   1.134
 3580SOL    HW111639   6.725   3.234   1.222
 3580SOL    HW211640   6.866   3.265   1.146
 3581SOL     OW11641   5.923   1.243   3.332
 3581SOL    HW111642   5.971   1.157   3.349
 3581SOL    HW211643   5.912   1.293   3.418
 3582SOL     OW11644   0.019   0.374   4.901
 3582SOL    HW111645   0.098   0.335   4.947
 3582SOL    HW211646   6.965   0.315   4.917
 3583SOL     OW11647   1.645   5.136   1.458
 3583SOL    HW111648   1.674   5.131   1.553
 3583SOL    HW211649   1.676   5.223   1.418
 3584SOL     OW11650   5.685   0.539   5.652
 3584SOL    HW111651   5.710   0.630   5.618
 3584SOL    HW211652   5.587   0.538   5.674
 3585SOL     OW11653   2.325   4.901   3.371
 3585SOL    HW111654   2.318   4.855   3.282
 3585SOL    HW211655   2.243   4.882   3.425
 3586SOL     OW11656   0.948   0.864   6.129
 3586SOL    HW111657   0.985   0.777   6.097
 3586SOL    HW211658   0.879   0.897   6.064
 3587SOL     OW11659   3.809   6.567   6.706
 3587SOL    HW111660   3.840   6.661   6.713
 3587SOL    HW211661   3.839   6.527   6.619
 3588SOL     OW11662   1.851   1.749   5.275
 3588SOL    HW111663   1.876   1.672   5.333
 3588SOL    HW211664   1.763   1.732   5.232
 3589SOL     OW11665   3.889   0.435   4.522
 3589SOL    HW111666   3.793   0.429   4.552
 3589SOL    HW211667   3.944   0.471   4.597
 3590SOL     OW11668   1.468   5.015   0.144
 3590SOL    HW111669   1.521   5.097   0.123
 3590SOL    HW211670   1.371   5.033   0.124
 3591SOL     OW11671   5.473   2.301   5.177
 3591SOL    HW111672   5.401   2.280   5.243
 3591SOL    HW211673   5.435   2.356   5.103
 3592SOL     OW11674   5.104   2.146   1.972
 3592SOL    HW111675   5.032   2.151   1.902
 3592SOL    HW211676   5.188   2.186   1.936
 3593SOL     OW11677   1.314   5.193   4.471
 3593SOL    HW111678   1.217   5.177   4.456
 3593SOL    HW211679   1.365   5.173   4.387
 3594SOL     OW11680   3.782   1.749   4.525
 3594SOL    HW111681   3.735   1.704   4.600
 3594SOL    HW211682   3.715   1.798   4.469
 3595SOL     OW11683   2.269   6.708   5.984
 3595SOL    HW111684   2.198   6.711   5.915
 3595SOL    HW211685   2.355   6.743   5.946
 3596SOL     OW11686   0.109   3.973   3.696
 3596SOL    HW111687   0.037   4.034   3.663
 3596SOL    HW211688   0.157   4.016   3.773
 3597SOL     OW11689   3.571   0.320   3.771
 3597SOL    HW111690   3.480   0.360   3.768
 3597SOL    HW211691   3.591   0.276   3.684
 3598SOL     OW11692   1.673   0.427   0.221
 3598SOL    HW111693   1.616   0.352   0.254
 3598SOL    HW211694   1.740   0.451   0.291
 3599SOL     OW11695   6.820   1.609   4.326
 3599SOL    HW111696   6.899   1.562   4.366
 3599SOL    HW211697   6.806   1.697   4.371
 3600SOL     OW11698   7.011   0.255   1.392
 3600SOL    HW111699   7.016   0.223   1.297
 3600SOL    HW211700   0.077   0.280   1.423
 3601SOL     OW11701   6.164   3.533   5.543
 3601SOL    HW111702   6.067   3.542   5.521
 3601SOL    HW211703   6.180   3.446   5.590
 3602SOL     OW11704   2.531   1.510   0.775
 3602SOL    HW111705   2.464   1.564   0.725
 3602SOL    HW211706   2.505   1.505   0.871
 3603SOL     OW11707   4.221   5.341   4.567
 3603SOL    HW111708   4.288   5.340   4.642
 3603SOL    HW211709   4.143   5.398   4.594
 3604SOL     OW11710   6.977   4.141   3.531
 3604SOL    HW111711   6.906   4.209   3.512
 3604SOL    HW211712   6.965   4.062   3.472
 3605SOL     OW11713   6.085   2.797   6.496
 3605SOL    HW111714   6.014   2.738   6.458
 3605SOL    HW211715   6.099   2.876   6.435
 3606SOL     OW11716   1.680   4.295   3.193
 3606SOL    HW111717   1.777   4.312   3.177
 3606SOL    HW211718   1.668   4.204   3.233
 3607SOL     OW11719   4.284   6.943   0.065
 3607SOL    HW111720   4.256   7.004   0.140
 3607SOL    HW211721   4.209   6.934   7.026
 3608SOL     OW11722   0.470   3.315   2.563
 3608SOL    HW111723   0.377   3.282   2.550
 3608SOL    HW211724   0.526   3.287   2.485
 3609SOL     OW11725   6.226   6.963   4.695
 3609SOL    HW111726   6.269   6.901   4.630
 3609SOL    HW211727   6.151   7.011   4.651
 3610SOL     OW11728   2.018   5.562   5.682
 3610SOL    HW111729   2.093   5.570   5.616
 3610SOL    HW211730   1.945   5.507   5.643
 3611SOL     OW11731   4.573   5.246   5.844
 3611SOL    HW111732   4.535   5.305   5.915
 3611SOL    HW211733   4.665   5.277   5.822
 3612SOL     OW11734   1.690   6.377   1.331
 3612SOL    HW111735   1.622   6.339   1.393
 3612SOL    HW211736   1.655   6.461   1.291
 3613SOL     OW11737   4.998   5.234   6.343
 3613SOL    HW111738   4.918   5.208   6.289
 3613SOL    HW211739   5.080   5.196   6.302
 3614SOL     OW11740   3.604   3.820   4.566
 3614SOL    HW111741   3.610   3.721   4.582
 3614SOL    HW211742   3.658   3.869   4.635
 3615SOL     OW11743   6.111   6.549   6.234
 3615SOL    HW111744   6.076   6.544   6.140
 3615SOL    HW211745   6.131   6.456   6.266
 3616SOL     OW11746   6.073   0.575   4.907
 3616SOL    HW111747   6.044   0.649   4.967
 3616SOL    HW211748   6.015   0.572   4.826
 3617SOL     OW11749   6.771   0.409   0.105
 3617SOL    HW111750   6.693   0.353   0.077
 3617SOL    HW211751   6.844   0.349   0.140
 3618SOL     OW11752   2.896   6.949   6.429
 3618SOL    HW111753   2.802   6.979   6.410
 3618SOL    HW211754   2.918   6.970   6.524
 3619SOL     OW11755   5.078   4.135   4.109
 3619SOL    HW111756   5.023   4.219   4.109
 3619SOL    HW211757   5.093   4.105   4.203
 3620SOL     OW11758   5.896   1.560   4.702
 3620SOL    HW111759   5.973   1.602   4.750
 3620SOL    HW211760   5.811   1.603   4.730
 3621SOL     OW11761   1.481   3.622   6.180
 3621SOL    HW111762   1.500   3.645   6.084
 3621SOL    HW211763   1.444   3.530   6.186
 3622SOL     OW11764   0.444   3.411   0.864
 3622SOL    HW111765   0.400   3.481   0.808
 3622SOL    HW211766   0.411   3.418   0.958
 3623SOL     OW11767   0.074   5.302   3.914
 3623SOL    HW111768   0.104   5.230   3.852
 3623SOL    HW211769   7.016   5.274   3.961
 3624SOL     OW11770   1.845   1.244   1.764
 3624SOL    HW111771   1.767   1.267   1.706
 3624SOL    HW211772   1.864   1.321   1.825
 3625SOL     OW11773   0.728   3.229   4.604
 3625SOL    HW111774   0.755   3.208   4.511
 3625SOL    HW211775   0.653   3.296   4.603
 3626SOL     OW11776   2.718   3.905   5.253
 3626SOL    HW111777   2.650   3.955   5.199
 3626SOL    HW211778   2.672   3.841   5.314
 3627SOL     OW11779   3.502   3.103   3.769
 3627SOL    HW111780   3.477   3.199   3.780
 3627SOL    HW211781   3.418   3.048   3.765
 3628SOL     OW11782   3.046   5.462   2.805
 3628SOL    HW111783   3.065   5.447   2.708
 3628SOL    HW211784   3.123   5.511   2.846
 3629SOL     OW11785   5.605   2.738   5.075
 3629SOL    HW111786   5.522   2.786   5.046
 3629SOL    HW211787   5.583   2.678   5.152
 3630SOL     OW11788   5.578   1.353   4.678
 3630SOL    HW111789   5.606   1.259   4.662
 3630SOL    HW211790   5.624   1.413   4.613
 3631SOL     OW11791   2.264   0.675   3.558
 3631SOL    HW111792   2.340   0.610   3.566
 3631SOL    HW211793   2.188   0.632   3.509
 3632SOL     OW11794   3.930   6.912   6.330
 3632SOL    HW111795   3.970   6.954   6.412
 3632SOL    HW211796   3.987   6.933   6.251
 3633SOL     OW11797   1.614   3.240   5.586
 3633SOL    HW111798   1.687   3.212   5.649
 3633SOL    HW211799   1.539   3.175   5.592
 3634SOL     OW11800   3.101   6.058   6.036
 3634SOL    HW111801   3.014   6.031   5.993
 3634SOL    HW211802   3.168   5.985   6.025
 3635SOL     OW11803   2.006   1.286   4.877
 3635SOL    HW111804   2.071   1.228   4.927
 3635SOL    HW211805   1.995   1.373   4.925
 3636SOL     OW11806   1.682   5.854   6.678
 3636SOL    HW111807   1.691   5.850   6.579
 3636SOL    HW211808   1.630   5.776   6.711
 3637SOL     OW11809   5.627   1.814   1.718
 3637SOL    HW111810   5.696   1.887   1.714
 3637SOL    HW211811   5.657   1.737   1.661
 3638SOL     OW11812   6.119   4.492   3.622
 3638SOL    HW111813   6.058   4.489   3.542
 3638SOL    HW211814   6.104   4.577   3.673
 3639SOL     OW11815   2.884   5.712   6.956
 3639SOL    HW111816   2.965   5.656   6.942
 3639SOL    HW211817   2.847   5.740   6.867
 3640SOL     OW11818   3.317   6.557   1.255
 3640SOL    HW111819   3.315   6.468   1.209
 3640SOL    HW211820   3.379   6.552   1.333
 3641SOL     OW11821   2.389   0.162   4.620
 3641SOL    HW111822   2.322   0.221   4.664
 3641SOL    HW211823   2.480   0.180   4.657
 3642SOL     OW11824   6.119   6.965   2.377
 3642SOL    HW111825   6.046   6.918   2.426
 3642SOL    HW211826   6.208   6.928   2.405
 3643SOL     OW11827   3.555   4.711   5.843
 3643SOL    HW111828   3.476   4.659   5.875
 3643SOL    HW211829   3.528   4.805   5.825
 3644SOL     OW11830   6.875   0.287   0.508
 3644SOL    HW111831   6.783   0.249   0.511
 3644SOL    HW211832   6.879   0.370   0.564
 3645SOL     OW11833   3.686   6.278   2.857
 3645SOL    HW111834   3.641   6.303   2.772
 3645SOL    HW211835   3.768   6.335   2.869
 3646SOL     OW11836   6.590   5.358   3.702
 3646SOL    HW111837   6.525   5.360   3.625
 3646SOL    HW211838   6.618   5.452   3.724
 3647SOL     OW11839   2.181   2.628   1.948
 3647SOL    HW111840   2.100   2.687   1.958
 3647SOL    HW211841   2.260   2.685   1.926
 3648SOL     OW11842   3.194   5.797   3.498
 3648SOL    HW111843   3.120   5.733   3.474
 3648SOL    HW211844   3.161   5.891   3.487
 3649SOL     OW11845   3.465   3.122   2.426
 3649SOL    HW111846   3.387   3.182   2.411
 3649SOL    HW211847   3.442   3.053   2.495
 3650SOL     OW11848   5.991   6.654   1.499
 3650SOL    HW111849   5.909   6.607   1.532
 3650SOL    HW211850   6.068   6.633   1.558
 3651SOL     OW11851   1.321   6.096   2.342
 3651SOL    HW111852   1.304   6.157   2.264
 3651SOL    HW211853   1.358   6.010   2.309
 3652SOL     OW11854   4.401   5.156   2.742
 3652SOL    HW111855   4.367   5.246   2.771
 3652SOL    HW211856   4.324   5.099   2.713
 3653SOL     OW11857   0.171   2.772   4.513
 3653SOL    HW111858   0.260   2.739   4.544
 3653SOL    HW211859   0.106   2.696   4.507
 3654SOL     OW11860   1.387   5.729   1.312
 3654SOL    HW111861   1.373   5.828   1.310
 3654SOL    HW211862   1.464   5.707   1.372
 3655SOL     OW11863   0.637   0.637   3.814
 3655SOL    HW111864   0.596   0.628   3.905
 3655SOL    HW211865   0.637   0.548   3.769
 3656SOL     OW11866   2.938   1.324   2.593
 3656SOL    HW111867   2.895   1.252   2.647
 3656SOL    HW211868   2.872   1.396   2.575
 3657SOL     OW11869   3.646   4.976   2.086
 3657SOL    HW111870   3.712   5.035   2.040
 3657SOL    HW211871   3.643   4.887   2.041
 3658SOL     OW11872   2.040   5.566   5.948
 3658SOL    HW111873   1.970   5.501   5.975
 3658SOL    HW211874   2.061   5.556   5.851
 3659SOL     OW11875   1.025   4.361   0.419
 3659SOL    HW111876   0.954   4.321   0.478
 3659SOL    HW211877   1.068   4.288   0.365
 3660SOL     OW11878   4.399   5.396   1.091
 3660SOL    HW111879   4.487   5.351   1.072
 3660SOL    HW211880   4.348   5.405   1.005
 3661SOL     OW11881   4.972   1.661   0.769
 3661SOL    HW111882   4.918   1.597   0.824
 3661SOL    HW211883   4.946   1.652   0.673
 3662SOL     OW11884   2.800   6.387   5.234
 3662SOL    HW111885   2.838   6.479   5.238
 3662SOL    HW211886   2.822   6.346   5.146
 3663SOL     OW11887   0.934   3.701   6.441
 3663SOL    HW111888   1.017   3.646   6.451
 3663SOL    HW211889   0.937   3.751   6.355
 3664SOL     OW11890   4.243   0.543   0.928
 3664SOL    HW111891   4.147   0.517   0.933
 3664SOL    HW211892   4.262   0.614   0.995
 3665SOL     OW11893   1.147   6.424   5.455
 3665SOL    HW111894   1.066   6.466   5.416
 3665SOL    HW211895   1.122   6.377   5.540
 3666SOL     OW11896   0.807   5.052   4.252
 3666SOL    HW111897   0.752   5.113   4.309
 3666SOL    HW211898   0.817   5.092   4.161
 3667SOL     OW11899   0.342   1.546   6.951
 3667SOL    HW111900   0.257   1.598   6.953
 3667SOL    HW211901   0.416   1.606   6.919
 3668SOL     OW11902   1.747   6.096   1.786
 3668SOL    HW111903   1.750   6.007   1.741
 3668SOL    HW211904   1.830   6.110   1.838
 3669SOL     OW11905   5.864   2.058   3.661
 3669SOL    HW111906   5.935   2.026   3.723
 3669SOL    HW211907   5.782   2.082   3.713
 3670SOL     OW11908   2.487   5.394   6.250
 3670SOL    HW111909   2.425   5.375   6.174
 3670SOL    HW211910   2.451   5.469   6.305
 3671SOL     OW11911   1.116   0.691   2.997
 3671SOL    HW111912   1.062   0.644   2.926
 3671SOL    HW211913   1.076   0.781   3.013
 3672SOL     OW11914   6.963   6.940   0.856
 3672SOL    HW111915   6.878   6.979   0.821
 3672SOL    HW211916   0.015   6.993   0.823
 3673SOL     OW11917   4.241   0.400   6.956
 3673SOL    HW111918   4.275   0.441   0.014
 3673SOL    HW211919   4.184   0.321   6.978
 3674SOL     OW11920   1.365   6.375   0.951
 3674SOL    HW111921   1.397   6.468   0.931
 3674SOL    HW211922   1.311   6.341   0.874
 3675SOL     OW11923   1.762   1.498   4.607
 3675SOL    HW111924   1.855   1.534   4.608
 3675SOL    HW211925   1.766   1.398   4.615
 3676SOL     OW11926   2.308   5.058   3.001
 3676SOL    HW111927   2.261   5.126   3.056
 3676SOL    HW211928   2.263   5.050   2.912
 3677SOL     OW11929   6.474   6.868   3.532
 3677SOL    HW111930   6.445   6.960   3.559
 3677SOL    HW211931   6.526   6.827   3.607
 3678SOL     OW11932   1.008   1.646   3.591
 3678SOL    HW111933   1.106   1.634   3.604
 3678SOL    HW211934   0.962   1.558   3.600
 3679SOL     OW11935   0.158   1.259   1.413
 3679SOL    HW111936   0.073   1.206   1.417
 3679SOL    HW211937   0.233   1.199   1.386
 3680SOL     OW11938   6.599   4.081   4.674
 3680SOL    HW111939   6.507   4.058   4.704
 3680SOL    HW211940   6.642   4.000   4.633
 3681SOL     OW11941   5.309   6.167   4.735
 3681SOL    HW111942   5.363   6.143   4.815
 3681SOL    HW211943   5.212   6.175   4.760
 3682SOL     OW11944   0.479   2.570   6.652
 3682SOL    HW111945   0.486   2.564   6.751
 3682SOL    HW211946   0.406   2.634   6.627
 3683SOL     OW11947   5.323   5.769   3.407
 3683SOL    HW111948   5.345   5.865   3.423
 3683SOL    HW211949   5.325   5.750   3.309
 3684SOL     OW11950   1.874   3.005   0.462
 3684SOL    HW111951   1.806   2.951   0.513
 3684SOL    HW211952   1.832   3.090   0.430
 3685SOL     OW11953   6.529   6.830   6.374
 3685SOL    HW111954   6.486   6.805   6.287
 3685SOL    HW211955   6.499   6.767   6.445
 3686SOL     OW11956   5.939   4.429   1.295
 3686SOL    HW111957   5.989   4.369   1.233
 3686SOL    HW211958   5.843   4.434   1.267
 3687SOL     OW11959   2.959   1.204   6.817
 3687SOL    HW111960   2.948   1.289   6.765
 3687SOL    HW211961   2.869   1.162   6.832
 3688SOL     OW11962   0.190   3.362   6.891
 3688SOL    HW111963   0.185   3.326   6.984
 3688SOL    HW211964   0.101   3.399   6.865
 3689SOL     OW11965   2.994   0.582   3.628
 3689SOL    HW111966   2.914   0.621   3.583
 3689SOL    HW211967   2.968   0.498   3.676
 3690SOL     OW11968   4.734   6.399   5.078
 3690SOL    HW111969   4.796   6.325   5.104
 3690SOL    HW211970   4.702   6.446   5.160
 3691SOL     OW11971   3.657   2.666   0.222
 3691SOL    HW111972   3.565   2.628   0.215
 3691SOL    HW211973   3.688   2.659   0.317
 3692SOL     OW11974   1.615   0.206   6.826
 3692SOL    HW111975   1.674   0.125   6.828
 3692SOL    HW211976   1.519   0.178   6.831
 3693SOL     OW11977   2.586   2.161   2.861
 3693SOL    HW111978   2.586   2.211   2.948
 3693SOL    HW211979   2.493   2.161   2.823
 3694SOL     OW11980   2.125   5.767   3.029
 3694SOL    HW111981   2.121   5.713   2.945
 3694SOL    HW211982   2.184   5.846   3.014
 3695SOL     OW11983   1.561   2.316   1.717
 3695SOL    HW111984   1.595   2.233   1.672
 3695SOL    HW211985   1.467   2.333   1.687
 3696SOL     OW11986   3.214   6.398   5.814
 3696SOL    HW111987   3.269   6.459   5.871
 3696SOL    HW211988   3.120   6.397   5.848
 3697SOL     OW11989   5.369   0.124   3.933
 3697SOL    HW111990   5.366   0.216   3.894
 3697SOL    HW211991   5.320   0.061   3.873
 3698SOL     OW11992   2.942   0.279   5.676
 3698SOL    HW111993   2.952   0.229   5.762
 3698SOL    HW211994   3.028   0.277   5.626
 3699SOL     OW11995   1.264   3.839   1.918
 3699SOL    HW111996   1.307   3.833   2.008
 3699SOL    HW211997   1.187   3.775   1.914
 3700SOL     OW11998   0.407   0.364   4.410
 3700SOL    HW111999   0.400   0.424   4.330
 3700SOL    HW212000   0.452   0.279   4.384
 3701SOL     OW12001   5.488   0.451   3.496
 3701SOL    HW112002   5.460   0.356   3.479
 3701SOL    HW212003   5.529   0.488   3.412
 3702SOL     OW12004   3.951   0.791   0.127
 3702SOL    HW112005   3.970   0.732   0.206
 3702SOL    HW212006   3.935   0.734   0.046
 3703SOL     OW12007   4.554   4.645   0.181
 3703SOL    HW112008   4.505   4.676   0.100
 3703SOL    HW212009   4.597   4.724   0.226
 3704SOL     OW12010   2.470   0.121   2.276
 3704SOL    HW112011   2.402   0.117   2.203
 3704SOL    HW212012   2.542   0.187   2.252
 3705SOL     OW12013   5.290   0.997   4.136
 3705SOL    HW112014   5.200   0.988   4.093
 3705SOL    HW212015   5.351   0.928   4.098
 3706SOL     OW12016   2.036   1.957   3.897
 3706SOL    HW112017   2.028   1.955   3.996
 3706SOL    HW212018   1.964   1.900   3.857
 3707SOL     OW12019   4.424   2.642   5.238
 3707SOL    HW112020   4.327   2.623   5.220
 3707SOL    HW212021   4.432   2.723   5.296
 3708SOL     OW12022   5.860   0.056   5.961
 3708SOL    HW112023   5.821   0.007   5.883
 3708SOL    HW212024   5.830   0.013   6.046
 3709SOL     OW12025   4.546   0.298   0.097
 3709SOL    HW112026   4.565   0.205   0.127
 3709SOL    HW212027   4.599   0.362   0.152
 3710SOL     OW12028   6.828   4.773   0.719
 3710SOL    HW112029   6.816   4.675   0.707
 3710SOL    HW212030   6.923   4.797   0.698
 3711SOL     OW12031   6.567   4.993   2.985
 3711SOL    HW112032   6.576   4.991   2.885
 3711SOL    HW212033   6.566   5.088   3.016
 3712SOL     OW12034   1.863   0.129   0.478
 3712SOL    HW112035   1.858   0.124   0.378
 3712SOL    HW212036   1.814   0.210   0.510
 3713SOL     OW12037   3.984   5.755   6.180
 3713SOL    HW112038   3.996   5.854   6.166
 3713SOL    HW212039   3.964   5.738   6.276
 3714SOL     OW12040   4.038   1.003   5.468
 3714SOL    HW112041   4.114   0.969   5.413
 3714SOL    HW212042   4.069   1.019   5.562
 3715SOL     OW12043   5.066   3.738   4.073
 3715SOL    HW112044   5.103   3.660   4.122
 3715SOL    HW212045   5.119   3.754   3.989
 3716SOL     OW12046   0.169   1.578   4.461
 3716SOL    HW112047   0.126   1.512   4.398
 3716SOL    HW212048   0.106   1.598   4.536
 3717SOL     OW12049   5.456   0.195   0.271
 3717SOL    HW112050   5.378   0.199   0.334
 3717SOL    HW212051   5.517   0.272   0.289
 3718SOL     OW12052   0.740   5.578   0.353
 3718SOL    HW112053   0.681   5.624   0.420
 3718SOL    HW212054   0.728   5.479   0.359
 3719SOL     OW12055   3.981   4.929   6.181
 3719SOL    HW112056   4.037   4.857   6.221
 3719SOL    HW212057   3.912   4.958   6.247
 3720SOL     OW12058   0.202   1.953   6.026
 3720SOL    HW112059   0.285   2.006   6.008
 3720SOL    HW212060   0.133   2.011   6.068
 3721SOL     OW12061   4.217   3.467   0.651
 3721SOL    HW112062   4.208   3.514   0.563
 3721SOL    HW212063   4.277   3.520   0.711
 3722SOL     OW12064   6.076   5.826   1.820
 3722SOL    HW112065   5.989   5.778   1.832
 3722SOL    HW212066   6.150   5.760   1.806
 3723SOL     OW12067   4.269   1.331   0.733
 3723SOL    HW112068   4.186   1.372   0.693
 3723SOL    HW212069   4.275   1.358   0.829
 3724SOL     OW12070   0.215   4.905   5.666
 3724SOL    HW112071   0.172   4.862   5.587
 3724SOL    HW212072   0.284   4.970   5.634
 3725SOL     OW12073   6.776   0.164   0.807
 3725SOL    HW112074   6.719   0.170   0.889
 3725SOL    HW212075   6.853   0.227   0.816
 3726SOL     OW12076   5.838   3.234   1.323
 3726SOL    HW112077   5.917   3.230   1.384
 3726SOL    HW212078   5.833   3.151   1.269
 3727SOL     OW12079   2.343   2.841   5.283
 3727SOL    HW112080   2.387   2.928   5.260
 3727SOL    HW212081   2.356   2.776   5.209
 3728SOL     OW12082   0.447   3.394   6.901
 3728SOL    HW112083   0.486   3.478   6.863
 3728SOL    HW212084   0.347   3.402   6.903
 3729SOL     OW12085   0.405   2.798   3.400
 3729SOL    HW112086   0.485   2.851   3.372
 3729SOL    HW212087   0.435   2.717   3.451
 3730SOL     OW12088   2.808   0.743   0.211
 3730SOL    HW112089   2.788   0.663   0.154
 3730SOL    HW212090   2.785   0.826   0.161
 3731SOL     OW12091   2.912   6.686   6.688
 3731SOL    HW112092   2.849   6.633   6.631
 3731SOL    HW212093   2.881   6.684   6.783
 3732SOL     OW12094   2.151   3.811   4.441
 3732SOL    HW112095   2.062   3.796   4.485
 3732SOL    HW212096   2.200   3.884   4.489
 3733SOL     OW12097   2.616   3.522   1.095
 3733SOL    HW112098   2.604   3.425   1.075
 3733SOL    HW212099   2.691   3.559   1.041
 3734SOL     OW12100   5.427   0.393   3.062
 3734SOL    HW112101   5.500   0.399   2.994
 3734SOL    HW212102   5.442   0.461   3.134
 3735SOL     OW12103   3.394   1.751   1.662
 3735SOL    HW112104   3.365   1.685   1.732
 3735SOL    HW212105   3.460   1.707   1.601
 3736SOL     OW12106   4.895   1.174   6.198
 3736SOL    HW112107   4.849   1.233   6.132
 3736SOL    HW212108   4.827   1.126   6.254
 3737SOL     OW12109   4.117   6.705   3.342
 3737SOL    HW112110   4.160   6.785   3.300
 3737SOL    HW212111   4.145   6.697   3.437
 3738SOL     OW12112   6.972   6.909   3.862
 3738SOL    HW112113   0.036   6.950   3.849
 3738SOL    HW212114   6.974   6.814   3.831
 3739SOL     OW12115   0.591   3.864   2.018
 3739SOL    HW112116   0.524   3.872   1.944
 3739SOL    HW212117   0.612   3.767   2.033
 3740SOL     OW12118   5.361   1.339   6.868
 3740SOL    HW112119   5.310   1.382   6.793
 3740SOL    HW212120   5.407   1.410   6.921
 3741SOL     OW12121   3.877   1.939   6.599
 3741SOL    HW112122   3.844   2.007   6.664
 3741SOL    HW212123   3.799   1.892   6.558
 3742SOL     OW12124   2.881   3.732   5.663
 3742SOL    HW112125   2.919   3.793   5.733
 3742SOL    HW212126   2.786   3.757   5.644
 3743SOL     OW12127   0.671   5.780   6.038
 3743SOL    HW112128   0.645   5.752   5.946
 3743SOL    HW212129   0.590   5.788   6.095
 3744SOL     OW12130   6.991   5.469   2.848
 3744SOL    HW112131   0.033   5.405   2.813
 3744SOL    HW212132   0.002   5.518   2.926
 3745SOL     OW12133   5.150   5.846   1.892
 3745SOL    HW112134   5.097   5.769   1.925
 3745SOL    HW212135   5.089   5.924   1.874
 3746SOL     OW12136   4.061   1.714   2.309
 3746SOL    HW112137   4.078   1.718   2.210
 3746SOL    HW212138   4.148   1.712   2.358
 3747SOL     OW12139   2.749   0.182   0.755
 3747SOL    HW112140   2.672   0.238   0.786
 3747SOL    HW212141   2.797   0.144   0.834
 3748SOL     OW12142   5.952   0.813   2.281
 3748SOL    HW112143   5.960   0.902   2.237
 3748SOL    HW212144   6.027   0.801   2.346
 3749SOL     OW12145   1.511   0.569   5.060
 3749SOL    HW112146   1.475   0.642   5.117
 3749SOL    HW212147   1.580   0.517   5.112
 3750SOL     OW12148   6.986   4.681   0.094
 3750SOL    HW112149   0.006   4.611   0.040
 3750SOL    HW212150   6.908   4.640   0.142
 3751SOL     OW12151   1.813   4.065   1.255
 3751SOL    HW112152   1.792   3.989   1.317
 3751SOL    HW212153   1.852   4.140   1.307
 3752SOL     OW12154   5.740   6.390   6.934
 3752SOL    HW112155   5.740   6.475   6.988
 3752SOL    HW212156   5.802   6.401   6.856
 3753SOL     OW12157   0.131   0.420   3.468
 3753SOL    HW112158   0.157   0.324   3.473
 3753SOL    HW212159   0.195   0.469   3.408
 3754SOL     OW12160   2.028   1.264   1.012
 3754SOL    HW112161   1.959   1.265   1.085
 3754SOL    HW212162   2.011   1.340   0.950
 3755SOL     OW12163   3.209   5.221   4.233
 3755SOL    HW112164   3.143   5.295   4.242
 3755SOL    HW212165   3.186   5.164   4.154
 3756SOL     OW12166   1.722   6.617   0.633
 3756SOL    HW112167   1.752   6.527   0.663
 3756SOL    HW212168   1.768   6.688   0.686
 3757SOL     OW12169   0.261   4.460   1.110
 3757SOL    HW112170   0.303   4.446   1.020
 3757SOL    HW212171   0.177   4.405   1.116
 3758SOL     OW12172   2.101   0.042   4.057
 3758SOL    HW112173   2.154   7.021   3.987
 3758SOL    HW212174   2.119   0.002   4.146
 3759SOL     OW12175   5.175   0.461   4.066
 3759SOL    HW112176   5.127   0.374   4.050
 3759SOL    HW212177   5.267   0.456   4.025
 3760SOL     OW12178   1.165   1.021   2.986
 3760SOL    HW112179   1.180   1.071   3.071
 3760SOL    HW212180   1.122   1.082   2.919
 3761SOL     OW12181   4.878   1.376   4.811
 3761SOL    HW112182   4.917   1.467   4.793
 3761SOL    HW212183   4.935   1.327   4.875
 3762SOL     OW12184   6.873   2.749   3.654
 3762SOL    HW112185   6.882   2.839   3.610
 3762SOL    HW212186   6.959   2.726   3.700
 3763SOL     OW12187   0.807   4.407   6.984
 3763SOL    HW112188   0.760   4.403   0.046
 3763SOL    HW212189   0.788   4.323   6.933
 3764SOL     OW12190   2.586   0.561   2.787
 3764SOL    HW112191   2.506   0.618   2.807
 3764SOL    HW212192   2.666   0.620   2.777
 3765SOL     OW12193   5.521   2.626   2.939
 3765SOL    HW112194   5.466   2.550   2.973
 3765SOL    HW212195   5.602   2.638   2.997
 3766SOL     OW12196   1.486   3.424   2.009
 3766SOL    HW112197   1.448   3.339   2.045
 3766SOL    HW212198   1.545   3.466   2.078
 3767SOL     OW12199   1.531   5.566   6.298
 3767SOL    HW112200   1.546   5.482   6.351
 3767SOL    HW212201   1.463   5.623   6.344
 3768SOL     OW12202   1.631   7.020   2.545
 3768SOL    HW112203   1.553   0.056   2.553
 3768SOL    HW212204   1.634   6.982   2.453
 3769SOL     OW12205   5.288   5.593   4.163
 3769SOL    HW112206   5.260   5.510   4.213
 3769SOL    HW212207   5.380   5.620   4.194
 3770SOL     OW12208   2.311   0.799   1.393
 3770SOL    HW112209   2.306   0.719   1.452
 3770SOL    HW212210   2.296   0.772   1.298
 3771SOL     OW12211   6.320   5.244   5.486
 3771SOL    HW112212   6.272   5.207   5.565
 3771SOL    HW212213   6.254   5.269   5.415
 3772SOL     OW12214   1.505   6.129   1.479
 3772SOL    HW112215   1.475   6.077   1.559
 3772SOL    HW212216   1.481   6.225   1.491
 3773SOL     OW12217   5.238   5.312   6.896
 3773SOL    HW112218   5.315   5.248   6.907
 3773SOL    HW212219   5.183   5.284   6.817
 3774SOL     OW12220   6.582   4.945   1.715
 3774SOL    HW112221   6.499   5.001   1.712
 3774SOL    HW212222   6.661   5.003   1.696
 3775SOL     OW12223   4.602   5.160   5.002
 3775SOL    HW112224   4.514   5.159   5.049
 3775SOL    HW212225   4.634   5.255   4.992
 3776SOL     OW12226   4.094   2.874   6.000
 3776SOL    HW112227   4.058   2.807   6.066
 3776SOL    HW212228   4.194   2.876   6.005
 3777SOL     OW12229   3.034   4.890   4.445
 3777SOL    HW112230   3.010   4.912   4.350
 3777SOL    HW212231   2.968   4.824   4.481
 3778SOL     OW12232   3.641   5.722   6.672
 3778SOL    HW112233   3.578   5.792   6.704
 3778SOL    HW212234   3.723   5.721   6.730
 3779SOL     OW12235   6.863   4.831   6.917
 3779SOL    HW112236   6.897   4.827   6.823
 3779SOL    HW212237   6.935   4.799   6.979
 3780SOL     OW12238   5.755   3.484   1.928
 3780SOL    HW112239   5.780   3.546   1.854
 3780SOL    HW212240   5.767   3.530   2.016
 3781SOL     OW12241   2.213   6.167   4.867
 3781SOL    HW112242   2.161   6.142   4.785
 3781SOL    HW212243   2.218   6.089   4.929
 3782SOL     OW12244   3.861   5.093   1.086
 3782SOL    HW112245   3.809   5.143   1.155
 3782SOL    HW212246   3.882   5.153   1.008
 3783SOL     OW12247   4.636   5.377   4.475
 3783SOL    HW112248   4.590   5.303   4.523
 3783SOL    HW212249   4.653   5.350   4.380
 3784SOL     OW12250   5.982   2.894   4.883
 3784SOL    HW112251   6.021   2.955   4.951
 3784SOL    HW212252   5.936   2.948   4.812
 3785SOL     OW12253   1.556   2.714   3.414
 3785SOL    HW112254   1.540   2.773   3.335
 3785SOL    HW212255   1.547   2.767   3.498
 3786SOL     OW12256   2.138   3.254   4.796
 3786SOL    HW112257   2.115   3.305   4.713
 3786SOL    HW212258   2.105   3.303   4.876
 3787SOL     OW12259   5.325   6.602   3.815
 3787SOL    HW112260   5.356   6.668   3.747
 3787SOL    HW212261   5.396   6.589   3.885
 3788SOL     OW12262   5.011   2.704   5.590
 3788SOL    HW112263   4.987   2.608   5.599
 3788SOL    HW212264   5.081   2.727   5.658
 3789SOL     OW12265   2.603   2.730   1.315
 3789SOL    HW112266   2.620   2.715   1.218
 3789SOL    HW212267   2.512   2.694   1.338
 3790SOL     OW12268   0.766   6.458   1.546
 3790SOL    HW112269   0.681   6.410   1.523
 3790SOL    HW212270   0.776   6.463   1.645
 3791SOL     OW12271   5.204   0.724   5.861
 3791SOL    HW112272   5.149   0.804   5.885
 3791SOL    HW212273   5.264   0.701   5.938
 3792SOL     OW12274   6.858   0.250   4.339
 3792SOL    HW112275   6.905   0.260   4.251
 3792SOL    HW212276   6.895   0.172   4.388
 3793SOL     OW12277   4.221   5.052   0.351
 3793SOL    HW112278   4.156   5.104   0.406
 3793SOL    HW212279   4.204   4.954   0.363
 3794SOL     OW12280   0.906   4.720   6.075
 3794SOL    HW112281   0.937   4.805   6.033
 3794SOL    HW212282   0.901   4.732   6.174
 3795SOL     OW12283   3.098   6.521   0.928
 3795SOL    HW112284   3.007   6.485   0.950
 3795SOL    HW212285   3.108   6.612   0.967
 3796SOL     OW12286   4.359   1.113   0.621
 3796SOL    HW112287   4.393   1.040   0.680
 3796SOL    HW212288   4.321   1.186   0.678
 3797SOL     OW12289   0.276   3.655   1.666
 3797SOL    HW112290   0.304   3.671   1.572
 3797SOL    HW212291   0.177   3.643   1.671
 3798SOL     OW12292   1.421   5.369   3.874
 3798SOL    HW112293   1.481   5.432   3.923
 3798SOL    HW212294   1.476   5.308   3.817
 3799SOL     OW12295   0.056   1.065   3.344
 3799SOL    HW112296   6.988   1.032   3.333
 3799SOL    HW212297   0.075   1.135   3.274
 3800SOL     OW12298   5.707   2.232   3.051
 3800SOL    HW112299   5.788   2.264   3.001
 3800SOL    HW212300   5.637   2.203   2.986
 3801SOL     OW12301   6.287   1.085   1.381
 3801SOL    HW112302   6.288   1.150   1.305
 3801SOL    HW212303   6.214   1.018   1.367
 3802SOL     OW12304   5.960   3.727   1.939
 3802SOL    HW112305   6.027   3.713   2.012
 3802SOL    HW212306   5.946   3.825   1.925
 3803SOL     OW12307   3.437   4.057   4.523
 3803SOL    HW112308   3.467   3.963   4.537
 3803SOL    HW212309   3.348   4.057   4.477
 3804SOL     OW12310   4.048   5.916   3.661
 3804SOL    HW112311   4.041   5.922   3.761
 3804SOL    HW212312   3.957   5.926   3.621
 3805SOL     OW12313   2.506   2.628   6.757
 3805SOL    HW112314   2.508   2.672   6.847
 3805SOL    HW212315   2.450   2.682   6.694
 3806SOL     OW12316   2.555   5.101   1.272
 3806SOL    HW112317   2.607   5.034   1.220
 3806SOL    HW212318   2.567   5.083   1.370
 3807SOL     OW12319   1.803   4.128   3.875
 3807SOL    HW112320   1.713   4.084   3.883
 3807SOL    HW212321   1.811   4.200   3.943
 3808SOL     OW12322   2.713   6.739   5.430
 3808SOL    HW112323   2.733   6.832   5.399
 3808SOL    HW212324   2.641   6.741   5.499
 3809SOL     OW12325   5.352   2.026   1.911
 3809SOL    HW112326   5.298   1.969   1.849
 3809SOL    HW212327   5.346   1.989   2.004
 3810SOL     OW12328   4.839   2.007   2.830
 3810SOL    HW112329   4.821   2.105   2.819
 3810SOL    HW212330   4.841   1.985   2.928
 3811SOL     OW12331   0.416   5.412   5.219
 3811SOL    HW112332   0.437   5.331   5.275
 3811SOL    HW212333   0.342   5.390   5.156
 3812SOL     OW12334   5.068   5.222   0.552
 3812SOL    HW112335   5.000   5.163   0.509
 3812SOL    HW212336   5.113   5.172   0.626
 3813SOL     OW12337   6.351   4.431   0.106
 3813SOL    HW112338   6.358   4.332   0.117
 3813SOL    HW212339   6.319   4.472   0.192
 3814SOL     OW12340   6.900   0.599   4.774
 3814SOL    HW112341   6.935   0.518   4.821
 3814SOL    HW212342   6.901   0.677   4.835
 3815SOL     OW12343   6.277   3.793   6.092
 3815SOL    HW112344   6.247   3.737   6.015
 3815SOL    HW212345   6.321   3.876   6.057
 3816SOL     OW12346   6.604   6.154   1.558
 3816SOL    HW112347   6.525   6.212   1.577
 3816SOL    HW212348   6.685   6.211   1.545
 3817SOL     OW12349   4.576   3.490   1.627
 3817SOL    HW112350   4.566   3.589   1.634
 3817SOL    HW212351   4.516   3.455   1.555
 3818SOL     OW12352   6.032   6.046   2.596
 3818SOL    HW112353   6.116   6.100   2.588
 3818SOL    HW212354   5.991   6.035   2.505
 3819SOL     OW12355   5.918   3.764   3.634
 3819SOL    HW112356   5.869   3.845   3.667
 3819SOL    HW212357   5.997   3.746   3.694
 3820SOL     OW12358   3.273   6.161   5.002
 3820SOL    HW112359   3.244   6.211   5.083
 3820SOL    HW212360   3.373   6.165   4.994
 3821SOL     OW12361   1.044   0.412   0.191
 3821SOL    HW112362   1.008   0.429   0.100
 3821SOL    HW212363   1.128   0.358   0.185
 3822SOL     OW12364   4.723   0.523   1.988
 3822SOL    HW112365   4.648   0.463   2.018
 3822SOL    HW212366   4.793   0.468   1.943
 3823SOL     OW12367   5.828   5.895   5.913
 3823SOL    HW112368   5.763   5.870   5.985
 3823SOL    HW212369   5.835   5.820   5.848
 3824SOL     OW12370   2.331   2.988   0.234
 3824SOL    HW112371   2.384   2.985   0.148
 3824SOL    HW212372   2.280   2.902   0.244
 3825SOL     OW12373   0.858   4.876   5.756
 3825SOL    HW112374   0.887   4.788   5.721
 3825SOL    HW212375   0.779   4.909   5.704
 3826SOL     OW12376   5.616   4.164   3.933
 3826SOL    HW112377   5.610   4.151   3.834
 3826SOL    HW212378   5.558   4.097   3.979
 3827SOL     OW12379   0.537   1.763   0.404
 3827SOL    HW112380   0.577   1.672   0.416
 3827SOL    HW212381   0.605   1.833   0.428
 3828SOL     OW12382   3.839   3.386   3.620
 3828SOL    HW112383   3.905   3.460   3.636
 3828SOL    HW212384   3.886   3.298   3.627
 3829SOL     OW12385   1.082   3.653   1.637
 3829SOL    HW112386   1.134   3.737   1.620
 3829SOL    HW212387   1.051   3.652   1.732
 3830SOL     OW12388   5.751   0.589   3.708
 3830SOL    HW112389   5.752   0.610   3.610
 3830SOL    HW212390   5.802   0.659   3.758
 3831SOL     OW12391   4.678   2.114   3.634
 3831SOL    HW112392   4.621   2.036   3.662
 3831SOL    HW212393   4.688   2.177   3.710
 3832SOL     OW12394   6.761   1.033   3.296
 3832SOL    HW112395   6.746   1.093   3.375
 3832SOL    HW212396   6.685   1.044   3.231
 3833SOL     OW12397   1.607   2.410   5.344
 3833SOL    HW112398   1.598   2.314   5.374
 3833SOL    HW212399   1.516   2.447   5.328
 3834SOL     OW12400   4.732   3.929   0.857
 3834SOL    HW112401   4.738   3.901   0.953
 3834SOL    HW212402   4.723   4.028   0.852
 3835SOL     OW12403   4.152   5.806   5.141
 3835SOL    HW112404   4.133   5.740   5.069
 3835SOL    HW212405   4.202   5.884   5.103
 3836SOL     OW12406   6.909   6.285   5.532
 3836SOL    HW112407   6.982   6.306   5.467
 3836SOL    HW212408   6.944   6.293   5.625
 3837SOL     OW12409   4.749   4.652   5.965
 3837SOL    HW112410   4.683   4.702   6.022
 3837SOL    HW212411   4.774   4.708   5.886
 3838SOL     OW12412   0.807   0.637   4.297
 3838SOL    HW112413   0.762   0.724   4.279
 3838SOL    HW212414   0.906   0.650   4.292
 3839SOL     OW12415   5.015   0.774   3.680
 3839SOL    HW112416   5.012   0.861   3.729
 3839SOL    HW212417   5.031   0.699   3.744
 3840SOL     OW12418   2.698   1.253   6.339
 3840SOL    HW112419   2.598   1.251   6.348
 3840SOL    HW212420   2.734   1.160   6.350
 3841SOL     OW12421   5.997   4.439   4.459
 3841SOL    HW112422   5.991   4.502   4.536
 3841SOL    HW212423   5.919   4.454   4.398
 3842SOL     OW12424   1.805   3.674   5.009
 3842SOL    HW112425   1.743   3.737   5.056
 3842SOL    HW212426   1.763   3.583   5.005
 3843SOL     OW12427   4.963   2.350   0.143
 3843SOL    HW112428   4.987   2.253   0.148
 3843SOL    HW212429   5.043   2.401   0.112
 3844SOL     OW12430   0.569   6.979   1.523
 3844SOL    HW112431   0.536   0.047   1.517
 3844SOL    HW212432   0.668   6.979   1.531
 3845SOL     OW12433   2.174   5.534   0.462
 3845SOL    HW112434   2.102   5.478   0.423
 3845SOL    HW212435   2.161   5.630   0.435
 3846SOL     OW12436   0.514   3.218   3.234
 3846SOL    HW112437   0.600   3.225   3.184
 3846SOL    HW212438   0.459   3.300   3.217
 3847SOL     OW12439   6.909   1.823   7.008
 3847SOL    HW112440   6.815   1.848   6.984
 3847SOL    HW212441   6.972   1.891   6.970
 3848SOL     OW12442   5.446   3.762   2.489
 3848SOL    HW112443   5.485   3.761   2.581
 3848SOL    HW212444   5.483   3.839   2.438
 3849SOL     OW12445   0.001   4.785   6.300
 3849SOL    HW112446   0.048   4.748   6.220
 3849SOL    HW212447   6.961   4.854   6.272
 3850SOL     OW12448   2.941   2.420   1.529
 3850SOL    HW112449   2.901   2.371   1.606
 3850SOL    HW212450   2.996   2.358   1.474
 3851SOL     OW12451   0.463   6.573   2.293
 3851SOL    HW112452   0.421   6.644   2.236
 3851SOL    HW212453   0.393   6.530   2.351
 3852SOL     OW12454   2.173   6.851   5.503
 3852SOL    HW112455   2.224   6.909   5.441
 3852SOL    HW212456   2.233   6.778   5.537
 3853SOL     OW12457   2.910   6.818   3.103
 3853SOL    HW112458   2.987   6.849   3.159
 3853SOL    HW212459   2.941   6.805   3.009
 3854SOL     OW12460   1.008   2.371   2.196
 3854SOL    HW112461   0.925   2.345   2.246
 3854SOL    HW212462   0.984   2.390   2.101
 3855SOL     OW12463   3.709   6.625   0.241
 3855SOL    HW112464   3.665   6.627   0.151
 3855SOL    HW212465   3.658   6.683   0.304
 3856SOL     OW12466   0.263   2.923   6.861
 3856SOL    HW112467   0.303   3.004   6.818
 3856SOL    HW212468   0.183   2.950   6.914
 3857SOL     OW12469   2.197   0.426   6.321
 3857SOL    HW112470   2.102   0.427   6.353
 3857SOL    HW212471   2.257   0.455   6.396
 3858SOL     OW12472   4.766   0.619   3.758
 3858SOL    HW112473   4.836   0.555   3.729
 3858SOL    HW212474   4.698   0.630   3.685
 3859SOL     OW12475   6.396   6.968   2.023
 3859SOL    HW112476   6.441   6.892   1.976
 3859SOL    HW212477   6.444   6.988   2.109
 3860SOL     OW12478   1.300   0.083   3.936
 3860SOL    HW112479   1.295   0.006   3.873
 3860SOL    HW212480   1.226   0.076   4.003
 3861SOL     OW12481   3.008   5.841   1.640
 3861SOL    HW112482   2.937   5.784   1.682
 3861SOL    HW212483   3.092   5.789   1.631
 3862SOL     OW12484   1.835   0.029   3.902
 3862SOL    HW112485   1.767   0.022   3.974
 3862SOL    HW212486   1.924   0.050   3.942
 3863SOL     OW12487   3.782   0.157   0.580
 3863SOL    HW112488   3.699   0.213   0.574
 3863SOL    HW212489   3.843   0.178   0.504
 3864SOL     OW12490   2.200   0.523   5.059
 3864SOL    HW112491   2.269   0.568   5.003
 3864SOL    HW212492   2.222   0.425   5.065
 3865SOL     OW12493   3.722   0.797   0.782
 3865SOL    HW112494   3.720   0.841   0.872
 3865SOL    HW212495   3.788   0.844   0.724
 3866SOL     OW12496   2.787   2.097   6.565
 3866SOL    HW112497   2.857   2.150   6.614
 3866SOL    HW212498   2.828   2.011   6.533
 3867SOL     OW12499   0.714   3.179   1.970
 3867SOL    HW112500   0.781   3.246   1.938
 3867SOL    HW212501   0.623   3.220   1.968
 3868SOL     OW12502   4.526   0.561   0.348
 3868SOL    HW112503   4.543   0.644   0.402
 3868SOL    HW212504   4.613   0.525   0.314
 3869SOL     OW12505   5.565   2.218   3.485
 3869SOL    HW112506   5.601   2.291   3.426
 3869SOL    HW212507   5.503   2.257   3.553
 3870SOL     OW12508   0.344   0.667   4.392
 3870SOL    HW112509   0.286   0.683   4.472
 3870SOL    HW212510   0.371   0.755   4.352
 3871SOL     OW12511   2.595   4.956   4.942
 3871SOL    HW112512   2.644   5.004   4.869
 3871SOL    HW212513   2.522   5.015   4.978
 3872SOL     OW12514   2.849   3.507   5.230
 3872SOL    HW112515   2.793   3.466   5.303
 3872SOL    HW212516   2.930   3.549   5.271
 3873SOL     OW12517   4.626   1.780   0.431
 3873SOL    HW112518   4.626   1.873   0.468
 3873SOL    HW212519   4.556   1.726   0.477
 3874SOL     OW12520   2.806   0.956   6.816
 3874SOL    HW112521   2.797   0.891   6.740
 3874SOL    HW212522   2.897   0.945   6.858
 3875SOL     OW12523   1.192   2.337   6.107
 3875SOL    HW112524   1.262   2.276   6.145
 3875SOL    HW212525   1.189   2.421   6.161
 3876SOL     OW12526   4.000   5.203   1.548
 3876SOL    HW112527   4.015   5.143   1.470
 3876SOL    HW212528   3.998   5.148   1.632
 3877SOL     OW12529   6.376   1.353   6.735
 3877SOL    HW112530   6.389   1.303   6.820
 3877SOL    HW212531   6.399   1.450   6.749
 3878SOL     OW12532   4.720   0.774   4.432
 3878SOL    HW112533   4.667   0.701   4.388
 3878SOL    HW212534   4.700   0.861   4.388
 3879SOL     OW12535   5.837   5.739   0.836
 3879SOL    HW112536   5.872   5.649   0.861
 3879SOL    HW212537   5.866   5.762   0.744
 3880SOL     OW12538   4.606   4.722   4.104
 3880SOL    HW112539   4.624   4.790   4.175
 3880SOL    HW212540   4.547   4.762   4.034
 3881SOL     OW12541   0.989   3.925   0.486
 3881SOL    HW112542   1.088   3.916   0.473
 3881SOL    HW212543   0.944   3.841   0.456
 3882SOL     OW12544   0.888   1.877   6.904
 3882SOL    HW112545   0.875   1.780   6.882
 3882SOL    HW212546   0.982   1.891   6.936
 3883SOL     OW12547   5.001   5.782   2.835
 3883SOL    HW112548   4.919   5.835   2.812
 3883SOL    HW212549   4.999   5.759   2.932
 3884SOL     OW12550   0.694   4.914   1.909
 3884SOL    HW112551   0.691   4.940   2.005
 3884SOL    HW212552   0.627   4.968   1.857
 3885SOL     OW12553   5.486   5.853   2.973
 3885SOL    HW112554   5.579   5.851   2.937
 3885SOL    HW212555   5.448   5.944   2.963
 3886SOL     OW12556   3.541   6.479   5.649
 3886SOL    HW112557   3.505   6.389   5.625
 3886SOL    HW212558   3.580   6.476   5.741
 3887SOL     OW12559   0.372   6.798   2.185
 3887SOL    HW112560   0.443   6.825   2.250
 3887SOL    HW212561   0.400   6.825   2.092
 3888SOL     OW12562   6.147   5.601   4.194
 3888SOL    HW112563   6.102   5.535   4.254
 3888SOL    HW212564   6.245   5.602   4.213
 3889SOL     OW12565   4.821   3.509   6.503
 3889SOL    HW112566   4.749   3.569   6.537
 3889SOL    HW212567   4.786   3.415   6.496
 3890SOL     OW12568   5.463   2.923   4.112
 3890SOL    HW112569   5.406   2.997   4.148
 3890SOL    HW212570   5.426   2.835   4.141
 3891SOL     OW12571   6.339   5.393   2.942
 3891SOL    HW112572   6.355   5.303   2.901
 3891SOL    HW212573   6.389   5.462   2.891
 3892SOL     OW12574   7.002   1.848   1.052
 3892SOL    HW112575   0.011   1.941   1.041
 3892SOL    HW212576   6.908   1.851   1.089
 3893SOL     OW12577   4.165   3.459   2.015
 3893SOL    HW112578   4.159   3.390   2.087
 3893SOL    HW212579   4.254   3.505   2.019
 3894SOL     OW12580   4.284   0.801   6.169
 3894SOL    HW112581   4.368   0.837   6.208
 3894SOL    HW212582   4.269   0.707   6.202
 3895SOL     OW12583   2.002   0.188   4.553
 3895SOL    HW112584   2.050   0.246   4.619
 3895SOL    HW212585   1.955   0.115   4.601
 3896SOL     OW12586   0.695   0.690   6.792
 3896SOL    HW112587   0.765   0.619   6.795
 3896SOL    HW212588   0.605   0.648   6.782
 3897SOL     OW12589   4.857   6.441   1.738
 3897SOL    HW112590   4.902   6.491   1.664
 3897SOL    HW212591   4.777   6.492   1.769
 3898SOL     OW12592   4.162   2.922   0.426
 3898SOL    HW112593   4.195   2.952   0.516
 3898SOL    HW212594   4.118   2.832   0.436
 3899SOL     OW12595   3.522   6.435   6.492
 3899SOL    HW112596   3.619   6.412   6.484
 3899SOL    HW212597   3.472   6.354   6.524
 3900SOL     OW12598   4.914   3.723   3.235
 3900SOL    HW112599   4.970   3.795   3.274
 3900SOL    HW212600   4.857   3.760   3.162
 3901SOL     OW12601   2.724   0.214   0.022
 3901SOL    HW112602   2.669   0.179   6.973
 3901SOL    HW212603   2.720   0.150   0.099
 3902SOL     OW12604   6.166   3.312   2.691
 3902SOL    HW112605   6.260   3.305   2.726
 3902SOL    HW212606   6.164   3.376   2.614
 3903SOL     OW12607   3.276   5.574   6.567
 3903SOL    HW112608   3.222   5.645   6.612
 3903SOL    HW212609   3.216   5.511   6.519
 3904SOL     OW12610   0.937   0.579   7.012
 3904SOL    HW112611   1.023   0.617   6.978
 3904SOL    HW212612   0.891   0.529   6.939
 3905SOL     OW12613   6.677   5.982   5.243
 3905SOL    HW112614   6.687   6.081   5.229
 3905SOL    HW212615   6.748   5.950   5.306
 3906SOL     OW12616   6.213   6.481   5.531
 3906SOL    HW112617   6.215   6.509   5.435
 3906SOL    HW212618   6.203   6.561   5.589
 3907SOL     OW12619   6.449   0.850   3.992
 3907SOL    HW112620   6.455   0.755   3.960
 3907SOL    HW212621   6.483   0.911   3.920
 3908SOL     OW12622   1.494   2.998   5.854
 3908SOL    HW112623   1.532   2.916   5.811
 3908SOL    HW212624   1.523   3.079   5.805
 3909SOL     OW12625   5.996   5.247   4.095
 3909SOL    HW112626   5.989   5.284   4.188
 3909SOL    HW212627   6.089   5.216   4.077
 3910SOL     OW12628   3.940   3.902   3.008
 3910SOL    HW112629   3.869   3.909   3.078
 3910SOL    HW212630   4.030   3.912   3.050
 3911SOL     OW12631   6.309   2.094   5.624
 3911SOL    HW112632   6.268   2.185   5.625
 3911SOL    HW212633   6.403   2.099   5.590
 3912SOL     OW12634   5.433   2.641   6.302
 3912SOL    HW112635   5.488   2.640   6.218
 3912SOL    HW212636   5.336   2.645   6.278
 3913SOL     OW12637   1.190   6.817   0.502
 3913SOL    HW112638   1.268   6.869   0.536
 3913SOL    HW212639   1.120   6.880   0.469
 3914SOL     OW12640   3.323   5.896   5.977
 3914SOL    HW112641   3.362   5.921   5.888
 3914SOL    HW212642   3.356   5.806   6.004
 3915SOL     OW12643   6.544   5.910   1.420
 3915SOL    HW112644   6.567   5.986   1.481
 3915SOL    HW212645   6.566   5.936   1.326
 3916SOL     OW12646   1.226   0.096   3.116
 3916SOL    HW112647   1.283   0.152   3.055
 3916SOL    HW212648   1.194   0.151   3.193
 3917SOL     OW12649   1.924   6.998   6.582
 3917SOL    HW112650   1.970   0.054   6.549
 3917SOL    HW212651   1.924   6.928   6.511
 3918SOL     OW12652   5.484   3.634   0.940
 3918SOL    HW112653   5.449   3.726   0.921
 3918SOL    HW212654   5.477   3.616   1.038
 3919SOL     OW12655   3.061   6.661   0.254
 3919SOL    HW112656   3.141   6.605   0.234
 3919SOL    HW212657   2.991   6.646   0.183
 3920SOL     OW12658   2.116   1.652   6.815
 3920SOL    HW112659   2.161   1.702   6.888
 3920SOL    HW212660   2.142   1.555   6.820
 3921SOL     OW12661   1.528   3.734   1.610
 3921SOL    HW112662   1.515   3.669   1.685
 3921SOL    HW212663   1.500   3.826   1.641
 3922SOL     OW12664   0.924   4.830   1.141
 3922SOL    HW112665   0.898   4.854   1.234
 3922SOL    HW212666   0.865   4.756   1.107
 3923SOL     OW12667   7.012   0.310   0.186
 3923SOL    HW112668   0.005   0.214   0.168
 3923SOL    HW212669   7.007   0.325   0.285
 3924SOL     OW12670   0.035   4.743   4.465
 3924SOL    HW112671   6.998   4.668   4.485
 3924SOL    HW212672   7.011   4.830   4.464
 3925SOL     OW12673   1.753   5.517   2.563
 3925SOL    HW112674   1.682   5.461   2.522
 3925SOL    HW212675   1.796   5.468   2.639
 3926SOL     OW12676   4.553   4.486   2.172
 3926SOL    HW112677   4.560   4.580   2.139
 3926SOL    HW212678   4.521   4.426   2.098
 3927SOL     OW12679   0.786   3.486   6.512
 3927SOL    HW112680   0.766   3.480   6.610
 3927SOL    HW212681   0.867   3.542   6.498
 3928SOL     OW12682   5.751   5.725   6.272
 3928SOL    HW112683   5.819   5.655   6.252
 3928SOL    HW212684   5.701   5.700   6.355
 3929SOL     OW12685   1.003   1.598   5.027
 3929SOL    HW112686   1.103   1.611   5.025
 3929SOL    HW212687   0.958   1.687   5.030
 3930SOL     OW12688   2.240   1.457   3.142
 3930SOL    HW112689   2.311   1.526   3.134
 3930SOL    HW212690   2.200   1.439   3.052
 3931SOL     OW12691   6.102   1.283   1.452
 3931SOL    HW112692   6.080   1.324   1.364
 3931SOL    HW212693   6.157   1.200   1.438
 3932SOL     OW12694   1.662   2.406   4.220
 3932SOL    HW112695   1.596   2.369   4.155
 3932SOL    HW212696   1.753   2.375   4.196
 3933SOL     OW12697   0.979   6.888   5.626
 3933SOL    HW112698   0.906   6.954   5.645
 3933SOL    HW212699   0.939   6.805   5.588
 3934SOL     OW12700   5.414   0.442   6.324
 3934SOL    HW112701   5.331   0.464   6.274
 3934SOL    HW212702   5.418   0.496   6.408
 3935SOL     OW12703   4.598   0.754   0.560
 3935SOL    HW112704   4.545   0.809   0.624
 3935SOL    HW212705   4.683   0.801   0.537
 3936SOL     OW12706   0.069   4.977   3.440
 3936SOL    HW112707   0.066   5.051   3.508
 3936SOL    HW212708   7.006   4.932   3.437
 3937SOL     OW12709   0.431   1.404   2.662
 3937SOL    HW112710   0.401   1.365   2.749
 3937SOL    HW212711   0.423   1.504   2.665
 3938SOL     OW12712   0.524   1.951   2.597
 3938SOL    HW112713   0.510   1.875   2.534
 3938SOL    HW212714   0.519   2.037   2.547
 3939SOL     OW12715   2.809   1.739   1.849
 3939SOL    HW112716   2.765   1.825   1.821
 3939SOL    HW212717   2.888   1.760   1.908
 3940SOL     OW12718   3.559   3.515   1.274
 3940SOL    HW112719   3.614   3.562   1.343
 3940SOL    HW212720   3.478   3.475   1.317
 3941SOL     OW12721   4.073   4.193   6.311
 3941SOL    HW112722   3.982   4.156   6.291
 3941SOL    HW212723   4.080   4.214   6.409
 3942SOL     OW12724   6.683   6.407   6.135
 3942SOL    HW112725   6.761   6.398   6.197
 3942SOL    HW212726   6.685   6.497   6.092
 3943SOL     OW12727   0.237   3.637   4.401
 3943SOL    HW112728   0.238   3.737   4.406
 3943SOL    HW212729   0.331   3.602   4.400
 3944SOL     OW12730   5.285   2.651   4.368
 3944SOL    HW112731   5.343   2.597   4.429
 3944SOL    HW212732   5.252   2.732   4.416
 3945SOL     OW12733   6.780   0.706   1.048
 3945SOL    HW112734   6.800   0.624   1.101
 3945SOL    HW212735   6.799   0.688   0.951
 3946SOL     OW12736   4.090   5.026   3.239
 3946SOL    HW112737   4.040   4.944   3.210
 3946SOL    HW212738   4.045   5.065   3.320
 3947SOL     OW12739   5.937   5.896   6.806
 3947SOL    HW112740   5.850   5.910   6.760
 3947SOL    HW212741   6.007   5.954   6.763
 3948SOL     OW12742   6.017   4.525   1.540
 3948SOL    HW112743   5.962   4.477   1.609
 3948SOL    HW212744   5.981   4.506   1.449
 3949SOL     OW12745   4.838   6.361   3.494
 3949SOL    HW112746   4.789   6.292   3.548
 3949SOL    HW212747   4.917   6.318   3.450
 3950SOL     OW12748   1.308   5.693   0.691
 3950SOL    HW112749   1.282   5.772   0.636
 3950SOL    HW212750   1.284   5.609   0.644
 3951SOL     OW12751   5.401   0.342   1.942
 3951SOL    HW112752   5.498   0.319   1.953
 3951SOL    HW212753   5.383   0.432   1.980
 3952SOL     OW12754   6.146   2.520   0.605
 3952SOL    HW112755   6.202   2.602   0.607
 3952SOL    HW212756   6.176   2.457   0.677
 3953SOL     OW12757   3.697   4.086   2.220
 3953SOL    HW112758   3.683   4.152   2.147
 3953SOL    HW212759   3.714   4.134   2.306
 3954SOL     OW12760   3.855   4.712   5.560
 3954SOL    HW112761   3.891   4.641   5.620
 3954SOL    HW212762   3.894   4.701   5.468
 3955SOL     OW12763   3.879   0.735   5.331
 3955SOL    HW112764   3.948   0.786   5.279
 3955SOL    HW212765   3.789   0.773   5.313
 3956SOL     OW12766   1.806   1.064   1.516
 3956SOL    HW112767   1.850   1.117   1.589
 3956SOL    HW212768   1.838   0.970   1.518
 3957SOL     OW12769   3.652   0.817   4.540
 3957SOL    HW112770   3.614   0.846   4.452
 3957SOL    HW212771   3.635   0.719   4.552
 3958SOL     OW12772   6.100   1.344   5.303
 3958SOL    HW112773   6.175   1.410   5.298
 3958SOL    HW212774   6.015   1.389   5.278
 3959SOL     OW12775   4.878   4.887   0.747
 3959SOL    HW112776   4.822   4.927   0.675
 3959SOL    HW212777   4.836   4.904   0.836
 3960SOL     OW12778   5.667   2.552   4.227
 3960SOL    HW112779   5.623   2.480   4.173
 3960SOL    HW212780   5.639   2.544   4.322
 3961SOL     OW12781   5.748   6.561   3.839
 3961SOL    HW112782   5.834   6.591   3.798
 3961SOL    HW212783   5.758   6.552   3.938
 3962SOL     OW12784   0.422   5.051   5.568
 3962SOL    HW112785   0.453   5.094   5.652
 3962SOL    HW212786   0.501   5.019   5.515
 3963SOL     OW12787   4.729   6.629   2.143
 3963SOL    HW112788   4.712   6.573   2.061
 3963SOL    HW212789   4.773   6.714   2.116
 3964SOL     OW12790   5.005   3.618   3.474
 3964SOL    HW112791   4.967   3.645   3.386
 3964SOL    HW212792   5.012   3.697   3.535
 3965SOL     OW12793   4.837   3.841   4.587
 3965SOL    HW112794   4.848   3.807   4.681
 3965SOL    HW212795   4.799   3.768   4.530
 3966SOL     OW12796   2.492   6.272   6.622
 3966SOL    HW112797   2.502   6.237   6.716
 3966SOL    HW212798   2.543   6.213   6.560
 3967SOL     OW12799   2.297   4.798   3.113
 3967SOL    HW112800   2.388   4.755   3.107
 3967SOL    HW212801   2.295   4.879   3.054
 3968SOL     OW12802   4.132   6.917   1.071
 3968SOL    HW112803   4.146   6.994   1.008
 3968SOL    HW212804   4.104   6.836   1.018
 3969SOL     OW12805   1.774   5.745   1.975
 3969SOL    HW112806   1.720   5.810   2.029
 3969SOL    HW212807   1.762   5.653   2.011
 3970SOL     OW12808   5.439   6.245   2.508
 3970SOL    HW112809   5.411   6.314   2.441
 3970SOL    HW212810   5.536   6.224   2.495
 3971SOL     OW12811   2.652   5.720   4.106
 3971SOL    HW112812   2.599   5.802   4.086
 3971SOL    HW212813   2.749   5.745   4.116
 3972SOL     OW12814   2.346   4.070   0.169
 3972SOL    HW112815   2.329   4.078   0.267
 3972SOL    HW212816   2.344   4.161   0.127
 3973SOL     OW12817   1.305   5.663   0.282
 3973SOL    HW112818   1.389   5.623   0.245
 3973SOL    HW212819   1.263   5.599   0.345
 3974SOL     OW12820   2.029   0.886   5.462
 3974SOL    HW112821   2.028   0.804   5.519
 3974SOL    HW212822   2.123   0.913   5.444
 3975SOL     OW12823   5.390   1.934   6.037
 3975SOL    HW112824   5.412   1.838   6.018
 3975SOL    HW212825   5.293   1.942   6.060
 3976SOL     OW12826   2.379   5.574   2.317
 3976SOL    HW112827   2.357   5.532   2.228
 3976SOL    HW212828   2.321   5.535   2.388
 3977SOL     OW12829   0.495   3.647   6.832
 3977SOL    HW112830   0.571   3.694   6.790
 3977SOL    HW212831   0.425   3.713   6.860
 3978SOL     OW12832   6.612   4.297   3.774
 3978SOL    HW112833   6.587   4.227   3.840
 3978SOL    HW212834   6.536   4.360   3.760
 3979SOL     OW12835   3.616   0.292   6.401
 3979SOL    HW112836   3.615   0.197   6.431
 3979SOL    HW212837   3.522   0.325   6.392
 3980SOL     OW12838   5.895   6.256   5.858
 3980SOL    HW112839   5.868   6.164   5.831
 3980SOL    HW212840   5.987   6.275   5.825
 3981SOL     OW12841   4.824   6.626   0.240
 3981SOL    HW112842   4.806   6.536   0.281
 3981SOL    HW212843   4.919   6.652   0.258
 3982SOL     OW12844   2.759   6.245   2.801
 3982SOL    HW112845   2.819   6.323   2.816
 3982SOL    HW212846   2.782   6.173   2.867
 3983SOL     OW12847   4.143   5.626   3.665
 3983SOL    HW112848   4.161   5.718   3.628
 3983SOL    HW212849   4.057   5.627   3.715
 3984SOL     OW12850   6.543   2.305   2.930
 3984SOL    HW112851   6.498   2.247   2.862
 3984SOL    HW212852   6.577   2.249   3.005
 3985SOL     OW12853   3.692   5.239   6.203
 3985SOL    HW112854   3.649   5.150   6.196
 3985SOL    HW212855   3.622   5.311   6.198
 3986SOL     OW12856   5.182   0.983   1.793
 3986SOL    HW112857   5.251   0.915   1.818
 3986SOL    HW212858   5.208   1.027   1.707
 3987SOL     OW12859   3.049   4.837   5.467
 3987SOL    HW112860   3.017   4.812   5.376
 3987SOL    HW212861   3.056   4.937   5.473
 3988SOL     OW12862   4.471   5.321   0.178
 3988SOL    HW112863   4.431   5.303   0.268
 3988SOL    HW212864   4.465   5.419   0.158
 3989SOL     OW12865   6.416   2.051   0.021
 3989SOL    HW112866   6.359   2.028   0.100
 3989SOL    HW212867   6.460   2.139   0.036
 3990SOL     OW12868   5.797   2.563   2.320
 3990SOL    HW112869   5.730   2.543   2.391
 3990SOL    HW212870   5.750   2.576   2.233
 3991SOL     OW12871   6.926   0.504   3.243
 3991SOL    HW112872   6.898   0.576   3.307
 3991SOL    HW212873   7.005   0.455   3.280
 3992SOL     OW12874   3.290   2.637   0.989
 3992SOL    HW112875   3.300   2.547   1.030
 3992SOL    HW212876   3.279   2.706   1.061
 3993SOL     OW12877   1.588   3.396   1.727
 3993SOL    HW112878   1.555   3.416   1.819
 3993SOL    HW212879   1.649   3.470   1.697
 3994SOL     OW12880   2.513   6.705   5.214
 3994SOL    HW112881   2.572   6.729   5.137
 3994SOL    HW212882   2.568   6.693   5.296
 3995SOL     OW12883   1.595   2.973   5.054
 3995SOL    HW112884   1.622   2.906   5.124
 3995SOL    HW212885   1.674   3.027   5.027
 3996SOL     OW12886   6.958   6.176   4.668
 3996SOL    HW112887   7.021   6.110   4.627
 3996SOL    HW212888   7.006   6.262   4.685
 3997SOL     OW12889   5.534   0.223   4.311
 3997SOL    HW112890   5.449   0.183   4.276
 3997SOL    HW212891   5.609   0.158   4.301
 3998SOL     OW12892   4.540   2.288   3.796
 3998SOL    HW112893   4.474   2.352   3.835
 3998SOL    HW212894   4.624   2.291   3.850
 3999SOL     OW12895   5.747   2.228   5.142
 3999SOL    HW112896   5.743   2.141   5.191
 3999SOL    HW212897   5.654   2.263   5.129
 4000SOL     OW12898   3.855   0.104   3.767
 4000SOL    HW112899   3.941   0.154   3.778
 4000SOL    HW212900   3.798   0.150   3.699
 4001SOL     OW12901   0.900   2.368   3.334
 4001SOL    HW112902   0.996   2.393   3.326
 4001SOL    HW212903   0.884   2.279   3.291
 4002SOL     OW12904   2.045   3.650   1.796
 4002SOL    HW112905   1.985   3.574   1.774
 4002SOL    HW212906   2.105   3.623   1.872
 4003SOL     OW12907   3.376   1.040   4.750
 4003SOL    HW112908   3.456   1.092   4.779
 4003SOL    HW212909   3.312   1.101   4.703
 4004SOL     OW12910   6.819   1.726   5.107
 4004SOL    HW112911   6.853   1.692   5.019
 4004SOL    HW212912   6.719   1.733   5.104
 4005SOL     OW12913   5.218   5.241   5.962
 4005SOL    HW112914   5.254   5.333   5.948
 4005SOL    HW212915   5.225   5.217   6.059
 4006SOL     OW12916   3.491   5.964   2.219
 4006SOL    HW112917   3.501   6.035   2.289
 4006SOL    HW212918   3.523   6.000   2.131
 4007SOL     OW12919   6.661   2.282   6.503
 4007SOL    HW112920   6.719   2.317   6.430
 4007SOL    HW212921   6.704   2.202   6.545
 4008SOL     OW12922   2.661   2.258   5.406
 4008SOL    HW112923   2.575   2.207   5.412
 4008SOL    HW212924   2.665   2.325   5.480
 4009SOL     OW12925   3.936   3.023   2.714
 4009SOL    HW112926   3.986   3.015   2.628
 4009SOL    HW212927   3.862   2.955   2.715
 4010SOL     OW12928   2.083   3.214   6.466
 4010SOL    HW112929   2.021   3.293   6.467
 4010SOL    HW212930   2.062   3.155   6.544
 4011SOL     OW12931   0.660   2.452   1.162
 4011SOL    HW112932   0.682   2.425   1.256
 4011SOL    HW212933   0.730   2.515   1.129
 4012SOL     OW12934   6.724   3.161   3.696
 4012SOL    HW112935   6.782   3.089   3.659
 4012SOL    HW212936   6.646   3.176   3.635
 4013SOL     OW12937   4.708   2.488   3.417
 4013SOL    HW112938   4.642   2.441   3.475
 4013SOL    HW212939   4.667   2.574   3.383
 4014SOL     OW12940   5.605   5.690   2.454
 4014SOL    HW112941   5.659   5.722   2.532
 4014SOL    HW212942   5.665   5.647   2.387
 4015SOL     OW12943   4.629   3.543   6.856
 4015SOL    HW112944   4.715   3.493   6.859
 4015SOL    HW212945   4.638   3.621   6.795
 4016SOL     OW12946   2.981   6.732   5.056
 4016SOL    HW112947   2.913   6.700   4.989
 4016SOL    HW212948   2.951   6.708   5.148
 4017SOL     OW12949   6.541   6.298   6.808
 4017SOL    HW112950   6.624   6.261   6.849
 4017SOL    HW212951   6.464   6.239   6.830
 4018SOL     OW12952   2.671   6.142   0.546
 4018SOL    HW112953   2.738   6.204   0.587
 4018SOL    HW212954   2.621   6.094   0.619
 4019SOL     OW12955   5.263   5.251   3.581
 4019SOL    HW112956   5.242   5.211   3.670
 4019SOL    HW212957   5.363   5.260   3.571
 4020SOL     OW12958   5.326   2.430   4.985
 4020SOL    HW112959   5.247   2.376   4.955
 4020SOL    HW212960   5.295   2.513   5.032
 4021SOL     OW12961   3.912   4.518   6.711
 4021SOL    HW112962   3.901   4.489   6.615
 4021SOL    HW212963   3.822   4.537   6.750
 4022SOL     OW12964   5.213   0.278   1.260
 4022SOL    HW112965   5.185   0.236   1.173
 4022SOL    HW212966   5.194   0.214   1.335
 4023SOL     OW12967   6.887   0.394   5.287
 4023SOL    HW112968   6.966   0.451   5.263
 4023SOL    HW212969   6.915   0.298   5.289
 4024SOL     OW12970   3.782   4.875   4.451
 4024SOL    HW112971   3.846   4.903   4.522
 4024SOL    HW212972   3.829   4.871   4.363
 4025SOL     OW12973   1.235   4.161   2.920
 4025SOL    HW112974   1.198   4.134   3.009
 4025SOL    HW212975   1.319   4.109   2.901
 4026SOL     OW12976   5.322   6.756   4.547
 4026SOL    HW112977   5.254   6.777   4.616
 4026SOL    HW212978   5.356   6.841   4.506
 4027SOL     OW12979   4.396   5.103   1.395
 4027SOL    HW112980   4.311   5.129   1.442
 4027SOL    HW212981   4.441   5.184   1.359
 4028SOL     OW12982   2.775   6.719   4.012
 4028SOL    HW112983   2.774   6.783   3.935
 4028SOL    HW212984   2.738   6.763   4.093
 4029SOL     OW12985   2.183   4.205   3.928
 4029SOL    HW112986   2.233   4.184   4.012
 4029SOL    HW212987   2.086   4.220   3.950
 4030SOL     OW12988   1.414   1.368   6.139
 4030SOL    HW112989   1.469   1.368   6.055
 4030SOL    HW212990   1.353   1.289   6.139
 4031SOL     OW12991   4.919   5.386   4.210
 4031SOL    HW112992   4.866   5.442   4.274
 4031SOL    HW212993   4.876   5.391   4.120
 4032SOL     OW12994   5.005   6.981   4.494
 4032SOL    HW112995   4.907   6.990   4.476
 4032SOL    HW212996   5.026   7.021   4.583
 4033SOL     OW12997   3.087   3.651   5.317
 4033SOL    HW112998   3.165   3.589   5.316
 4033SOL    HW212999   3.064   3.675   5.411
 4034SOL     OW13000   6.485   2.571   4.195
 4034SOL    HW113001   6.509   2.635   4.269
 4034SOL    HW213002   6.435   2.494   4.233
 4035SOL     OW13003   0.426   5.479   1.044
 4035SOL    HW113004   0.427   5.560   0.986
 4035SOL    HW213005   0.471   5.501   1.131
 4036SOL     OW13006   6.618   5.992   2.943
 4036SOL    HW113007   6.622   6.059   2.870
 4036SOL    HW213008   6.680   5.917   2.923
 4037SOL     OW13009   6.523   4.209   6.200
 4037SOL    HW113010   6.621   4.226   6.188
 4037SOL    HW213011   6.472   4.294   6.187
 4038SOL     OW13012   6.618   4.853   3.622
 4038SOL    HW113013   6.566   4.928   3.580
 4038SOL    HW213014   6.692   4.891   3.677
 4039SOL     OW13015   4.552   5.703   0.861
 4039SOL    HW113016   4.600   5.655   0.934
 4039SOL    HW213017   4.601   5.787   0.838
 4040SOL     OW13018   3.669   6.520   0.965
 4040SOL    HW113019   3.690   6.550   0.872
 4040SOL    HW213020   3.648   6.422   0.965
 4041SOL     OW13021   1.177   0.202   3.672
 4041SOL    HW113022   1.251   0.135   3.670
 4041SOL    HW213023   1.208   0.287   3.629
 4042SOL     OW13024   5.791   5.234   2.302
 4042SOL    HW113025   5.880   5.217   2.343
 4042SOL    HW213026   5.792   5.208   2.206
 4043SOL     OW13027   5.769   3.847   2.112
 4043SOL    HW113028   5.722   3.884   2.192
 4043SOL    HW213029   5.817   3.763   2.137
 4044SOL     OW13030   6.872   5.790   2.978
 4044SOL    HW113031   6.922   5.706   2.999
 4044SOL    HW213032   6.922   5.842   2.908
 4045SOL     OW13033   1.893   4.595   5.594
 4045SOL    HW113034   1.945   4.680   5.585
 4045SOL    HW213035   1.954   4.522   5.625
 4046SOL     OW13036   0.398   3.005   0.921
 4046SOL    HW113037   0.489   3.006   0.962
 4046SOL    HW213038   0.406   3.001   0.821
 4047SOL     OW13039   3.008   4.018   1.805
 4047SOL    HW113040   3.103   4.040   1.782
 4047SOL    HW213041   2.992   3.920   1.793
 4048SOL     OW13042   4.883   2.403   1.285
 4048SOL    HW113043   4.854   2.473   1.350
 4048SOL    HW213044   4.820   2.325   1.289
 4049SOL     OW13045   6.789   0.762   5.426
 4049SOL    HW113046   6.839   0.840   5.463
 4049SOL    HW213047   6.795   0.685   5.490
 4050SOL     OW13048   2.560   0.531   1.488
 4050SOL    HW113049   2.531   0.441   1.454
 4050SOL    HW213050   2.528   0.543   1.581
 4051SOL     OW13051   2.008   4.235   0.914
 4051SOL    HW113052   1.941   4.162   0.922
 4051SOL    HW213053   1.961   4.324   0.915
 4052SOL     OW13054   1.733   6.344   1.680
 4052SOL    HW113055   1.758   6.257   1.722
 4052SOL    HW213056   1.760   6.419   1.740
 4053SOL     OW13057   2.990   4.884   3.438
 4053SOL    HW113058   2.997   4.833   3.524
 4053SOL    HW213059   2.893   4.896   3.415
 4054SOL     OW13060   5.293   1.902   6.983
 4054SOL    HW113061   5.374   1.962   6.981
 4054SOL    HW213062   5.257   1.898   0.050
 4055SOL     OW13063   4.203   3.014   0.732
 4055SOL    HW113064   4.206   2.914   0.728
 4055SOL    HW213065   4.290   3.050   0.765
 4056SOL     OW13066   3.895   3.146   1.161
 4056SOL    HW113067   3.802   3.159   1.197
 4056SOL    HW213068   3.897   3.064   1.104
 4057SOL     OW13069   6.392   2.290   0.459
 4057SOL    HW113070   6.411   2.387   0.473
 4057SOL    HW213071   6.378   2.245   0.547
 4058SOL     OW13072   1.529   1.274   4.736
 4058SOL    HW113073   1.506   1.228   4.650
 4058SOL    HW213074   1.628   1.284   4.743
 4059SOL     OW13075   6.062   1.753   5.129
 4059SOL    HW113076   5.992   1.708   5.184
 4059SOL    HW213077   6.090   1.838   5.173
 4060SOL     OW13078   3.831   6.015   4.927
 4060SOL    HW113079   3.812   5.975   5.017
 4060SOL    HW213080   3.839   5.942   4.860
 4061SOL     OW13081   2.501   3.087   1.622
 4061SOL    HW113082   2.529   3.068   1.528
 4061SOL    HW213083   2.408   3.126   1.622
 4062SOL     OW13084   3.936   6.105   2.948
 4062SOL    HW113085   3.898   6.197   2.958
 4062SOL    HW213086   3.937   6.079   2.852
 4063SOL     OW13087   2.741   5.464   6.226
 4063SOL    HW113088   2.643   5.451   6.244
 4063SOL    HW213089   2.779   5.379   6.188
 4064SOL     OW13090   6.019   0.124   4.188
 4064SOL    HW113091   5.971   0.106   4.102
 4064SOL    HW213092   6.079   0.047   4.209
 4065SOL     OW13093   6.372   4.755   0.228
 4065SOL    HW113094   6.378   4.673   0.285
 4065SOL    HW213095   6.457   4.767   0.177
 4066SOL     OW13096   6.385   5.143   1.685
 4066SOL    HW113097   6.286   5.143   1.674
 4066SOL    HW213098   6.423   5.227   1.645
 4067SOL     OW13099   5.991   0.629   1.546
 4067SOL    HW113100   5.927   0.674   1.608
 4067SOL    HW213101   5.943   0.601   1.463
 4068SOL     OW13102   5.912   1.262   4.791
 4068SOL    HW113103   5.830   1.205   4.787
 4068SOL    HW213104   5.897   1.345   4.738
 4069SOL     OW13105   6.694   6.102   1.222
 4069SOL    HW113106   6.661   6.125   1.130
 4069SOL    HW213107   6.793   6.113   1.226
 4070SOL     OW13108   0.129   3.642   2.891
 4070SOL    HW113109   0.114   3.726   2.942
 4070SOL    HW213110   0.213   3.598   2.922
 4071SOL     OW13111   2.378   0.396   3.539
 4071SOL    HW113112   2.407   0.390   3.443
 4071SOL    HW213113   2.291   0.349   3.550
 4072SOL     OW13114   1.057   0.358   4.227
 4072SOL    HW113115   1.120   0.423   4.183
 4072SOL    HW213116   1.039   0.282   4.164
 4073SOL     OW13117   2.880   5.552   1.518
 4073SOL    HW113118   2.782   5.548   1.498
 4073SOL    HW213119   2.894   5.553   1.617
 4074SOL     OW13120   0.299   3.253   0.700
 4074SOL    HW113121   0.369   3.277   0.767
 4074SOL    HW213122   0.227   3.321   0.701
 4075SOL     OW13123   5.034   0.553   3.833
 4075SOL    HW113124   5.068   0.582   3.923
 4075SOL    HW213125   5.066   0.461   3.813
 4076SOL     OW13126   1.910   2.406   3.373
 4076SOL    HW113127   1.868   2.482   3.423
 4076SOL    HW213128   1.910   2.324   3.431
 4077SOL     OW13129   3.215   0.967   0.931
 4077SOL    HW113130   3.267   1.047   0.901
 4077SOL    HW213131   3.278   0.892   0.954
 4078SOL     OW13132   4.941   3.903   2.702
 4078SOL    HW113133   5.022   3.932   2.651
 4078SOL    HW213134   4.870   3.874   2.637
 4079SOL     OW13135   5.943   0.378   4.137
 4079SOL    HW113136   5.985   0.287   4.149
 4079SOL    HW213137   5.863   0.385   4.196
 4080SOL     OW13138   3.537   2.908   2.865
 4080SOL    HW113139   3.442   2.919   2.836
 4080SOL    HW213140   3.592   2.879   2.787
 4081SOL     OW13141   2.857   2.486   6.546
 4081SOL    HW113142   2.857   2.485   6.446
 4081SOL    HW213143   2.784   2.426   6.580
 4082SOL     OW13144   1.245   2.506   5.536
 4082SOL    HW113145   1.283   2.571   5.469
 4082SOL    HW213146   1.153   2.535   5.562
 4083SOL     OW13147   5.887   5.173   2.825
 4083SOL    HW113148   5.833   5.209   2.901
 4083SOL    HW213149   5.976   5.143   2.859
 4084SOL     OW13150   4.465   0.785   2.305
 4084SOL    HW113151   4.398   0.851   2.336
 4084SOL    HW213152   4.517   0.751   2.384
 4085SOL     OW13153   2.701   4.609   2.722
 4085SOL    HW113154   2.731   4.644   2.633
 4085SOL    HW213155   2.654   4.522   2.708
 4086SOL     OW13156   6.253   4.647   4.576
 4086SOL    HW113157   6.283   4.552   4.568
 4086SOL    HW213158   6.156   4.650   4.598
 4087SOL     OW13159   2.001   0.653   1.830
 4087SOL    HW113160   1.906   0.673   1.855
 4087SOL    HW213161   2.062   0.704   1.891
 4088SOL     OW13162   0.316   2.006   5.670
 4088SOL    HW113163   0.314   1.913   5.633
 4088SOL    HW213164   0.239   2.059   5.632
 4089SOL     OW13165   0.832   0.887   2.612
 4089SOL    HW113166   0.909   0.827   2.630
 4089SOL    HW213167   0.770   0.843   2.547
 4090SOL     OW13168   2.343   2.658   5.907
 4090SOL    HW113169   2.440   2.638   5.893
 4090SOL    HW213170   2.311   2.717   5.833
 4091SOL     OW13171   3.241   5.938   1.889
 4091SOL    HW113172   3.174   5.994   1.840
 4091SOL    HW213173   3.212   5.843   1.887
 4092SOL     OW13174   5.101   2.122   5.890
 4092SOL    HW113175   5.136   2.110   5.983
 4092SOL    HW213176   5.031   2.193   5.889
 4093SOL     OW13177   5.139   4.218   3.426
 4093SOL    HW113178   5.080   4.257   3.355
 4093SOL    HW213179   5.102   4.241   3.516
 4094SOL     OW13180   0.158   6.504   0.256
 4094SOL    HW113181   0.206   6.542   0.177
 4094SOL    HW213182   0.220   6.444   0.306
 4095SOL     OW13183   1.487   4.948   0.599
 4095SOL    HW113184   1.435   4.947   0.684
 4095SOL    HW213185   1.460   4.871   0.541
 4096SOL     OW13186   0.381   0.341   6.219
 4096SOL    HW113187   0.329   0.273   6.270
 4096SOL    HW213188   0.352   0.340   6.123
 4097SOL     OW13189   0.195   3.862   4.663
 4097SOL    HW113190   0.278   3.835   4.712
 4097SOL    HW213191   0.159   3.784   4.612
 4098SOL     OW13192   0.935   5.204   1.399
 4098SOL    HW113193   0.903   5.212   1.305
 4098SOL    HW213194   0.944   5.295   1.440
 4099SOL     OW13195   6.472   3.718   5.906
 4099SOL    HW113196   6.531   3.787   5.948
 4099SOL    HW213197   6.441   3.752   5.817
 4100SOL     OW13198   2.102   1.811   2.645
 4100SOL    HW113199   2.028   1.761   2.601
 4100SOL    HW213200   2.066   1.859   2.725
 4101SOL     OW13201   6.645   5.870   6.821
 4101SOL    HW113202   6.653   5.951   6.879
 4101SOL    HW213203   6.670   5.894   6.727
 4102SOL     OW13204   1.505   5.971   0.372
 4102SOL    HW113205   1.528   6.055   0.323
 4102SOL    HW213206   1.418   5.935   0.337
 4103SOL     OW13207   2.105   6.145   3.170
 4103SOL    HW113208   2.177   6.083   3.141
 4103SOL    HW213209   2.111   6.161   3.269
 4104SOL     OW13210   2.188   5.871   5.271
 4104SOL    HW113211   2.176   5.969   5.257
 4104SOL    HW213212   2.098   5.827   5.275
 4105SOL     OW13213   4.166   0.368   2.437
 4105SOL    HW113214   4.258   0.365   2.397
 4105SOL    HW213215   4.122   0.454   2.413
 4106SOL     OW13216   1.392   0.352   2.065
 4106SOL    HW113217   1.488   0.326   2.066
 4106SOL    HW213218   1.337   0.278   2.025
 4107SOL     OW13219   1.239   0.993   1.023
 4107SOL    HW113220   1.300   0.978   1.101
 4107SOL    HW213221   1.260   0.926   0.952
 4108SOL     OW13222   6.468   6.106   5.759
 4108SOL    HW113223   6.416   6.149   5.686
 4108SOL    HW213224   6.562   6.091   5.729
 4109SOL     OW13225   5.269   6.385   4.567
 4109SOL    HW113226   5.307   6.312   4.623
 4109SOL    HW213227   5.320   6.391   4.482
 4110SOL     OW13228   5.081   3.100   0.134
 4110SOL    HW113229   5.146   3.081   0.207
 4110SOL    HW213230   5.103   3.043   0.054
 4111SOL     OW13231   5.796   5.195   4.373
 4111SOL    HW113232   5.737   5.123   4.339
 4111SOL    HW213233   5.740   5.271   4.408
 4112SOL     OW13234   4.159   6.155   4.284
 4112SOL    HW113235   4.139   6.059   4.303
 4112SOL    HW213236   4.072   6.205   4.272
 4113SOL     OW13237   4.155   5.771   4.810
 4113SOL    HW113238   4.207   5.709   4.868
 4113SOL    HW213239   4.218   5.833   4.763
 4114SOL     OW13240   0.319   0.823   1.200
 4114SOL    HW113241   0.289   0.744   1.146
 4114SOL    HW213242   0.374   0.792   1.277
 4115SOL     OW13243   4.501   5.941   3.747
 4115SOL    HW113244   4.434   5.924   3.675
 4115SOL    HW213245   4.476   5.891   3.830
 4116SOL     OW13246   5.500   3.443   3.368
 4116SOL    HW113247   5.546   3.358   3.395
 4116SOL    HW213248   5.431   3.467   3.436
 4117SOL     OW13249   0.992   0.904   3.534
 4117SOL    HW113250   0.992   0.995   3.574
 4117SOL    HW213251   0.942   0.906   3.447
 4118SOL     OW13252   1.057   6.572   0.595
 4118SOL    HW113253   1.115   6.649   0.566
 4118SOL    HW213254   0.964   6.586   0.561
 4119SOL     OW13255   0.029   0.498   4.557
 4119SOL    HW113256   7.011   0.520   4.644
 4119SOL    HW213257   7.015   0.414   4.520
 4120SOL     OW13258   2.303   0.738   6.296
 4120SOL    HW113259   2.239   0.664   6.278
 4120SOL    HW213260   2.396   0.700   6.304
 4121SOL     OW13261   6.899   0.942   2.222
 4121SOL    HW113262   6.913   0.850   2.185
 4121SOL    HW213263   6.969   1.004   2.186
 4122SOL     OW13264   0.802   5.246   3.133
 4122SOL    HW113265   0.772   5.337   3.162
 4122SOL    HW213266   0.770   5.178   3.199
 4123SOL     OW13267   5.182   4.096   1.299
 4123SOL    HW113268   5.173   4.074   1.202
 4123SOL    HW213269   5.237   4.025   1.344
 4124SOL     OW13270   6.399   6.477   6.969
 4124SOL    HW113271   6.454   6.451   0.022
 4124SOL    HW213272   6.416   6.413   6.894
 4125SOL     OW13273   6.434   2.559   0.471
 4125SOL    HW113274   6.417   2.617   0.550
 4125SOL    HW213275   6.367   2.580   0.400
 4126SOL     OW13276   0.549   3.534   4.028
 4126SOL    HW113277   0.585   3.515   4.119
 4126SOL    HW213278   0.537   3.449   3.977
 4127SOL     OW13279   5.096   2.179   4.064
 4127SOL    HW113280   5.054   2.093   4.038
 4127SOL    HW213281   5.070   2.202   4.158
 4128SOL     OW13282   6.838   2.599   6.436
 4128SOL    HW113283   6.836   2.594   6.536
 4128SOL    HW213284   6.878   2.685   6.407
 4129SOL     OW13285   3.237   1.937   0.989
 4129SOL    HW113286   3.163   2.002   0.974
 4129SOL    HW213287   3.290   1.965   1.069
 4130SOL     OW13288   6.277   2.658   0.248
 4130SOL    HW113289   6.185   2.690   0.225
 4130SOL    HW213290   6.310   2.597   0.177
 4131SOL     OW13291   5.194   6.896   3.287
 4131SOL    HW113292   5.137   6.926   3.363
 4131SOL    HW213293   5.163   6.939   3.202
 4132SOL     OW13294   6.409   4.649   3.294
 4132SOL    HW113295   6.355   4.705   3.357
 4132SOL    HW213296   6.451   4.574   3.344
 4133SOL     OW13297   5.559   6.605   2.706
 4133SOL    HW113298   5.620   6.605   2.785
 4133SOL    HW213299   5.612   6.587   2.623
 4134SOL     OW13300   1.890   3.373   1.193
 4134SOL    HW113301   1.910   3.459   1.240
 4134SOL    HW213302   1.973   3.318   1.186
 4135SOL     OW13303   6.054   0.905   1.312
 4135SOL    HW113304   6.037   0.854   1.227
 4135SOL    HW213305   6.037   0.846   1.391
 4136SOL     OW13306   0.366   4.394   0.872
 4136SOL    HW113307   0.348   4.327   0.799
 4136SOL    HW213308   0.461   4.426   0.864
 4137SOL     OW13309   0.651   2.742   6.520
 4137SOL    HW113310   0.590   2.821   6.507
 4137SOL    HW213311   0.606   2.674   6.578
 4138SOL     OW13312   4.074   0.029   6.683
 4138SOL    HW113313   4.109   6.988   6.618
 4138SOL    HW213314   4.075   0.120   6.640
 4139SOL     OW13315   1.956   3.943   2.601
 4139SOL    HW113316   2.027   4.013   2.601
 4139SOL    HW213317   1.975   3.876   2.673
 4140SOL     OW13318   2.281   0.465   6.615
 4140SOL    HW113319   2.323   0.429   6.699
 4140SOL    HW213320   2.263   0.563   6.626
 4141SOL     OW13321   4.980   1.407   6.425
 4141SOL    HW113322   4.998   1.400   6.327
 4141SOL    HW213323   5.030   1.336   6.474
 4142SOL     OW13324   6.396   5.145   1.959
 4142SOL    HW113325   6.405   5.151   1.860
 4142SOL    HW213326   6.300   5.154   1.985
 4143SOL     OW13327   6.554   3.816   6.496
 4143SOL    HW113328   6.474   3.793   6.440
 4143SOL    HW213329   6.631   3.759   6.468
 4144SOL     OW13330   4.280   1.295   1.386
 4144SOL    HW113331   4.294   1.291   1.486
 4144SOL    HW213332   4.335   1.370   1.348
 4145SOL     OW13333   6.617   0.360   1.410
 4145SOL    HW113334   6.521   0.334   1.426
 4145SOL    HW213335   6.677   0.292   1.453
 4146SOL     OW13336   4.684   6.927   1.521
 4146SOL    HW113337   4.661   6.983   1.441
 4146SOL    HW213338   4.741   6.981   1.583
 4147SOL     OW13339   4.820   4.741   6.787
 4147SOL    HW113340   4.741   4.684   6.812
 4147SOL    HW213341   4.866   4.701   6.708
 4148SOL     OW13342   2.415   1.416   5.073
 4148SOL    HW113343   2.411   1.316   5.074
 4148SOL    HW213344   2.504   1.446   5.108
 4149SOL     OW13345   1.391   3.875   6.800
 4149SOL    HW113346   1.302   3.839   6.770
 4149SOL    HW213347   1.459   3.861   6.728
 4150SOL     OW13348   5.512   1.690   0.309
 4150SOL    HW113349   5.473   1.606   0.348
 4150SOL    HW213350   5.564   1.738   0.379
 4151SOL     OW13351   2.647   5.696   4.663
 4151SOL    HW113352   2.590   5.767   4.705
 4151SOL    HW213353   2.603   5.662   4.580
 4152SOL     OW13354   2.833   4.351   1.360
 4152SOL    HW113355   2.798   4.314   1.274
 4152SOL    HW213356   2.757   4.376   1.419
 4153SOL     OW13357   6.747   6.022   2.109
 4153SOL    HW113358   6.799   6.061   2.033
 4153SOL    HW213359   6.807   5.962   2.163
 4154SOL     OW13360   0.769   7.011   3.961
 4154SOL    HW113361   0.797   6.950   4.034
 4154SOL    HW213362   0.721   0.063   3.999
 4155SOL     OW13363   0.298   0.588   2.067
 4155SOL    HW113364   0.366   0.531   2.114
 4155SOL    HW213365   0.244   0.638   2.135
 4156SOL     OW13366   0.425   5.155   5.849
 4156SOL    HW113367   0.491   5.173   5.922
 4156SOL    HW213368   0.333   5.169   5.883
 4157SOL     OW13369   5.841   6.083   0.924
 4157SOL    HW113370   5.884   6.000   0.959
 4157SOL    HW213371   5.742   6.078   0.937
 4158SOL     OW13372   0.321   3.283   1.299
 4158SOL    HW113373   0.382   3.204   1.290
 4158SOL    HW213374   0.248   3.261   1.364
 4159SOL     OW13375   3.196   0.799   4.363
 4159SOL    HW113376   3.282   0.840   4.331
 4159SOL    HW213377   3.134   0.872   4.393
 4160SOL     OW13378   0.829   6.522   6.174
 4160SOL    HW113379   0.809   6.477   6.262
 4160SOL    HW213380   0.768   6.486   6.104
 4161SOL     OW13381   3.225   3.409   2.926
 4161SOL    HW113382   3.210   3.438   2.831
 4161SOL    HW213383   3.144   3.361   2.959
 4162SOL     OW13384   5.533   5.297   1.599
 4162SOL    HW113385   5.527   5.312   1.698
 4162SOL    HW213386   5.531   5.199   1.580
 4163SOL     OW13387   4.050   6.249   1.464
 4163SOL    HW113388   3.995   6.181   1.513
 4163SOL    HW213389   4.130   6.205   1.424
 4164SOL     OW13390   6.211   1.573   6.168
 4164SOL    HW113391   6.266   1.491   6.179
 4164SOL    HW213392   6.229   1.636   6.243
 4165SOL     OW13393   3.882   1.211   4.587
 4165SOL    HW113394   3.886   1.248   4.495
 4165SOL    HW213395   3.954   1.142   4.598
 4166SOL     OW13396   6.113   1.922   1.258
 4166SOL    HW113397   6.205   1.958   1.269
 4166SOL    HW213398   6.103   1.837   1.310
 4167SOL     OW13399   4.050   5.399   4.836
 4167SOL    HW113400   4.120   5.328   4.831
 4167SOL    HW213401   4.085   5.476   4.889
 4168SOL     OW13402   4.841   4.074   0.019
 4168SOL    HW113403   4.784   4.052   6.966
 4168SOL    HW213404   4.876   3.990   0.060
 4169SOL     OW13405   5.248   2.867   6.414
 4169SOL    HW113406   5.333   2.816   6.413
 4169SOL    HW213407   5.256   2.944   6.478
 4170SOL     OW13408   0.369   2.365   5.081
 4170SOL    HW113409   0.405   2.281   5.040
 4170SOL    HW213410   0.433   2.441   5.063
 4171SOL     OW13411   0.545   1.715   6.877
 4171SOL    HW113412   0.592   1.741   6.961
 4171SOL    HW213413   0.481   1.787   6.850
 4172SOL     OW13414   3.107   3.233   0.198
 4172SOL    HW113415   3.134   3.263   0.290
 4172SOL    HW213416   3.055   3.147   0.205
 4173SOL     OW13417   4.793   1.317   5.976
 4173SOL    HW113418   4.766   1.225   5.947
 4173SOL    HW213419   4.716   1.379   5.964
 4174SOL     OW13420   4.547   0.207   4.441
 4174SOL    HW113421   4.564   0.217   4.539
 4174SOL    HW213422   4.493   0.284   4.408
 4175SOL     OW13423   1.424   4.735   6.147
 4175SOL    HW113424   1.344   4.681   6.173
 4175SOL    HW213425   1.440   4.806   6.214
 4176SOL     OW13426   5.169   6.559   6.255
 4176SOL    HW113427   5.118   6.644   6.264
 4176SOL    HW213428   5.236   6.567   6.181
 4177SOL     OW13429   4.031   4.774   3.103
 4177SOL    HW113430   4.054   4.824   3.020
 4177SOL    HW213431   3.931   4.764   3.109
 4178SOL     OW13432   4.275   6.420   1.067
 4178SOL    HW113433   4.259   6.324   1.044
 4178SOL    HW213434   4.203   6.452   1.128
 4179SOL     OW13435   4.116   2.253   6.879
 4179SOL    HW113436   4.158   2.316   6.814
 4179SOL    HW213437   4.144   2.276   6.972
 4180SOL     OW13438   4.103   3.604   0.402
 4180SOL    HW113439   4.086   3.555   0.316
 4180SOL    HW213440   4.018   3.607   0.455
 4181SOL     OW13441   5.340   6.883   6.001
 4181SOL    HW113442   5.356   6.885   5.902
 4181SOL    HW213443   5.421   6.918   6.048
 4182SOL     OW13444   0.794   5.895   5.024
 4182SOL    HW113445   0.849   5.950   4.962
 4182SOL    HW213446   0.840   5.807   5.041
 4183SOL     OW13447   4.005   1.756   0.964
 4183SOL    HW113448   3.961   1.711   0.886
 4183SOL    HW213449   4.002   1.695   1.043
 4184SOL     OW13450   4.104   5.466   3.366
 4184SOL    HW113451   4.190   5.442   3.411
 4184SOL    HW213452   4.108   5.441   3.270
 4185SOL     OW13453   4.731   4.172   3.228
 4185SOL    HW113454   4.736   4.121   3.141
 4185SOL    HW213455   4.725   4.107   3.303
 4186SOL     OW13456   1.810   5.677   0.189
 4186SOL    HW113457   1.841   5.730   0.110
 4186SOL    HW213458   1.816   5.734   0.271
 4187SOL     OW13459   1.933   3.742   6.108
 4187SOL    HW113460   1.942   3.735   6.009
 4187SOL    HW213461   1.929   3.650   6.148
 4188SOL     OW13462   4.411   6.707   6.893
 4188SOL    HW113463   4.437   6.611   6.900
 4188SOL    HW213464   4.323   6.715   6.846
 4189SOL     OW13465   4.230   5.209   3.501
 4189SOL    HW113466   4.303   5.163   3.450
 4189SOL    HW213467   4.143   5.163   3.482
 4190SOL     OW13468   6.441   6.597   1.515
 4190SOL    HW113469   6.423   6.674   1.454
 4190SOL    HW213470   6.540   6.587   1.528
 4191SOL     OW13471   4.678   3.244   6.543
 4191SOL    HW113472   4.638   3.257   6.452
 4191SOL    HW213473   4.607   3.220   6.608
 4192SOL     OW13474   1.655   3.727   0.174
 4192SOL    HW113475   1.615   3.818   0.187
 4192SOL    HW213476   1.604   3.679   0.103
 4193SOL     OW13477   0.365   0.433   0.320
 4193SOL    HW113478   0.461   0.462   0.321
 4193SOL    HW213479   0.340   0.407   0.227
 4194SOL     OW13480   5.364   1.663   6.052
 4194SOL    HW113481   5.435   1.613   6.101
 4194SOL    HW213482   5.277   1.655   6.100
 4195SOL     OW13483   3.503   6.958   0.990
 4195SOL    HW113484   3.562   6.895   1.040
 4195SOL    HW213485   3.529   6.958   0.894
 4196SOL     OW13486   6.205   3.089   2.523
 4196SOL    HW113487   6.186   3.174   2.572
 4196SOL    HW213488   6.177   3.011   2.578
 4197SOL     OW13489   3.272   0.346   6.999
 4197SOL    HW113490   3.191   0.329   0.030
 4197SOL    HW213491   3.263   0.435   6.955
 4198SOL     OW13492   6.609   2.563   2.821
 4198SOL    HW113493   6.637   2.543   2.727
 4198SOL    HW213494   6.610   2.478   2.875
 4199SOL     OW13495   0.585   3.935   6.193
 4199SOL    HW113496   0.570   3.844   6.155
 4199SOL    HW213497   0.507   3.962   6.249
 4200SOL     OW13498   4.441   1.901   3.978
 4200SOL    HW113499   4.479   1.976   4.033
 4200SOL    HW213500   4.352   1.928   3.942
 4201SOL     OW13501   5.960   0.028   3.635
 4201SOL    HW113502   5.954   0.075   3.724
 4201SOL    HW213503   5.996   0.091   3.567
 4202SOL     OW13504   4.775   3.537   1.397
 4202SOL    HW113505   4.704   3.521   1.466
 4202SOL    HW213506   4.808   3.631   1.405
 4203SOL     OW13507   6.492   4.460   5.281
 4203SOL    HW113508   6.423   4.417   5.222
 4203SOL    HW213509   6.467   4.444   5.377
 4204SOL     OW13510   1.740   4.107   6.845
 4204SOL    HW113511   1.762   4.104   6.748
 4204SOL    HW213512   1.821   4.083   6.898
 4205SOL     OW13513   4.529   6.522   6.072
 4205SOL    HW113514   4.537   6.477   5.983
 4205SOL    HW213515   4.482   6.462   6.136
 4206SOL     OW13516   1.926   2.273   4.210
 4206SOL    HW113517   1.978   2.341   4.260
 4206SOL    HW213518   1.963   2.263   4.118
 4207SOL     OW13519   0.777   2.051   2.367
 4207SOL    HW113520   0.711   1.992   2.321
 4207SOL    HW213521   0.793   2.018   2.460
 4208SOL     OW13522   2.015   2.242   3.945
 4208SOL    HW113523   2.013   2.151   3.905
 4208SOL    HW213524   2.068   2.303   3.886
 4209SOL     OW13525   6.894   6.439   2.008
 4209SOL    HW113526   6.840   6.395   2.079
 4209SOL    HW213527   6.839   6.450   1.926
 4210SOL     OW13528   2.871   3.814   5.007
 4210SOL    HW113529   2.821   3.740   4.961
 4210SOL    HW213530   2.817   3.846   5.085
 4211SOL     OW13531   4.065   2.850   5.303
 4211SOL    HW113532   4.115   2.774   5.263
 4211SOL    HW213533   4.046   2.831   5.399
 4212SOL     OW13534   0.174   2.025   3.075
 4212SOL    HW113535   0.152   2.042   3.171
 4212SOL    HW213536   0.105   2.068   3.016
 4213SOL     OW13537   3.068   0.175   4.203
 4213SOL    HW113538   3.104   0.126   4.124
 4213SOL    HW213539   3.129   0.250   4.227
 4214SOL     OW13540   6.938   6.075   2.928
 4214SOL    HW113541   6.860   6.131   2.956
 4214SOL    HW213542   7.013   6.088   2.992
 4215SOL     OW13543   5.618   0.036   5.746
 4215SOL    HW113544   5.527   0.006   5.718
 4215SOL    HW213545   5.687   7.020   5.686
 4216SOL     OW13546   2.455   5.617   1.918
 4216SOL    HW113547   2.516   5.614   1.997
 4216SOL    HW213548   2.360   5.604   1.948
 4217SOL     OW13549   1.379   0.114   2.702
 4217SOL    HW113550   1.420   0.190   2.752
 4217SOL    HW213551   1.338   0.050   2.766
 4218SOL     OW13552   2.966   0.977   0.342
 4218SOL    HW113553   2.922   1.057   0.382
 4218SOL    HW213554   2.897   0.909   0.318
 4219SOL     OW13555   3.959   5.478   2.708
 4219SOL    HW113556   3.925   5.570   2.724
 4219SOL    HW213557   3.885   5.421   2.671
 4220SOL     OW13558   5.541   1.548   1.131
 4220SOL    HW113559   5.452   1.514   1.159
 4220SOL    HW213560   5.576   1.611   1.201
 4221SOL     OW13561   1.231   6.363   0.648
 4221SOL    HW113562   1.295   6.363   0.571
 4221SOL    HW213563   1.171   6.443   0.641
 4222SOL     OW13564   4.948   3.225   3.859
 4222SOL    HW113565   4.996   3.259   3.940
 4222SOL    HW213566   4.945   3.296   3.789
 4223SOL     OW13567   4.002   3.699   2.315
 4223SOL    HW113568   4.031   3.615   2.362
 4223SOL    HW213569   3.955   3.759   2.379
 4224SOL     OW13570   4.385   5.154   4.375
 4224SOL    HW113571   4.441   5.134   4.454
 4224SOL    HW213572   4.308   5.213   4.402
 4225SOL     OW13573   1.138   1.748   6.171
 4225SOL    HW113574   1.131   1.648   6.176
 4225SOL    HW213575   1.216   1.772   6.113
 4226SOL     OW13576   0.675   5.514   5.087
 4226SOL    HW113577   0.674   5.505   4.987
 4226SOL    HW213578   0.597   5.464   5.126
 4227SOL     OW13579   4.870   5.562   1.763
 4227SOL    HW113580   4.881   5.598   1.855
 4227SOL    HW213581   4.835   5.468   1.768
 4228SOL     OW13582   1.510   4.817   4.041
 4228SOL    HW113583   1.578   4.856   4.102
 4228SOL    HW213584   1.452   4.753   4.091
 4229SOL     OW13585   5.735   5.510   5.626
 4229SOL    HW113586   5.743   5.454   5.708
 4229SOL    HW213587   5.704   5.602   5.652
 4230SOL     OW13588   0.320   1.009   1.764
 4230SOL    HW113589   0.253   0.935   1.766
 4230SOL    HW213590   0.390   0.989   1.696
 4231SOL     OW13591   0.128   1.669   6.476
 4231SOL    HW113592   0.140   1.737   6.404
 4231SOL    HW213593   0.175   1.585   6.451
 4232SOL     OW13594   1.601   5.148   4.020
 4232SOL    HW113595   1.691   5.164   4.059
 4232SOL    HW213596   1.601   5.173   3.923
 4233SOL     OW13597   4.464   5.675   1.969
 4233SOL    HW113598   4.443   5.722   1.884
 4233SOL    HW213599   4.455   5.739   2.046
 4234SOL     OW13600   3.316   5.174   5.988
 4234SOL    HW113601   3.400   5.227   5.999
 4234SOL    HW213602   3.279   5.189   5.897
 4235SOL     OW13603   0.221   5.834   6.005
 4235SOL    HW113604   0.124   5.813   6.017
 4235SOL    HW213605   0.231   5.911   5.942
 4236SOL     OW13606   0.685   5.256   2.785
 4236SOL    HW113607   0.696   5.356   2.790
 4236SOL    HW213608   0.767   5.216   2.746
 4237SOL     OW13609   0.401   4.751   4.160
 4237SOL    HW113610   0.377   4.838   4.204
 4237SOL    HW213611   0.369   4.675   4.216
 4238SOL     OW13612   3.592   6.512   2.228
 4238SOL    HW113613   3.527   6.564   2.172
 4238SOL    HW213614   3.602   6.420   2.190
 4239SOL     OW13615   4.472   1.176   3.936
 4239SOL    HW113616   4.417   1.110   3.987
 4239SOL    HW213617   4.510   1.244   3.998
 4240SOL     OW13618   6.052   6.769   2.111
 4240SOL    HW113619   6.032   6.867   2.110
 4240SOL    HW213620   5.984   6.722   2.167
 4241SOL     OW13621   6.129   4.105   0.519
 4241SOL    HW113622   6.031   4.105   0.497
 4241SOL    HW213623   6.141   4.079   0.615
 4242SOL     OW13624   3.021   1.826   3.376
 4242SOL    HW113625   3.063   1.867   3.295
 4242SOL    HW213626   2.928   1.796   3.353
 4243SOL     OW13627   4.612   0.715   2.814
 4243SOL    HW113628   4.709   0.719   2.788
 4243SOL    HW213629   4.604   0.698   2.912
 4244SOL     OW13630   3.524   2.876   4.074
 4244SOL    HW113631   3.598   2.849   4.012
 4244SOL    HW213632   3.548   2.852   4.168
 4245SOL     OW13633   5.446   0.686   6.928
 4245SOL    HW113634   5.541   0.716   6.923
 4245SOL    HW213635   5.399   0.737   7.000
 4246SOL     OW13636   0.174   3.507   0.183
 4246SOL    HW113637   0.186   3.417   0.142
 4246SOL    HW213638   0.262   3.553   0.190
 4247SOL     OW13639   0.367   5.639   4.949
 4247SOL    HW113640   0.444   5.644   4.885
 4247SOL    HW213641   0.396   5.677   5.038
 4248SOL     OW13642   2.133   3.870   5.698
 4248SOL    HW113643   2.135   3.969   5.710
 4248SOL    HW213644   2.138   3.848   5.601
 4249SOL     OW13645   5.560   4.202   5.891
 4249SOL    HW113646   5.591   4.294   5.869
 4249SOL    HW213647   5.483   4.207   5.955
 4250SOL     OW13648   0.745   4.910   2.854
 4250SOL    HW113649   0.807   4.987   2.839
 4250SOL    HW213650   0.707   4.914   2.946
 4251SOL     OW13651   5.337   3.693   0.237
 4251SOL    HW113652   5.314   3.789   0.223
 4251SOL    HW213653   5.255   3.641   0.259
 4252SOL     OW13654   0.348   5.978   5.132
 4252SOL    HW113655   0.250   5.987   5.113
 4252SOL    HW213656   0.370   5.882   5.149
 4253SOL     OW13657   4.417   6.411   3.084
 4253SOL    HW113658   4.350   6.443   3.151
 4253SOL    HW213659   4.396   6.317   3.057
 4254SOL     OW13660   2.982   4.159   1.482
 4254SOL    HW113661   3.020   4.187   1.569
 4254SOL    HW213662   2.933   4.236   1.440
 4255SOL     OW13663   0.430   2.070   4.404
 4255SOL    HW113664   0.415   2.128   4.484
 4255SOL    HW213665   0.440   1.975   4.433
 4256SOL     OW13666   1.981   0.788   1.579
 4256SOL    HW113667   1.964   0.725   1.654
 4256SOL    HW213668   2.051   0.853   1.605
 4257SOL     OW13669   4.181   2.266   4.700
 4257SOL    HW113670   4.228   2.273   4.788
 4257SOL    HW213671   4.093   2.315   4.706
 4258SOL     OW13672   5.199   6.793   2.146
 4258SOL    HW113673   5.178   6.760   2.054
 4258SOL    HW213674   5.157   6.732   2.213
 4259SOL     OW13675   1.935   2.684   0.873
 4259SOL    HW113676   1.915   2.765   0.929
 4259SOL    HW213677   2.018   2.639   0.908
 4260SOL     OW13678   4.666   5.905   3.517
 4260SOL    HW113679   4.648   5.828   3.455
 4260SOL    HW213680   4.609   5.896   3.599
 4261SOL     OW13681   2.109   1.325   2.897
 4261SOL    HW113682   2.164   1.360   2.821
 4261SOL    HW213683   2.120   1.226   2.903
 4262SOL     OW13684   7.014   5.890   6.507
 4262SOL    HW113685   0.058   5.822   6.484
 4262SOL    HW213686   0.021   5.981   6.482
 4263SOL     OW13687   3.820   5.192   5.918
 4263SOL    HW113688   3.754   5.133   5.964
 4263SOL    HW213689   3.893   5.136   5.878
 4264SOL     OW13690   0.214   6.916   0.574
 4264SOL    HW113691   0.152   6.986   0.610
 4264SOL    HW213692   0.264   6.874   0.650
 4265SOL     OW13693   0.054   2.580   0.271
 4265SOL    HW113694   7.013   2.604   0.341
 4265SOL    HW213695   0.146   2.603   0.305
 4266SOL     OW13696   3.216   4.966   1.295
 4266SOL    HW113697   3.257   4.997   1.209
 4266SOL    HW213698   3.187   4.871   1.286
 4267SOL     OW13699   1.989   4.456   6.031
 4267SOL    HW113700   2.048   4.535   6.016
 4267SOL    HW213701   2.043   4.372   6.030
 4268SOL     OW13702   1.465   1.084   0.355
 4268SOL    HW113703   1.391   1.039   0.404
 4268SOL    HW213704   1.543   1.022   0.349
 4269SOL     OW13705   2.956   3.816   0.681
 4269SOL    HW113706   2.961   3.850   0.587
 4269SOL    HW213707   3.036   3.758   0.699
 4270SOL     OW13708   3.636   2.920   5.554
 4270SOL    HW113709   3.635   2.960   5.646
 4270SOL    HW213710   3.617   2.822   5.560
 4271SOL     OW13711   1.040   6.806   6.762
 4271SOL    HW113712   0.989   6.893   6.756
 4271SOL    HW213713   1.130   6.818   6.721
 4272SOL     OW13714   6.883   4.230   3.788
 4272SOL    HW113715   6.922   4.217   3.697
 4272SOL    HW213716   6.783   4.230   3.782
 4273SOL     OW13717   5.550   6.083   4.569
 4273SOL    HW113718   5.468   6.107   4.620
 4273SOL    HW213719   5.549   6.129   4.480
 4274SOL     OW13720   2.076   0.481   3.852
 4274SOL    HW113721   2.112   0.449   3.939
 4274SOL    HW213722   2.050   0.578   3.860
 4275SOL     OW13723   1.251   6.887   6.569
 4275SOL    HW113724   1.329   6.835   6.534
 4275SOL    HW213725   1.180   6.893   6.499
 4276SOL     OW13726   1.775   4.237   2.231
 4276SOL    HW113727   1.768   4.240   2.131
 4276SOL    HW213728   1.797   4.144   2.260
 4277SOL     OW13729   0.841   5.186   4.025
 4277SOL    HW113730   0.792   5.271   4.005
 4277SOL    HW213731   0.932   5.189   3.984
 4278SOL     OW13732   0.321   6.293   5.400
 4278SOL    HW113733   0.323   6.201   5.438
 4278SOL    HW213734   0.374   6.295   5.316
 4279SOL     OW13735   3.406   5.696   4.110
 4279SOL    HW113736   3.427   5.671   4.204
 4279SOL    HW213737   3.418   5.616   4.051
 4280SOL     OW13738   4.914   3.426   3.689
 4280SOL    HW113739   4.874   3.487   3.757
 4280SOL    HW213740   4.941   3.478   3.608
 4281SOL     OW13741   2.496   3.735   5.348
 4281SOL    HW113742   2.474   3.818   5.298
 4281SOL    HW213743   2.413   3.699   5.390
 4282SOL     OW13744   1.012   2.810   1.159
 4282SOL    HW113745   1.085   2.853   1.106
 4282SOL    HW213746   0.951   2.880   1.195
 4283SOL     OW13747   2.185   0.353   4.070
 4283SOL    HW113748   2.273   0.371   4.114
 4283SOL    HW213749   2.196   0.277   4.005
 4284SOL     OW13750   6.371   2.148   2.807
 4284SOL    HW113751   6.283   2.105   2.828
 4284SOL    HW213752   6.422   2.090   2.744
 4285SOL     OW13753   0.972   6.243   5.562
 4285SOL    HW113754   0.959   6.281   5.654
 4285SOL    HW213755   0.900   6.176   5.544
 4286SOL     OW13756   5.860   5.578   6.961
 4286SOL    HW113757   5.938   5.564   6.900
 4286SOL    HW213758   5.814   5.490   6.976
 4287SOL     OW13759   4.309   6.652   4.856
 4287SOL    HW113760   4.384   6.586   4.866
 4287SOL    HW213761   4.271   6.672   4.946
 4288SOL     OW13762   1.748   6.420   2.733
 4288SOL    HW113763   1.796   6.333   2.724
 4288SOL    HW213764   1.792   6.475   2.805
 4289SOL     OW13765   5.594   3.530   0.692
 4289SOL    HW113766   5.555   3.571   0.774
 4289SOL    HW213767   5.533   3.548   0.614
 4290SOL     OW13768   2.183   1.073   2.333
 4290SOL    HW113769   2.115   1.039   2.269
 4290SOL    HW213770   2.242   0.998   2.362
 4291SOL     OW13771   6.180   4.766   1.083
 4291SOL    HW113772   6.081   4.779   1.095
 4291SOL    HW213773   6.199   4.668   1.073
 4292SOL     OW13774   6.047   5.673   5.921
 4292SOL    HW113775   6.037   5.697   6.018
 4292SOL    HW213776   6.080   5.579   5.913
 4293SOL     OW13777   7.002   2.423   6.847
 4293SOL    HW113778   0.058   2.374   6.818
 4293SOL    HW213779   7.025   2.488   6.919
 4294SOL     OW13780   4.728   2.584   5.778
 4294SOL    HW113781   4.751   2.658   5.715
 4294SOL    HW213782   4.812   2.545   5.816
 4295SOL     OW13783   3.936   6.598   4.650
 4295SOL    HW113784   3.964   6.509   4.615
 4295SOL    HW213785   3.943   6.666   4.578
 4296SOL     OW13786   2.034   1.514   0.856
 4296SOL    HW113787   2.044   1.588   0.923
 4296SOL    HW213788   2.110   1.518   0.791
 4297SOL     OW13789   5.747   0.997   6.064
 4297SOL    HW113790   5.764   0.898   6.056
 4297SOL    HW213791   5.669   1.013   6.123
 4298SOL     OW13792   3.081   5.596   1.310
 4298SOL    HW113793   3.135   5.678   1.331
 4298SOL    HW213794   3.003   5.591   1.373
 4299SOL     OW13795   0.803   4.004   6.621
 4299SOL    HW113796   0.890   3.961   6.641
 4299SOL    HW213797   0.803   4.036   6.526
 4300SOL     OW13798   5.854   0.308   6.314
 4300SOL    HW113799   5.781   0.242   6.334
 4300SOL    HW213800   5.879   0.302   6.218
 4301SOL     OW13801   2.583   1.341   0.472
 4301SOL    HW113802   2.607   1.315   0.566
 4301SOL    HW213803   2.667   1.347   0.418
 4302SOL     OW13804   0.923   6.461   0.209
 4302SOL    HW113805   0.897   6.549   0.249
 4302SOL    HW213806   0.842   6.416   0.172
 4303SOL     OW13807   0.157   3.349   1.945
 4303SOL    HW113808   0.137   3.447   1.941
 4303SOL    HW213809   0.113   3.310   2.026
 4304SOL     OW13810   3.312   2.906   4.608
 4304SOL    HW113811   3.262   2.823   4.584
 4304SOL    HW213812   3.383   2.883   4.675
 4305SOL     OW13813   6.366   1.348   4.245
 4305SOL    HW113814   6.438   1.313   4.184
 4305SOL    HW213815   6.281   1.358   4.194
 4306SOL     OW13816   6.488   6.042   6.040
 4306SOL    HW113817   6.498   6.074   5.945
 4306SOL    HW213818   6.554   6.089   6.098
 4307SOL     OW13819   4.952   3.085   6.632
 4307SOL    HW113820   4.866   3.133   6.614
 4307SOL    HW213821   4.933   2.988   6.650
 4308SOL     OW13822   4.560   6.477   4.884
 4308SOL    HW113823   4.600   6.444   4.970
 4308SOL    HW213824   4.633   6.509   4.824
 4309SOL     OW13825   1.285   1.466   0.814
 4309SOL    HW113826   1.294   1.560   0.848
 4309SOL    HW213827   1.273   1.468   0.714
 4310SOL     OW13828   1.148   1.025   2.346
 4310SOL    HW113829   1.151   1.089   2.422
 4310SOL    HW213830   1.138   0.932   2.381
 4311SOL     OW13831   1.538   5.867   3.863
 4311SOL    HW113832   1.596   5.809   3.920
 4311SOL    HW213833   1.595   5.912   3.793
 4312SOL     OW13834   1.920   5.494   2.338
 4312SOL    HW113835   1.857   5.517   2.413
 4312SOL    HW213836   1.990   5.431   2.373
 4313SOL     OW13837   5.026   0.515   1.918
 4313SOL    HW113838   5.062   0.498   1.826
 4313SOL    HW213839   5.046   0.609   1.945
 4314SOL     OW13840   4.923   3.375   2.748
 4314SOL    HW113841   4.839   3.382   2.801
 4314SOL    HW213842   4.922   3.443   2.674
 4315SOL     OW13843   2.514   1.804   2.006
 4315SOL    HW113844   2.551   1.734   2.068
 4315SOL    HW213845   2.414   1.804   2.012
 4316SOL     OW13846   6.862   0.257   2.447
 4316SOL    HW113847   6.835   0.161   2.457
 4316SOL    HW213848   6.944   0.263   2.389
 4317SOL     OW13849   3.852   0.831   3.188
 4317SOL    HW113850   3.869   0.926   3.163
 4317SOL    HW213851   3.937   0.779   3.181
 4318SOL     OW13852   0.420   2.642   4.278
 4318SOL    HW113853   0.500   2.649   4.218
 4318SOL    HW213854   0.363   2.723   4.266
 4319SOL     OW13855   2.401   3.588   5.712
 4319SOL    HW113856   2.323   3.527   5.700
 4319SOL    HW213857   2.383   3.650   5.788
 4320SOL     OW13858   0.363   6.200   2.651
 4320SOL    HW113859   0.374   6.233   2.557
 4320SOL    HW213860   0.269   6.170   2.666
 4321SOL     OW13861   1.038   0.495   5.036
 4321SOL    HW113862   1.036   0.553   4.955
 4321SOL    HW213863   0.945   0.481   5.071
 4322SOL     OW13864   5.578   0.914   0.589
 4322SOL    HW113865   5.661   0.877   0.548
 4322SOL    HW213866   5.498   0.883   0.537
 4323SOL     OW13867   6.757   2.496   4.127
 4323SOL    HW113868   6.662   2.501   4.156
 4323SOL    HW213869   6.762   2.493   4.027
 4324SOL     OW13870   6.112   4.123   5.995
 4324SOL    HW113871   6.141   4.088   5.906
 4324SOL    HW213872   6.192   4.148   6.049
 4325SOL     OW13873   1.710   1.847   5.851
 4325SOL    HW113874   1.795   1.878   5.808
 4325SOL    HW213875   1.717   1.750   5.873
 4326SOL     OW13876   6.096   2.154   5.918
 4326SOL    HW113877   6.069   2.149   6.014
 4326SOL    HW213878   6.063   2.072   5.870
 4327SOL     OW13879   5.699   0.344   3.212
 4327SOL    HW113880   5.769   0.273   3.214
 4327SOL    HW213881   5.743   0.433   3.198
 4328SOL     OW13882   5.314   5.318   0.490
 4328SOL    HW113883   5.307   5.378   0.569
 4328SOL    HW213884   5.230   5.264   0.482
 4329SOL     OW13885   3.655   1.467   5.863
 4329SOL    HW113886   3.643   1.520   5.779
 4329SOL    HW213887   3.649   1.528   5.942
 4330SOL     OW13888   0.692   0.276   6.582
 4330SOL    HW113889   0.645   0.336   6.517
 4330SOL    HW213890   0.735   0.200   6.534
 4331SOL     OW13891   6.040   2.925   0.720
 4331SOL    HW113892   6.129   2.920   0.675
 4331SOL    HW213893   5.991   2.839   0.707
 4332SOL     OW13894   5.386   3.522   1.210
 4332SOL    HW113895   5.417   3.439   1.258
 4332SOL    HW213896   5.313   3.565   1.262
 4333SOL     OW13897   5.451   1.663   5.571
 4333SOL    HW113898   5.359   1.625   5.559
 4333SOL    HW213899   5.446   1.762   5.583
 4334SOL     OW13900   4.416   1.110   1.856
 4334SOL    HW113901   4.508   1.117   1.897
 4334SOL    HW213902   4.355   1.064   1.920
 4335SOL     OW13903   3.601   3.855   5.195
 4335SOL    HW113904   3.641   3.779   5.143
 4335SOL    HW213905   3.519   3.823   5.242
 4336SOL     OW13906   1.677   6.205   4.318
 4336SOL    HW113907   1.594   6.150   4.307
 4336SOL    HW213908   1.670   6.289   4.264
 4337SOL     OW13909   0.532   5.032   0.721
 4337SOL    HW113910   0.597   4.956   0.721
 4337SOL    HW213911   0.563   5.102   0.785
 4338SOL     OW13912   6.686   6.646   3.910
 4338SOL    HW113913   6.700   6.558   3.866
 4338SOL    HW213914   6.696   6.719   3.843
 4339SOL     OW13915   6.281   0.767   6.447
 4339SOL    HW113916   6.370   0.723   6.433
 4339SOL    HW213917   6.277   0.852   6.396
 4340SOL     OW13918   4.881   3.032   1.771
 4340SOL    HW113919   4.821   3.028   1.851
 4340SOL    HW213920   4.852   3.106   1.711
 4341SOL     OW13921   0.425   4.256   0.067
 4341SOL    HW113922   0.326   4.240   0.059
 4341SOL    HW213923   0.473   4.169   0.063
 4342SOL     OW13924   7.011   2.960   2.991
 4342SOL    HW113925   0.026   2.932   3.078
 4342SOL    HW213926   6.912   2.953   2.998
 4343SOL     OW13927   2.532   1.847   1.387
 4343SOL    HW113928   2.464   1.774   1.390
 4343SOL    HW213929   2.487   1.935   1.401
 4344SOL     OW13930   2.218   3.982   2.862
 4344SOL    HW113931   2.283   3.996   2.788
 4344SOL    HW213932   2.148   3.916   2.834
 4345SOL     OW13933   2.241   1.897   5.916
 4345SOL    HW113934   2.201   1.982   5.881
 4345SOL    HW213935   2.312   1.919   5.983
 4346SOL     OW13936   0.952   2.868   1.414
 4346SOL    HW113937   0.895   2.936   1.461
 4346SOL    HW213938   1.047   2.899   1.412
 4347SOL     OW13939   6.455   5.543   2.725
 4347SOL    HW113940   6.521   5.599   2.774
 4347SOL    HW213941   6.386   5.601   2.682
 4348SOL     OW13942   0.813   3.800   6.887
 4348SOL    HW113943   0.798   3.759   6.797
 4348SOL    HW213944   0.758   3.883   6.896
 4349SOL     OW13945   0.018   0.035   3.414
 4349SOL    HW113946   0.030   0.121   3.366
 4349SOL    HW213947   6.955   0.034   3.460
 4350SOL     OW13948   5.340   1.558   3.944
 4350SOL    HW113949   5.374   1.478   3.994
 4350SOL    HW213950   5.261   1.596   3.993
 4351SOL     OW13951   2.681   6.601   0.710
 4351SOL    HW113952   2.710   6.693   0.682
 4351SOL    HW213953   2.694   6.591   0.809
 4352SOL     OW13954   6.371   1.051   1.935
 4352SOL    HW113955   6.364   1.135   1.988
 4352SOL    HW213956   6.409   1.070   1.845
 4353SOL     OW13957   3.500   5.629   0.729
 4353SOL    HW113958   3.511   5.679   0.814
 4353SOL    HW213959   3.541   5.538   0.738
 4354SOL     OW13960   1.497   0.223   1.087
 4354SOL    HW113961   1.440   0.273   1.153
 4354SOL    HW213962   1.466   0.243   0.994
 4355SOL     OW13963   4.695   1.097   0.863
 4355SOL    HW113964   4.786   1.070   0.894
 4355SOL    HW213965   4.702   1.165   0.790
 4356SOL     OW13966   4.009   4.170   0.464
 4356SOL    HW113967   3.984   4.091   0.408
 4356SOL    HW213968   4.101   4.201   0.439
 4357SOL     OW13969   6.500   1.032   6.680
 4357SOL    HW113970   6.454   1.043   6.768
 4357SOL    HW213971   6.594   1.066   6.687
 4358SOL     OW13972   0.294   0.114   1.487
 4358SOL    HW113973   0.342   0.108   1.399
 4358SOL    HW213974   0.225   0.042   1.492
 4359SOL     OW13975   6.238   2.688   4.106
 4359SOL    HW113976   6.321   2.633   4.104
 4359SOL    HW213977   6.158   2.628   4.107
 4360SOL     OW13978   2.349   3.297   0.979
 4360SOL    HW113979   2.338   3.270   0.883
 4360SOL    HW213980   2.264   3.280   1.028
 4361SOL     OW13981   4.972   1.627   2.113
 4361SOL    HW113982   4.903   1.558   2.134
 4361SOL    HW213983   4.962   1.705   2.176
 4362SOL     OW13984   5.452   4.680   4.321
 4362SOL    HW113985   5.408   4.766   4.347
 4362SOL    HW213986   5.478   4.684   4.224
 4363SOL     OW13987   5.131   1.614   5.864
 4363SOL    HW113988   5.205   1.602   5.931
 4363SOL    HW213989   5.105   1.525   5.827
 4364SOL     OW13990   3.489   3.571   5.005
 4364SOL    HW113991   3.442   3.485   4.985
 4364SOL    HW213992   3.523   3.570   5.099
 4365SOL     OW13993   2.777   1.408   1.390
 4365SOL    HW113994   2.824   1.478   1.443
 4365SOL    HW213995   2.750   1.333   1.450
 4366SOL     OW13996   5.457   5.257   1.312
 4366SOL    HW113997   5.464   5.227   1.407
 4366SOL    HW213998   5.387   5.204   1.265
 4367SOL     OW13999   0.570   6.460   0.329
 4367SOL    HW114000   0.579   6.558   0.314
 4367SOL    HW214001   0.609   6.410   0.252
 4368SOL     OW14002   5.207   3.728   1.869
 4368SOL    HW114003   5.186   3.640   1.912
 4368SOL    HW214004   5.303   3.729   1.841
 4369SOL     OW14005   3.051   6.091   1.754
 4369SOL    HW114006   3.095   6.179   1.736
 4369SOL    HW214007   3.072   6.027   1.680
 4370SOL     OW14008   5.685   5.471   2.793
 4370SOL    HW114009   5.754   5.455   2.722
 4370SOL    HW214010   5.716   5.429   2.879
 4371SOL     OW14011   0.137   1.807   2.382
 4371SOL    HW114012   0.104   1.827   2.474
 4371SOL    HW214013   0.092   1.868   2.317
 4372SOL     OW14014   4.895   6.725   3.658
 4372SOL    HW114015   4.932   6.665   3.588
 4372SOL    HW214016   4.814   6.683   3.699
 4373SOL     OW14017   0.240   1.802   6.245
 4373SOL    HW114018   0.232   1.703   6.231
 4373SOL    HW214019   0.214   1.849   6.161
 4374SOL     OW14020   2.863   2.387   1.022
 4374SOL    HW114021   2.765   2.375   1.007
 4374SOL    HW214022   2.912   2.380   0.935
 4375SOL     OW14023   3.297   6.735   4.231
 4375SOL    HW114024   3.359   6.807   4.263
 4375SOL    HW214025   3.270   6.755   4.137
 4376SOL     OW14026   6.123   1.457   4.139
 4376SOL    HW114027   6.121   1.523   4.214
 4376SOL    HW214028   6.040   1.402   4.140
 4377SOL     OW14029   6.069   5.110   6.630
 4377SOL    HW114030   5.996   5.041   6.631
 4377SOL    HW214031   6.028   5.201   6.638
 4378SOL     OW14032   2.445   1.029   3.328
 4378SOL    HW114033   2.384   1.109   3.333
 4378SOL    HW214034   2.539   1.060   3.318
 4379SOL     OW14035   2.928   1.946   5.242
 4379SOL    HW114036   2.997   2.018   5.251
 4379SOL    HW214037   2.916   1.924   5.145
 4380SOL     OW14038   0.696   1.312   1.950
 4380SOL    HW114039   0.721   1.216   1.966
 4380SOL    HW214040   0.597   1.321   1.948
 4381SOL     OW14041   1.611   6.038   6.348
 4381SOL    HW114042   1.614   5.943   6.381
 4381SOL    HW214043   1.677   6.093   6.399
 4382SOL     OW14044   0.014   3.946   4.929
 4382SOL    HW114045   6.983   3.940   4.848
 4382SOL    HW214046   7.012   3.876   4.995
 4383SOL     OW14047   6.525   3.399   6.686
 4383SOL    HW114048   6.486   3.487   6.714
 4383SOL    HW214049   6.625   3.403   6.693
 4384SOL     OW14050   5.960   6.683   3.738
 4384SOL    HW114051   5.939   6.704   3.643
 4384SOL    HW214052   6.059   6.689   3.752
 4385SOL     OW14053   3.979   1.316   5.191
 4385SOL    HW114054   4.063   1.364   5.166
 4385SOL    HW214055   3.985   1.287   5.287
 4386SOL     OW14056   2.069   3.627   5.012
 4386SOL    HW114057   2.122   3.659   4.933
 4386SOL    HW214058   1.976   3.661   5.006
 4387SOL     OW14059   6.620   1.974   0.498
 4387SOL    HW114060   6.565   1.914   0.439
 4387SOL    HW214061   6.709   1.931   0.515
 4388SOL     OW14062   5.099   3.525   6.584
 4388SOL    HW114063   5.158   3.465   6.530
 4388SOL    HW214064   5.003   3.497   6.571
 4389SOL     OW14065   0.967   3.182   0.766
 4389SOL    HW114066   0.876   3.215   0.790
 4389SOL    HW214067   0.961   3.118   0.690
 4390SOL     OW14068   6.522   1.368   0.820
 4390SOL    HW114069   6.503   1.354   0.723
 4390SOL    HW214070   6.526   1.279   0.866
 4391SOL     OW14071   1.418   5.968   0.882
 4391SOL    HW114072   1.460   6.058   0.895
 4391SOL    HW214073   1.457   5.904   0.949
 4392SOL     OW14074   1.530   2.883   5.512
 4392SOL    HW114075   1.566   2.830   5.589
 4392SOL    HW214076   1.479   2.962   5.547
 4393SOL     OW14077   5.094   0.783   1.987
 4393SOL    HW114078   5.151   0.847   1.936
 4393SOL    HW214079   5.044   0.832   2.058
 4394SOL     OW14080   1.191   0.704   2.334
 4394SOL    HW114081   1.203   0.674   2.240
 4394SOL    HW214082   1.248   0.649   2.395
 4395SOL     OW14083   2.695   5.079   1.523
 4395SOL    HW114084   2.776   5.033   1.558
 4395SOL    HW214085   2.627   5.087   1.596
 4396SOL     OW14086   3.105   0.468   2.962
 4396SOL    HW114087   3.144   0.434   3.048
 4396SOL    HW214088   3.115   0.568   2.958
 4397SOL     OW14089   3.203   1.627   4.509
 4397SOL    HW114090   3.198   1.631   4.410
 4397SOL    HW214091   3.296   1.602   4.537
 4398SOL     OW14092   1.941   3.029   5.300
 4398SOL    HW114093   1.862   2.968   5.302
 4398SOL    HW214094   2.022   2.978   5.269
 4399SOL     OW14095   2.699   6.521   2.036
 4399SOL    HW114096   2.725   6.425   2.030
 4399SOL    HW214097   2.671   6.542   2.130
 4400SOL     OW14098   2.289   5.589   4.703
 4400SOL    HW114099   2.271   5.504   4.653
 4400SOL    HW214100   2.375   5.581   4.753
 4401SOL     OW14101   3.279   6.694   6.948
 4401SOL    HW114102   3.265   6.608   6.996
 4401SOL    HW214103   3.257   6.682   6.851
 4402SOL     OW14104   1.720   0.505   3.314
 4402SOL    HW114105   1.718   0.535   3.409
 4402SOL    HW214106   1.812   0.517   3.277
 4403SOL     OW14107   1.067   5.047   2.205
 4403SOL    HW114108   0.985   5.071   2.257
 4403SOL    HW214109   1.091   4.951   2.223
 4404SOL     OW14110   0.212   6.765   6.138
 4404SOL    HW114111   0.266   6.689   6.173
 4404SOL    HW214112   0.273   6.835   6.101
 4405SOL     OW14113   2.072   5.632   2.803
 4405SOL    HW114114   2.000   5.693   2.833
 4405SOL    HW214115   2.038   5.538   2.802
 4406SOL     OW14116   5.594   3.962   2.319
 4406SOL    HW114117   5.684   3.997   2.343
 4406SOL    HW214118   5.523   4.014   2.366
 4407SOL     OW14119   6.107   6.489   1.991
 4407SOL    HW114120   6.110   6.589   1.990
 4407SOL    HW214121   6.017   6.459   2.022
 4408SOL     OW14122   4.165   0.790   0.535
 4408SOL    HW114123   4.207   0.869   0.491
 4408SOL    HW214124   4.107   0.742   0.469
 4409SOL     OW14125   2.856   0.223   3.219
 4409SOL    HW114126   2.828   0.280   3.296
 4409SOL    HW214127   2.935   0.263   3.174
 4410SOL     OW14128   0.638   6.551   1.096
 4410SOL    HW114129   0.654   6.565   0.998
 4410SOL    HW214130   0.725   6.560   1.145
 4411SOL     OW14131   3.662   4.510   5.325
 4411SOL    HW114132   3.655   4.432   5.263
 4411SOL    HW214133   3.598   4.499   5.401
 4412SOL     OW14134   4.676   6.214   2.794
 4412SOL    HW114135   4.702   6.169   2.708
 4412SOL    HW214136   4.577   6.221   2.799
 4413SOL     OW14137   4.495   6.284   3.964
 4413SOL    HW114138   4.447   6.211   4.014
 4413SOL    HW214139   4.523   6.249   3.875
 4414SOL     OW14140   4.869   3.817   1.436
 4414SOL    HW114141   4.799   3.798   1.505
 4414SOL    HW214142   4.868   3.915   1.415
 4415SOL     OW14143   2.298   2.854   1.884
 4415SOL    HW114144   2.224   2.902   1.837
 4415SOL    HW214145   2.382   2.864   1.831
 4416SOL     OW14146   4.842   2.296   3.561
 4416SOL    HW114147   4.774   2.227   3.584
 4416SOL    HW214148   4.801   2.363   3.499
 4417SOL     OW14149   6.589   4.249   2.473
 4417SOL    HW114150   6.565   4.297   2.388
 4417SOL    HW214151   6.683   4.215   2.467
 4418SOL     OW14152   6.233   6.729   5.666
 4418SOL    HW114153   6.331   6.707   5.670
 4418SOL    HW214154   6.219   6.806   5.604
 4419SOL     OW14155   6.546   5.486   6.629
 4419SOL    HW114156   6.463   5.445   6.590
 4419SOL    HW214157   6.521   5.563   6.687
 4420SOL     OW14158   3.637   2.371   0.794
 4420SOL    HW114159   3.642   2.387   0.893
 4420SOL    HW214160   3.728   2.349   0.760
 4421SOL     OW14161   1.598   2.550   0.039
 4421SOL    HW114162   1.565   2.508   6.980
 4421SOL    HW214163   1.538   2.524   0.115
 4422SOL     OW14164   6.350   3.761   6.347
 4422SOL    HW114165   6.323   3.790   6.255
 4422SOL    HW214166   6.312   3.671   6.366
 4423SOL     OW14167   6.018   4.289   5.076
 4423SOL    HW114168   6.004   4.387   5.093
 4423SOL    HW214169   5.957   4.260   5.002
 4424SOL     OW14170   4.810   5.789   2.547
 4424SOL    HW114171   4.884   5.770   2.482
 4424SOL    HW214172   4.793   5.888   2.551
 4425SOL     OW14173   1.365   5.374   1.193
 4425SOL    HW114174   1.342   5.450   1.254
 4425SOL    HW214175   1.309   5.294   1.216
 4426SOL     OW14176   0.743   0.392   4.596
 4426SOL    HW114177   0.668   0.422   4.655
 4426SOL    HW214178   0.707   0.363   4.508
 4427SOL     OW14179   2.560   5.737   2.146
 4427SOL    HW114180   2.510   5.698   2.224
 4427SOL    HW214181   2.548   5.836   2.145
 4428SOL     OW14182   5.765   5.934   3.904
 4428SOL    HW114183   5.717   5.900   3.985
 4428SOL    HW214184   5.792   6.029   3.919
 4429SOL     OW14185   2.922   5.936   3.340
 4429SOL    HW114186   2.932   5.857   3.280
 4429SOL    HW214187   2.982   6.010   3.309
 4430SOL     OW14188   5.241   3.636   5.013
 4430SOL    HW114189   5.326   3.667   5.056
 4430SOL    HW214190   5.247   3.650   4.914
 4431SOL     OW14191   3.657   6.670   4.255
 4431SOL    HW114192   3.596   6.591   4.243
 4431SOL    HW214193   3.667   6.717   4.168
 4432SOL     OW14194   0.567   3.675   6.068
 4432SOL    HW114195   0.641   3.669   6.001
 4432SOL    HW214196   0.601   3.651   6.159
 4433SOL     OW14197   1.165   0.780   5.790
 4433SOL    HW114198   1.087   0.831   5.753
 4433SOL    HW214199   1.143   0.749   5.883
 4434SOL     OW14200   0.301   0.615   2.542
 4434SOL    HW114201   0.288   0.524   2.580
 4434SOL    HW214202   0.256   0.621   2.453
 4435SOL     OW14203   2.578   4.288   0.385
 4435SOL    HW114204   2.528   4.348   0.448
 4435SOL    HW214205   2.569   4.193   0.415
 4436SOL     OW14206   4.354   1.932   1.582
 4436SOL    HW114207   4.365   1.853   1.522
 4436SOL    HW214208   4.401   1.915   1.669
 4437SOL     OW14209   6.587   4.572   0.090
 4437SOL    HW114210   6.654   4.533   0.152
 4437SOL    HW214211   6.503   4.517   0.092
 4438SOL     OW14212   3.954   0.592   5.522
 4438SOL    HW114213   3.935   0.640   5.608
 4438SOL    HW214214   3.917   0.645   5.446
 4439SOL     OW14215   3.038   6.492   2.709
 4439SOL    HW114216   3.096   6.505   2.790
 4439SOL    HW214217   3.077   6.544   2.633
 4440SOL     OW14218   1.469   4.810   6.973
 4440SOL    HW114219   1.396   4.833   6.909
 4440SOL    HW214220   1.466   4.873   0.025
 4441SOL     OW14221   6.983   2.176   0.916
 4441SOL    HW114222   0.050   2.195   0.884
 4441SOL    HW214223   6.985   2.162   1.015
 4442SOL     OW14224   2.261   5.462   6.857
 4442SOL    HW114225   2.308   5.545   6.888
 4442SOL    HW214226   2.258   5.395   6.931
 4443SOL     OW14227   1.119   5.541   6.039
 4443SOL    HW114228   1.069   5.483   6.104
 4443SOL    HW214229   1.155   5.621   6.087
 4444SOL     OW14230   6.172   5.221   0.091
 4444SOL    HW114231   6.224   5.259   0.168
 4444SOL    HW214232   6.176   5.121   0.095
 4445SOL     OW14233   0.620   4.793   0.553
 4445SOL    HW114234   0.681   4.715   0.537
 4445SOL    HW214235   0.579   4.821   0.467
 4446SOL     OW14236   4.868   1.712   1.157
 4446SOL    HW114237   4.805   1.742   1.229
 4446SOL    HW214238   4.845   1.620   1.127
 4447SOL     OW14239   4.447   5.857   5.441
 4447SOL    HW114240   4.408   5.947   5.422
 4447SOL    HW214241   4.376   5.787   5.431
 4448SOL     OW14242   3.798   6.356   1.415
 4448SOL    HW114243   3.892   6.323   1.419
 4448SOL    HW214244   3.793   6.447   1.457
 4449SOL     OW14245   3.561   1.313   5.536
 4449SOL    HW114246   3.576   1.241   5.605
 4449SOL    HW214247   3.645   1.365   5.524
 4450SOL     OW14248   2.799   6.900   7.020
 4450SOL    HW114249   2.755   6.959   0.063
 4450SOL    HW214250   2.799   6.947   6.932
 4451SOL     OW14251   4.845   5.113   3.580
 4451SOL    HW114252   4.830   5.124   3.482
 4451SOL    HW214253   4.796   5.031   3.611
 4452SOL     OW14254   4.576   6.196   4.243
 4452SOL    HW114255   4.634   6.260   4.193
 4452SOL    HW214256   4.578   6.106   4.199
 4453SOL     OW14257   6.316   4.506   0.369
 4453SOL    HW114258   6.268   4.587   0.402
 4453SOL    HW214259   6.306   4.431   0.435
 4454SOL     OW14260   1.497   2.921   0.788
 4454SOL    HW114261   1.421   2.985   0.793
 4454SOL    HW214262   1.491   2.869   0.703
 4455SOL     OW14263   1.035   7.007   5.067
 4455SOL    HW114264   0.936   7.017   5.058
 4455SOL    HW214265   1.055   6.942   5.140
 4456SOL     OW14266   2.547   6.932   4.721
 4456SOL    HW114267   2.459   6.950   4.676
 4456SOL    HW214268   2.606   6.881   4.660
 4457SOL     OW14269   1.662   1.664   4.357
 4457SOL    HW114270   1.636   1.613   4.438
 4457SOL    HW214271   1.752   1.705   4.370
 4458SOL     OW14272   1.067   3.750   7.009
 4458SOL    HW114273   1.129   3.774   6.934
 4458SOL    HW214274   0.972   3.765   6.980
 4459SOL     OW14275   0.580   3.060   3.428
 4459SOL    HW114276   0.544   3.116   3.353
 4459SOL    HW214277   0.554   3.100   3.515
 4460SOL     OW14278   7.014   2.209   4.773
 4460SOL    HW114279   0.079   2.249   4.787
 4460SOL    HW214280   6.945   2.280   4.789
 4461SOL     OW14281   1.809   0.582   0.645
 4461SOL    HW114282   1.848   0.636   0.720
 4461SOL    HW214283   1.797   0.641   0.565
 4462SOL     OW14284   6.744   3.920   3.180
 4462SOL    HW114285   6.811   3.909   3.106
 4462SOL    HW214286   6.671   3.853   3.169
 4463SOL     OW14287   5.430   1.933   0.422
 4463SOL    HW114288   5.443   2.031   0.435
 4463SOL    HW214289   5.509   1.883   0.459
 4464SOL     OW14290   0.223   4.302   1.493
 4464SOL    HW114291   0.172   4.374   1.540
 4464SOL    HW214292   0.161   4.232   1.460
 4465SOL     OW14293   3.581   5.716   1.904
 4465SOL    HW114294   3.673   5.678   1.906
 4465SOL    HW214295   3.527   5.668   1.835
 4466SOL     OW14296   1.460   2.277   2.158
 4466SOL    HW114297   1.391   2.326   2.211
 4466SOL    HW214298   1.445   2.178   2.166
 4467SOL     OW14299   5.299   5.350   2.900
 4467SOL    HW114300   5.236   5.426   2.881
 4467SOL    HW214301   5.325   5.353   2.997
 4468SOL     OW14302   1.887   2.904   1.403
 4468SOL    HW114303   1.895   2.825   1.464
 4468SOL    HW214304   1.839   2.876   1.319
 4469SOL     OW14305   2.547   6.209   1.619
 4469SOL    HW114306   2.511   6.205   1.526
 4469SOL    HW214307   2.645   6.231   1.616
 4470SOL     OW14308   1.892   6.802   3.154
 4470SOL    HW114309   1.931   6.874   3.097
 4470SOL    HW214310   1.894   6.715   3.104
 4471SOL     OW14311   0.739   0.072   6.353
 4471SOL    HW114312   0.654   0.063   6.300
 4471SOL    HW214313   0.809   0.014   6.312
 4472SOL     OW14314   1.724   2.844   0.621
 4472SOL    HW114315   1.722   2.745   0.638
 4472SOL    HW214316   1.676   2.891   0.695
 4473SOL     OW14317   0.346   2.674   4.782
 4473SOL    HW114318   0.260   2.688   4.830
 4473SOL    HW214319   0.382   2.761   4.749
 4474SOL     OW14320   3.350   6.142   0.936
 4474SOL    HW114321   3.402   6.102   0.861
 4474SOL    HW214322   3.263   6.095   0.946
 4475SOL     OW14323   1.100   3.882   1.085
 4475SOL    HW114324   1.115   3.957   1.021
 4475SOL    HW214325   1.057   3.805   1.037
 4476SOL     OW14326   5.468   0.765   3.965
 4476SOL    HW114327   5.438   0.711   3.887
 4476SOL    HW214328   5.504   0.853   3.933
 4477SOL     OW14329   1.012   0.680   4.841
 4477SOL    HW114330   0.973   0.700   4.752
 4477SOL    HW214331   1.018   0.764   4.895
 4478SOL     OW14332   1.688   6.925   1.328
 4478SOL    HW114333   1.747   6.893   1.254
 4478SOL    HW214334   1.708   7.021   1.348
 4479SOL     OW14335   1.895   2.161   6.545
 4479SOL    HW114336   1.976   2.104   6.536
 4479SOL    HW214337   1.831   2.141   6.471
 4480SOL     OW14338   1.136   6.727   3.975
 4480SOL    HW114339   1.054   6.720   3.919
 4480SOL    HW214340   1.195   6.800   3.941
 4481SOL     OW14341   2.065   4.164   6.022
 4481SOL    HW114342   1.969   4.135   6.022
 4481SOL    HW214343   2.118   4.101   6.080
 4482SOL     OW14344   2.316   6.852   1.743
 4482SOL    HW114345   2.339   6.785   1.813
 4482SOL    HW214346   2.221   6.841   1.715
 4483SOL     OW14347   1.537   3.814   0.790
 4483SOL    HW114348   1.604   3.791   0.719
 4483SOL    HW214349   1.569   3.780   0.878
 4484SOL     OW14350   2.377   1.199   7.004
 4484SOL    HW114351   2.365   1.102   6.985
 4484SOL    HW214352   2.431   1.211   0.061
 4485SOL     OW14353   6.664   2.473   5.076
 4485SOL    HW114354   6.668   2.430   5.166
 4485SOL    HW214355   6.737   2.541   5.069
 4486SOL     OW14356   4.980   5.199   4.459
 4486SOL    HW114357   4.992   5.254   4.377
 4486SOL    HW214358   4.931   5.115   4.436
 4487SOL     OW14359   0.586   2.838   6.839
 4487SOL    HW114360   0.507   2.857   6.780
 4487SOL    HW214361   0.634   2.757   6.806
 4488SOL     OW14362   0.077   4.114   3.259
 4488SOL    HW114363   0.008   4.046   3.285
 4488SOL    HW214364   0.168   4.077   3.275
 4489SOL     OW14365   3.977   6.012   6.081
 4489SOL    HW114366   4.066   6.056   6.070
 4489SOL    HW214367   3.905   6.080   6.074
 4490SOL     OW14368   5.348   1.429   1.689
 4490SOL    HW114369   5.351   1.415   1.788
 4490SOL    HW214370   5.321   1.523   1.669
 4491SOL     OW14371   0.757   3.138   3.055
 4491SOL    HW114372   0.787   3.091   3.138
 4491SOL    HW214373   0.796   3.230   3.054
 4492SOL     OW14374   0.147   0.953   2.379
 4492SOL    HW114375   0.168   0.947   2.476
 4492SOL    HW214376   0.207   1.020   2.336
 4493SOL     OW14377   5.387   1.263   5.906
 4493SOL    HW114378   5.407   1.344   5.852
 4493SOL    HW214379   5.428   1.272   5.997
 4494SOL     OW14380   1.565   0.127   1.626
 4494SOL    HW114381   1.620   0.178   1.691
 4494SOL    HW214382   1.485   0.089   1.672
 4495SOL     OW14383   4.521   6.545   1.066
 4495SOL    HW114384   4.450   6.474   1.068
 4495SOL    HW214385   4.513   6.597   0.980
 4496SOL     OW14386   2.909   6.409   5.837
 4496SOL    HW114387   2.932   6.322   5.794
 4496SOL    HW214388   2.862   6.468   5.770
 4497SOL     OW14389   3.587   1.131   5.767
 4497SOL    HW114390   3.499   1.084   5.774
 4497SOL    HW214391   3.613   1.167   5.857
 4498SOL     OW14392   0.237   5.060   4.944
 4498SOL    HW114393   0.156   5.052   5.002
 4498SOL    HW214394   0.232   5.145   4.891
 4499SOL     OW14395   5.674   1.158   2.028
 4499SOL    HW114396   5.617   1.165   2.110
 4499SOL    HW214397   5.695   1.249   1.993
 4500SOL     OW14398   4.137   5.786   0.630
 4500SOL    HW114399   4.067   5.738   0.577
 4500SOL    HW214400   4.216   5.726   0.642
 4501SOL     OW14401   6.321   0.521   2.436
 4501SOL    HW114402   6.344   0.529   2.339
 4501SOL    HW214403   6.305   0.425   2.458
 4502SOL     OW14404   6.983   3.706   6.444
 4502SOL    HW114405   7.019   3.691   6.536
 4502SOL    HW214406   0.027   3.748   6.387
 4503SOL     OW14407   3.399   1.804   2.851
 4503SOL    HW114408   3.407   1.710   2.820
 4503SOL    HW214409   3.376   1.806   2.949
 4504SOL     OW14410   0.683   2.542   2.526
 4504SOL    HW114411   0.583   2.552   2.524
 4504SOL    HW214412   0.723   2.619   2.576
 4505SOL     OW14413   5.468   3.681   3.600
 4505SOL    HW114414   5.424   3.681   3.511
 4505SOL    HW214415   5.567   3.684   3.589
 4506SOL     OW14416   5.067   2.880   5.928
 4506SOL    HW114417   5.014   2.954   5.886
 4506SOL    HW214418   5.074   2.897   6.027
 4507SOL     OW14419   6.458   1.847   3.559
 4507SOL    HW114420   6.405   1.919   3.514
 4507SOL    HW214421   6.468   1.769   3.497
 4508SOL     OW14422   0.072   4.751   0.589
 4508SOL    HW114423   0.090   4.782   0.496
 4508SOL    HW214424   0.145   4.784   0.649
 4509SOL     OW14425   5.214   2.681   2.205
 4509SOL    HW114426   5.245   2.771   2.173
 4509SOL    HW214427   5.126   2.691   2.253
 4510SOL     OW14428   4.197   1.158   4.774
 4510SOL    HW114429   4.296   1.156   4.784
 4510SOL    HW214430   4.160   1.236   4.826
 4511SOL     OW14431   6.879   4.899   6.612
 4511SOL    HW114432   6.817   4.967   6.652
 4511SOL    HW214433   6.946   4.945   6.554
 4512SOL     OW14434   3.038   3.255   5.404
 4512SOL    HW114435   2.986   3.334   5.434
 4512SOL    HW214436   2.987   3.171   5.423
 4513SOL     OW14437   0.337   6.783   0.789
 4513SOL    HW114438   0.436   6.774   0.797
 4513SOL    HW214439   0.296   6.774   0.880
 4514SOL     OW14440   4.098   4.830   0.018
 4514SOL    HW114441   4.102   4.929   0.030
 4514SOL    HW214442   4.003   4.801   0.015
 4515SOL     OW14443   3.503   0.998   6.574
 4515SOL    HW114444   3.560   0.918   6.557
 4515SOL    HW214445   3.509   1.061   6.497
 4516SOL     OW14446   3.042   2.429   5.600
 4516SOL    HW114447   3.082   2.354   5.547
 4516SOL    HW214448   3.046   2.513   5.546
 4517SOL     OW14449   4.395   0.839   5.539
 4517SOL    HW114450   4.464   0.801   5.478
 4517SOL    HW214451   4.336   0.766   5.573
 4518SOL     OW14452   0.679   6.495   0.823
 4518SOL    HW114453   0.614   6.434   0.777
 4518SOL    HW214454   0.755   6.442   0.860
 4519SOL     OW14455   4.730   6.723   0.003
 4519SOL    HW114456   4.744   6.692   0.098
 4519SOL    HW214457   4.749   6.647   6.967
 4520SOL     OW14458   4.306   5.526   5.224
 4520SOL    HW114459   4.235   5.597   5.222
 4520SOL    HW214460   4.265   5.439   5.253
 4521SOL     OW14461   4.108   2.216   4.339
 4521SOL    HW114462   4.112   2.117   4.339
 4521SOL    HW214463   4.025   2.246   4.292
 4522SOL     OW14464   5.549   3.931   3.521
 4522SOL    HW114465   5.636   3.964   3.486
 4522SOL    HW214466   5.563   3.886   3.609
 4523SOL     OW14467   6.911   2.835   5.944
 4523SOL    HW114468   7.006   2.805   5.952
 4523SOL    HW214469   6.897   2.917   5.999
 4524SOL     OW14470   1.879   3.725   2.173
 4524SOL    HW114471   1.896   3.806   2.228
 4524SOL    HW214472   1.951   3.657   2.191
 4525SOL     OW14473   3.621   2.642   5.641
 4525SOL    HW114474   3.619   2.585   5.559
 4525SOL    HW214475   3.691   2.608   5.704
 4526SOL     OW14476   1.179   0.046   5.381
 4526SOL    HW114477   1.180   0.049   5.481
 4526SOL    HW214478   1.109   0.109   5.347
 4527SOL     OW14479   0.737   1.728   2.706
 4527SOL    HW114480   0.784   1.814   2.685
 4527SOL    HW214481   0.640   1.736   2.680
 4528SOL     OW14482   4.856   0.693   5.121
 4528SOL    HW114483   4.862   0.763   5.050
 4528SOL    HW214484   4.865   0.736   5.211
 4529SOL     OW14485   2.522   1.189   3.559
 4529SOL    HW114486   2.579   1.168   3.638
 4529SOL    HW214487   2.502   1.104   3.510
 4530SOL     OW14488   4.122   5.912   6.590
 4530SOL    HW114489   4.055   5.902   6.517
 4530SOL    HW214490   4.127   6.007   6.619
 4531SOL     OW14491   1.853   6.161   5.329
 4531SOL    HW114492   1.911   6.242   5.317
 4531SOL    HW214493   1.888   6.106   5.405
 4532SOL     OW14494   6.224   1.264   2.836
 4532SOL    HW114495   6.316   1.278   2.798
 4532SOL    HW214496   6.201   1.341   2.896
 4533SOL     OW14497   2.659   0.397   1.246
 4533SOL    HW114498   2.720   0.441   1.312
 4533SOL    HW214499   2.587   0.461   1.219
 4534SOL     OW14500   4.902   1.615   4.212
 4534SOL    HW114501   4.851   1.650   4.134
 4534SOL    HW214502   4.890   1.678   4.290
 4535SOL     OW14503   1.538   0.229   0.395
 4535SOL    HW114504   1.553   0.216   0.493
 4535SOL    HW214505   1.513   0.142   0.353
 4536SOL     OW14506   3.563   0.053   6.056
 4536SOL    HW114507   3.476   0.053   6.106
 4536SOL    HW214508   3.624   0.122   6.096
 4537SOL     OW14509   2.969   3.327   3.379
 4537SOL    HW114510   2.969   3.364   3.472
 4537SOL    HW214511   2.881   3.348   3.335
 4538SOL     OW14512   0.213   2.195   0.798
 4538SOL    HW114513   0.252   2.192   0.706
 4538SOL    HW214514   0.258   2.267   0.851
 4539SOL     OW14515   1.393   5.956   5.425
 4539SOL    HW114516   1.366   5.948   5.521
 4539SOL    HW214517   1.319   5.999   5.373
 4540SOL     OW14518   1.507   2.210   0.419
 4540SOL    HW114519   1.426   2.177   0.370
 4540SOL    HW214520   1.507   2.172   0.512
 4541SOL     OW14521   4.329   3.089   6.584
 4541SOL    HW114522   4.236   3.085   6.550
 4541SOL    HW214523   4.384   3.018   6.539
 4542SOL     OW14524   0.270   1.350   6.570
 4542SOL    HW114525   0.307   1.377   6.481
 4542SOL    HW214526   0.194   1.287   6.557
 4543SOL     OW14527   3.794   2.090   0.612
 4543SOL    HW114528   3.735   2.076   0.691
 4543SOL    HW214529   3.868   2.022   0.613
 4544SOL     OW14530   4.901   6.915   0.831
 4544SOL    HW114531   4.954   6.836   0.863
 4544SOL    HW214532   4.817   6.922   0.885
 4545SOL     OW14533   2.247   2.720   5.651
 4545SOL    HW114534   2.297   2.778   5.586
 4545SOL    HW214535   2.278   2.626   5.642
 4546SOL     OW14536   3.292   0.556   5.527
 4546SOL    HW114537   3.206   0.602   5.501
 4546SOL    HW214538   3.368   0.603   5.483
 4547SOL     OW14539   0.023   0.037   0.139
 4547SOL    HW114540   0.030   6.972   0.098
 4547SOL    HW214541   0.042   0.031   0.237
 4548SOL     OW14542   3.093   1.778   1.969
 4548SOL    HW114543   3.176   1.729   1.943
 4548SOL    HW214544   3.114   1.875   1.981
 4549SOL     OW14545   0.522   3.596   4.387
 4549SOL    HW114546   0.542   3.691   4.412
 4549SOL    HW214547   0.593   3.563   4.325
 4550SOL     OW14548   2.068   5.435   4.280
 4550SOL    HW114549   1.976   5.429   4.241
 4550SOL    HW214550   2.103   5.343   4.298
 4551SOL     OW14551   2.303   2.475   5.500
 4551SOL    HW114552   2.268   2.382   5.504
 4551SOL    HW214553   2.397   2.477   5.536
 4552SOL     OW14554   4.941   1.304   0.557
 4552SOL    HW114555   4.843   1.281   0.554
 4552SOL    HW214556   4.958   1.385   0.502
 4553SOL     OW14557   0.491   6.211   0.023
 4553SOL    HW114558   0.398   6.178   0.008
 4553SOL    HW214559   0.523   6.259   6.967
 4554SOL     OW14560   6.202   6.762   2.839
 4554SOL    HW114561   6.238   6.701   2.768
 4554SOL    HW214562   6.106   6.784   2.818
 4555SOL     OW14563   0.879   0.954   0.958
 4555SOL    HW114564   0.893   0.962   0.860
 4555SOL    HW214565   0.877   1.045   1.000
 4556SOL     OW14566   5.322   4.449   4.267
 4556SOL    HW114567   5.397   4.435   4.202
 4556SOL    HW214568   5.337   4.534   4.318
 4557SOL     OW14569   0.292   4.940   4.334
 4557SOL    HW114570   0.228   5.015   4.319
 4557SOL    HW214571   0.337   4.953   4.423
 4558SOL     OW14572   1.582   4.282   4.802
 4558SOL    HW114573   1.498   4.261   4.753
 4558SOL    HW214574   1.596   4.381   4.803
 4559SOL     OW14575   0.125   2.715   4.053
 4559SOL    HW114576   0.112   2.616   4.050
 4559SOL    HW214577   0.041   2.760   4.022
 4560SOL     OW14578   5.475   4.263   2.681
 4560SOL    HW114579   5.380   4.293   2.682
 4560SOL    HW214580   5.523   4.301   2.759
 4561SOL     OW14581   5.075   2.594   4.039
 4561SOL    HW114582   5.090   2.668   3.973
 4561SOL    HW214583   5.064   2.507   3.990
 4562SOL     OW14584   3.401   1.166   0.282
 4562SOL    HW114585   3.342   1.243   0.306
 4562SOL    HW214586   3.431   1.174   0.188
 4563SOL     OW14587   0.534   4.310   2.118
 4563SOL    HW114588   0.573   4.378   2.180
 4563SOL    HW214589   0.535   4.347   2.024
 4564SOL     OW14590   2.180   3.815   2.358
 4564SOL    HW114591   2.108   3.847   2.418
 4564SOL    HW214592   2.166   3.718   2.337
 4565SOL     OW14593   1.459   6.891   5.916
 4565SOL    HW114594   1.403   6.819   5.956
 4565SOL    HW214595   1.504   6.944   5.988
 4566SOL     OW14596   6.536   4.389   3.313
 4566SOL    HW114597   6.523   4.295   3.282
 4566SOL    HW214598   6.629   4.419   3.290
 4567SOL     OW14599   0.062   0.003   6.642
 4567SOL    HW114600   0.077   0.029   6.547
 4567SOL    HW214601   7.011   6.966   6.647
 4568SOL     OW14602   1.308   5.163   3.443
 4568SOL    HW114603   1.224   5.172   3.496
 4568SOL    HW214604   1.325   5.066   3.424
 4569SOL     OW14605   1.921   1.457   3.098
 4569SOL    HW114606   1.973   1.418   3.022
 4569SOL    HW214607   1.883   1.384   3.154
 4570SOL     OW14608   5.307   5.495   1.576
 4570SOL    HW114609   5.403   5.508   1.551
 4570SOL    HW214610   5.255   5.575   1.545
 4571SOL     OW14611   2.437   3.637   6.206
 4571SOL    HW114612   2.369   3.598   6.145
 4571SOL    HW214613   2.504   3.689   6.153
 4572SOL     OW14614   3.617   2.845   2.275
 4572SOL    HW114615   3.682   2.893   2.333
 4572SOL    HW214616   3.652   2.753   2.255
 4573SOL     OW14617   2.909   5.237   0.540
 4573SOL    HW114618   2.928   5.140   0.522
 4573SOL    HW214619   2.941   5.261   0.632
 4574SOL     OW14620   4.651   0.985   1.992
 4574SOL    HW114621   4.706   0.953   1.914
 4574SOL    HW214622   4.662   0.921   2.068
 4575SOL     OW14623   0.938   0.192   5.255
 4575SOL    HW114624   0.885   0.231   5.330
 4575SOL    HW214625   0.877   0.167   5.180
 4576SOL     OW14626   3.260   4.527   6.476
 4576SOL    HW114627   3.281   4.610   6.527
 4576SOL    HW214628   3.338   4.465   6.480
 4577SOL     OW14629   1.019   1.952   2.306
 4577SOL    HW114630   1.046   1.949   2.210
 4577SOL    HW214631   0.929   1.995   2.313
 4578SOL     OW14632   1.438   1.497   1.729
 4578SOL    HW114633   1.514   1.432   1.731
 4578SOL    HW214634   1.442   1.551   1.645
 4579SOL     OW14635   4.878   0.511   3.453
 4579SOL    HW114636   4.828   0.468   3.528
 4579SOL    HW214637   4.832   0.595   3.426
 4580SOL     OW14638   0.353   1.159   0.717
 4580SOL    HW114639   0.379   1.245   0.761
 4580SOL    HW214640   0.253   1.153   0.713
 4581SOL     OW14641   2.618   0.506   0.945
 4581SOL    HW114642   2.608   0.601   0.973
 4581SOL    HW214643   2.689   0.462   1.001
 4582SOL     OW14644   6.813   0.576   3.780
 4582SOL    HW114645   6.878   0.587   3.704
 4582SOL    HW214646   6.861   0.589   3.867
 4583SOL     OW14647   1.992   0.598   0.017
 4583SOL    HW114648   2.054   0.579   0.093
 4583SOL    HW214649   1.981   0.516   6.987
 4584SOL     OW14650   0.628   1.759   4.100
 4584SOL    HW114651   0.667   1.714   4.020
 4584SOL    HW214652   0.696   1.819   4.142
 4585SOL     OW14653   1.436   2.869   3.195
 4585SOL    HW114654   1.431   2.894   3.098
 4585SOL    HW214655   1.372   2.794   3.214
 4586SOL     OW14656   6.220   4.922   6.437
 4586SOL    HW114657   6.196   4.961   6.525
 4586SOL    HW214658   6.291   4.978   6.394
 4587SOL     OW14659   3.621   3.914   5.805
 4587SOL    HW114660   3.639   3.883   5.899
 4587SOL    HW214661   3.523   3.908   5.787
 4588SOL     OW14662   3.423   4.144   6.481
 4588SOL    HW114663   3.387   4.114   6.393
 4588SOL    HW214664   3.378   4.095   6.555
 4589SOL     OW14665   5.831   6.395   2.296
 4589SOL    HW114666   5.826   6.427   2.202
 4589SOL    HW214667   5.915   6.428   2.338
 4590SOL     OW14668   4.175   5.708   1.643
 4590SOL    HW114669   4.269   5.675   1.633
 4590SOL    HW214670   4.148   5.704   1.739
 4591SOL     OW14671   2.531   0.705   5.027
 4591SOL    HW114672   2.477   0.689   4.945
 4591SOL    HW214673   2.475   0.756   5.093
 4592SOL     OW14674   2.097   1.632   4.016
 4592SOL    HW114675   2.010   1.662   3.978
 4592SOL    HW214676   2.143   1.709   4.059
 4593SOL     OW14677   1.525   5.703   4.503
 4593SOL    HW114678   1.544   5.740   4.594
 4593SOL    HW214679   1.463   5.626   4.510
 4594SOL     OW14680   2.407   0.068   3.142
 4594SOL    HW114681   2.353   0.039   3.222
 4594SOL    HW214682   2.470   7.020   3.117
 4595SOL     OW14683   5.402   2.410   6.045
 4595SOL    HW114684   5.497   2.378   6.045
 4595SOL    HW214685   5.344   2.342   6.090
 4596SOL     OW14686   0.530   0.576   2.197
 4596SOL    HW114687   0.584   0.500   2.233
 4596SOL    HW214688   0.568   0.662   2.231
 4597SOL     OW14689   2.559   6.018   0.773
 4597SOL    HW114690   2.516   6.104   0.801
 4597SOL    HW214691   2.628   5.993   0.841
 4598SOL     OW14692   0.699   4.331   0.388
 4598SOL    HW114693   0.604   4.310   0.412
 4598SOL    HW214694   0.759   4.259   0.424
 4599SOL     OW14695   3.925   6.540   1.826
 4599SOL    HW114696   3.898   6.446   1.845
 4599SOL    HW214697   3.888   6.569   1.738
 4600SOL     OW14698   0.575   6.713   6.122
 4600SOL    HW114699   0.647   6.738   6.187
 4600SOL    HW214700   0.559   6.614   6.127
 4601SOL     OW14701   1.734   0.479   5.204
 4601SOL    HW114702   1.718   0.383   5.181
 4601SOL    HW214703   1.793   0.521   5.136
 4602SOL     OW14704   2.929   1.947   5.846
 4602SOL    HW114705   2.901   1.999   5.926
 4602SOL    HW214706   3.027   1.925   5.853
 4603SOL     OW14707   4.430   7.007   1.112
 4603SOL    HW114708   4.478   6.946   1.175
 4603SOL    HW214709   4.354   6.957   1.070
 4604SOL     OW14710   6.893   7.020   4.483
 4604SOL    HW114711   6.822   6.978   4.538
 4604SOL    HW214712   6.979   6.971   4.496
 4605SOL     OW14713   3.533   0.417   1.505
 4605SOL    HW114714   3.586   0.490   1.463
 4605SOL    HW214715   3.471   0.454   1.574
 4606SOL     OW14716   6.785   6.446   5.040
 4606SOL    HW114717   6.866   6.477   4.990
 4606SOL    HW214718   6.767   6.509   5.116
 4607SOL     OW14719   1.837   1.800   0.691
 4607SOL    HW114720   1.830   1.853   0.775
 4607SOL    HW214721   1.804   1.707   0.706
 4608SOL     OW14722   0.124   2.719   4.960
 4608SOL    HW114723   0.096   2.805   5.003
 4608SOL    HW214724   0.102   2.643   5.021
 4609SOL     OW14725   5.114   5.576   6.852
 4609SOL    HW114726   5.164   5.490   6.849
 4609SOL    HW214727   5.138   5.631   6.772
 4610SOL     OW14728   5.255   5.010   0.245
 4610SOL    HW114729   5.264   4.927   0.299
 4610SOL    HW214730   5.203   4.991   0.162
 4611SOL     OW14731   0.075   1.167   6.467
 4611SOL    HW114732   7.023   1.226   6.490
 4611SOL    HW214733   0.041   1.080   6.432
 4612SOL     OW14734   2.107   1.544   1.894
 4612SOL    HW114735   2.010   1.529   1.917
 4612SOL    HW214736   2.164   1.486   1.952
 4613SOL     OW14737   1.486   4.855   1.792
 4613SOL    HW114738   1.528   4.891   1.708
 4613SOL    HW214739   1.399   4.811   1.770
 4614SOL     OW14740   6.760   4.422   4.071
 4614SOL    HW114741   6.803   4.446   3.984
 4614SOL    HW214742   6.676   4.370   4.054
 4615SOL     OW14743   1.713   4.027   6.517
 4615SOL    HW114744   1.661   4.111   6.532
 4615SOL    HW214745   1.790   4.046   6.456
 4616SOL     OW14746   0.748   3.205   6.062
 4616SOL    HW114747   0.670   3.191   6.001
 4616SOL    HW214748   0.793   3.117   6.079
 4617SOL     OW14749   0.029   2.467   4.103
 4617SOL    HW114750   6.992   2.475   4.181
 4617SOL    HW214751   7.008   2.423   4.027
 4618SOL     OW14752   1.729   3.970   5.580
 4618SOL    HW114753   1.796   4.044   5.583
 4618SOL    HW214754   1.653   3.991   5.642
 4619SOL     OW14755   4.810   6.360   6.356
 4619SOL    HW114756   4.786   6.451   6.322
 4619SOL    HW214757   4.850   6.367   6.447
 4620SOL     OW14758   0.789   5.151   2.283
 4620SOL    HW114759   0.808   5.061   2.243
 4620SOL    HW214760   0.702   5.184   2.247
 4621SOL     OW14761   3.412   0.051   2.489
 4621SOL    HW114762   3.326   0.037   2.540
 4621SOL    HW214763   3.489   0.040   2.551
 4622SOL     OW14764   5.474   6.882   0.357
 4622SOL    HW114765   5.543   6.817   0.390
 4622SOL    HW214766   5.432   6.928   0.435
 4623SOL     OW14767   3.233   4.908   1.951
 4623SOL    HW114768   3.289   4.834   1.914
 4623SOL    HW214769   3.136   4.889   1.935
 4624SOL     OW14770   4.488   1.268   2.295
 4624SOL    HW114771   4.571   1.296   2.343
 4624SOL    HW214772   4.415   1.334   2.316
 4625SOL     OW14773   2.014   5.939   1.663
 4625SOL    HW114774   1.984   6.026   1.624
 4625SOL    HW214775   2.057   5.883   1.591
 4626SOL     OW14776   4.086   3.427   1.520
 4626SOL    HW114777   4.047   3.377   1.443
 4626SOL    HW214778   4.118   3.363   1.589
 4627SOL     OW14779   5.493   0.060   5.216
 4627SOL    HW114780   5.507   0.158   5.225
 4627SOL    HW214781   5.574   0.012   5.249
 4628SOL     OW14782   5.614   4.474   3.795
 4628SOL    HW114783   5.698   4.432   3.760
 4628SOL    HW214784   5.570   4.526   3.721
 4629SOL     OW14785   2.103   5.789   0.391
 4629SOL    HW114786   2.156   5.873   0.384
 4629SOL    HW214787   2.065   5.766   0.302
 4630SOL     OW14788   2.033   3.741   1.549
 4630SOL    HW114789   2.044   3.703   1.641
 4630SOL    HW214790   2.060   3.837   1.549
 4631SOL     OW14791   6.911   0.683   2.920
 4631SOL    HW114792   6.819   0.713   2.945
 4631SOL    HW214793   6.927   0.591   2.955
 4632SOL     OW14794   3.419   5.186   2.926
 4632SOL    HW114795   3.322   5.207   2.941
 4632SOL    HW214796   3.428   5.089   2.902
 4633SOL     OW14797   5.111   1.726   5.023
 4633SOL    HW114798   5.091   1.644   5.075
 4633SOL    HW214799   5.193   1.771   5.060
 4634SOL     OW14800   4.015   3.864   5.177
 4634SOL    HW114801   3.960   3.843   5.257
 4634SOL    HW214802   4.014   3.963   5.161
 4635SOL     OW14803   4.304   6.107   1.689
 4635SOL    HW114804   4.355   6.181   1.731
 4635SOL    HW214805   4.314   6.112   1.589
 4636SOL     OW14806   1.400   5.276   6.754
 4636SOL    HW114807   1.314   5.226   6.746
 4636SOL    HW214808   1.465   5.243   6.686
 4637SOL     OW14809   3.101   1.560   3.537
 4637SOL    HW114810   3.108   1.534   3.441
 4637SOL    HW214811   3.017   1.612   3.551
 4638SOL     OW14812   4.136   4.534   0.123
 4638SOL    HW114813   4.180   4.467   0.063
 4638SOL    HW214814   4.131   4.622   0.075
 4639SOL     OW14815   3.969   2.249   1.751
 4639SOL    HW114816   3.898   2.248   1.821
 4639SOL    HW214817   3.982   2.156   1.715
 4640SOL     OW14818   6.151   3.914   0.085
 4640SOL    HW114819   6.223   3.854   0.119
 4640SOL    HW214820   6.186   3.969   0.009
 4641SOL     OW14821   1.783   5.388   4.567
 4641SOL    HW114822   1.871   5.353   4.601
 4641SOL    HW214823   1.711   5.367   4.634
 4642SOL     OW14824   6.730   1.051   4.605
 4642SOL    HW114825   6.671   1.118   4.559
 4642SOL    HW214826   6.713   0.961   4.565
 4643SOL     OW14827   0.652   1.846   0.084
 4643SOL    HW114828   0.614   1.931   0.120
 4643SOL    HW214829   0.729   1.866   0.024
 4644SOL     OW14830   1.630   0.186   0.653
 4644SOL    HW114831   1.635   0.096   0.697
 4644SOL    HW214832   1.676   0.253   0.710
 4645SOL     OW14833   6.395   1.203   4.670
 4645SOL    HW114834   6.459   1.274   4.702
 4645SOL    HW214835   6.363   1.225   4.578
 4646SOL     OW14836   2.357   4.358   3.816
 4646SOL    HW114837   2.313   4.393   3.733
 4646SOL    HW214838   2.296   4.295   3.862
 4647SOL     OW14839   1.658   6.759   1.542
 4647SOL    HW114840   1.683   6.818   1.465
 4647SOL    HW214841   1.604   6.682   1.508
 4648SOL     OW14842   2.618   1.496   4.699
 4648SOL    HW114843   2.614   1.499   4.599
 4648SOL    HW214844   2.526   1.506   4.736
 4649SOL     OW14845   5.847   1.636   0.541
 4649SOL    HW114846   5.882   1.612   0.450
 4649SOL    HW214847   5.794   1.560   0.578
 4650SOL     OW14848   5.368   6.278   0.868
 4650SOL    HW114849   5.314   6.362   0.871
 4650SOL    HW214850   5.323   6.207   0.923
 4651SOL     OW14851   7.014   3.291   6.137
 4651SOL    HW114852   6.963   3.368   6.097
 4651SOL    HW214853   6.957   3.209   6.135
 4652SOL     OW14854   7.008   6.503   4.899
 4652SOL    HW114855   6.974   6.580   4.845
 4652SOL    HW214856   0.047   6.450   4.844
 4653SOL     OW14857   6.785   5.607   0.901
 4653SOL    HW114858   6.841   5.615   0.818
 4653SOL    HW214859   6.745   5.696   0.923
 4654SOL     OW14860   0.527   0.174   5.746
 4654SOL    HW114861   0.606   0.136   5.698
 4654SOL    HW214862   0.553   0.204   5.837
 4655SOL     OW14863   5.119   2.945   1.961
 4655SOL    HW114864   5.025   2.975   1.942
 4655SOL    HW214865   5.154   2.991   2.042
 4656SOL     OW14866   6.892   1.067   1.900
 4656SOL    HW114867   6.981   1.050   1.942
 4656SOL    HW214868   6.852   0.981   1.870
 4657SOL     OW14869   3.411   1.108   3.294
 4657SOL    HW114870   3.430   1.027   3.350
 4657SOL    HW214871   3.342   1.164   3.340
 4658SOL     OW14872   1.396   2.157   6.224
 4658SOL    HW114873   1.478   2.186   6.174
 4658SOL    HW214874   1.419   2.081   6.285
 4659SOL     OW14875   1.764   4.123   0.274
 4659SOL    HW114876   1.718   4.200   0.232
 4659SOL    HW214877   1.835   4.156   0.337
 4660SOL     OW14878   0.770   5.322   3.488
 4660SOL    HW114879   0.753   5.227   3.462
 4660SOL    HW214880   0.860   5.329   3.531
 4661SOL     OW14881   0.669   1.599   6.100
 4661SOL    HW114882   0.592   1.642   6.053
 4661SOL    HW214883   0.742   1.666   6.112
 4662SOL     OW14884   1.831   0.452   5.598
 4662SOL    HW114885   1.766   0.507   5.545
 4662SOL    HW214886   1.909   0.429   5.540
 4663SOL     OW14887   1.296   0.309   0.202
 4663SOL    HW114888   1.314   0.311   0.301
 4663SOL    HW214889   1.331   0.393   0.161
 4664SOL     OW14890   5.969   0.299   6.069
 4664SOL    HW114891   5.915   0.355   6.005
 4664SOL    HW214892   5.981   0.207   6.030
 4665SOL     OW14893   0.906   0.494   3.484
 4665SOL    HW114894   0.836   0.544   3.433
 4665SOL    HW214895   0.971   0.559   3.523
 4666SOL     OW14896   1.787   2.168   5.328
 4666SOL    HW114897   1.736   2.097   5.378
 4666SOL    HW214898   1.786   2.253   5.380
 4667SOL     OW14899   6.319   3.877   1.264
 4667SOL    HW114900   6.291   3.865   1.359
 4667SOL    HW214901   6.388   3.949   1.259
 4668SOL     OW14902   5.009   1.922   4.869
 4668SOL    HW114903   4.916   1.957   4.853
 4668SOL    HW214904   5.004   1.835   4.917
 4669SOL     OW14905   4.969   6.946   6.382
 4669SOL    HW114906   4.997   6.905   6.295
 4669SOL    HW214907   5.049   6.984   6.428
 4670SOL     OW14908   0.071   2.961   0.015
 4670SOL    HW114909   0.076   2.928   0.109
 4670SOL    HW214910   7.016   3.018   0.004
 4671SOL     OW14911   0.754   3.074   1.496
 4671SOL    HW114912   0.700   3.063   1.580
 4671SOL    HW214913   0.842   3.115   1.518
 4672SOL     OW14914   3.354   4.212   6.825
 4672SOL    HW114915   3.283   4.167   6.770
 4672SOL    HW214916   3.324   4.304   6.849
 4673SOL     OW14917   6.302   0.913   0.613
 4673SOL    HW114918   6.215   0.928   0.567
 4673SOL    HW214919   6.368   0.875   0.549
 4674SOL     OW14920   0.673   2.625   0.697
 4674SOL    HW114921   0.600   2.668   0.750
 4674SOL    HW214922   0.755   2.618   0.753
 4675SOL     OW14923   1.771   5.533   6.659
 4675SOL    HW114924   1.802   5.460   6.598
 4675SOL    HW214925   1.823   5.616   6.639
 4676SOL     OW14926   0.857   6.448   4.072
 4676SOL    HW114927   0.921   6.473   3.999
 4676SOL    HW214928   0.836   6.351   4.066
 4677SOL     OW14929   3.802   6.949   0.038
 4677SOL    HW114930   3.827   6.963   0.134
 4677SOL    HW214931   3.709   6.980   0.023
 4678SOL     OW14932   2.358   4.536   6.826
 4678SOL    HW114933   2.354   4.436   6.823
 4678SOL    HW214934   2.417   4.565   6.901
 4679SOL     OW14935   2.582   6.502   5.892
 4679SOL    HW114936   2.622   6.575   5.947
 4679SOL    HW214937   2.649   6.470   5.825
 4680SOL     OW14938   1.624   4.355   0.162
 4680SOL    HW114939   1.656   4.432   0.218
 4680SOL    HW214940   1.642   4.375   0.065
 4681SOL     OW14941   6.700   5.698   4.588
 4681SOL    HW114942   6.796   5.700   4.618
 4681SOL    HW214943   6.686   5.769   4.520
 4682SOL     OW14944   3.612   6.276   0.807
 4682SOL    HW114945   3.520   6.250   0.836
 4682SOL    HW214946   3.671   6.195   0.806
 4683SOL     OW14947   6.775   4.523   3.267
 4683SOL    HW114948   6.779   4.612   3.220
 4683SOL    HW214949   6.860   4.473   3.252
 4684SOL     OW14950   1.291   1.256   4.923
 4684SOL    HW114951   1.381   1.270   4.882
 4684SOL    HW214952   1.257   1.342   4.960
 4685SOL     OW14953   5.049   4.226   4.814
 4685SOL    HW114954   4.994   4.143   4.824
 4685SOL    HW214955   5.079   4.257   4.904
 4686SOL     OW14956   5.514   5.952   0.392
 4686SOL    HW114957   5.419   5.926   0.373
 4686SOL    HW214958   5.530   6.045   0.359
 4687SOL     OW14959   5.576   6.611   4.615
 4687SOL    HW114960   5.593   6.516   4.591
 4687SOL    HW214961   5.479   6.632   4.604
 4688SOL     OW14962   1.174   2.211   0.807
 4688SOL    HW114963   1.092   2.226   0.863
 4688SOL    HW214964   1.160   2.251   0.717
 4689SOL     OW14965   1.758   5.298   4.957
 4689SOL    HW114966   1.838   5.253   4.996
 4689SOL    HW214967   1.703   5.337   5.030
 4690SOL     OW14968   1.487   1.915   0.664
 4690SOL    HW114969   1.568   1.970   0.647
 4690SOL    HW214970   1.495   1.871   0.753
 4691SOL     OW14971   3.695   4.401   0.553
 4691SOL    HW114972   3.638   4.460   0.496
 4691SOL    HW214973   3.790   4.407   0.523
 4692SOL     OW14974   0.532   5.991   3.180
 4692SOL    HW114975   0.450   6.048   3.172
 4692SOL    HW214976   0.613   6.048   3.165
 4693SOL     OW14977   0.693   0.883   4.157
 4693SOL    HW114978   0.721   0.888   4.061
 4693SOL    HW214979   0.772   0.901   4.216
 4694SOL     OW14980   1.096   0.982   6.317
 4694SOL    HW114981   1.158   0.908   6.342
 4694SOL    HW214982   1.037   0.953   6.242
 4695SOL     OW14983   3.002   3.106   1.696
 4695SOL    HW114984   3.101   3.092   1.693
 4695SOL    HW214985   2.956   3.022   1.667
 4696SOL     OW14986   5.750   3.374   0.185
 4696SOL    HW114987   5.727   3.400   0.091
 4696SOL    HW214988   5.668   3.344   0.233
 4697SOL     OW14989   0.932   4.922   0.049
 4697SOL    HW114990   0.873   4.844   0.068
 4697SOL    HW214991   0.887   5.006   0.078
 4698SOL     OW14992   6.059   3.458   1.825
 4698SOL    HW114993   6.013   3.543   1.852
 4698SOL    HW214994   6.081   3.405   1.907
 4699SOL     OW14995   6.472   0.056   3.158
 4699SOL    HW114996   6.392   0.113   3.174
 4699SOL    HW214997   6.451   7.014   3.088
 4700SOL     OW14998   5.401   6.646   0.005
 4700SOL    HW114999   5.384   6.743   0.024
 4700SOL    HW215000   5.386   6.593   0.089
 4701SOL     OW15001   0.179   0.707   0.645
 4701SOL    HW115002   0.128   0.781   0.689
 4701SOL    HW215003   0.265   0.743   0.609
 4702SOL     OW15004   2.814   2.937   6.795
 4702SOL    HW115005   2.779   3.007   6.734
 4702SOL    HW215006   2.914   2.942   6.798
 4703SOL     OW15007   1.680   1.413   1.193
 4703SOL    HW115008   1.628   1.458   1.120
 4703SOL    HW215009   1.734   1.480   1.242
 4704SOL     OW15010   4.585   6.985   0.171
 4704SOL    HW115011   4.684   7.002   0.178
 4704SOL    HW215012   4.542   7.007   0.259
 4705SOL     OW15013   3.007   3.926   3.733
 4705SOL    HW115014   3.033   3.857   3.800
 4705SOL    HW215015   3.007   4.016   3.776
 4706SOL     OW15016   4.780   5.407   1.333
 4706SOL    HW115017   4.726   5.443   1.257
 4706SOL    HW215018   4.864   5.461   1.342
 4707SOL     OW15019   3.621   6.257   1.583
 4707SOL    HW115020   3.690   6.282   1.516
 4707SOL    HW215021   3.655   6.182   1.640
 4708SOL     OW15022   1.653   2.706   2.839
 4708SOL    HW115023   1.666   2.737   2.744
 4708SOL    HW215024   1.557   2.712   2.863
 4709SOL     OW15025   3.095   3.657   0.100
 4709SOL    HW115026   3.055   3.596   0.032
 4709SOL    HW215027   3.181   3.694   0.065
 4710SOL     OW15028   5.205   2.222   0.900
 4710SOL    HW115029   5.121   2.194   0.854
 4710SOL    HW215030   5.207   2.321   0.908
 4711SOL     OW15031   3.242   6.524   3.209
 4711SOL    HW115032   3.261   6.432   3.243
 4711SOL    HW215033   3.156   6.557   3.249
 4712SOL     OW15034   1.450   4.317   0.616
 4712SOL    HW115035   1.543   4.312   0.651
 4712SOL    HW215036   1.452   4.319   0.516
 4713SOL     OW15037   2.326   6.240   1.065
 4713SOL    HW115038   2.344   6.158   1.010
 4713SOL    HW215039   2.233   6.235   1.103
 4714SOL     OW15040   3.177   2.581   0.652
 4714SOL    HW115041   3.151   2.620   0.741
 4714SOL    HW215042   3.248   2.512   0.666
 4715SOL     OW15043   5.407   3.871   4.555
 4715SOL    HW115044   5.426   3.801   4.486
 4715SOL    HW215045   5.400   3.960   4.511
 4716SOL     OW15046   3.320   5.301   0.442
 4716SOL    HW115047   3.275   5.214   0.425
 4716SOL    HW215048   3.260   5.359   0.498
 4717SOL     OW15049   1.212   5.381   4.067
 4717SOL    HW115050   1.161   5.301   4.035
 4717SOL    HW215051   1.300   5.386   4.021
 4718SOL     OW15052   5.417   1.221   6.568
 4718SOL    HW115053   5.478   1.153   6.529
 4718SOL    HW215054   5.466   1.307   6.583
 4719SOL     OW15055   4.167   3.317   1.766
 4719SOL    HW115056   4.213   3.230   1.783
 4719SOL    HW215057   4.177   3.376   1.846
 4720SOL     OW15058   3.021   0.745   3.941
 4720SOL    HW115059   3.080   0.825   3.944
 4720SOL    HW215060   2.926   0.774   3.927
 4721SOL     OW15061   0.730   1.750   0.785
 4721SOL    HW115062   0.787   1.827   0.754
 4721SOL    HW215063   0.786   1.668   0.794
 4722SOL     OW15064   2.826   0.523   2.080
 4722SOL    HW115065   2.883   0.590   2.031
 4722SOL    HW215066   2.739   0.566   2.105
 4723SOL     OW15067   2.490   6.654   6.309
 4723SOL    HW115068   2.556   6.629   6.238
 4723SOL    HW215069   2.444   6.571   6.342
 4724SOL     OW15070   3.960   4.858   1.433
 4724SOL    HW115071   3.948   4.897   1.524
 4724SOL    HW215072   3.998   4.927   1.371
 4725SOL     OW15073   5.853   5.433   3.225
 4725SOL    HW115074   5.826   5.526   3.250
 4725SOL    HW215075   5.952   5.430   3.209
 4726SOL     OW15076   0.261   6.068   5.515
 4726SOL    HW115077   0.193   6.005   5.478
 4726SOL    HW215078   0.348   6.019   5.527
 4727SOL     OW15079   6.785   6.628   0.788
 4727SOL    HW115080   6.695   6.636   0.833
 4727SOL    HW215081   6.855   6.611   0.858
 4728SOL     OW15082   0.154   0.946   0.119
 4728SOL    HW115083   0.154   1.032   0.068
 4728SOL    HW215084   0.170   0.965   0.216
 4729SOL     OW15085   2.970   0.343   0.737
 4729SOL    HW115086   2.962   0.441   0.718
 4729SOL    HW215087   2.882   0.298   0.719
 4730SOL     OW15088   2.044   0.687   5.679
 4730SOL    HW115089   1.980   0.611   5.672
 4730SOL    HW215090   2.059   0.709   5.775
 4731SOL     OW15091   5.771   2.081   6.321
 4731SOL    HW115092   5.705   2.112   6.388
 4731SOL    HW215093   5.725   2.024   6.252
 4732SOL     OW15094   0.312   1.489   0.580
 4732SOL    HW115095   0.365   1.543   0.645
 4732SOL    HW215096   0.221   1.473   0.616
 4733SOL     OW15097   6.876   3.218   4.088
 4733SOL    HW115098   6.781   3.192   4.107
 4733SOL    HW215099   6.879   3.277   4.008
 4734SOL     OW15100   5.127   4.502   6.105
 4734SOL    HW115101   5.121   4.402   6.101
 4734SOL    HW215102   5.065   4.536   6.176
 4735SOL     OW15103   0.089   4.599   3.966
 4735SOL    HW115104   0.188   4.604   3.954
 4735SOL    HW215105   0.064   4.638   4.055
 4736SOL     OW15106   2.045   0.105   1.296
 4736SOL    HW115107   2.025   0.194   1.253
 4736SOL    HW215108   2.113   0.057   1.241
 4737SOL     OW15109   3.374   5.625   1.729
 4737SOL    HW115110   3.406   5.544   1.680
 4737SOL    HW215111   3.340   5.692   1.663
 4738SOL     OW15112   0.341   6.213   3.212
 4738SOL    HW115113   0.378   6.297   3.173
 4738SOL    HW215114   0.343   6.218   3.312
 4739SOL     OW15115   4.736   0.319   1.444
 4739SOL    HW115116   4.786   0.386   1.390
 4739SOL    HW215117   4.671   0.366   1.504
 4740SOL     OW15118   0.896   2.387   3.605
 4740SOL    HW115119   0.913   2.388   3.507
 4740SOL    HW215120   0.921   2.297   3.642
 4741SOL     OW15121   3.914   3.892   1.028
 4741SOL    HW115122   3.820   3.872   1.055
 4741SOL    HW215123   3.970   3.902   1.110
 4742SOL     OW15124   3.858   1.185   0.734
 4742SOL    HW115125   3.805   1.120   0.679
 4742SOL    HW215126   3.931   1.137   0.783
 4743SOL     OW15127   2.049   5.302   0.695
 4743SOL    HW115128   1.985   5.226   0.709
 4743SOL    HW215129   2.131   5.269   0.649
 4744SOL     OW15130   2.438   5.943   1.244
 4744SOL    HW115131   2.377   5.970   1.169
 4744SOL    HW215132   2.443   5.843   1.248
 4745SOL     OW15133   1.179   3.376   0.348
 4745SOL    HW115134   1.180   3.277   0.330
 4745SOL    HW215135   1.211   3.392   0.442
 4746SOL     OW15136   4.428   5.475   4.144
 4746SOL    HW115137   4.402   5.541   4.074
 4746SOL    HW215138   4.352   5.462   4.207
 4747SOL     OW15139   2.173   1.010   0.224
 4747SOL    HW115140   2.179   0.965   0.135
 4747SOL    HW215141   2.214   0.952   0.294
 4748SOL     OW15142   1.882   6.639   1.597
 4748SOL    HW115143   1.799   6.691   1.578
 4748SOL    HW215144   1.907   6.585   1.516
 4749SOL     OW15145   2.742   1.918   0.446
 4749SOL    HW115146   2.833   1.946   0.417
 4749SOL    HW215147   2.746   1.824   0.481
 4750SOL     OW15148   4.946   2.865   5.397
 4750SOL    HW115149   4.863   2.920   5.404
 4750SOL    HW215150   4.966   2.825   5.487
 4751SOL     OW15151   4.639   0.880   3.280
 4751SOL    HW115152   4.599   0.971   3.293
 4751SOL    HW215153   4.698   0.859   3.358
 4752SOL     OW15154   5.366   1.827   6.690
 4752SOL    HW115155   5.371   1.876   6.603
 4752SOL    HW215156   5.374   1.893   6.765
 4753SOL     OW15157   3.217   6.579   4.941
 4753SOL    HW115158   3.170   6.521   4.874
 4753SOL    HW215159   3.149   6.616   5.005
 4754SOL     OW15160   4.563   4.656   6.486
 4754SOL    HW115161   4.500   4.657   6.564
 4754SOL    HW215162   4.560   4.745   6.440
 4755SOL     OW15163   0.834   0.926   1.249
 4755SOL    HW115164   0.759   0.988   1.274
 4755SOL    HW215165   0.833   0.847   1.310
 4756SOL     OW15166   6.650   3.788   5.404
 4756SOL    HW115167   6.746   3.760   5.411
 4756SOL    HW215168   6.641   3.885   5.427
 4757SOL     OW15169   1.868   3.749   0.340
 4757SOL    HW115170   1.782   3.735   0.291
 4757SOL    HW215171   1.937   3.784   0.276
 4758SOL     OW15172   2.296   5.875   3.474
 4758SOL    HW115173   2.245   5.924   3.545
 4758SOL    HW215174   2.347   5.800   3.517
 4759SOL     OW15175   0.396   6.492   1.904
 4759SOL    HW115176   0.300   6.487   1.931
 4759SOL    HW215177   0.454   6.453   1.976
 4760SOL     OW15178   1.635   6.027   0.654
 4760SOL    HW115179   1.669   5.999   0.744
 4760SOL    HW215180   1.577   5.954   0.616
 4761SOL     OW15181   5.645   6.755   1.691
 4761SOL    HW115182   5.691   6.844   1.690
 4761SOL    HW215183   5.675   6.701   1.612
 4762SOL     OW15184   2.088   0.113   2.506
 4762SOL    HW115185   1.998   0.156   2.514
 4762SOL    HW215186   2.109   0.097   2.410
 4763SOL     OW15187   5.802   5.513   2.337
 4763SOL    HW115188   5.811   5.414   2.335
 4763SOL    HW215189   5.854   5.550   2.415
 4764SOL     OW15190   5.264   3.092   0.348
 4764SOL    HW115191   5.195   3.094   0.420
 4764SOL    HW215192   5.317   3.007   0.355
 4765SOL     OW15193   3.775   1.730   5.823
 4765SOL    HW115194   3.761   1.795   5.748
 4765SOL    HW215195   3.842   1.661   5.796
 4766SOL     OW15196   0.832   0.656   4.632
 4766SOL    HW115197   0.808   0.567   4.593
 4766SOL    HW215198   0.792   0.728   4.576
 4767SOL     OW15199   2.060   3.937   3.124
 4767SOL    HW115200   2.145   3.989   3.131
 4767SOL    HW215201   2.081   3.844   3.093
 4768SOL     OW15202   4.384   2.546   6.359
 4768SOL    HW115203   4.434   2.495   6.429
 4768SOL    HW215204   4.365   2.638   6.394
 4769SOL     OW15205   1.797   3.292   0.089
 4769SOL    HW115206   1.729   3.252   0.151
 4769SOL    HW215207   1.881   3.239   0.093
 4770SOL     OW15208   0.360   1.808   3.983
 4770SOL    HW115209   0.452   1.828   4.018
 4770SOL    HW215210   0.348   1.852   3.895
 4771SOL     OW15211   1.681   6.927   4.292
 4771SOL    HW115212   1.698   6.979   4.376
 4771SOL    HW215213   1.762   6.873   4.269
 4772SOL     OW15214   2.900   5.338   2.318
 4772SOL    HW115215   2.839   5.329   2.239
 4772SOL    HW215216   2.984   5.287   2.301
 4773SOL     OW15217   2.972   4.833   5.201
 4773SOL    HW115218   2.944   4.739   5.182
 4773SOL    HW215219   2.891   4.891   5.209
 4774SOL     OW15220   0.821   4.605   0.759
 4774SOL    HW115221   0.905   4.564   0.794
 4774SOL    HW215222   0.813   4.586   0.661
 4775SOL     OW15223   5.950   5.715   5.384
 4775SOL    HW115224   6.036   5.664   5.391
 4775SOL    HW215225   5.967   5.803   5.340
 4776SOL     OW15226   0.473   1.166   5.712
 4776SOL    HW115227   0.559   1.209   5.685
 4776SOL    HW215228   0.418   1.231   5.764
 4777SOL     OW15229   2.137   0.043   2.792
 4777SOL    HW115230   2.125   0.067   2.696
 4777SOL    HW215231   2.062   0.081   2.846
 4778SOL     OW15232   1.783   1.347   0.623
 4778SOL    HW115233   1.700   1.348   0.567
 4778SOL    HW215234   1.842   1.271   0.594
 4779SOL     OW15235   5.112   0.432   4.784
 4779SOL    HW115236   5.018   0.426   4.750
 4779SOL    HW215237   5.146   0.525   4.768
 4780SOL     OW15238   4.799   2.804   4.621
 4780SOL    HW115239   4.832   2.710   4.616
 4780SOL    HW215240   4.781   2.838   4.529
 4781SOL     OW15241   1.574   5.510   1.710
 4781SOL    HW115242   1.639   5.496   1.785
 4781SOL    HW215243   1.510   5.434   1.706
 4782SOL     OW15244   6.658   6.616   4.236
 4782SOL    HW115245   6.589   6.648   4.171
 4782SOL    HW215246   6.727   6.562   4.188
 4783SOL     OW15247   0.366   3.698   5.882
 4783SOL    HW115248   0.430   3.677   5.956
 4783SOL    HW215249   0.414   3.749   5.811
 4784SOL     OW15250   5.297   3.652   6.701
 4784SOL    HW115251   5.290   3.734   6.758
 4784SOL    HW215252   5.206   3.613   6.687
 4785SOL     OW15253   0.691   0.372   4.338
 4785SOL    HW115254   0.633   0.338   4.264
 4785SOL    HW215255   0.753   0.442   4.302
 4786SOL     OW15256   0.644   6.022   0.446
 4786SOL    HW115257   0.695   6.089   0.500
 4786SOL    HW215258   0.618   5.945   0.503
 4787SOL     OW15259   4.691   1.253   4.536
 4787SOL    HW115260   4.677   1.233   4.632
 4787SOL    HW215261   4.603   1.252   4.488
 4788SOL     OW15262   0.179   5.797   0.794
 4788SOL    HW115263   0.171   5.877   0.734
 4788SOL    HW215264   0.158   5.715   0.741
 4789SOL     OW15265   6.442   0.953   2.795
 4789SOL    HW115266   6.399   0.972   2.883
 4789SOL    HW215267   6.427   0.857   2.770
 4790SOL     OW15268   6.692   1.617   4.879
 4790SOL    HW115269   6.655   1.710   4.891
 4790SOL    HW215270   6.628   1.551   4.920
 4791SOL     OW15271   0.752   6.892   0.024
 4791SOL    HW115272   0.695   6.961   0.069
 4791SOL    HW215273   0.839   6.933   7.023
 4792SOL     OW15274   1.856   3.374   2.461
 4792SOL    HW115275   1.948   3.366   2.421
 4792SOL    HW215276   1.831   3.470   2.467
 4793SOL     OW15277   1.163   3.799   6.182
 4793SOL    HW115278   1.253   3.799   6.224
 4793SOL    HW215279   1.121   3.709   6.194
 4794SOL     OW15280   4.819   1.777   4.609
 4794SOL    HW115281   4.752   1.713   4.571
 4794SOL    HW215282   4.831   1.854   4.546
 4795SOL     OW15283   0.038   0.948   6.206
 4795SOL    HW115284   0.112   1.015   6.212
 4795SOL    HW215285   0.077   0.856   6.198
 4796SOL     OW15286   4.478   1.271   5.447
 4796SOL    HW115287   4.461   1.214   5.367
 4796SOL    HW215288   4.557   1.330   5.430
 4797SOL     OW15289   1.992   5.352   6.409
 4797SOL    HW115290   1.998   5.256   6.383
 4797SOL    HW215291   2.039   5.366   6.497
 4798SOL     OW15292   3.973   5.668   0.444
 4798SOL    HW115293   3.979   5.746   0.383
 4798SOL    HW215294   3.993   5.584   0.393
 4799SOL     OW15295   4.418   2.657   0.346
 4799SOL    HW115296   4.416   2.705   0.258
 4799SOL    HW215297   4.497   2.687   0.398
 4800SOL     OW15298   0.143   4.270   0.052
 4800SOL    HW115299   0.127   4.206   0.128
 4800SOL    HW215300   0.099   4.236   6.996
 4801SOL     OW15301   5.499   2.447   2.316
 4801SOL    HW115302   5.400   2.453   2.328
 4801SOL    HW215303   5.525   2.491   2.230
 4802SOL     OW15304   6.377   0.007   4.384
 4802SOL    HW115305   6.474   7.022   4.365
 4802SOL    HW215306   6.363   0.090   4.439
 4803SOL     OW15307   5.030   3.923   5.490
 4803SOL    HW115308   5.091   3.918   5.411
 4803SOL    HW215309   5.003   4.018   5.506
 4804SOL     OW15310   5.422   2.202   0.517
 4804SOL    HW115311   5.376   2.144   0.585
 4804SOL    HW215312   5.360   2.276   0.491
 4805SOL     OW15313   5.870   1.483   6.925
 4805SOL    HW115314   5.920   1.400   6.950
 4805SOL    HW215315   5.918   1.529   6.850
 4806SOL     OW15316   1.357   1.496   3.434
 4806SOL    HW115317   1.350   1.460   3.341
 4806SOL    HW215318   1.441   1.549   3.443
 4807SOL     OW15319   0.247   4.435   6.027
 4807SOL    HW115320   0.238   4.391   6.117
 4807SOL    HW215321   0.166   4.416   5.972
 4808SOL     OW15322   3.517   5.982   1.918
 4808SOL    HW115323   3.420   5.989   1.894
 4808SOL    HW215324   3.544   5.886   1.920
 4809SOL     OW15325   3.213   3.631   1.677
 4809SOL    HW115326   3.259   3.551   1.716
 4809SOL    HW215327   3.251   3.714   1.715
 4810SOL     OW15328   1.815   5.664   4.157
 4810SOL    HW115329   1.810   5.764   4.152
 4810SOL    HW215330   1.806   5.634   4.252
 4811SOL     OW15331   3.420   3.561   4.378
 4811SOL    HW115332   3.477   3.588   4.300
 4811SOL    HW215333   3.362   3.638   4.405
 4812SOL     OW15334   1.501   6.698   3.220
 4812SOL    HW115335   1.530   6.679   3.126
 4812SOL    HW215336   1.504   6.613   3.273
 4813SOL     OW15337   0.787   1.724   5.255
 4813SOL    HW115338   0.742   1.735   5.344
 4813SOL    HW215339   0.746   1.648   5.205
 4814SOL     OW15340   6.218   3.863   1.514
 4814SOL    HW115341   6.242   3.955   1.545
 4814SOL    HW215342   6.251   3.796   1.581
 4815SOL     OW15343   6.160   4.676   2.475
 4815SOL    HW115344   6.186   4.581   2.456
 4815SOL    HW215345   6.192   4.735   2.401
 4816SOL     OW15346   3.378   1.124   2.444
 4816SOL    HW115347   3.317   1.199   2.419
 4816SOL    HW215348   3.331   1.063   2.508
 4817SOL     OW15349   3.984   1.577   1.211
 4817SOL    HW115350   3.932   1.654   1.249
 4817SOL    HW215351   4.026   1.525   1.285
 4818SOL     OW15352   3.749   0.038   4.658
 4818SOL    HW115353   3.801   0.083   4.731
 4818SOL    HW215354   3.717   6.975   4.690
 4819SOL     OW15355   3.143   0.868   0.139
 4819SOL    HW115356   3.083   0.908   0.209
 4819SOL    HW215357   3.227   0.835   0.182
 4820SOL     OW15358   5.751   4.163   1.777
 4820SOL    HW115359   5.748   4.065   1.799
 4820SOL    HW215360   5.695   4.213   1.843
 4821SOL     OW15361   0.326   5.810   1.951
 4821SOL    HW115362   0.299   5.847   2.040
 4821SOL    HW215363   0.411   5.854   1.922
 4822SOL     OW15364   0.872   3.995   1.618
 4822SOL    HW115365   0.788   3.946   1.641
 4822SOL    HW215366   0.946   3.929   1.603
 4823SOL     OW15367   1.327   0.908   3.607
 4823SOL    HW115368   1.270   0.854   3.670
 4823SOL    HW215369   1.279   0.993   3.584
 4824SOL     OW15370   5.597   2.752   1.890
 4824SOL    HW115371   5.532   2.787   1.822
 4824SOL    HW215372   5.610   2.820   1.962
 4825SOL     OW15373   6.982   3.003   3.578
 4825SOL    HW115374   7.017   3.037   3.666
 4825SOL    HW215375   6.996   3.073   3.508
 4826SOL     OW15376   7.005   6.670   6.898
 4826SOL    HW115377   6.949   6.699   6.821
 4826SOL    HW215378   6.947   6.642   6.974
 4827SOL     OW15379   5.256   1.338   0.413
 4827SOL    HW115380   5.187   1.411   0.416
 4827SOL    HW215381   5.215   1.255   0.376
 4828SOL     OW15382   5.402   3.209   6.890
 4828SOL    HW115383   5.446   3.281   6.836
 4828SOL    HW215384   5.369   3.137   6.828
 4829SOL     OW15385   4.008   0.333   5.032
 4829SOL    HW115386   3.970   0.387   5.107
 4829SOL    HW215387   4.071   0.265   5.069
 4830SOL     OW15388   4.280   6.312   5.355
 4830SOL    HW115389   4.321   6.356   5.275
 4830SOL    HW215390   4.193   6.270   5.328
 4831SOL     OW15391   5.928   3.335   6.160
 4831SOL    HW115392   6.019   3.295   6.174
 4831SOL    HW215393   5.882   3.288   6.085
 4832SOL     OW15394   1.885   2.541   6.326
 4832SOL    HW115395   1.810   2.491   6.282
 4832SOL    HW215396   1.958   2.557   6.260
 4833SOL     OW15397   6.238   1.663   3.222
 4833SOL    HW115398   6.264   1.704   3.135
 4833SOL    HW215399   6.319   1.653   3.280
 4834SOL     OW15400   5.735   0.656   3.426
 4834SOL    HW115401   5.676   0.665   3.345
 4834SOL    HW215402   5.816   0.602   3.402
 4835SOL     OW15403   1.507   1.001   6.034
 4835SOL    HW115404   1.554   1.036   5.953
 4835SOL    HW215405   1.543   0.911   6.057
 4836SOL     OW15406   5.580   3.164   1.866
 4836SOL    HW115407   5.523   3.175   1.785
 4836SOL    HW215408   5.675   3.147   1.837
 4837SOL     OW15409   0.222   3.759   1.143
 4837SOL    HW115410   0.181   3.848   1.163
 4837SOL    HW215411   0.300   3.771   1.082
 4838SOL     OW15412   2.798   5.232   2.577
 4838SOL    HW115413   2.838   5.152   2.621
 4838SOL    HW215414   2.860   5.267   2.507
 4839SOL     OW15415   0.652   6.810   6.811
 4839SOL    HW115416   0.674   6.879   6.741
 4839SOL    HW215417   0.679   6.845   6.901
 4840SOL     OW15418   6.294   6.902   6.688
 4840SOL    HW115419   6.254   6.952   6.766
 4840SOL    HW215420   6.228   6.898   6.614
 4841SOL     OW15421   2.492   6.039   2.132
 4841SOL    HW115422   2.528   6.034   2.039
 4841SOL    HW215423   2.396   6.008   2.132
 4842SOL     OW15424   3.797   6.637   1.564
 4842SOL    HW115425   3.857   6.707   1.525
 4842SOL    HW215426   3.707   6.677   1.581
 4843SOL     OW15427   0.936   2.671   6.482
 4843SOL    HW115428   0.959   2.712   6.394
 4843SOL    HW215429   0.854   2.714   6.518
 4844SOL     OW15430   0.628   1.487   5.413
 4844SOL    HW115431   0.646   1.581   5.442
 4844SOL    HW215432   0.612   1.485   5.314
 4845SOL     OW15433   5.767   5.250   3.605
 4845SOL    HW115434   5.847   5.299   3.640
 4845SOL    HW215435   5.718   5.208   3.681
 4846SOL     OW15436   0.090   5.074   6.935
 4846SOL    HW115437   0.067   5.163   6.894
 4846SOL    HW215438   0.027   5.055   7.010
 4847SOL     OW15439   4.775   2.923   4.391
 4847SOL    HW115440   4.717   2.996   4.357
 4847SOL    HW215441   4.858   2.917   4.335
 4848SOL     OW15442   2.480   2.198   1.829
 4848SOL    HW115443   2.507   2.127   1.894
 4848SOL    HW215444   2.508   2.288   1.864
 4849SOL     OW15445   1.093   6.450   6.175
 4849SOL    HW115446   1.002   6.492   6.182
 4849SOL    HW215447   1.148   6.475   6.254
 4850SOL     OW15448   4.372   0.539   3.357
 4850SOL    HW115449   4.360   0.526   3.259
 4850SOL    HW215450   4.303   0.602   3.391
 4851SOL     OW15451   5.181   0.811   5.105
 4851SOL    HW115452   5.135   0.819   5.017
 4851SOL    HW215453   5.215   0.718   5.117
 4852SOL     OW15454   1.716   2.115   1.492
 4852SOL    HW115455   1.704   2.079   1.399
 4852SOL    HW215456   1.813   2.133   1.508
 4853SOL     OW15457   3.206   1.973   1.398
 4853SOL    HW115458   3.210   1.992   1.496
 4853SOL    HW215459   3.111   1.955   1.372
 4854SOL     OW15460   3.923   0.208   0.342
 4854SOL    HW115461   4.017   0.215   0.307
 4854SOL    HW215462   3.881   0.124   0.307
 4855SOL     OW15463   6.862   2.834   2.683
 4855SOL    HW115464   6.889   2.748   2.727
 4855SOL    HW215465   6.935   2.864   2.622
 4856SOL     OW15466   1.825   3.653   3.367
 4856SOL    HW115467   1.809   3.751   3.355
 4856SOL    HW215468   1.911   3.640   3.417
 4857SOL     OW15469   0.786   1.164   6.305
 4857SOL    HW115470   0.748   1.230   6.241
 4857SOL    HW215471   0.876   1.195   6.335
 4858SOL     OW15472   1.571   0.770   3.982
 4858SOL    HW115473   1.591   0.855   4.032
 4858SOL    HW215474   1.593   0.692   4.041
 4859SOL     OW15475   3.426   5.640   5.868
 4859SOL    HW115476   3.404   5.549   5.904
 4859SOL    HW215477   3.501   5.632   5.803
 4860SOL     OW15478   4.261   3.980   0.436
 4860SOL    HW115479   4.179   3.925   0.455
 4860SOL    HW215480   4.242   4.043   0.360
 4861SOL     OW15481   5.244   3.588   5.587
 4861SOL    HW115482   5.207   3.510   5.538
 4861SOL    HW215483   5.168   3.645   5.619
 4862SOL     OW15484   0.921   6.228   1.228
 4862SOL    HW115485   0.822   6.226   1.245
 4862SOL    HW215486   0.948   6.144   1.180
 4863SOL     OW15487   5.115   4.007   6.331
 4863SOL    HW115488   5.017   4.000   6.314
 4863SOL    HW215489   5.161   3.926   6.293
 4864SOL     OW15490   3.200   0.979   3.996
 4864SOL    HW115491   3.288   0.931   3.995
 4864SOL    HW215492   3.204   1.054   4.062
 4865SOL     OW15493   1.988   6.377   5.257
 4865SOL    HW115494   1.959   6.462   5.301
 4865SOL    HW215495   2.032   6.398   5.170
 4866SOL     OW15496   6.497   4.080   6.613
 4866SOL    HW115497   6.521   3.988   6.582
 4866SOL    HW215498   6.415   4.111   6.565
 4867SOL     OW15499   4.604   0.609   2.466
 4867SOL    HW115500   4.596   0.570   2.558
 4867SOL    HW215501   4.661   0.691   2.469
 4868SOL     OW15502   0.087   4.249   0.789
 4868SOL    HW115503   0.085   4.349   0.782
 4868SOL    HW215504   0.128   4.222   0.876
 4869SOL     OW15505   0.894   0.893   0.651
 4869SOL    HW115506   0.970   0.957   0.661
 4869SOL    HW215507   0.929   0.806   0.617
 4870SOL     OW15508   0.502   6.876   1.945
 4870SOL    HW115509   0.485   6.865   1.847
 4870SOL    HW215510   0.566   6.952   1.959
 4871SOL     OW15511   1.750   1.056   3.705
 4871SOL    HW115512   1.687   1.121   3.747
 4871SOL    HW215513   1.700   0.975   3.675
 4872SOL     OW15514   5.922   6.075   3.007
 4872SOL    HW115515   6.000   6.091   3.068
 4872SOL    HW215516   5.869   6.159   2.997
 4873SOL     OW15517   6.275   5.293   4.721
 4873SOL    HW115518   6.311   5.374   4.768
 4873SOL    HW215519   6.340   5.218   4.731
 4874SOL     OW15520   5.025   3.360   3.324
 4874SOL    HW115521   4.998   3.369   3.420
 4874SOL    HW215522   5.124   3.369   3.316
 4875SOL     OW15523   5.513   5.999   5.004
 4875SOL    HW115524   5.480   6.041   5.089
 4875SOL    HW215525   5.486   5.903   5.002
 4876SOL     OW15526   1.373   1.083   2.193
 4876SOL    HW115527   1.279   1.074   2.227
 4876SOL    HW215528   1.373   1.071   2.093
 4877SOL     OW15529   6.816   1.461   5.874
 4877SOL    HW115530   6.822   1.520   5.955
 4877SOL    HW215531   6.826   1.517   5.792
 4878SOL     OW15532   0.070   3.350   2.252
 4878SOL    HW115533   0.122   3.346   2.337
 4878SOL    HW215534   0.005   3.274   2.250
 4879SOL     OW15535   6.028   0.807   2.948
 4879SOL    HW115536   6.078   0.723   2.928
 4879SOL    HW215537   5.977   0.836   2.867
 4880SOL     OW15538   6.419   2.749   6.485
 4880SOL    HW115539   6.322   2.726   6.480
 4880SOL    HW215540   6.473   2.666   6.476
 4881SOL     OW15541   1.645   2.685   1.683
 4881SOL    HW115542   1.665   2.590   1.703
 4881SOL    HW215543   1.555   2.692   1.639
 4882SOL     OW15544   4.548   2.512   4.488
 4882SOL    HW115545   4.479   2.440   4.497
 4882SOL    HW215546   4.512   2.597   4.528
 4883SOL     OW15547   5.709   4.375   0.472
 4883SOL    HW115548   5.742   4.282   0.492
 4883SOL    HW215549   5.778   4.424   0.419
 4884SOL     OW15550   1.653   0.594   1.658
 4884SOL    HW115551   1.685   0.615   1.565
 4884SOL    HW215552   1.553   0.606   1.662
 4885SOL     OW15553   1.292   4.078   0.605
 4885SOL    HW115554   1.236   4.071   0.522
 4885SOL    HW215555   1.367   4.142   0.590
 4886SOL     OW15556   2.495   0.985   2.114
 4886SOL    HW115557   2.396   0.979   2.102
 4886SOL    HW215558   2.521   0.935   2.197
 4887SOL     OW15559   5.690   6.667   0.045
 4887SOL    HW115560   5.591   6.673   0.027
 4887SOL    HW215561   5.710   6.701   0.136
 4888SOL     OW15562   4.149   0.276   2.729
 4888SOL    HW115563   4.148   0.295   2.631
 4888SOL    HW215564   4.149   0.177   2.744
 4889SOL     OW15565   6.951   2.905   3.976
 4889SOL    HW115566   6.991   2.989   3.941
 4889SOL    HW215567   6.902   2.925   4.062
 4890SOL     OW15568   6.616   1.281   4.401
 4890SOL    HW115569   6.529   1.285   4.353
 4890SOL    HW215570   6.639   1.371   4.437
 4891SOL     OW15571   3.069   5.448   6.460
 4891SOL    HW115572   2.980   5.460   6.503
 4891SOL    HW215573   3.078   5.354   6.428
 4892SOL     OW15574   5.086   5.196   2.426
 4892SOL    HW115575   5.008   5.135   2.434
 4892SOL    HW215576   5.054   5.291   2.415
 4893SOL     OW15577   1.202   3.247   0.928
 4893SOL    HW115578   1.117   3.293   0.901
 4893SOL    HW215579   1.269   3.315   0.955
 4894SOL     OW15580   5.523   6.734   1.990
 4894SOL    HW115581   5.552   6.709   1.898
 4894SOL    HW215582   5.604   6.744   2.048
 4895SOL     OW15583   6.768   4.562   5.006
 4895SOL    HW115584   6.867   4.568   4.998
 4895SOL    HW215585   6.736   4.481   4.956
 4896SOL     OW15586   2.282   4.915   4.666
 4896SOL    HW115587   2.286   4.821   4.701
 4896SOL    HW215588   2.360   4.967   4.702
 4897SOL     OW15589   1.605   0.255   5.088
 4897SOL    HW115590   1.541   0.207   5.148
 4897SOL    HW215591   1.562   0.267   4.998
 4898SOL     OW15592   5.271   1.587   3.375
 4898SOL    HW115593   5.202   1.636   3.322
 4898SOL    HW215594   5.350   1.647   3.390
 4899SOL     OW15595   6.398   6.796   1.336
 4899SOL    HW115596   6.479   6.828   1.288
 4899SOL    HW215597   6.330   6.763   1.270
 4900SOL     OW15598   3.798   6.079   5.688
 4900SOL    HW115599   3.855   5.997   5.699
 4900SOL    HW215600   3.733   6.085   5.764
 4901SOL     OW15601   0.986   0.681   6.572
 4901SOL    HW115602   1.044   0.760   6.552
 4901SOL    HW215603   0.902   0.687   6.518
 4902SOL     OW15604   2.384   0.356   5.463
 4902SOL    HW115605   2.379   0.434   5.400
 4902SOL    HW215606   2.296   0.308   5.464
 4903SOL     OW15607   4.858   3.759   2.939
 4903SOL    HW115608   4.888   3.664   2.950
 4903SOL    HW215609   4.880   3.791   2.847
 4904SOL     OW15610   1.191   0.096   0.682
 4904SOL    HW115611   1.280   0.051   0.677
 4904SOL    HW215612   1.164   0.126   0.591
 4905SOL     OW15613   2.969   6.535   3.262
 4905SOL    HW115614   2.970   6.589   3.178
 4905SOL    HW215615   2.879   6.541   3.305
 4906SOL     OW15616   4.913   3.647   4.790
 4906SOL    HW115617   4.878   3.564   4.745
 4906SOL    HW215618   4.881   3.650   4.885
 4907SOL     OW15619   4.182   2.015   0.311
 4907SOL    HW115620   4.220   2.019   0.218
 4907SOL    HW215621   4.255   1.992   0.375
 4908SOL     OW15622   3.640   6.957   0.638
 4908SOL    HW115623   3.689   0.011   0.605
 4908SOL    HW215624   3.671   6.935   0.730
 4909SOL     OW15625   5.284   4.877   4.624
 4909SOL    HW115626   5.292   4.863   4.722
 4909SOL    HW215627   5.230   4.803   4.583
 4910SOL     OW15628   4.815   2.061   6.082
 4910SOL    HW115629   4.815   2.137   6.017
 4910SOL    HW215630   4.909   2.028   6.096
 4911SOL     OW15631   6.648   3.267   2.610
 4911SOL    HW115632   6.690   3.271   2.701
 4911SOL    HW215633   6.685   3.340   2.553
 4912SOL     OW15634   5.751   2.410   3.823
 4912SOL    HW115635   5.848   2.393   3.837
 4912SOL    HW215636   5.723   2.491   3.876
 4913SOL     OW15637   0.869   4.280   5.243
 4913SOL    HW115638   0.810   4.254   5.168
 4913SOL    HW215639   0.914   4.367   5.222
 4914SOL     OW15640   4.124   0.745   3.726
 4914SOL    HW115641   4.116   0.649   3.699
 4914SOL    HW215642   4.203   0.756   3.785
 4915SOL     OW15643   3.666   5.310   5.659
 4915SOL    HW115644   3.625   5.252   5.588
 4915SOL    HW215645   3.725   5.254   5.718
 4916SOL     OW15646   5.667   2.150   3.848
 4916SOL    HW115647   5.686   2.128   3.943
 4916SOL    HW215648   5.656   2.248   3.838
 4917SOL     OW15649   4.152   6.568   0.166
 4917SOL    HW115650   4.126   6.597   0.074
 4917SOL    HW215651   4.248   6.591   0.182
 4918SOL     OW15652   5.694   4.970   3.323
 4918SOL    HW115653   5.766   5.039   3.330
 4918SOL    HW215654   5.680   4.946   3.227
 4919SOL     OW15655   3.201   3.747   2.090
 4919SOL    HW115656   3.116   3.710   2.129
 4919SOL    HW215657   3.180   3.803   2.010
 4920SOL     OW15658   6.045   1.867   6.033
 4920SOL    HW115659   6.051   1.857   6.132
 4920SOL    HW215660   6.090   1.790   5.989
 4921SOL     OW15661   0.026   0.182   2.266
 4921SOL    HW115662   0.035   0.256   2.199
 4921SOL    HW215663   7.020   0.099   2.219
 4922SOL     OW15664   3.152   1.415   6.040
 4922SOL    HW115665   3.094   1.389   5.963
 4922SOL    HW215666   3.125   1.506   6.073
 4923SOL     OW15667   3.633   1.297   1.738
 4923SOL    HW115668   3.540   1.333   1.733
 4923SOL    HW215669   3.632   1.206   1.778
 4924SOL     OW15670   2.364   0.593   5.312
 4924SOL    HW115671   2.285   0.576   5.253
 4924SOL    HW215672   2.403   0.683   5.290
 4925SOL     OW15673   5.921   5.766   3.667
 4925SOL    HW115674   5.838   5.714   3.687
 4925SOL    HW215675   5.956   5.806   3.751
 4926SOL     OW15676   5.217   2.499   0.892
 4926SOL    HW115677   5.257   2.575   0.841
 4926SOL    HW215678   5.265   2.488   0.979
 4927SOL     OW15679   3.009   1.543   6.902
 4927SOL    HW115680   3.068   1.463   6.914
 4927SOL    HW215681   3.062   1.626   6.918
 4928SOL     OW15682   6.394   2.477   0.975
 4928SOL    HW115683   6.391   2.573   0.949
 4928SOL    HW215684   6.330   2.460   1.049
 4929SOL     OW15685   0.848   6.431   5.102
 4929SOL    HW115686   0.781   6.358   5.115
 4929SOL    HW215687   0.928   6.394   5.054
 4930SOL     OW15688   5.287   6.016   2.588
 4930SOL    HW115689   5.315   6.103   2.548
 4930SOL    HW215690   5.355   5.987   2.655
 4931SOL     OW15691   6.742   6.363   0.714
 4931SOL    HW115692   6.645   6.347   0.697
 4931SOL    HW215693   6.756   6.460   0.737
 4932SOL     OW15694   3.853   3.411   2.568
 4932SOL    HW115695   3.804   3.368   2.493
 4932SOL    HW215696   3.944   3.438   2.538
 4933SOL     OW15697   1.918   0.481   5.927
 4933SOL    HW115698   1.931   0.437   5.838
 4933SOL    HW215699   1.826   0.521   5.931
 4934SOL     OW15700   4.077   6.034   2.379
 4934SOL    HW115701   4.156   5.974   2.391
 4934SOL    HW215702   4.065   6.055   2.282
 4935SOL     OW15703   0.415   0.688   5.462
 4935SOL    HW115704   0.414   0.788   5.464
 4935SOL    HW215705   0.347   0.656   5.395
 4936SOL     OW15706   4.123   2.754   1.319
 4936SOL    HW115707   4.034   2.795   1.338
 4936SOL    HW215708   4.115   2.655   1.320
 4937SOL     OW15709   4.627   2.844   5.129
 4937SOL    HW115710   4.585   2.757   5.154
 4937SOL    HW215711   4.648   2.844   5.031
 4938SOL     OW15712   3.999   4.963   6.486
 4938SOL    HW115713   4.045   4.881   6.454
 4938SOL    HW215714   4.067   5.034   6.507
 4939SOL     OW15715   4.868   3.375   5.914
 4939SOL    HW115716   4.867   3.335   6.005
 4939SOL    HW215717   4.875   3.475   5.921
 4940SOL     OW15718   2.340   6.149   4.110
 4940SOL    HW115719   2.322   6.200   4.027
 4940SOL    HW215720   2.304   6.198   4.189
 4941SOL     OW15721   5.698   0.437   0.894
 4941SOL    HW115722   5.690   0.477   0.986
 4941SOL    HW215723   5.690   0.510   0.826
 4942SOL     OW15724   4.644   2.750   6.015
 4942SOL    HW115725   4.652   2.689   6.094
 4942SOL    HW215726   4.688   2.709   5.936
 4943SOL     OW15727   5.328   2.440   1.683
 4943SOL    HW115728   5.399   2.411   1.748
 4943SOL    HW215729   5.246   2.466   1.733
 4944SOL     OW15730   2.294   4.218   2.275
 4944SOL    HW115731   2.293   4.138   2.336
 4944SOL    HW215732   2.201   4.234   2.241
 4945SOL     OW15733   6.776   6.539   4.547
 4945SOL    HW115734   6.743   6.609   4.485
 4945SOL    HW215735   6.699   6.495   4.593
 4946SOL     OW15736   0.207   4.333   2.178
 4946SOL    HW115737   0.303   4.354   2.164
 4946SOL    HW215738   0.151   4.392   2.120
 4947SOL     OW15739   6.371   0.255   1.511
 4947SOL    HW115740   6.298   0.210   1.460
 4947SOL    HW215741   6.334   0.336   1.557
 4948SOL     OW15742   2.294   1.375   1.991
 4948SOL    HW115743   2.367   1.432   1.952
 4948SOL    HW215744   2.331   1.322   2.067
 4949SOL     OW15745   5.401   2.026   4.927
 4949SOL    HW115746   5.496   2.055   4.931
 4949SOL    HW215747   5.342   2.107   4.922
 4950SOL     OW15748   3.349   5.055   5.247
 4950SOL    HW115749   3.328   4.958   5.233
 4950SOL    HW215750   3.447   5.070   5.238
 4951SOL     OW15751   4.501   2.170   4.114
 4951SOL    HW115752   4.527   2.265   4.094
 4951SOL    HW215753   4.401   2.161   4.106
 4952SOL     OW15754   0.158   4.745   5.203
 4952SOL    HW115755   0.257   4.740   5.214
 4952SOL    HW215756   0.130   4.840   5.189
 4953SOL     OW15757   1.771   5.492   2.073
 4953SOL    HW115758   1.810   5.435   2.000
 4953SOL    HW215759   1.825   5.480   2.156
 4954SOL     OW15760   6.927   6.360   6.803
 4954SOL    HW115761   6.869   6.440   6.787
 4954SOL    HW215762   7.016   6.389   6.835
 4955SOL     OW15763   1.087   0.573   0.849
 4955SOL    HW115764   1.058   0.650   0.905
 4955SOL    HW215765   1.169   0.531   0.889
 4956SOL     OW15766   6.269   6.989   4.132
 4956SOL    HW115767   6.291   6.994   4.230
 4956SOL    HW215768   6.280   0.053   4.091
 4957SOL     OW15769   2.003   6.213   3.864
 4957SOL    HW115770   2.056   6.129   3.872
 4957SOL    HW215771   1.987   6.252   3.954
 4958SOL     OW15772   0.408   6.444   6.489
 4958SOL    HW115773   0.357   6.511   6.545
 4958SOL    HW215774   0.501   6.435   6.524
 4959SOL     OW15775   0.087   1.235   0.424
 4959SOL    HW115776   0.104   1.138   0.408
 4959SOL    HW215777   0.166   1.288   0.393
 4960SOL     OW15778   3.858   6.529   5.173
 4960SOL    HW115779   3.945   6.509   5.126
 4960SOL    HW215780   3.856   6.481   5.260
 4961SOL     OW15781   4.521   0.390   5.919
 4961SOL    HW115782   4.521   0.377   6.019
 4961SOL    HW215783   4.607   0.358   5.881
 4962SOL     OW15784   6.633   2.450   2.142
 4962SOL    HW115785   6.622   2.498   2.054
 4962SOL    HW215786   6.546   2.408   2.167
 4963SOL     OW15787   7.006   4.348   1.103
 4963SOL    HW115788   6.959   4.362   1.190
 4963SOL    HW215789   6.981   4.421   1.039
 4964SOL     OW15790   3.910   6.457   2.892
 4964SOL    HW115791   3.919   6.492   2.986
 4964SOL    HW215792   3.855   6.521   2.838
 4965SOL     OW15793   6.982   6.340   4.387
 4965SOL    HW115794   6.919   6.263   4.373
 4965SOL    HW215795   6.953   6.394   4.465
 4966SOL     OW15796   3.995   5.518   5.143
 4966SOL    HW115797   3.988   5.420   5.125
 4966SOL    HW215798   4.034   5.533   5.234
 4967SOL     OW15799   5.069   2.027   6.383
 4967SOL    HW115800   5.114   2.066   6.463
 4967SOL    HW215801   4.985   1.980   6.412
 4968SOL     OW15802   5.673   3.987   6.591
 4968SOL    HW115803   5.696   3.941   6.677
 4968SOL    HW215804   5.710   4.080   6.592
 4969SOL     OW15805   0.304   1.876   1.213
 4969SOL    HW115806   0.332   1.781   1.199
 4969SOL    HW215807   0.261   1.911   1.130
 4970SOL     OW15808   1.230   2.935   5.976
 4970SOL    HW115809   1.247   2.857   6.037
 4970SOL    HW215810   1.317   2.968   5.940
 4971SOL     OW15811   0.103   5.572   3.798
 4971SOL    HW115812   0.197   5.607   3.807
 4971SOL    HW215813   0.100   5.477   3.830
 4972SOL     OW15814   1.688   2.086   5.037
 4972SOL    HW115815   1.707   2.128   5.125
 4972SOL    HW215816   1.596   2.047   5.037
 4973SOL     OW15817   5.788   5.823   2.959
 4973SOL    HW115818   5.844   5.786   2.884
 4973SOL    HW215819   5.824   5.912   2.987
 4974SOL     OW15820   4.452   6.686   0.837
 4974SOL    HW115821   4.360   6.691   0.876
 4974SOL    HW215822   4.451   6.628   0.756
 4975SOL     OW15823   4.847   5.745   0.023
 4975SOL    HW115824   4.869   5.650   0.047
 4975SOL    HW215825   4.838   5.799   0.107
 4976SOL     OW15826   3.134   1.181   4.181
 4976SOL    HW115827   3.104   1.108   4.242
 4976SOL    HW215828   3.099   1.269   4.214
 4977SOL     OW15829   3.446   3.034   0.030
 4977SOL    HW115830   3.520   3.063   0.090
 4977SOL    HW215831   3.480   2.964   6.993
 4978SOL     OW15832   6.015   3.952   6.661
 4978SOL    HW115833   6.021   4.051   6.652
 4978SOL    HW215834   5.934   3.928   6.716
 4979SOL     OW15835   1.391   3.181   4.020
 4979SOL    HW115836   1.445   3.103   3.988
 4979SOL    HW215837   1.426   3.265   3.979
 4980SOL     OW15838   3.174   5.215   3.297
 4980SOL    HW115839   3.167   5.266   3.211
 4980SOL    HW215840   3.184   5.278   3.373
 4981SOL     OW15841   4.920   6.592   5.630
 4981SOL    HW115842   4.903   6.547   5.543
 4981SOL    HW215843   4.925   6.524   5.703
 4982SOL     OW15844   2.607   2.479   0.109
 4982SOL    HW115845   2.639   2.423   0.185
 4982SOL    HW215846   2.535   2.542   0.141
 4983SOL     OW15847   6.468   2.968   4.781
 4983SOL    HW115848   6.372   2.941   4.792
 4983SOL    HW215849   6.527   2.888   4.787
 4984SOL     OW15850   4.811   4.180   2.740
 4984SOL    HW115851   4.744   4.212   2.808
 4984SOL    HW215852   4.870   4.111   2.781
 4985SOL     OW15853   5.253   4.293   2.152
 4985SOL    HW115854   5.287   4.384   2.128
 4985SOL    HW215855   5.205   4.297   2.239
 4986SOL     OW15856   4.447   4.520   2.938
 4986SOL    HW115857   4.474   4.581   3.012
 4986SOL    HW215858   4.387   4.568   2.874
 4987SOL     OW15859   0.394   4.009   1.372
 4987SOL    HW115860   0.295   4.005   1.386
 4987SOL    HW215861   0.412   4.045   1.280
 4988SOL     OW15862   1.374   2.256   4.943
 4988SOL    HW115863   1.313   2.305   4.881
 4988SOL    HW215864   1.433   2.322   4.991
 4989SOL     OW15865   6.825   1.059   0.630
 4989SOL    HW115866   6.744   1.028   0.679
 4989SOL    HW215867   6.826   1.159   0.626
 4990SOL     OW15868   0.988   2.223   6.259
 4990SOL    HW115869   0.972   2.128   6.232
 4990SOL    HW215870   1.048   2.266   6.193
 4991SOL     OW15871   2.400   2.309   4.727
 4991SOL    HW115872   2.320   2.276   4.677
 4991SOL    HW215873   2.421   2.244   4.801
 4992SOL     OW15874   4.337   0.777   4.159
 4992SOL    HW115875   4.405   0.707   4.138
 4992SOL    HW215876   4.346   0.805   4.255
 4993SOL     OW15877   1.910   6.376   4.161
 4993SOL    HW115878   1.810   6.376   4.155
 4993SOL    HW215879   1.945   6.467   4.138
 4994SOL     OW15880   0.817   6.994   2.721
 4994SOL    HW115881   0.838   7.022   2.627
 4994SOL    HW215882   0.864   0.030   2.785
 4995SOL     OW15883   6.401   2.862   5.480
 4995SOL    HW115884   6.364   2.913   5.403
 4995SOL    HW215885   6.500   2.859   5.474
 4996SOL     OW15886   0.390   1.520   4.042
 4996SOL    HW115887   0.357   1.502   4.135
 4996SOL    HW215888   0.379   1.618   4.022
 4997SOL     OW15889   0.236   2.102   4.208
 4997SOL    HW115890   0.186   2.152   4.278
 4997SOL    HW215891   0.320   2.064   4.246
 4998SOL     OW15892   1.097   5.685   5.432
 4998SOL    HW115893   1.091   5.785   5.428
 4998SOL    HW215894   1.172   5.659   5.494
 4999SOL     OW15895   6.091   5.065   1.051
 4999SOL    HW115896   6.154   4.987   1.053
 4999SOL    HW215897   6.136   5.144   1.011
 5000SOL     OW15898   6.978   5.779   3.993
 5000SOL    HW115899   6.884   5.807   3.977
 5000SOL    HW215900   7.007   5.716   3.921
 5001SOL     OW15901   4.593   4.552   5.381
 5001SOL    HW115902   4.649   4.476   5.350
 5001SOL    HW215903   4.617   4.575   5.475
 5002SOL     OW15904   2.001   2.175   1.520
 5002SOL    HW115905   2.058   2.099   1.551
 5002SOL    HW215906   1.979   2.234   1.597
 5003SOL     OW15907   6.840   5.268   3.968
 5003SOL    HW115908   6.810   5.202   3.899
 5003SOL    HW215909   6.782   5.349   3.963
 5004SOL     OW15910   3.132   4.262   6.332
 5004SOL    HW115911   3.138   4.348   6.383
 5004SOL    HW215912   3.071   4.274   6.253
 5005SOL     OW15913   4.384   1.997   0.118
 5005SOL    HW115914   4.436   2.075   0.084
 5005SOL    HW215915   4.445   1.918   0.130
 5006SOL     OW15916   5.885   4.557   2.670
 5006SOL    HW115917   5.800   4.580   2.717
 5006SOL    HW215918   5.892   4.610   2.585
 5007SOL     OW15919   3.834   1.800   5.112
 5007SOL    HW115920   3.805   1.890   5.144
 5007SOL    HW215921   3.897   1.810   5.036
 5008SOL     OW15922   6.546   0.649   3.819
 5008SOL    HW115923   6.525   0.728   3.760
 5008SOL    HW215924   6.638   0.617   3.799
 5009SOL     OW15925   2.243   5.918   2.437
 5009SOL    HW115926   2.208   6.001   2.481
 5009SOL    HW215927   2.166   5.859   2.412
 5010SOL     OW15928   3.380   3.309   5.017
 5010SOL    HW115929   3.358   3.288   5.112
 5010SOL    HW215930   3.453   3.249   4.985
 5011SOL     OW15931   1.223   2.665   3.275
 5011SOL    HW115932   1.224   2.571   3.241
 5011SOL    HW215933   1.222   2.664   3.375
 5012SOL     OW15934   6.287   2.928   6.950
 5012SOL    HW115935   6.238   2.869   6.887
 5012SOL    HW215936   6.229   2.950   0.002
 5013SOL     OW15937   4.859   2.166   5.450
 5013SOL    HW115938   4.835   2.142   5.356
 5013SOL    HW215939   4.884   2.084   5.500
 5014SOL     OW15940   6.164   6.303   6.348
 5014SOL    HW115941   6.192   6.262   6.435
 5014SOL    HW215942   6.200   6.249   6.272
 5015SOL     OW15943   5.486   1.984   3.731
 5015SOL    HW115944   5.550   2.052   3.769
 5015SOL    HW215945   5.538   1.913   3.684
 5016SOL     OW15946   2.304   6.563   2.225
 5016SOL    HW115947   2.278   6.504   2.149
 5016SOL    HW215948   2.401   6.549   2.246
 5017SOL     OW15949   2.173   2.096   1.836
 5017SOL    HW115950   2.257   2.139   1.872
 5017SOL    HW215951   2.127   2.047   1.911
 5018SOL     OW15952   6.901   5.127   3.601
 5018SOL    HW115953   6.843   5.143   3.520
 5018SOL    HW215954   6.845   5.135   3.683
 5019SOL     OW15955   2.815   5.377   5.769
 5019SOL    HW115956   2.903   5.334   5.791
 5019SOL    HW215957   2.749   5.355   5.841
 5020SOL     OW15958   4.261   5.538   6.610
 5020SOL    HW115959   4.311   5.623   6.627
 5020SOL    HW215960   4.327   5.464   6.594
 5021SOL     OW15961   2.368   4.441   5.649
 5021SOL    HW115962   2.388   4.476   5.557
 5021SOL    HW215963   2.442   4.380   5.678
 5022SOL     OW15964   2.216   4.207   1.073
 5022SOL    HW115965   2.146   4.211   1.001
 5022SOL    HW215966   2.188   4.143   1.144
 5023SOL     OW15967   6.475   2.804   3.942
 5023SOL    HW115968   6.491   2.822   4.039
 5023SOL    HW215969   6.398   2.741   3.932
 5024SOL     OW15970   5.483   3.773   5.476
 5024SOL    HW115971   5.513   3.678   5.485
 5024SOL    HW215972   5.432   3.800   5.557
 5025SOL     OW15973   6.614   1.346   3.219
 5025SOL    HW115974   6.521   1.312   3.216
 5025SOL    HW215975   6.658   1.318   3.304
 5026SOL     OW15976   1.017   5.924   2.888
 5026SOL    HW115977   1.094   5.976   2.926
 5026SOL    HW215978   0.974   5.871   2.961
 5027SOL     OW15979   0.503   6.128   3.682
 5027SOL    HW115980   0.423   6.178   3.715
 5027SOL    HW215981   0.540   6.173   3.601
 5028SOL     OW15982   0.855   0.346   3.047
 5028SOL    HW115983   0.776   0.402   3.073
 5028SOL    HW215984   0.899   0.311   3.130
 5029SOL     OW15985   0.019   1.278   3.169
 5029SOL    HW115986   0.004   1.376   3.180
 5029SOL    HW215987   6.984   1.242   3.098
 5030SOL     OW15988   2.392   5.667   6.995
 5030SOL    HW115989   2.444   5.728   6.935
 5030SOL    HW215990   2.418   5.682   0.064
 5031SOL     OW15991   5.494   0.988   5.910
 5031SOL    HW115992   5.448   1.076   5.919
 5031SOL    HW215993   5.592   1.000   5.927
 5032SOL     OW15994   1.577   6.271   1.931
 5032SOL    HW115995   1.483   6.251   1.908
 5032SOL    HW215996   1.635   6.192   1.912
 5033SOL     OW15997   0.020   4.140   5.151
 5033SOL    HW115998   0.019   4.090   5.064
 5033SOL    HW215999   6.964   4.196   5.158
 5034SOL     OW16000   0.182   3.779   6.235
 5034SOL    HW116001   0.211   3.821   6.150
 5034SOL    HW216002   0.187   3.679   6.227
 5035SOL     OW16003   5.763   4.411   1.659
 5035SOL    HW116004   5.692   4.417   1.589
 5035SOL    HW216005   5.770   4.317   1.692
 5036SOL     OW16006   1.665   0.209   2.094
 5036SOL    HW116007   1.676   0.162   2.006
 5036SOL    HW216008   1.718   0.295   2.093
 5037SOL     OW16009   4.682   2.703   2.846
 5037SOL    HW116010   4.637   2.759   2.776
 5037SOL    HW216011   4.778   2.689   2.820
 5038SOL     OW16012   3.017   5.613   5.278
 5038SOL    HW116013   3.018   5.635   5.181
 5038SOL    HW216014   3.110   5.613   5.314
 5039SOL     OW16015   1.593   2.195   3.075
 5039SOL    HW116016   1.557   2.157   2.989
 5039SOL    HW216017   1.520   2.197   3.143
 5040SOL     OW16018   2.973   3.866   5.955
 5040SOL    HW116019   3.047   3.924   5.988
 5040SOL    HW216020   2.885   3.904   5.983
 5041SOL     OW16021   0.433   5.381   0.648
 5041SOL    HW116022   0.441   5.314   0.575
 5041SOL    HW216023   0.468   5.342   0.733
 5042SOL     OW16024   6.247   1.710   5.907
 5042SOL    HW116025   6.309   1.684   5.982
 5042SOL    HW216026   6.182   1.636   5.891
 5043SOL     OW16027   5.078   0.150   3.390
 5043SOL    HW116028   5.087   0.143   3.291
 5043SOL    HW216029   5.100   0.243   3.419
 5044SOL     OW16030   5.529   4.519   2.502
 5044SOL    HW116031   5.510   4.606   2.458
 5044SOL    HW216032   5.447   4.462   2.501
 5045SOL     OW16033   5.588   3.464   5.177
 5045SOL    HW116034   5.665   3.471   5.113
 5045SOL    HW216035   5.520   3.401   5.140
 5046SOL     OW16036   3.727   3.227   5.599
 5046SOL    HW116037   3.664   3.182   5.663
 5046SOL    HW216038   3.821   3.215   5.631
 5047SOL     OW16039   0.803   1.522   2.424
 5047SOL    HW116040   0.760   1.460   2.490
 5047SOL    HW216041   0.732   1.561   2.365
 5048SOL     OW16042   6.265   3.478   1.123
 5048SOL    HW116043   6.258   3.379   1.111
 5048SOL    HW216044   6.224   3.504   1.210
 5049SOL     OW16045   0.908   2.459   1.649
 5049SOL    HW116046   0.960   2.478   1.732
 5049SOL    HW216047   0.930   2.527   1.579
 5050SOL     OW16048   1.127   3.381   0.634
 5050SOL    HW116049   1.130   3.447   0.709
 5050SOL    HW216050   1.088   3.295   0.667
 5051SOL     OW16051   1.868   3.363   6.811
 5051SOL    HW116052   1.839   3.417   6.890
 5051SOL    HW216053   1.965   3.380   6.793
 5052SOL     OW16054   5.458   3.292   0.566
 5052SOL    HW116055   5.518   3.371   0.576
 5052SOL    HW216056   5.453   3.266   0.469
 5053SOL     OW16057   2.458   4.177   1.210
 5053SOL    HW116058   2.453   4.190   1.309
 5053SOL    HW216059   2.371   4.203   1.169
 5054SOL     OW16060   4.064   6.174   5.242
 5054SOL    HW116061   4.009   6.106   5.290
 5054SOL    HW216062   4.044   6.169   5.144
 5055SOL     OW16063   1.448   1.779   3.790
 5055SOL    HW116064   1.479   1.756   3.882
 5055SOL    HW216065   1.497   1.860   3.757
 5056SOL     OW16066   2.861   2.329   5.202
 5056SOL    HW116067   2.946   2.364   5.239
 5056SOL    HW216068   2.798   2.307   5.277
 5057SOL     OW16069   0.505   3.991   2.958
 5057SOL    HW116070   0.544   3.957   2.872
 5057SOL    HW216071   0.406   3.973   2.958
 5058SOL     OW16072   3.577   2.517   0.532
 5058SOL    HW116073   3.554   2.606   0.572
 5058SOL    HW216074   3.525   2.446   0.579
 5059SOL     OW16075   4.360   1.877   3.284
 5059SOL    HW116076   4.385   1.972   3.303
 5059SOL    HW216077   4.263   1.871   3.261
 5060SOL     OW16078   0.286   3.249   5.595
 5060SOL    HW116079   0.300   3.311   5.673
 5060SOL    HW216080   0.221   3.178   5.620
 5061SOL     OW16081   4.165   2.459   5.792
 5061SOL    HW116082   4.260   2.489   5.802
 5061SOL    HW216083   4.134   2.416   5.877
 5062SOL     OW16084   5.209   0.885   3.466
 5062SOL    HW116085   5.143   0.829   3.517
 5062SOL    HW216086   5.168   0.973   3.445
 5063SOL     OW16087   1.150   0.954   1.392
 5063SOL    HW116088   1.126   1.033   1.335
 5063SOL    HW216089   1.107   0.963   1.482
 5064SOL     OW16090   5.517   4.859   0.934
 5064SOL    HW116091   5.496   4.957   0.942
 5064SOL    HW216092   5.487   4.826   0.844
 5065SOL     OW16093   2.411   1.255   2.203
 5065SOL    HW116094   2.454   1.193   2.137
 5065SOL    HW216095   2.351   1.202   2.263
 5066SOL     OW16096   2.091   5.001   2.852
 5066SOL    HW116097   2.015   5.005   2.917
 5066SOL    HW216098   2.062   4.952   2.770
 5067SOL     OW16099   5.929   2.818   1.430
 5067SOL    HW116100   5.926   2.861   1.340
 5067SOL    HW216101   5.862   2.862   1.490
 5068SOL     OW16102   2.021   5.759   0.653
 5068SOL    HW116103   2.093   5.828   0.664
 5068SOL    HW216104   2.004   5.743   0.556
 5069SOL     OW16105   4.073   5.260   5.531
 5069SOL    HW116106   3.996   5.200   5.554
 5069SOL    HW216107   4.159   5.214   5.555
 5070SOL     OW16108   6.024   3.638   5.163
 5070SOL    HW116109   6.115   3.612   5.193
 5070SOL    HW216110   5.982   3.699   5.231
 5071SOL     OW16111   2.774   6.596   3.603
 5071SOL    HW116112   2.793   6.615   3.507
 5071SOL    HW216113   2.755   6.498   3.614
 5072SOL     OW16114   0.763   1.576   1.851
 5072SOL    HW116115   0.836   1.640   1.829
 5072SOL    HW216116   0.802   1.492   1.889
 5073SOL     OW16117   2.408   0.769   3.283
 5073SOL    HW116118   2.399   0.868   3.296
 5073SOL    HW216119   2.351   0.740   3.206
 5074SOL     OW16120   3.424   2.246   1.789
 5074SOL    HW116121   3.518   2.254   1.822
 5074SOL    HW216122   3.394   2.332   1.750
 5075SOL     OW16123   6.686   3.274   0.765
 5075SOL    HW116124   6.624   3.295   0.841
 5075SOL    HW216125   6.636   3.274   0.679
 5076SOL     OW16126   6.969   0.540   5.988
 5076SOL    HW116127   0.039   0.522   5.968
 5076SOL    HW216128   6.946   0.633   5.959
 5077SOL     OW16129   0.696   4.593   3.763
 5077SOL    HW116130   0.611   4.644   3.767
 5077SOL    HW216131   0.733   4.596   3.671
 5078SOL     OW16132   6.578   2.055   3.927
 5078SOL    HW116133   6.664   2.067   3.977
 5078SOL    HW216134   6.576   1.965   3.884
 5079SOL     OW16135   1.560   3.526   5.560
 5079SOL    HW116136   1.626   3.569   5.622
 5079SOL    HW216137   1.547   3.431   5.587
 5080SOL     OW16138   6.228   5.475   6.948
 5080SOL    HW116139   6.191   5.386   6.973
 5080SOL    HW216140   6.174   5.513   6.873
 5081SOL     OW16141   2.533   4.410   5.386
 5081SOL    HW116142   2.479   4.326   5.378
 5081SOL    HW216143   2.630   4.388   5.377
 5082SOL     OW16144   6.120   5.800   1.273
 5082SOL    HW116145   6.214   5.772   1.292
 5082SOL    HW216146   6.061   5.769   1.348
 5083SOL     OW16147   2.742   0.011   4.002
 5083SOL    HW116148   2.681   0.001   3.923
 5083SOL    HW216149   2.708   6.983   4.078
 5084SOL     OW16150   3.028   4.060   5.605
 5084SOL    HW116151   2.959   4.109   5.658
 5084SOL    HW216152   3.115   4.062   5.654
 5085SOL     OW16153   0.385   4.525   5.422
 5085SOL    HW116154   0.317   4.451   5.422
 5085SOL    HW216155   0.382   4.572   5.510
 5086SOL     OW16156   1.441   5.126   2.123
 5086SOL    HW116157   1.353   5.146   2.078
 5086SOL    HW216158   1.473   5.036   2.093
 5087SOL     OW16159   7.016   4.892   2.410
 5087SOL    HW116160   0.033   4.914   2.322
 5087SOL    HW216161   6.921   4.925   2.410
 5088SOL     OW16162   4.684   5.537   2.018
 5088SOL    HW116163   4.718   5.491   1.936
 5088SOL    HW216164   4.601   5.588   1.994
 5089SOL     OW16165   4.761   5.926   5.970
 5089SOL    HW116166   4.676   5.952   5.926
 5089SOL    HW216167   4.833   5.992   5.947
 5090SOL     OW16168   2.332   6.521   5.113
 5090SOL    HW116169   2.314   6.463   5.193
 5090SOL    HW216170   2.407   6.584   5.134
 5091SOL     OW16171   6.939   6.659   6.341
 5091SOL    HW116172   6.943   6.661   6.241
 5091SOL    HW216173   6.939   6.752   6.377
 5092SOL     OW16174   3.747   3.487   4.242
 5092SOL    HW116175   3.702   3.424   4.305
 5092SOL    HW216176   3.729   3.459   4.148
 5093SOL     OW16177   2.706   2.416   2.806
 5093SOL    HW116178   2.660   2.391   2.721
 5093SOL    HW216179   2.804   2.402   2.796
 5094SOL     OW16180   1.850   5.862   4.795
 5094SOL    HW116181   1.862   5.784   4.734
 5094SOL    HW216182   1.881   5.946   4.749
 5095SOL     OW16183   6.879   1.113   2.634
 5095SOL    HW116184   6.955   1.119   2.699
 5095SOL    HW216185   6.907   1.152   2.546
 5096SOL     OW16186   6.713   2.965   5.373
 5096SOL    HW116187   6.755   2.970   5.463
 5096SOL    HW216188   6.721   3.053   5.327
 5097SOL     OW16189   0.944   0.437   5.855
 5097SOL    HW116190   0.905   0.345   5.858
 5097SOL    HW216191   0.932   0.475   5.763
 5098SOL     OW16192   3.692   2.493   6.810
 5098SOL    HW116193   3.592   2.495   6.804
 5098SOL    HW216194   3.719   2.441   6.891
 5099SOL     OW16195   1.755   6.503   1.943
 5099SOL    HW116196   1.733   6.409   1.969
 5099SOL    HW216197   1.854   6.512   1.931
 5100SOL     OW16198   5.139   3.118   1.692
 5100SOL    HW116199   5.091   3.199   1.727
 5100SOL    HW216200   5.117   3.039   1.749
 5101SOL     OW16201   3.340   0.074   5.659
 5101SOL    HW116202   3.272   0.117   5.599
 5101SOL    HW216203   3.432   0.097   5.627
 5102SOL     OW16204   5.244   5.406   4.393
 5102SOL    HW116205   5.250   5.337   4.465
 5102SOL    HW216206   5.329   5.459   4.389
 5103SOL     OW16207   0.796   0.331   6.216
 5103SOL    HW116208   0.740   0.303   6.294
 5103SOL    HW216209   0.746   0.400   6.163
 5104SOL     OW16210   3.757   3.233   2.789
 5104SOL    HW116211   3.827   3.166   2.767
 5104SOL    HW216212   3.760   3.308   2.722
 5105SOL     OW16213   3.800   2.748   6.858
 5105SOL    HW116214   3.858   2.702   6.925
 5105SOL    HW216215   3.780   2.686   6.782
 5106SOL     OW16216   3.540   1.822   1.221
 5106SOL    HW116217   3.537   1.723   1.234
 5106SOL    HW216218   3.561   1.868   1.307
 5107SOL     OW16219   5.458   4.872   0.627
 5107SOL    HW116220   5.386   4.875   0.558
 5107SOL    HW216221   5.538   4.825   0.591
 5108SOL     OW16222   3.439   5.044   1.469
 5108SOL    HW116223   3.366   5.035   1.401
 5108SOL    HW216224   3.525   5.010   1.431
 5109SOL     OW16225   1.242   2.981   2.094
 5109SOL    HW116226   1.146   2.964   2.116
 5109SOL    HW216227   1.281   2.901   2.050
 5110SOL     OW16228   4.929   0.123   5.621
 5110SOL    HW116229   4.868   0.079   5.556
 5110SOL    HW216230   4.878   0.149   5.703
 5111SOL     OW16231   1.235   5.334   5.416
 5111SOL    HW116232   1.244   5.236   5.400
 5111SOL    HW216233   1.138   5.357   5.419
 5112SOL     OW16234   1.186   6.246   3.097
 5112SOL    HW116235   1.188   6.188   3.178
 5112SOL    HW216236   1.153   6.337   3.122
 5113SOL     OW16237   2.043   4.488   0.072
 5113SOL    HW116238   2.089   4.422   0.011
 5113SOL    HW216239   1.965   4.528   0.025
 5114SOL     OW16240   4.496   4.708   1.735
 5114SOL    HW116241   4.405   4.667   1.730
 5114SOL    HW216242   4.500   4.787   1.674
 5115SOL     OW16243   1.890   3.520   0.703
 5115SOL    HW116244   1.981   3.561   0.705
 5115SOL    HW216245   1.881   3.456   0.779
 5116SOL     OW16246   0.696   7.008   5.307
 5116SOL    HW116247   0.716   0.013   5.214
 5116SOL    HW216248   0.777   7.021   5.364
 5117SOL     OW16249   0.065   2.083   3.650
 5117SOL    HW116250   0.060   1.983   3.652
 5117SOL    HW216251   0.106   2.116   3.735
 5118SOL     OW16252   4.099   5.327   0.069
 5118SOL    HW116253   4.132   5.386   7.022
 5118SOL    HW216254   4.148   5.239   0.066
 5119SOL     OW16255   5.692   1.438   0.684
 5119SOL    HW116256   5.627   1.502   0.724
 5119SOL    HW216257   5.678   1.347   0.725
 5120SOL     OW16258   5.100   6.662   6.899
 5120SOL    HW116259   5.042   6.583   6.921
 5120SOL    HW216260   5.182   6.660   6.956
 5121SOL     OW16261   1.161   3.541   6.236
 5121SOL    HW116262   1.100   3.463   6.223
 5121SOL    HW216263   1.231   3.541   6.165
 5122SOL     OW16264   4.726   4.798   3.621
 5122SOL    HW116265   4.695   4.822   3.712
 5122SOL    HW216266   4.654   4.819   3.554
 5123SOL     OW16267   4.763   2.708   2.292
 5123SOL    HW116268   4.712   2.688   2.208
 5123SOL    HW216269   4.821   2.788   2.277
 5124SOL     OW16270   1.524   6.389   5.349
 5124SOL    HW116271   1.562   6.361   5.437
 5124SOL    HW216272   1.499   6.486   5.353
 5125SOL     OW16273   6.340   1.791   3.811
 5125SOL    HW116274   6.390   1.820   3.730
 5125SOL    HW216275   6.370   1.845   3.890
 5126SOL     OW16276   1.725   0.666   1.924
 5126SOL    HW116277   1.683   0.635   1.839
 5126SOL    HW216278   1.689   0.756   1.948
 5127SOL     OW16279   2.304   6.128   0.083
 5127SOL    HW116280   2.320   6.108   7.013
 5127SOL    HW216281   2.270   6.222   0.093
 5128SOL     OW16282   5.768   6.995   1.715
 5128SOL    HW116283   5.828   0.040   1.678
 5128SOL    HW216284   5.777   6.993   1.815
 5129SOL     OW16285   6.610   6.734   0.269
 5129SOL    HW116286   6.621   6.696   0.361
 5129SOL    HW216287   6.528   6.790   0.266
 5130SOL     OW16288   6.201   4.745   2.749
 5130SOL    HW116289   6.251   4.668   2.788
 5130SOL    HW216290   6.126   4.711   2.693
 5131SOL     OW16291   1.795   2.653   3.050
 5131SOL    HW116292   1.746   2.675   2.966
 5131SOL    HW216293   1.750   2.577   3.096
 5132SOL     OW16294   3.009   5.925   4.962
 5132SOL    HW116295   3.056   5.957   5.044
 5132SOL    HW216296   3.022   5.991   4.888
 5133SOL     OW16297   3.731   6.462   5.432
 5133SOL    HW116298   3.697   6.389   5.373
 5133SOL    HW216299   3.658   6.490   5.494
 5134SOL     OW16300   5.795   4.155   6.017
 5134SOL    HW116301   5.823   4.059   6.024
 5134SOL    HW216302   5.702   4.161   5.979
 5135SOL     OW16303   5.585   1.122   4.212
 5135SOL    HW116304   5.509   1.078   4.165
 5135SOL    HW216305   5.558   1.213   4.242
 5136SOL     OW16306   4.045   1.282   5.473
 5136SOL    HW116307   4.045   1.182   5.469
 5136SOL    HW216308   4.132   1.314   5.512
 5137SOL     OW16309   3.639   4.034   7.019
 5137SOL    HW116310   3.590   3.962   6.970
 5137SOL    HW216311   3.604   4.123   6.992
 5138SOL     OW16312   2.341   3.223   5.963
 5138SOL    HW116313   2.250   3.195   5.993
 5138SOL    HW216314   2.410   3.181   6.022
 5139SOL     OW16315   0.467   0.221   3.951
 5139SOL    HW116316   0.554   0.203   3.905
 5139SOL    HW216317   0.414   0.287   3.897
 5140SOL     OW16318   3.486   2.754   1.835
 5140SOL    HW116319   3.537   2.836   1.860
 5140SOL    HW216320   3.478   2.750   1.735
 5141SOL     OW16321   0.570   3.662   5.429
 5141SOL    HW116322   0.587   3.583   5.488
 5141SOL    HW216323   0.490   3.712   5.462
 5142SOL     OW16324   5.696   3.076   2.870
 5142SOL    HW116325   5.785   3.063   2.825
 5142SOL    HW216326   5.704   3.147   2.940
 5143SOL     OW16327   6.974   5.394   4.996
 5143SOL    HW116328   6.937   5.484   4.972
 5143SOL    HW216329   0.044   5.404   5.022
 5144SOL     OW16330   2.054   1.517   4.703
 5144SOL    HW116331   2.102   1.442   4.656
 5144SOL    HW216332   2.098   1.603   4.679
 5145SOL     OW16333   3.632   5.596   5.672
 5145SOL    HW116334   3.717   5.648   5.682
 5145SOL    HW216335   3.653   5.500   5.658
 5146SOL     OW16336   2.845   4.996   6.854
 5146SOL    HW116337   2.929   5.023   6.901
 5146SOL    HW216338   2.785   5.075   6.845
 5147SOL     OW16339   6.694   5.270   6.279
 5147SOL    HW116340   6.652   5.359   6.298
 5147SOL    HW216341   6.640   5.197   6.320
 5148SOL     OW16342   1.213   0.173   1.635
 5148SOL    HW116343   1.173   0.171   1.543
 5148SOL    HW216344   1.282   0.245   1.639
 5149SOL     OW16345   6.839   0.494   5.577
 5149SOL    HW116346   6.846   0.428   5.503
 5149SOL    HW216347   6.927   0.500   5.624
 5150SOL     OW16348   1.874   5.198   4.083
 5150SOL    HW116349   1.938   5.124   4.064
 5150SOL    HW216350   1.840   5.190   4.177
 5151SOL     OW16351   4.500   0.924   6.310
 5151SOL    HW116352   4.574   0.985   6.336
 5151SOL    HW216353   4.449   0.896   6.392
 5152SOL     OW16354   0.731   5.071   0.233
 5152SOL    HW116355   0.688   4.982   0.249
 5152SOL    HW216356   0.660   5.139   0.212
 5153SOL     OW16357   1.747   1.958   0.912
 5153SOL    HW116358   1.803   2.020   0.967
 5153SOL    HW216359   1.714   2.008   0.831
 5154SOL     OW16360   1.698   3.810   5.244
 5154SOL    HW116361   1.778   3.769   5.286
 5154SOL    HW216362   1.623   3.743   5.241
 5155SOL     OW16363   3.410   1.182   2.100
 5155SOL    HW116364   3.414   1.096   2.049
 5155SOL    HW216365   3.483   1.183   2.169
 5156SOL     OW16366   5.815   2.584   6.102
 5156SOL    HW116367   5.718   2.604   6.112
 5156SOL    HW216368   5.832   2.541   6.014
 5157SOL     OW16369   5.929   2.652   4.221
 5157SOL    HW116370   5.968   2.587   4.285
 5157SOL    HW216371   5.830   2.640   4.216
 5158SOL     OW16372   3.988   0.489   0.866
 5158SOL    HW116373   4.013   0.455   0.775
 5158SOL    HW216374   3.889   0.484   0.878
 5159SOL     OW16375   2.037   3.350   5.038
 5159SOL    HW116376   2.109   3.316   5.100
 5159SOL    HW216377   2.043   3.450   5.033
 5160SOL     OW16378   1.529   3.186   4.537
 5160SOL    HW116379   1.493   3.233   4.457
 5160SOL    HW216380   1.488   3.095   4.544
 5161SOL     OW16381   1.478   3.568   6.602
 5161SOL    HW116382   1.537   3.633   6.649
 5161SOL    HW216383   1.514   3.476   6.613
 5162SOL     OW16384   6.599   5.442   4.531
 5162SOL    HW116385   6.618   5.528   4.580
 5162SOL    HW216386   6.503   5.440   4.503
 5163SOL     OW16387   5.295   3.895   0.871
 5163SOL    HW116388   5.241   3.810   0.866
 5163SOL    HW216389   5.342   3.910   0.784
 5164SOL     OW16390   5.549   5.205   5.763
 5164SOL    HW116391   5.458   5.207   5.803
 5164SOL    HW216392   5.602   5.282   5.797
 5165SOL     OW16393   6.196   3.393   4.094
 5165SOL    HW116394   6.164   3.324   4.160
 5165SOL    HW216395   6.268   3.449   4.136
 5166SOL     OW16396   1.767   0.130   1.467
 5166SOL    HW116397   1.836   0.076   1.514
 5166SOL    HW216398   1.681   0.125   1.518
 5167SOL     OW16399   1.393   0.167   5.230
 5167SOL    HW116400   1.365   0.254   5.189
 5167SOL    HW216401   1.316   0.129   5.282
 5168SOL     OW16402   4.163   1.601   3.077
 5168SOL    HW116403   4.154   1.694   3.114
 5168SOL    HW216404   4.177   1.606   2.979
 5169SOL     OW16405   4.101   4.265   6.556
 5169SOL    HW116406   4.155   4.200   6.611
 5169SOL    HW216407   4.018   4.290   6.607
 5170SOL     OW16408   4.198   4.803   4.473
 5170SOL    HW116409   4.146   4.886   4.493
 5170SOL    HW216410   4.188   4.780   4.377
 5171SOL     OW16411   2.649   4.674   5.015
 5171SOL    HW116412   2.651   4.773   5.027
 5171SOL    HW216413   2.713   4.631   5.079
 5172SOL     OW16414   2.147   4.658   6.723
 5172SOL    HW116415   2.089   4.679   6.802
 5172SOL    HW216416   2.240   4.639   6.754
 5173SOL     OW16417   6.442   3.201   6.184
 5173SOL    HW116418   6.516   3.200   6.252
 5173SOL    HW216419   6.475   3.159   6.099
 5174SOL     OW16420   1.616   4.584   6.041
 5174SOL    HW116421   1.688   4.647   6.013
 5174SOL    HW216422   1.539   4.635   6.078
 5175SOL     OW16423   0.560   5.224   6.086
 5175SOL    HW116424   0.469   5.240   6.125
 5175SOL    HW216425   0.617   5.304   6.100
 5176SOL     OW16426   5.493   4.273   6.304
 5176SOL    HW116427   5.403   4.275   6.347
 5176SOL    HW216428   5.485   4.302   6.208
 5177SOL     OW16429   5.348   5.981   6.502
 5177SOL    HW116430   5.363   6.005   6.598
 5177SOL    HW216431   5.402   5.901   6.479
 5178SOL     OW16432   2.842   2.235   1.717
 5178SOL    HW116433   2.867   2.289   1.798
 5178SOL    HW216434   2.886   2.145   1.722
 5179SOL     OW16435   3.644   5.957   5.150
 5179SOL    HW116436   3.676   5.992   5.238
 5179SOL    HW216437   3.616   6.033   5.092
 5180SOL     OW16438   2.843   2.282   0.128
 5180SOL    HW116439   2.784   2.338   0.070
 5180SOL    HW216440   2.935   2.321   0.129
 5181SOL     OW16441   2.634   5.619   2.441
 5181SOL    HW116442   2.558   5.655   2.495
 5181SOL    HW216443   2.607   5.532   2.399
 5182SOL     OW16444   4.848   4.282   1.520
 5182SOL    HW116445   4.752   4.310   1.520
 5182SOL    HW216446   4.876   4.260   1.613
 5183SOL     OW16447   3.793   0.792   3.442
 5183SOL    HW116448   3.819   0.800   3.346
 5183SOL    HW216449   3.798   0.697   3.470
 5184SOL     OW16450   1.210   2.063   2.966
 5184SOL    HW116451   1.267   1.993   3.007
 5184SOL    HW216452   1.115   2.033   2.963
 5185SOL     OW16453   3.870   0.456   1.831
 5185SOL    HW116454   3.908   0.468   1.923
 5185SOL    HW216455   3.889   0.364   1.798
 5186SOL     OW16456   5.625   4.724   0.090
 5186SOL    HW116457   5.641   4.811   0.137
 5186SOL    HW216458   5.560   4.669   0.142
 5187SOL     OW16459   5.274   1.744   4.455
 5187SOL    HW116460   5.236   1.653   4.471
 5187SOL    HW216461   5.301   1.784   4.543
 5188SOL     OW16462   1.081   3.141   4.414
 5188SOL    HW116463   1.005   3.076   4.412
 5188SOL    HW216464   1.163   3.097   4.379
 5189SOL     OW16465   4.322   5.271   6.834
 5189SOL    HW116466   4.228   5.285   6.803
 5189SOL    HW216467   4.373   5.356   6.824
 5190SOL     OW16468   2.011   3.065   3.267
 5190SOL    HW116469   1.941   3.005   3.305
 5190SOL    HW216470   1.988   3.160   3.286
 5191SOL     OW16471   4.690   0.772   2.142
 5191SOL    HW116472   4.612   0.777   2.205
 5191SOL    HW216473   4.685   0.689   2.088
 5192SOL     OW16474   6.314   4.626   2.204
 5192SOL    HW116475   6.290   4.545   2.258
 5192SOL    HW216476   6.230   4.671   2.173
 5193SOL     OW16477   4.879   3.789   2.184
 5193SOL    HW116478   4.902   3.700   2.146
 5193SOL    HW216479   4.864   3.781   2.282
 5194SOL     OW16480   5.141   1.719   6.845
 5194SOL    HW116481   5.218   1.775   6.874
 5194SOL    HW216482   5.059   1.777   6.840
 5195SOL     OW16483   6.068   6.332   5.166
 5195SOL    HW116484   6.056   6.285   5.253
 5195SOL    HW216485   5.978   6.350   5.126
 5196SOL     OW16486   0.855   3.374   1.831
 5196SOL    HW116487   0.819   3.466   1.820
 5196SOL    HW216488   0.953   3.378   1.851
 5197SOL     OW16489   3.627   6.067   5.432
 5197SOL    HW116490   3.603   5.972   5.411
 5197SOL    HW216491   3.685   6.069   5.513
 5198SOL     OW16492   4.244   0.612   5.622
 5198SOL    HW116493   4.237   0.604   5.721
 5198SOL    HW216494   4.157   0.586   5.580
 5199SOL     OW16495   0.242   5.392   1.828
 5199SOL    HW116496   0.297   5.403   1.911
 5199SOL    HW216497   0.232   5.481   1.783
 5200SOL     OW16498   0.004   7.004   5.105
 5200SOL    HW116499   0.077   6.974   5.043
 5200SOL    HW216500   6.954   0.013   5.051
 5201SOL     OW16501   5.986   4.933   5.008
 5201SOL    HW116502   6.004   5.022   4.967
 5201SOL    HW216503   5.898   4.898   4.975
 5202SOL     OW16504   3.429   3.111   5.933
 5202SOL    HW116505   3.338   3.081   5.903
 5202SOL    HW216506   3.429   3.210   5.946
 5203SOL     OW16507   1.302   0.298   6.516
 5203SOL    HW116508   1.400   0.278   6.517
 5203SOL    HW216509   1.260   0.254   6.437
 5204SOL     OW16510   2.371   0.617   0.676
 5204SOL    HW116511   2.436   0.547   0.648
 5204SOL    HW216512   2.421   0.699   0.705
 5205SOL     OW16513   6.923   6.962   1.338
 5205SOL    HW116514   6.891   6.986   1.247
 5205SOL    HW216515   6.847   6.926   1.392
 5206SOL     OW16516   1.264   4.162   3.660
 5206SOL    HW116517   1.214   4.148   3.745
 5206SOL    HW216518   1.307   4.252   3.661
 5207SOL     OW16519   5.697   6.893   5.168
 5207SOL    HW116520   5.690   6.801   5.207
 5207SOL    HW216521   5.643   6.898   5.084
 5208SOL     OW16522   6.427   1.789   0.348
 5208SOL    HW116523   6.439   1.691   0.333
 5208SOL    HW216524   6.356   1.804   0.417
 5209SOL     OW16525   5.567   6.625   3.456
 5209SOL    HW116526   5.615   6.663   3.377
 5209SOL    HW216527   5.546   6.529   3.438
 5210SOL     OW16528   5.418   4.379   1.000
 5210SOL    HW116529   5.484   4.403   0.929
 5210SOL    HW216530   5.455   4.405   1.090
 5211SOL     OW16531   5.486   2.692   4.703
 5211SOL    HW116532   5.551   2.633   4.751
 5211SOL    HW216533   5.396   2.649   4.705
 5212SOL     OW16534   6.973   3.785   0.644
 5212SOL    HW116535   6.991   3.693   0.610
 5212SOL    HW216536   6.894   3.784   0.704
 5213SOL     OW16537   3.948   3.584   2.944
 5213SOL    HW116538   3.952   3.578   3.044
 5213SOL    HW216539   3.973   3.676   2.915
 5214SOL     OW16540   5.857   3.053   5.552
 5214SOL    HW116541   5.789   3.106   5.501
 5214SOL    HW216542   5.905   2.991   5.490
 5215SOL     OW16543   0.480   5.144   5.038
 5215SOL    HW116544   0.544   5.082   4.991
 5215SOL    HW216545   0.387   5.112   5.023
 5216SOL     OW16546   5.421   4.567   1.263
 5216SOL    HW116547   5.347   4.634   1.250
 5216SOL    HW216548   5.427   4.545   1.361
 5217SOL     OW16549   4.793   6.462   2.781
 5217SOL    HW116550   4.725   6.535   2.786
 5217SOL    HW216551   4.752   6.375   2.807
 5218SOL     OW16552   6.077   0.099   0.187
 5218SOL    HW116553   6.007   0.170   0.190
 5218SOL    HW216554   6.034   0.009   0.187
 5219SOL     OW16555   3.634   0.861   5.298
 5219SOL    HW116556   3.560   0.883   5.233
 5219SOL    HW216557   3.681   0.946   5.323
 5220SOL     OW16558   1.957   4.978   4.723
 5220SOL    HW116559   1.911   5.015   4.804
 5220SOL    HW216560   2.051   4.953   4.746
 5221SOL     OW16561   5.527   6.144   1.375
 5221SOL    HW116562   5.561   6.159   1.282
 5221SOL    HW216563   5.453   6.076   1.372
 5222SOL     OW16564   6.837   3.343   1.952
 5222SOL    HW116565   6.911   3.391   1.904
 5222SOL    HW216566   6.867   3.250   1.973
 5223SOL     OW16567   6.276   3.237   0.607
 5223SOL    HW116568   6.305   3.302   0.676
 5223SOL    HW216569   6.196   3.274   0.559
 5224SOL     OW16570   0.955   1.320   5.172
 5224SOL    HW116571   1.050   1.338   5.199
 5224SOL    HW216572   0.930   1.379   5.096
 5225SOL     OW16573   6.783   1.565   4.616
 5225SOL    HW116574   6.882   1.559   4.614
 5225SOL    HW216575   6.752   1.581   4.710
 5226SOL     OW16576   0.290   6.064   4.363
 5226SOL    HW116577   0.319   5.968   4.366
 5226SOL    HW216578   0.358   6.121   4.409
 5227SOL     OW16579   0.728   3.660   5.835
 5227SOL    HW116580   0.814   3.654   5.885
 5227SOL    HW216581   0.734   3.731   5.765
 5228SOL     OW16582   0.613   1.747   5.471
 5228SOL    HW116583   0.532   1.774   5.419
 5228SOL    HW216584   0.606   1.783   5.564
 5229SOL     OW16585   3.459   1.758   5.919
 5229SOL    HW116586   3.540   1.765   5.861
 5229SOL    HW216587   3.486   1.765   6.015
 5230SOL     OW16588   6.748   0.066   2.672
 5230SOL    HW116589   6.711   0.013   2.748
 5230SOL    HW216590   6.848   0.056   2.670
 5231SOL     OW16591   6.235   3.505   2.482
 5231SOL    HW116592   6.333   3.492   2.463
 5231SOL    HW216593   6.223   3.587   2.538
 5232SOL     OW16594   1.495   2.513   5.712
 5232SOL    HW116595   1.397   2.505   5.692
 5232SOL    HW216596   1.544   2.440   5.665
 5233SOL     OW16597   3.738   6.653   2.761
 5233SOL    HW116598   3.649   6.697   2.749
 5233SOL    HW216599   3.774   6.625   2.673
 5234SOL     OW16600   3.087   2.421   5.884
 5234SOL    HW116601   3.108   2.328   5.914
 5234SOL    HW216602   3.105   2.429   5.786
 5235SOL     OW16603   2.779   1.872   1.539
 5235SOL    HW116604   2.709   1.879   1.468
 5235SOL    HW216605   2.736   1.881   1.629
 5236SOL     OW16606   2.941   5.202   1.769
 5236SOL    HW116607   3.039   5.194   1.787
 5236SOL    HW216608   2.890   5.174   1.850
 5237SOL     OW16609   1.712   1.795   1.931
 5237SOL    HW116610   1.740   1.835   1.844
 5237SOL    HW216611   1.620   1.755   1.922
 5238SOL     OW16612   0.196   0.469   3.181
 5238SOL    HW116613   0.294   0.447   3.180
 5238SOL    HW216614   0.178   0.548   3.123
 5239SOL     OW16615   2.459   4.574   0.927
 5239SOL    HW116616   2.466   4.633   0.847
 5239SOL    HW216617   2.507   4.488   0.909
 5240SOL     OW16618   2.087   4.151   5.751
 5240SOL    HW116619   2.082   4.237   5.701
 5240SOL    HW216620   2.083   4.169   5.849
 5241SOL     OW16621   2.046   6.061   2.807
 5241SOL    HW116622   2.030   6.118   2.888
 5241SOL    HW216623   2.135   6.016   2.816
 5242SOL     OW16624   3.864   6.649   6.335
 5242SOL    HW116625   3.778   6.646   6.285
 5242SOL    HW216626   3.896   6.744   6.342
 5243SOL     OW16627   2.436   6.364   2.520
 5243SOL    HW116628   2.417   6.290   2.584
 5243SOL    HW216629   2.445   6.450   2.571
 5244SOL     OW16630   4.306   0.975   0.400
 5244SOL    HW116631   4.319   1.030   0.482
 5244SOL    HW216632   4.233   1.015   0.345
 5245SOL     OW16633   3.170   4.508   1.642
 5245SOL    HW116634   3.090   4.557   1.608
 5245SOL    HW216635   3.141   4.426   1.691
 5246SOL     OW16636   5.780   4.268   6.553
 5246SOL    HW116637   5.871   4.246   6.589
 5246SOL    HW216638   5.780   4.256   6.454
 5247SOL     OW16639   4.868   1.931   6.563
 5247SOL    HW116640   4.878   2.013   6.620
 5247SOL    HW216641   4.775   1.926   6.528
 5248SOL     OW16642   5.316   1.274   4.189
 5248SOL    HW116643   5.291   1.189   4.143
 5248SOL    HW216644   5.233   1.321   4.221
 5249SOL     OW16645   0.058   5.003   0.994
 5249SOL    HW116646   7.009   5.060   1.028
 5249SOL    HW216647   0.022   4.912   0.971
 5250SOL     OW16648   2.778   5.840   1.299
 5250SOL    HW116649   2.680   5.854   1.284
 5250SOL    HW216650   2.793   5.808   1.393
 5251SOL     OW16651   0.521   4.871   0.299
 5251SOL    HW116652   0.456   4.943   0.321
 5251SOL    HW216653   0.491   4.822   0.217
 5252SOL     OW16654   3.882   5.797   2.559
 5252SOL    HW116655   3.791   5.755   2.564
 5252SOL    HW216656   3.905   5.815   2.464
 5253SOL     OW16657   0.221   5.623   4.704
 5253SOL    HW116658   0.275   5.645   4.785
 5253SOL    HW216659   0.212   5.703   4.646
 5254SOL     OW16660   4.717   5.649   2.800
 5254SOL    HW116661   4.706   5.727   2.863
 5254SOL    HW216662   4.768   5.679   2.719
 5255SOL     OW16663   6.776   1.426   5.462
 5255SOL    HW116664   6.836   1.464   5.392
 5255SOL    HW216665   6.768   1.492   5.537
 5256SOL     OW16666   6.460   1.994   2.613
 5256SOL    HW116667   6.369   1.963   2.587
 5256SOL    HW216668   6.529   1.935   2.571
 5257SOL     OW16669   4.349   1.790   6.104
 5257SOL    HW116670   4.328   1.800   6.006
 5257SOL    HW216671   4.343   1.880   6.148
 5258SOL     OW16672   4.614   1.406   4.910
 5258SOL    HW116673   4.574   1.483   4.862
 5258SOL    HW216674   4.710   1.395   4.881
 5259SOL     OW16675   5.659   5.065   3.770
 5259SOL    HW116676   5.686   5.007   3.846
 5259SOL    HW216677   5.560   5.076   3.769
 5260SOL     OW16678   2.229   6.353   1.422
 5260SOL    HW116679   2.240   6.449   1.447
 5260SOL    HW216680   2.146   6.342   1.367
 5261SOL     OW16681   5.612   4.440   6.663
 5261SOL    HW116682   5.691   4.380   6.651
 5261SOL    HW216683   5.629   4.503   6.739
 5262SOL     OW16684   1.551   1.052   1.412
 5262SOL    HW116685   1.556   1.034   1.314
 5262SOL    HW216686   1.643   1.066   1.448
 5263SOL     OW16687   1.475   6.407   2.997
 5263SOL    HW116688   1.395   6.370   2.949
 5263SOL    HW216689   1.484   6.504   2.977
 5264SOL     OW16690   6.950   2.316   1.853
 5264SOL    HW116691   6.901   2.283   1.934
 5264SOL    HW216692   6.913   2.272   1.771
 5265SOL     OW16693   6.723   5.623   5.533
 5265SOL    HW116694   6.680   5.533   5.536
 5265SOL    HW216695   6.797   5.627   5.600
 5266SOL     OW16696   1.582   6.947   6.601
 5266SOL    HW116697   1.509   6.992   6.653
 5266SOL    HW216698   1.653   7.013   6.579
 5267SOL     OW16699   5.392   1.847   4.070
 5267SOL    HW116700   5.420   1.782   4.000
 5267SOL    HW216701   5.321   1.806   4.128
 5268SOL     OW16702   5.595   0.272   6.722
 5268SOL    HW116703   5.654   0.208   6.674
 5268SOL    HW216704   5.578   0.352   6.664
 5269SOL     OW16705   1.332   0.338   3.954
 5269SOL    HW116706   1.351   0.249   3.994
 5269SOL    HW216707   1.281   0.326   3.869
 5270SOL     OW16708   0.253   2.089   6.332
 5270SOL    HW116709   0.175   2.147   6.309
 5270SOL    HW216710   0.225   1.993   6.331
 5271SOL     OW16711   1.295   4.665   3.489
 5271SOL    HW116712   1.340   4.588   3.534
 5271SOL    HW216713   1.218   4.632   3.435
 5272SOL     OW16714   4.140   0.894   6.827
 5272SOL    HW116715   4.153   0.838   6.745
 5272SOL    HW216716   4.047   0.880   6.863
 5273SOL     OW16717   2.980   1.871   2.977
 5273SOL    HW116718   2.907   1.922   3.023
 5273SOL    HW216719   2.996   1.911   2.886
 5274SOL     OW16720   5.197   5.130   1.351
 5274SOL    HW116721   5.249   5.115   1.435
 5274SOL    HW216722   5.105   5.092   1.360
 5275SOL     OW16723   4.831   2.159   6.709
 5275SOL    HW116724   4.844   2.254   6.739
 5275SOL    HW216725   4.747   2.151   6.656
 5276SOL     OW16726   4.194   6.455   1.645
 5276SOL    HW116727   4.165   6.372   1.596
 5276SOL    HW216728   4.117   6.517   1.654
 5277SOL     OW16729   1.892   2.568   2.066
 5277SOL    HW116730   1.812   2.514   2.040
 5277SOL    HW216731   1.901   2.568   2.166
 5278SOL     OW16732   4.117   3.463   2.442
 5278SOL    HW116733   4.128   3.415   2.529
 5278SOL    HW216734   4.193   3.440   2.381
 5279SOL     OW16735   1.679   5.951   2.145
 5279SOL    HW116736   1.599   5.941   2.204
 5279SOL    HW216737   1.730   6.033   2.172
 5280SOL     OW16738   3.909   0.801   4.684
 5280SOL    HW116739   3.929   0.709   4.718
 5280SOL    HW216740   3.827   0.799   4.627
 5281SOL     OW16741   0.182   2.498   3.424
 5281SOL    HW116742   0.206   2.449   3.340
 5281SOL    HW216743   0.231   2.458   3.502
 5282SOL     OW16744   4.827   1.269   1.255
 5282SOL    HW116745   4.780   1.184   1.280
 5282SOL    HW216746   4.811   1.337   1.326
 5283SOL     OW16747   4.777   5.071   6.071
 5283SOL    HW116748   4.812   5.073   5.977
 5283SOL    HW216749   4.723   5.153   6.088
 5284SOL     OW16750   4.797   2.905   3.422
 5284SOL    HW116751   4.785   2.977   3.490
 5284SOL    HW216752   4.864   2.934   3.354
 5285SOL     OW16753   4.410   6.256   2.809
 5285SOL    HW116754   4.332   6.308   2.773
 5285SOL    HW216755   4.377   6.171   2.849
 5286SOL     OW16756   2.364   5.406   2.092
 5286SOL    HW116757   2.405   5.334   2.036
 5286SOL    HW216758   2.277   5.435   2.052
 5287SOL     OW16759   0.299   1.531   2.155
 5287SOL    HW116760   0.211   1.569   2.124
 5287SOL    HW216761   0.284   1.476   2.237
 5288SOL     OW16762   4.369   0.284   0.881
 5288SOL    HW116763   4.333   0.377   0.882
 5288SOL    HW216764   4.465   0.285   0.911
 5289SOL     OW16765   1.501   5.997   1.238
 5289SOL    HW116766   1.526   6.033   1.328
 5289SOL    HW216767   1.514   6.068   1.169
 5290SOL     OW16768   5.818   5.962   0.331
 5290SOL    HW116769   5.719   5.976   0.328
 5290SOL    HW216770   5.851   5.935   0.240
 5291SOL     OW16771   1.215   5.463   6.605
 5291SOL    HW116772   1.210   5.555   6.644
 5291SOL    HW216773   1.303   5.421   6.627
 5292SOL     OW16774   5.360   1.848   0.857
 5292SOL    HW116775   5.331   1.897   0.939
 5292SOL    HW216776   5.455   1.868   0.837
 5293SOL     OW16777   1.270   1.621   3.636
 5293SOL    HW116778   1.339   1.672   3.688
 5293SOL    HW216779   1.315   1.569   3.563
 5294SOL     OW16780   4.575   2.724   5.457
 5294SOL    HW116781   4.626   2.769   5.531
 5294SOL    HW216782   4.632   2.653   5.416
 5295SOL     OW16783   6.081   1.425   2.409
 5295SOL    HW116784   6.045   1.517   2.394
 5295SOL    HW216785   6.109   1.386   2.322
 5296SOL     OW16786   0.507   3.235   0.086
 5296SOL    HW116787   0.587   3.276   0.132
 5296SOL    HW216788   0.462   3.304   0.030
 5297SOL     OW16789   1.649   3.091   1.975
 5297SOL    HW116790   1.705   3.122   2.052
 5297SOL    HW216791   1.659   2.992   1.965
 5298SOL     OW16792   1.039   4.757   2.018
 5298SOL    HW116793   0.961   4.749   2.079
 5298SOL    HW216794   1.081   4.667   2.005
 5299SOL     OW16795   3.038   0.383   1.235
 5299SOL    HW116796   3.071   0.476   1.248
 5299SOL    HW216797   3.007   0.345   1.322
 5300SOL     OW16798   0.458   4.778   3.703
 5300SOL    HW116799   0.398   4.840   3.652
 5300SOL    HW216800   0.547   4.822   3.716
 5301SOL     OW16801   4.603   0.518   0.732
 5301SOL    HW116802   4.653   0.599   0.702
 5301SOL    HW216803   4.506   0.528   0.710
 5302SOL     OW16804   6.101   4.153   3.566
 5302SOL    HW116805   6.054   4.066   3.546
 5302SOL    HW216806   6.056   4.227   3.515
 5303SOL     OW16807   1.848   5.050   2.973
 5303SOL    HW116808   1.774   5.100   2.927
 5303SOL    HW216809   1.852   5.080   3.069
 5304SOL     OW16810   4.904   2.604   5.304
 5304SOL    HW116811   4.910   2.701   5.330
 5304SOL    HW216812   4.884   2.597   5.206
 5305SOL     OW16813   2.771   1.454   3.949
 5305SOL    HW116814   2.841   1.397   3.905
 5305SOL    HW216815   2.808   1.494   4.033
 5306SOL     OW16816   2.624   6.517   4.648
 5306SOL    HW116817   2.686   6.442   4.628
 5306SOL    HW216818   2.541   6.507   4.594
 5307SOL     OW16819   3.918   6.953   0.294
 5307SOL    HW116820   3.887   6.866   0.334
 5307SOL    HW216821   4.015   6.948   0.274
 5308SOL     OW16822   0.336   1.163   1.992
 5308SOL    HW116823   0.372   1.250   1.958
 5308SOL    HW216824   0.338   1.095   1.919
 5309SOL     OW16825   3.236   3.734   4.443
 5309SOL    HW116826   3.245   3.675   4.524
 5309SOL    HW216827   3.214   3.827   4.472
 5310SOL     OW16828   5.811   3.060   0.686
 5310SOL    HW116829   5.897   3.010   0.692
 5310SOL    HW216830   5.785   3.071   0.590
 5311SOL     OW16831   0.767   6.417   6.421
 5311SOL    HW116832   0.834   6.390   6.489
 5311SOL    HW216833   0.723   6.503   6.449
 5312SOL     OW16834   0.876   2.978   2.068
 5312SOL    HW116835   0.822   3.054   2.034
 5312SOL    HW216836   0.845   2.952   2.160
 5313SOL     OW16837   0.904   6.348   0.811
 5313SOL    HW116838   0.954   6.386   0.734
 5313SOL    HW216839   0.968   6.310   0.878
 5314SOL     OW16840   3.973   5.715   1.449
 5314SOL    HW116841   4.051   5.747   1.503
 5314SOL    HW216842   3.939   5.629   1.487
 5315SOL     OW16843   5.607   2.548   2.084
 5315SOL    HW116844   5.561   2.603   2.013
 5315SOL    HW216845   5.669   2.482   2.040
 5316SOL     OW16846   5.425   5.356   4.630
 5316SOL    HW116847   5.393   5.398   4.714
 5316SOL    HW216848   5.380   5.268   4.618
 5317SOL     OW16849   6.830   5.394   2.647
 5317SOL    HW116850   6.888   5.445   2.711
 5317SOL    HW216851   6.762   5.456   2.608
 5318SOL     OW16852   0.112   2.512   4.486
 5318SOL    HW116853   0.037   2.501   4.420
 5318SOL    HW216854   0.136   2.423   4.524
 5319SOL     OW16855   3.783   6.783   2.119
 5319SOL    HW116856   3.701   6.836   2.138
 5319SOL    HW216857   3.793   6.711   2.187
 5320SOL     OW16858   6.354   3.498   6.010
 5320SOL    HW116859   6.400   3.410   6.009
 5320SOL    HW216860   6.408   3.565   5.958
 5321SOL     OW16861   2.103   4.470   5.732
 5321SOL    HW116862   2.142   4.493   5.821
 5321SOL    HW216863   2.174   4.475   5.662
 5322SOL     OW16864   2.509   6.293   0.819
 5322SOL    HW116865   2.603   6.306   0.789
 5322SOL    HW216866   2.507   6.280   0.918
 5323SOL     OW16867   5.289   3.333   0.251
 5323SOL    HW116868   5.261   3.396   0.323
 5323SOL    HW216869   5.271   3.239   0.281
 5324SOL     OW16870   3.721   3.548   1.502
 5324SOL    HW116871   3.655   3.477   1.526
 5324SOL    HW216872   3.793   3.551   1.571
 5325SOL     OW16873   4.293   6.037   4.640
 5325SOL    HW116874   4.322   6.130   4.663
 5325SOL    HW216875   4.368   5.973   4.660
 5326SOL     OW16876   0.164   0.459   2.763
 5326SOL    HW116877   0.207   0.372   2.735
 5326SOL    HW216878   0.066   0.454   2.747
 5327SOL     OW16879   0.278   0.389   3.828
 5327SOL    HW116880   0.183   0.373   3.803
 5327SOL    HW216881   0.326   0.431   3.750
 5328SOL     OW16882   3.708   5.054   0.080
 5328SOL    HW116883   3.664   5.063   0.169
 5328SOL    HW216884   3.734   4.958   0.065
 5329SOL     OW16885   0.415   5.470   6.814
 5329SOL    HW116886   0.336   5.447   6.757
 5329SOL    HW216887   0.465   5.387   6.837
 5330SOL     OW16888   3.657   4.012   0.469
 5330SOL    HW116889   3.589   4.072   0.512
 5330SOL    HW216890   3.734   4.067   0.438
 5331SOL     OW16891   5.189   1.467   6.683
 5331SOL    HW116892   5.234   1.516   6.609
 5331SOL    HW216893   5.134   1.530   6.737
 5332SOL     OW16894   5.855   2.920   6.631
 5332SOL    HW116895   5.842   2.933   6.729
 5332SOL    HW216896   5.939   2.868   6.615
 5333SOL     OW16897   1.571   0.900   4.319
 5333SOL    HW116898   1.637   0.843   4.367
 5333SOL    HW216899   1.619   0.973   4.270
 5334SOL     OW16900   3.170   6.009   2.219
 5334SOL    HW116901   3.203   6.032   2.311
 5334SOL    HW216902   3.246   6.019   2.154
 5335SOL     OW16903   0.222   4.545   1.990
 5335SOL    HW116904   0.308   4.506   1.959
 5335SOL    HW216905   0.208   4.635   1.948
 5336SOL     OW16906   2.134   3.423   5.576
 5336SOL    HW116907   2.050   3.462   5.538
 5336SOL    HW216908   2.209   3.435   5.511
 5337SOL     OW16909   6.641   3.587   1.513
 5337SOL    HW116910   6.707   3.562   1.584
 5337SOL    HW216911   6.552   3.605   1.554
 5338SOL     OW16912   6.754   3.561   1.009
 5338SOL    HW116913   6.850   3.587   1.014
 5338SOL    HW216914   6.746   3.461   1.007
 5339SOL     OW16915   5.419   2.882   2.961
 5339SOL    HW116916   5.432   2.784   2.975
 5339SOL    HW216917   5.489   2.916   2.899
 5340SOL     OW16918   4.740   3.259   1.690
 5340SOL    HW116919   4.689   3.329   1.641
 5340SOL    HW216920   4.677   3.201   1.743
 5341SOL     OW16921   4.940   4.842   3.261
 5341SOL    HW116922   4.881   4.765   3.236
 5341SOL    HW216923   4.892   4.928   3.242
 5342SOL     OW16924   6.136   5.574   4.811
 5342SOL    HW116925   6.050   5.537   4.846
 5342SOL    HW216926   6.202   5.583   4.886
 5343SOL     OW16927   3.813   3.338   6.572
 5343SOL    HW116928   3.772   3.397   6.502
 5343SOL    HW216929   3.742   3.307   6.635
 5344SOL     OW16930   0.024   1.584   6.709
 5344SOL    HW116931   0.095   1.584   6.780
 5344SOL    HW216932   0.062   1.622   6.625
 5345SOL     OW16933   4.006   1.359   6.880
 5345SOL    HW116934   3.913   1.325   6.899
 5345SOL    HW216935   4.060   1.286   6.837
 5346SOL     OW16936   3.327   6.273   3.265
 5346SOL    HW116937   3.392   6.217   3.215
 5346SOL    HW216938   3.375   6.322   3.338
 5347SOL     OW16939   5.485   1.396   4.930
 5347SOL    HW116940   5.388   1.417   4.921
 5347SOL    HW216941   5.522   1.365   4.843
 5348SOL     OW16942   4.986   3.055   4.981
 5348SOL    HW116943   5.008   2.973   5.033
 5348SOL    HW216944   4.991   3.135   5.041
 5349SOL     OW16945   0.719   4.256   1.057
 5349SOL    HW116946   0.682   4.348   1.044
 5349SOL    HW216947   0.727   4.237   1.154
 5350SOL     OW16948   0.684   6.884   5.934
 5350SOL    HW116949   0.781   6.860   5.938
 5350SOL    HW216950   0.632   6.819   5.990
 5351SOL     OW16951   0.607   6.237   3.453
 5351SOL    HW116952   0.613   6.137   3.448
 5351SOL    HW216953   0.680   6.278   3.398
 5352SOL     OW16954   1.419   2.718   6.134
 5352SOL    HW116955   1.463   2.688   6.218
 5352SOL    HW216956   1.461   2.671   6.056
 5353SOL     OW16957   3.676   5.576   3.576
 5353SOL    HW116958   3.593   5.611   3.534
 5353SOL    HW216959   3.720   5.648   3.629
 5354SOL     OW16960   4.159   6.478   1.334
 5354SOL    HW116961   4.128   6.388   1.363
 5354SOL    HW216962   4.082   6.528   1.293
 5355SOL     OW16963   4.865   5.691   5.213
 5355SOL    HW116964   4.872   5.596   5.243
 5355SOL    HW216965   4.778   5.730   5.246
 5356SOL     OW16966   1.499   6.394   1.535
 5356SOL    HW116967   1.581   6.401   1.592
 5356SOL    HW216968   1.463   6.485   1.516
 5357SOL     OW16969   6.362   3.139   2.882
 5357SOL    HW116970   6.310   3.153   2.966
 5357SOL    HW216971   6.325   3.060   2.833
 5358SOL     OW16972   6.133   0.332   6.336
 5358SOL    HW116973   6.042   0.325   6.377
 5358SOL    HW216974   6.132   0.289   6.245
 5359SOL     OW16975   3.240   2.507   6.987
 5359SOL    HW116976   3.184   2.460   0.029
 5359SOL    HW216977   3.221   2.470   6.896
 5360SOL     OW16978   5.389   5.668   3.909
 5360SOL    HW116979   5.361   5.637   4.000
 5360SOL    HW216980   5.361   5.763   3.895
 5361SOL     OW16981   1.298   4.174   3.330
 5361SOL    HW116982   1.327   4.237   3.258
 5361SOL    HW216983   1.352   4.091   3.326
 5362SOL     OW16984   6.483   1.292   2.704
 5362SOL    HW116985   6.508   1.288   2.607
 5362SOL    HW216986   6.543   1.230   2.756
 5363SOL     OW16987   5.747   5.597   4.020
 5363SOL    HW116988   5.707   5.688   4.025
 5363SOL    HW216989   5.847   5.604   4.016
 5364SOL     OW16990   4.733   2.523   2.495
 5364SOL    HW116991   4.760   2.438   2.450
 5364SOL    HW216992   4.744   2.600   2.431
 5365SOL     OW16993   3.120   3.749   5.084
 5365SOL    HW116994   3.032   3.767   5.041
 5365SOL    HW216995   3.106   3.717   5.177
 5366SOL     OW16996   6.914   5.350   3.119
 5366SOL    HW116997   6.933   5.421   3.052
 5366SOL    HW216998   6.839   5.381   3.179
 5367SOL     OW16999   6.399   6.322   1.569
 5367SOL    HW117000   6.313   6.275   1.552
 5367SOL    HW217001   6.401   6.408   1.517
 5368SOL     OW17002   0.546   5.835   4.591
 5368SOL    HW117003   0.558   5.783   4.676
 5368SOL    HW217004   0.616   5.809   4.525
 5369SOL     OW17005   4.368   6.915   2.536
 5369SOL    HW117006   4.447   6.857   2.513
 5369SOL    HW217007   4.356   6.985   2.466
 5370SOL     OW17008   1.937   2.817   0.282
 5370SOL    HW117009   1.927   2.896   0.342
 5370SOL    HW217010   1.866   2.818   0.212
 5371SOL     OW17011   6.322   5.280   3.826
 5371SOL    HW117012   6.411   5.313   3.795
 5371SOL    HW217013   6.307   5.188   3.792
 5372SOL     OW17014   2.195   6.688   3.561
 5372SOL    HW117015   2.223   6.784   3.566
 5372SOL    HW217016   2.095   6.682   3.569
 5373SOL     OW17017   3.050   0.848   6.517
 5373SOL    HW117018   3.069   0.937   6.560
 5373SOL    HW217019   3.090   0.775   6.574
 5374SOL     OW17020   1.186   3.764   1.306
 5374SOL    HW117021   1.280   3.737   1.328
 5374SOL    HW217022   1.186   3.815   1.219
 5375SOL     OW17023   2.623   4.679   4.704
 5375SOL    HW117024   2.567   4.760   4.725
 5375SOL    HW217025   2.631   4.622   4.786
 5376SOL     OW17026   0.827   0.383   0.770
 5376SOL    HW117027   0.759   0.440   0.723
 5376SOL    HW217028   0.891   0.442   0.820
 5377SOL     OW17029   1.210   2.068   2.455
 5377SOL    HW117030   1.145   2.014   2.402
 5377SOL    HW217031   1.189   2.058   2.553
 5378SOL     OW17032   4.900   6.861   2.229
 5378SOL    HW117033   4.962   6.787   2.253
 5378SOL    HW217034   4.931   6.904   2.144
 5379SOL     OW17035   2.260   1.770   3.225
 5379SOL    HW117036   2.303   1.849   3.180
 5379SOL    HW217037   2.176   1.746   3.175
 5380SOL     OW17038   4.988   6.246   0.964
 5380SOL    HW117039   5.005   6.303   1.044
 5380SOL    HW217040   5.070   6.192   0.944
 5381SOL     OW17041   3.713   1.752   3.253
 5381SOL    HW117042   3.753   1.778   3.165
 5381SOL    HW217043   3.786   1.721   3.314
 5382SOL     OW17044   3.753   1.029   2.715
 5382SOL    HW117045   3.697   0.946   2.715
 5382SOL    HW217046   3.698   1.106   2.682
 5383SOL     OW17047   2.264   3.464   5.321
 5383SOL    HW117048   2.188   3.520   5.287
 5383SOL    HW217049   2.254   3.371   5.286
 5384SOL     OW17050   5.477   6.277   6.454
 5384SOL    HW117051   5.379   6.280   6.477
 5384SOL    HW217052   5.520   6.364   6.478
 5385SOL     OW17053   3.962   3.538   6.950
 5385SOL    HW117054   3.989   3.607   7.017
 5385SOL    HW217055   3.876   3.565   6.907
 5386SOL     OW17056   4.427   5.097   3.714
 5386SOL    HW117057   4.371   5.046   3.649
 5386SOL    HW217058   4.382   5.183   3.737
 5387SOL     OW17059   0.871   2.584   4.460
 5387SOL    HW117060   0.804   2.643   4.507
 5387SOL    HW217061   0.827   2.537   4.384
 5388SOL     OW17062   6.589   6.344   3.986
 5388SOL    HW117063   6.680   6.386   3.992
 5388SOL    HW217064   6.555   6.326   4.079
 5389SOL     OW17065   5.148   1.164   4.915
 5389SOL    HW117066   5.108   1.160   4.823
 5389SOL    HW217067   5.247   1.154   4.909
 5390SOL     OW17068   5.348   3.697   3.166
 5390SOL    HW117069   5.282   3.721   3.095
 5390SOL    HW217070   5.319   3.613   3.211
 5391SOL     OW17071   4.273   2.254   1.307
 5391SOL    HW117072   4.332   2.326   1.270
 5391SOL    HW217073   4.272   2.262   1.407
 5392SOL     OW17074   4.857   0.372   4.367
 5392SOL    HW117075   4.935   0.435   4.365
 5392SOL    HW217076   4.773   0.422   4.347
 5393SOL     OW17077   4.304   1.181   3.694
 5393SOL    HW117078   4.369   1.198   3.769
 5393SOL    HW217079   4.227   1.245   3.702
 5394SOL     OW17080   0.212   3.258   2.502
 5394SOL    HW117081   0.194   3.167   2.463
 5394SOL    HW217082   0.128   3.295   2.541
 5395SOL     OW17083   0.434   1.353   0.896
 5395SOL    HW117084   0.472   1.437   0.855
 5395SOL    HW217085   0.461   1.349   0.992
 5396SOL     OW17086   3.628   2.788   1.079
 5396SOL    HW117087   3.628   2.713   1.146
 5396SOL    HW217088   3.598   2.754   0.990
 5397SOL     OW17089   0.069   0.388   2.097
 5397SOL    HW117090   7.006   0.431   2.086
 5397SOL    HW217091   0.135   0.456   2.127
 5398SOL     OW17092   6.599   2.403   3.267
 5398SOL    HW117093   6.615   2.443   3.358
 5398SOL    HW217094   6.685   2.396   3.218
 5399SOL     OW17095   2.387   2.795   1.039
 5399SOL    HW117096   2.375   2.884   0.995
 5399SOL    HW217097   2.478   2.760   1.017
 5400SOL     OW17098   4.786   2.960   1.148
 5400SOL    HW117099   4.858   3.029   1.133
 5400SOL    HW217100   4.825   2.882   1.197
 5401SOL     OW17101   5.578   3.161   1.326
 5401SOL    HW117102   5.660   3.215   1.303
 5401SOL    HW217103   5.509   3.221   1.367
 5402SOL     OW17104   1.440   6.858   1.681
 5402SOL    HW117105   1.490   6.846   1.596
 5402SOL    HW217106   1.486   6.808   1.755
 5403SOL     OW17107   5.770   2.403   5.885
 5403SOL    HW117108   5.787   2.327   5.821
 5403SOL    HW217109   5.703   2.465   5.845
 5404SOL     OW17110   4.833   6.357   0.407
 5404SOL    HW117111   4.826   6.276   0.466
 5404SOL    HW217112   4.871   6.330   0.318
 5405SOL     OW17113   0.289   5.017   6.744
 5405SOL    HW117114   0.213   4.996   6.806
 5405SOL    HW217115   0.372   4.970   6.776
 5406SOL     OW17116   2.550   1.342   5.779
 5406SOL    HW117117   2.503   1.343   5.691
 5406SOL    HW217118   2.596   1.429   5.793
 5407SOL     OW17119   1.271   6.605   3.736
 5407SOL    HW117120   1.261   6.583   3.639
 5407SOL    HW217121   1.362   6.577   3.767
 5408SOL     OW17122   2.269   2.095   4.034
 5408SOL    HW117123   2.197   2.140   3.981
 5408SOL    HW217124   2.359   2.125   4.001
 5409SOL     OW17125   0.561   2.751   2.993
 5409SOL    HW117126   0.517   2.836   3.021
 5409SOL    HW217127   0.613   2.714   3.071
 5410SOL     OW17128   6.339   2.725   0.669
 5410SOL    HW117129   6.331   2.719   0.769
 5410SOL    HW217130   6.321   2.819   0.640
 5411SOL     OW17131   3.789   5.452   1.133
 5411SOL    HW117132   3.719   5.506   1.180
 5411SOL    HW217133   3.829   5.507   1.060
 5412SOL     OW17134   1.212   2.220   5.539
 5412SOL    HW117135   1.238   2.316   5.544
 5412SOL    HW217136   1.185   2.197   5.445
 5413SOL     OW17137   0.009   5.201   5.764
 5413SOL    HW117138   0.075   5.275   5.763
 5413SOL    HW217139   0.033   5.135   5.836
 5414SOL     OW17140   5.458   4.902   5.718
 5414SOL    HW117141   5.524   4.978   5.716
 5414SOL    HW217142   5.503   4.818   5.690
 5415SOL     OW17143   1.402   1.582   6.266
 5415SOL    HW117144   1.407   1.648   6.191
 5415SOL    HW217145   1.422   1.490   6.232
 5416SOL     OW17146   2.897   6.315   6.534
 5416SOL    HW117147   2.910   6.324   6.436
 5416SOL    HW217148   2.846   6.231   6.554
 5417SOL     OW17149   5.997   0.478   2.767
 5417SOL    HW117150   6.005   0.378   2.767
 5417SOL    HW217151   5.948   0.507   2.685
 5418SOL     OW17152   0.153   3.696   5.647
 5418SOL    HW117153   0.133   3.793   5.657
 5418SOL    HW217154   0.219   3.668   5.717
 5419SOL     OW17155   3.475   2.121   6.288
 5419SOL    HW117156   3.461   2.119   6.387
 5419SOL    HW217157   3.558   2.172   6.267
 5420SOL     OW17158   1.514   2.242   1.393
 5420SOL    HW117159   1.421   2.214   1.415
 5420SOL    HW217160   1.578   2.199   1.457
 5421SOL     OW17161   4.093   5.223   1.973
 5421SOL    HW117162   4.117   5.317   1.949
 5421SOL    HW217163   4.172   5.163   1.959
 5422SOL     OW17164   2.322   5.949   3.786
 5422SOL    HW117165   2.224   5.957   3.770
 5422SOL    HW217166   2.371   6.008   3.722
 5423SOL     OW17167   4.676   6.640   1.443
 5423SOL    HW117168   4.585   6.606   1.465
 5423SOL    HW217169   4.695   6.722   1.497
 5424SOL     OW17170   3.808   3.481   5.429
 5424SOL    HW117171   3.870   3.536   5.485
 5424SOL    HW217172   3.808   3.386   5.462
 5425SOL     OW17173   1.572   5.540   6.027
 5425SOL    HW117174   1.541   5.629   5.994
 5425SOL    HW217175   1.562   5.536   6.126
 5426SOL     OW17176   6.858   4.123   0.804
 5426SOL    HW117177   6.798   4.153   0.731
 5426SOL    HW217178   6.944   4.175   0.801
 5427SOL     OW17179   5.214   2.604   0.536
 5427SOL    HW117180   5.123   2.645   0.537
 5427SOL    HW217181   5.258   2.619   0.625
 5428SOL     OW17182   4.528   5.658   2.445
 5428SOL    HW117183   4.625   5.647   2.464
 5428SOL    HW217184   4.483   5.568   2.448
 5429SOL     OW17185   3.186   6.796   3.989
 5429SOL    HW117186   3.115   6.769   3.923
 5429SOL    HW217187   3.202   6.894   3.982
 5430SOL     OW17188   1.446   3.795   5.464
 5430SOL    HW117189   1.418   3.777   5.559
 5430SOL    HW217190   1.546   3.798   5.459
 5431SOL     OW17191   5.130   4.854   0.659
 5431SOL    HW117192   5.030   4.863   0.654
 5431SOL    HW217193   5.153   4.771   0.710
 5432SOL     OW17194   0.363   5.251   6.314
 5432SOL    HW117195   0.408   5.309   6.382
 5432SOL    HW217196   0.342   5.162   6.354
 5433SOL     OW17197   3.642   6.859   1.360
 5433SOL    HW117198   3.609   6.835   1.451
 5433SOL    HW217199   3.679   6.952   1.361
 5434SOL     OW17200   4.978   6.034   4.049
 5434SOL    HW117201   5.020   5.947   4.076
 5434SOL    HW217202   4.973   6.039   3.949
 5435SOL     OW17203   0.019   4.093   6.919
 5435SOL    HW117204   0.073   4.087   6.835
 5435SOL    HW217205   6.978   4.166   6.910
 5436SOL     OW17206   2.021   4.342   2.310
 5436SOL    HW117207   2.052   4.404   2.382
 5436SOL    HW217208   1.926   4.317   2.328
 5437SOL     OW17209   3.268   6.436   0.686
 5437SOL    HW117210   3.216   6.406   0.766
 5437SOL    HW217211   3.234   6.524   0.655
 5438SOL     OW17212   4.793   6.624   2.395
 5438SOL    HW117213   4.787   6.706   2.452
 5438SOL    HW217214   4.775   6.647   2.300
 5439SOL     OW17215   1.757   3.830   1.400
 5439SOL    HW117216   1.676   3.790   1.442
 5439SOL    HW217217   1.810   3.758   1.355
 5440SOL     OW17218   5.920   6.787   3.982
 5440SOL    HW117219   5.940   6.754   3.890
 5440SOL    HW217220   5.860   6.722   4.028
 5441SOL     OW17221   5.781   2.508   4.634
 5441SOL    HW117222   5.815   2.487   4.725
 5441SOL    HW217223   5.760   2.424   4.585
 5442SOL     OW17224   2.397   0.305   6.826
 5442SOL    HW117225   2.436   0.216   6.851
 5442SOL    HW217226   2.360   0.349   6.908
 5443SOL     OW17227   5.649   0.661   2.878
 5443SOL    HW117228   5.643   0.566   2.850
 5443SOL    HW217229   5.610   0.720   2.807
 5444SOL     OW17230   0.603   1.334   6.141
 5444SOL    HW117231   0.645   1.420   6.111
 5444SOL    HW217232   0.534   1.305   6.075
 5445SOL     OW17233   5.946   6.550   5.465
 5445SOL    HW117234   5.916   6.554   5.560
 5445SOL    HW217235   6.043   6.526   5.462
 5446SOL     OW17236   1.177   4.510   6.043
 5446SOL    HW117237   1.131   4.422   6.048
 5446SOL    HW217238   1.236   4.513   5.962
 5447SOL     OW17239   6.489   2.026   1.486
 5447SOL    HW117240   6.479   2.125   1.481
 5447SOL    HW217241   6.577   2.003   1.527
 5448SOL     OW17242   6.120   5.243   1.982
 5448SOL    HW117243   6.061   5.172   1.943
 5448SOL    HW217244   6.085   5.333   1.956
 5449SOL     OW17245   2.235   0.295   1.780
 5449SOL    HW117246   2.244   0.282   1.681
 5449SOL    HW217247   2.141   0.322   1.802
 5450SOL     OW17248   4.393   6.139   1.203
 5450SOL    HW117249   4.436   6.056   1.169
 5450SOL    HW217250   4.326   6.171   1.135
 5451SOL     OW17251   0.309   6.260   3.863
 5451SOL    HW117252   0.296   6.259   3.962
 5451SOL    HW217253   0.222   6.245   3.817
 5452SOL     OW17254   2.303   4.549   2.572
 5452SOL    HW117255   2.355   4.479   2.524
 5452SOL    HW217256   2.296   4.631   2.515
 5453SOL     OW17257   6.004   4.731   4.223
 5453SOL    HW117258   6.103   4.719   4.234
 5453SOL    HW217259   5.986   4.791   4.144
 5454SOL     OW17260   5.651   3.991   2.777
 5454SOL    HW117261   5.614   3.905   2.742
 5454SOL    HW217262   5.614   4.008   2.869
 5455SOL     OW17263   2.774   2.020   3.258
 5455SOL    HW117264   2.872   2.038   3.252
 5455SOL    HW217265   2.736   2.066   3.339
 5456SOL     OW17266   5.916   2.154   0.502
 5456SOL    HW117267   5.983   2.220   0.468
 5456SOL    HW217268   5.827   2.199   0.512
 5457SOL     OW17269   6.436   1.305   0.010
 5457SOL    HW117270   6.519   1.251   7.025
 5457SOL    HW217271   6.456   1.388   0.062
 5458SOL     OW17272   5.632   4.788   6.481
 5458SOL    HW117273   5.548   4.792   6.536
 5458SOL    HW217274   5.633   4.864   6.416
 5459SOL     OW17275   2.140   2.941   5.143
 5459SOL    HW117276   2.222   2.906   5.189
 5459SOL    HW217277   2.153   2.939   5.044
 5460SOL     OW17278   0.342   0.324   1.259
 5460SOL    HW117279   0.329   0.418   1.228
 5460SOL    HW217280   0.415   0.321   1.327
 5461SOL     OW17281   5.778   1.913   6.728
 5461SOL    HW117282   5.853   1.852   6.757
 5461SOL    HW217283   5.734   1.875   6.647
 5462SOL     OW17284   5.073   5.485   6.453
 5462SOL    HW117285   5.168   5.480   6.485
 5462SOL    HW217286   5.047   5.397   6.413
 5463SOL     OW17287   1.195   4.859   5.744
 5463SOL    HW117288   1.126   4.789   5.765
 5463SOL    HW217289   1.281   4.835   5.789
 5464SOL     OW17290   1.904   5.129   5.129
 5464SOL    HW117291   1.850   5.069   5.188
 5464SOL    HW217292   1.964   5.186   5.186
 5465SOL     OW17293   0.433   0.026   5.291
 5465SOL    HW117294   0.380   6.967   5.281
 5465SOL    HW217295   0.530   0.007   5.277
 5466SOL     OW17296   5.316   1.896   5.167
 5466SOL    HW117297   5.348   1.943   5.085
 5466SOL    HW217298   5.382   1.826   5.194
 5467SOL     OW17299   5.208   3.030   4.255
 5467SOL    HW117300   5.161   3.014   4.168
 5467SOL    HW217301   5.142   3.025   4.330
 5468SOL     OW17302   6.832   2.645   1.481
 5468SOL    HW117303   6.870   2.556   1.456
 5468SOL    HW217304   6.803   2.644   1.577
 5469SOL     OW17305   3.659   1.617   4.131
 5469SOL    HW117306   3.678   1.570   4.045
 5469SOL    HW217307   3.737   1.607   4.193
 5470SOL     OW17308   3.751   5.212   3.756
 5470SOL    HW117309   3.785   5.292   3.707
 5470SOL    HW217310   3.816   5.188   3.828
 5471SOL     OW17311   4.918   0.423   2.767
 5471SOL    HW117312   4.923   0.504   2.825
 5471SOL    HW217313   4.992   0.425   2.700
 5472SOL     OW17314   2.111   3.655   0.037
 5472SOL    HW117315   2.185   3.595   0.069
 5472SOL    HW217316   2.028   3.602   0.025
 5473SOL     OW17317   2.839   4.821   2.165
 5473SOL    HW117318   2.917   4.877   2.139
 5473SOL    HW217319   2.839   4.736   2.112
 5474SOL     OW17320   1.481   4.880   2.053
 5474SOL    HW117321   1.484   4.861   1.955
 5474SOL    HW217322   1.570   4.858   2.094
 5475SOL     OW17323   1.226   1.348   5.272
 5475SOL    HW117324   1.210   1.359   5.370
 5475SOL    HW217325   1.300   1.282   5.258
 5476SOL     OW17326   2.208   0.330   4.746
 5476SOL    HW117327   2.169   0.414   4.708
 5476SOL    HW217328   2.175   0.317   4.840
 5477SOL     OW17329   2.230   3.004   3.406
 5477SOL    HW117330   2.230   3.093   3.452
 5477SOL    HW217331   2.161   3.005   3.333
 5478SOL     OW17332   5.553   4.212   5.027
 5478SOL    HW117333   5.602   4.243   5.109
 5478SOL    HW217334   5.590   4.124   4.997
 5479SOL     OW17335   5.408   3.119   4.403
 5479SOL    HW117336   5.374   3.128   4.497
 5479SOL    HW217337   5.332   3.095   4.342
 5480SOL     OW17338   1.145   3.868   4.701
 5480SOL    HW117339   1.101   3.811   4.770
 5480SOL    HW217340   1.244   3.863   4.711
 5481SOL     OW17341   3.043   1.271   6.389
 5481SOL    HW117342   3.130   1.299   6.347
 5481SOL    HW217343   2.990   1.218   6.323
 5482SOL     OW17344   5.494   3.394   1.959
 5482SOL    HW117345   5.522   3.301   1.937
 5482SOL    HW217346   5.575   3.453   1.964
 5483SOL     OW17347   6.827   3.094   6.975
 5483SOL    HW117348   6.884   3.150   6.915
 5483SOL    HW217349   6.844   3.119   0.044
 5484SOL     OW17350   6.633   0.391   5.211
 5484SOL    HW117351   6.624   0.413   5.114
 5484SOL    HW217352   6.726   0.412   5.241
 5485SOL     OW17353   3.129   0.667   4.942
 5485SOL    HW117354   3.221   0.680   4.904
 5485SOL    HW217355   3.062   0.677   4.869
 5486SOL     OW17356   1.234   0.761   3.958
 5486SOL    HW117357   1.237   0.845   4.012
 5486SOL    HW217358   1.327   0.739   3.927
 5487SOL     OW17359   4.217   5.449   0.884
 5487SOL    HW117360   4.242   5.419   0.791
 5487SOL    HW217361   4.118   5.445   0.895
 5488SOL     OW17362   5.039   1.353   5.903
 5488SOL    HW117363   5.073   1.261   5.883
 5488SOL    HW217364   4.947   1.347   5.940
 5489SOL     OW17365   6.618   4.159   3.190
 5489SOL    HW117366   6.672   4.078   3.210
 5489SOL    HW217367   6.545   4.136   3.126
 5490SOL     OW17368   2.379   2.119   6.112
 5490SOL    HW117369   2.335   2.157   6.193
 5490SOL    HW217370   2.473   2.092   6.135
 5491SOL     OW17371   0.077   6.066   2.338
 5491SOL    HW117372   0.161   6.039   2.291
 5491SOL    HW217373   0.009   5.994   2.328
 5492SOL     OW17374   1.254   1.383   4.556
 5492SOL    HW117375   1.312   1.439   4.615
 5492SOL    HW217376   1.293   1.291   4.547
 5493SOL     OW17377   2.948   2.176   0.494
 5493SOL    HW117378   3.035   2.211   0.459
 5493SOL    HW217379   2.879   2.180   0.422
 5494SOL     OW17380   5.997   3.417   2.376
 5494SOL    HW117381   6.094   3.438   2.380
 5494SOL    HW217382   5.984   3.323   2.344
 5495SOL     OW17383   3.807   2.928   3.576
 5495SOL    HW117384   3.883   2.988   3.598
 5495SOL    HW217385   3.817   2.892   3.484
 5496SOL     OW17386   4.330   5.103   1.921
 5496SOL    HW117387   4.330   5.159   1.839
 5496SOL    HW217388   4.313   5.008   1.897
 5497SOL     OW17389   5.850   0.119   1.244
 5497SOL    HW117390   5.825   0.186   1.313
 5497SOL    HW217391   5.809   0.144   1.156
 5498SOL     OW17392   4.141   0.411   4.664
 5498SOL    HW117393   4.143   0.312   4.651
 5498SOL    HW217394   4.225   0.440   4.710
 5499SOL     OW17395   0.771   1.230   5.644
 5499SOL    HW117396   0.767   1.279   5.731
 5499SOL    HW217397   0.826   1.282   5.579
 5500SOL     OW17398   2.087   6.165   0.911
 5500SOL    HW117399   2.147   6.087   0.928
 5500SOL    HW217400   2.090   6.227   0.990
 5501SOL     OW17401   2.964   0.595   2.538
 5501SOL    HW117402   3.038   0.560   2.595
 5501SOL    HW217403   2.986   0.688   2.509
 5502SOL     OW17404   4.460   3.244   0.480
 5502SOL    HW117405   4.543   3.272   0.431
 5502SOL    HW217406   4.382   3.249   0.419
 5503SOL     OW17407   0.457   6.306   4.418
 5503SOL    HW117408   0.536   6.302   4.357
 5503SOL    HW217409   0.380   6.348   4.369
 5504SOL     OW17410   3.486   1.995   4.572
 5504SOL    HW117411   3.419   1.929   4.607
 5504SOL    HW217412   3.537   1.953   4.497
 5505SOL     OW17413   3.670   4.605   6.920
 5505SOL    HW117414   3.663   4.509   6.894
 5505SOL    HW217415   3.585   4.634   6.965
 5506SOL     OW17416   6.977   6.652   5.596
 5506SOL    HW117417   0.023   6.603   5.547
 5506SOL    HW217418   6.971   6.617   5.690
 5507SOL     OW17419   3.837   6.035   4.567
 5507SOL    HW117420   3.856   5.949   4.614
 5507SOL    HW217421   3.919   6.091   4.565
 5508SOL     OW17422   1.841   0.498   6.207
 5508SOL    HW117423   1.811   0.578   6.156
 5508SOL    HW217424   1.786   0.489   6.290
 5509SOL     OW17425   6.127   6.499   6.891
 5509SOL    HW117426   6.109   6.405   6.863
 5509SOL    HW217427   6.222   6.507   6.924
 5510SOL     OW17428   6.035   0.604   6.234
 5510SOL    HW117429   6.020   0.513   6.195
 5510SOL    HW217430   6.096   0.597   6.312
 5511SOL     OW17431   6.916   2.392   1.351
 5511SOL    HW117432   6.878   2.309   1.310
 5511SOL    HW217433   6.921   2.464   1.281
 5512SOL     OW17434   0.359   0.105   0.480
 5512SOL    HW117435   0.421   0.124   0.556
 5512SOL    HW217436   0.311   0.020   0.497
 5513SOL     OW17437   3.447   5.841   4.957
 5513SOL    HW117438   3.535   5.857   5.002
 5513SOL    HW217439   3.458   5.849   4.858
 5514SOL     OW17440   5.947   5.422   3.786
 5514SOL    HW117441   5.961   5.343   3.845
 5514SOL    HW217442   5.956   5.506   3.840
 5515SOL     OW17443   6.547   3.245   3.122
 5515SOL    HW117444   6.448   3.234   3.132
 5515SOL    HW217445   6.575   3.207   3.034
 5516SOL     OW17446   1.126   3.067   6.748
 5516SOL    HW117447   1.082   2.985   6.786
 5516SOL    HW217448   1.103   3.146   6.806
 5517SOL     OW17449   2.219   1.002   1.626
 5517SOL    HW117450   2.245   0.987   1.531
 5517SOL    HW217451   2.245   1.094   1.654
 5518SOL     OW17452   5.481   4.745   5.164
 5518SOL    HW117453   5.572   4.713   5.137
 5518SOL    HW217454   5.489   4.832   5.213
 5519SOL     OW17455   5.090   3.948   3.331
 5519SOL    HW117456   5.104   4.047   3.338
 5519SOL    HW217457   5.175   3.901   3.355
 5520SOL     OW17458   2.038   3.015   0.925
 5520SOL    HW117459   2.028   3.075   0.846
 5520SOL    HW217460   1.948   2.983   0.954
 5521SOL     OW17461   5.099   5.765   0.887
 5521SOL    HW117462   5.106   5.675   0.930
 5521SOL    HW217463   5.077   5.753   0.790
 5522SOL     OW17464   2.149   3.166   2.259
 5522SOL    HW117465   2.167   3.072   2.229
 5522SOL    HW217466   2.106   3.217   2.184
 5523SOL     OW17467   3.023   0.661   1.946
 5523SOL    HW117468   3.087   0.585   1.952
 5523SOL    HW217469   3.059   0.738   1.999
 5524SOL     OW17470   5.664   5.769   5.691
 5524SOL    HW117471   5.721   5.835   5.643
 5524SOL    HW217472   5.568   5.795   5.684
 5525SOL     OW17473   6.649   5.867   4.360
 5525SOL    HW117474   6.576   5.935   4.350
 5525SOL    HW217475   6.733   5.912   4.389
 5526SOL     OW17476   5.251   3.067   4.685
 5526SOL    HW117477   5.342   3.057   4.725
 5526SOL    HW217478   5.213   2.977   4.664
 5527SOL     OW17479   2.249   3.026   0.550
 5527SOL    HW117480   2.214   2.938   0.582
 5527SOL    HW217481   2.296   3.013   0.463
 5528SOL     OW17482   6.949   3.560   2.726
 5528SOL    HW117483   7.012   3.602   2.791
 5528SOL    HW217484   6.993   3.483   2.682
 5529SOL     OW17485   1.337   1.699   4.538
 5529SOL    HW117486   1.423   1.671   4.580
 5529SOL    HW217487   1.313   1.636   4.465
 5530SOL     OW17488   0.140   3.262   0.096
 5530SOL    HW117489   0.055   3.242   0.144
 5530SOL    HW217490   0.214   3.205   0.133
 5531SOL     OW17491   1.215   2.548   6.746
 5531SOL    HW117492   1.221   2.485   6.668
 5531SOL    HW217493   1.240   2.640   6.716
 5532SOL     OW17494   2.394   2.204   0.953
 5532SOL    HW117495   2.479   2.150   0.949
 5532SOL    HW217496   2.351   2.191   1.042
 5533SOL     OW17497   3.970   0.133   0.808
 5533SOL    HW117498   3.888   0.166   0.854
 5533SOL    HW217499   3.945   0.082   0.725
 5534SOL     OW17500   6.943   4.821   4.835
 5534SOL    HW117501   7.023   4.762   4.847
 5534SOL    HW217502   6.860   4.770   4.856
 5535SOL     OW17503   5.643   3.161   3.911
 5535SOL    HW117504   5.672   3.098   3.839
 5535SOL    HW217505   5.705   3.239   3.914
 5536SOL     OW17506   2.700   0.470   4.213
 5536SOL    HW117507   2.712   0.503   4.307
 5536SOL    HW217508   2.758   0.390   4.198
 5537SOL     OW17509   4.220   1.580   4.745
 5537SOL    HW117510   4.181   1.488   4.753
 5537SOL    HW217511   4.168   1.632   4.677
 5538SOL     OW17512   5.286   2.713   1.498
 5538SOL    HW117513   5.354   2.671   1.437
 5538SOL    HW217514   5.331   2.746   1.580
 5539SOL     OW17515   2.694   6.936   0.691
 5539SOL    HW117516   2.701   0.005   0.721
 5539SOL    HW217517   2.755   6.879   0.745
 5540SOL     OW17518   4.993   0.638   6.568
 5540SOL    HW117519   4.967   0.542   6.562
 5540SOL    HW217520   5.093   0.646   6.566
 5541SOL     OW17521   4.672   3.136   6.988
 5541SOL    HW117522   4.603   3.152   6.918
 5541SOL    HW217523   4.760   3.175   6.959
 5542SOL     OW17524   4.300   4.274   0.041
 5542SOL    HW117525   4.251   4.311   6.988
 5542SOL    HW217526   4.396   4.260   0.018
 5543SOL     OW17527   1.902   0.496   0.359
 5543SOL    HW117528   1.978   0.448   0.401
 5543SOL    HW217529   1.925   0.593   0.350
 5544SOL     OW17530   3.844   5.395   6.587
 5544SOL    HW117531   3.836   5.431   6.680
 5544SOL    HW217532   3.798   5.306   6.582
 5545SOL     OW17533   4.745   1.053   3.705
 5545SOL    HW117534   4.835   1.053   3.749
 5545SOL    HW217535   4.754   1.021   3.611
 5546SOL     OW17536   0.626   5.174   4.434
 5546SOL    HW117537   0.689   5.176   4.512
 5546SOL    HW217538   0.563   5.097   4.445
 5547SOL     OW17539   5.019   1.504   5.195
 5547SOL    HW117540   5.048   1.412   5.219
 5547SOL    HW217541   4.953   1.537   5.263
 5548SOL     OW17542   0.591   4.473   4.509
 5548SOL    HW117543   0.651   4.551   4.490
 5548SOL    HW217544   0.496   4.504   4.512
 5549SOL     OW17545   4.571   3.037   0.186
 5549SOL    HW117546   4.610   3.056   0.096
 5549SOL    HW217547   4.472   3.023   0.177
 5550SOL     OW17548   2.177   4.450   1.592
 5550SOL    HW117549   2.163   4.388   1.669
 5550SOL    HW217550   2.188   4.397   1.508
 5551SOL     OW17551   1.740   5.494   3.382
 5551SOL    HW117552   1.840   5.492   3.388
 5551SOL    HW217553   1.703   5.549   3.457
 5552SOL     OW17554   0.436   6.525   6.787
 5552SOL    HW117555   0.411   6.612   6.746
 5552SOL    HW217556   0.508   6.539   6.856
 5553SOL     OW17557   5.054   0.338   0.145
 5553SOL    HW117558   5.040   0.252   0.194
 5553SOL    HW217559   5.127   0.326   0.077
 5554SOL     OW17560   6.307   1.634   1.405
 5554SOL    HW117561   6.325   1.587   1.319
 5554SOL    HW217562   6.209   1.648   1.416
 5555SOL     OW17563   1.826   4.750   2.965
 5555SOL    HW117564   1.745   4.705   3.002
 5555SOL    HW217565   1.828   4.845   2.996
 5556SOL     OW17566   0.617   0.818   4.530
 5556SOL    HW117567   0.568   0.738   4.566
 5556SOL    HW217568   0.562   0.862   4.460
 5557SOL     OW17569   3.421   5.689   3.378
 5557SOL    HW117570   3.335   5.725   3.414
 5557SOL    HW217571   3.402   5.631   3.298
 5558SOL     OW17572   4.656   4.007   6.836
 5558SOL    HW117573   4.640   3.912   6.862
 5558SOL    HW217574   4.670   4.013   6.737
 5559SOL     OW17575   3.243   1.150   2.807
 5559SOL    HW117576   3.338   1.172   2.831
 5559SOL    HW217577   3.193   1.235   2.792
 5560SOL     OW17578   0.607   5.614   3.536
 5560SOL    HW117579   0.704   5.606   3.561
 5560SOL    HW217580   0.553   5.636   3.617
 5561SOL     OW17581   3.880   6.873   3.268
 5561SOL    HW117582   3.895   6.884   3.170
 5561SOL    HW217583   3.958   6.825   3.309
 5562SOL     OW17584   3.488   3.842   1.041
 5562SOL    HW117585   3.416   3.778   1.068
 5562SOL    HW217586   3.566   3.792   1.005
 5563SOL     OW17587   2.056   4.481   2.547
 5563SOL    HW117588   2.155   4.480   2.560
 5563SOL    HW217589   2.011   4.437   2.625
 5564SOL     OW17590   5.218   1.018   6.322
 5564SOL    HW117591   5.269   1.056   6.244
 5564SOL    HW217592   5.207   1.090   6.391
 5565SOL     OW17593   3.259   1.862   6.239
 5565SOL    HW117594   3.179   1.908   6.276
 5565SOL    HW217595   3.334   1.927   6.229
 5566SOL     OW17596   1.550   3.956   0.231
 5566SOL    HW117597   1.481   3.994   0.170
 5566SOL    HW217598   1.622   4.025   0.245
 5567SOL     OW17599   0.162   3.951   0.736
 5567SOL    HW117600   0.128   3.987   0.823
 5567SOL    HW217601   0.089   3.899   0.692
 5568SOL     OW17602   4.682   5.089   1.728
 5568SOL    HW117603   4.729   5.003   1.750
 5568SOL    HW217604   4.740   5.144   1.668
 5569SOL     OW17605   2.046   2.948   3.023
 5569SOL    HW117606   2.073   2.853   3.009
 5569SOL    HW217607   2.067   2.975   3.117
 5570SOL     OW17608   6.917   3.677   2.424
 5570SOL    HW117609   6.992   3.697   2.488
 5570SOL    HW217610   6.954   3.633   2.343
 5571SOL     OW17611   6.238   4.650   1.611
 5571SOL    HW117612   6.161   4.599   1.570
 5571SOL    HW217613   6.247   4.738   1.565
 5572SOL     OW17614   1.828   4.193   4.780
 5572SOL    HW117615   1.736   4.225   4.800
 5572SOL    HW217616   1.838   4.098   4.810
 5573SOL     OW17617   3.471   5.438   4.003
 5573SOL    HW117618   3.554   5.429   4.058
 5573SOL    HW217619   3.465   5.363   3.938
 5574SOL     OW17620   0.488   2.891   6.147
 5574SOL    HW117621   0.458   2.807   6.101
 5574SOL    HW217622   0.578   2.877   6.187
 5575SOL     OW17623   0.099   6.792   1.942
 5575SOL    HW117624   0.060   6.744   1.863
 5575SOL    HW217625   0.190   6.826   1.918
 5576SOL     OW17626   1.090   5.118   3.196
 5576SOL    HW117627   1.060   5.176   3.120
 5576SOL    HW217628   1.189   5.124   3.205
 5577SOL     OW17629   1.821   2.850   5.859
 5577SOL    HW117630   1.889   2.839   5.786
 5577SOL    HW217631   1.866   2.838   5.947
 5578SOL     OW17632   3.652   3.913   3.964
 5578SOL    HW117633   3.665   3.990   4.026
 5578SOL    HW217634   3.577   3.933   3.901
 5579SOL     OW17635   0.448   3.295   1.951
 5579SOL    HW117636   0.494   3.377   1.918
 5579SOL    HW217637   0.349   3.306   1.942
 5580SOL     OW17638   5.458   1.940   5.644
 5580SOL    HW117639   5.468   2.023   5.699
 5580SOL    HW217640   5.387   1.954   5.575
 5581SOL     OW17641   1.137   2.210   0.114
 5581SOL    HW117642   1.127   2.193   0.016
 5581SOL    HW217643   1.062   2.165   0.163
 5582SOL     OW17644   2.463   2.921   6.524
 5582SOL    HW117645   2.374   2.879   6.540
 5582SOL    HW217646   2.535   2.852   6.529
 5583SOL     OW17647   5.301   0.562   2.308
 5583SOL    HW117648   5.259   0.482   2.266
 5583SOL    HW217649   5.400   0.549   2.312
 5584SOL     OW17650   1.471   3.823   4.799
 5584SOL    HW117651   1.497   3.881   4.876
 5584SOL    HW217652   1.470   3.727   4.827
 5585SOL     OW17653   5.161   4.753   2.300
 5585SOL    HW117654   5.189   4.731   2.394
 5585SOL    HW217655   5.125   4.671   2.256
 5586SOL     OW17656   6.272   3.659   0.172
 5586SOL    HW117657   6.307   3.645   0.079
 5586SOL    HW217658   6.207   3.587   0.194
 5587SOL     OW17659   5.922   1.214   6.115
 5587SOL    HW117660   6.008   1.180   6.152
 5587SOL    HW217661   5.871   1.139   6.073
 5588SOL     OW17662   3.614   6.517   0.644
 5588SOL    HW117663   3.600   6.441   0.708
 5588SOL    HW217664   3.542   6.585   0.656
 5589SOL     OW17665   5.781   4.972   5.979
 5589SOL    HW117666   5.807   5.068   5.974
 5589SOL    HW217667   5.816   4.924   5.898
 5590SOL     OW17668   6.267   5.774   3.856
 5590SOL    HW117669   6.273   5.845   3.926
 5590SOL    HW217670   6.261   5.817   3.766
 5591SOL     OW17671   5.411   0.816   1.785
 5591SOL    HW117672   5.487   0.844   1.844
 5591SOL    HW217673   5.424   0.854   1.694
 5592SOL     OW17674   0.676   3.586   3.289
 5592SOL    HW117675   0.647   3.602   3.383
 5592SOL    HW217676   0.762   3.634   3.272
 5593SOL     OW17677   6.982   3.619   0.297
 5593SOL    HW117678   7.004   3.688   0.366
 5593SOL    HW217679   0.040   3.587   0.254
 5594SOL     OW17680   5.653   2.247   6.084
 5594SOL    HW117681   5.701   2.319   6.033
 5594SOL    HW217682   5.720   2.184   6.123
 5595SOL     OW17683   0.427   2.910   5.599
 5595SOL    HW117684   0.512   2.961   5.612
 5595SOL    HW217685   0.422   2.877   5.504
 5596SOL     OW17686   3.616   6.544   3.285
 5596SOL    HW117687   3.635   6.469   3.222
 5596SOL    HW217688   3.538   6.520   3.343
 5597SOL     OW17689   5.238   2.890   2.736
 5597SOL    HW117690   5.219   2.899   2.638
 5597SOL    HW217691   5.315   2.949   2.761
 5598SOL     OW17692   5.483   2.167   4.666
 5598SOL    HW117693   5.420   2.155   4.589
 5598SOL    HW217694   5.478   2.261   4.699
 5599SOL     OW17695   0.775   1.008   3.930
 5599SOL    HW117696   0.830   0.945   3.875
 5599SOL    HW217697   0.836   1.064   3.986
 5600SOL     OW17698   1.490   2.141   4.170
 5600SOL    HW117699   1.392   2.154   4.156
 5600SOL    HW217700   1.508   2.047   4.200
 5601SOL     OW17701   2.619   0.646   5.932
 5601SOL    HW117702   2.667   0.574   5.883
 5601SOL    HW217703   2.535   0.610   5.971
 5602SOL     OW17704   1.789   1.447   0.047
 5602SOL    HW117705   1.753   1.492   6.992
 5602SOL    HW217706   1.719   1.388   0.087
 5603SOL     OW17707   5.812   3.592   6.475
 5603SOL    HW117708   5.887   3.654   6.451
 5603SOL    HW217709   5.759   3.570   6.393
 5604SOL     OW17710   6.505   1.663   6.050
 5604SOL    HW117711   6.499   1.643   6.147
 5604SOL    HW217712   6.548   1.586   6.002
 5605SOL     OW17713   0.782   2.287   5.213
 5605SOL    HW117714   0.754   2.319   5.123
 5605SOL    HW217715   0.710   2.230   5.252
 5606SOL     OW17716   5.140   0.053   2.372
 5606SOL    HW117717   5.152   0.152   2.372
 5606SOL    HW217718   5.147   0.019   2.278
 5607SOL     OW17719   6.081   1.040   1.786
 5607SOL    HW117720   6.115   1.134   1.776
 5607SOL    HW217721   6.154   0.976   1.762
 5608SOL     OW17722   4.424   6.779   4.372
 5608SOL    HW117723   4.371   6.756   4.453
 5608SOL    HW217724   4.520   6.756   4.387
 5609SOL     OW17725   2.322   5.635   5.919
 5609SOL    HW117726   2.406   5.600   5.878
 5609SOL    HW217727   2.261   5.558   5.938
 5610SOL     OW17728   4.379   0.267   6.559
 5610SOL    HW117729   4.377   0.359   6.519
 5610SOL    HW217730   4.422   0.272   6.649
 5611SOL     OW17731   1.854   4.649   3.301
 5611SOL    HW117732   1.865   4.748   3.300
 5611SOL    HW217733   1.766   4.625   3.341
 5612SOL     OW17734   2.310   0.388   5.765
 5612SOL    HW117735   2.312   0.438   5.679
 5612SOL    HW217736   2.240   0.316   5.761
 5613SOL     OW17737   3.883   4.937   1.692
 5613SOL    HW117738   3.897   4.879   1.773
 5613SOL    HW217739   3.805   4.998   1.709
 5614SOL     OW17740   4.251   2.003   3.578
 5614SOL    HW117741   4.293   2.042   3.495
 5614SOL    HW217742   4.156   2.034   3.584
 5615SOL     OW17743   1.157   1.496   1.425
 5615SOL    HW117744   1.224   1.463   1.492
 5615SOL    HW217745   1.165   1.442   1.341
 5616SOL     OW17746   2.811   0.470   4.847
 5616SOL    HW117747   2.743   0.484   4.919
 5616SOL    HW217748   2.805   0.376   4.814
 5617SOL     OW17749   1.222   1.060   5.173
 5617SOL    HW117750   1.273   0.998   5.113
 5617SOL    HW217751   1.184   1.134   5.118
 5618SOL     OW17752   6.514   4.506   2.884
 5618SOL    HW117753   6.591   4.480   2.944
 5618SOL    HW217754   6.435   4.531   2.940
 5619SOL     OW17755   2.146   3.609   4.659
 5619SOL    HW117756   2.243   3.605   4.636
 5619SOL    HW217757   2.123   3.700   4.694
 5620SOL     OW17758   3.864   2.146   5.823
 5620SOL    HW117759   3.851   2.091   5.905
 5620SOL    HW217760   3.775   2.177   5.789
 5621SOL     OW17761   1.990   2.217   6.178
 5621SOL    HW117762   2.018   2.221   6.083
 5621SOL    HW217763   1.972   2.309   6.213
 5622SOL     OW17764   5.897   0.702   5.828
 5622SOL    HW117765   5.991   0.667   5.823
 5622SOL    HW217766   5.886   0.756   5.911
 5623SOL     OW17767   0.283   5.509   0.064
 5623SOL    HW117768   0.382   5.520   0.072
 5623SOL    HW217769   0.253   5.546   7.002
 5624SOL     OW17770   1.038   4.275   3.377
 5624SOL    HW117771   1.131   4.248   3.351
 5624SOL    HW217772   1.005   4.216   3.450
 5625SOL     OW17773   6.795   2.277   5.634
 5625SOL    HW117774   6.759   2.343   5.568
 5625SOL    HW217775   6.883   2.309   5.669
 5626SOL     OW17776   4.155   0.194   4.204
 5626SOL    HW117777   4.201   0.167   4.119
 5626SOL    HW217778   4.067   0.147   4.210
 5627SOL     OW17779   1.020   5.849   0.590
 5627SOL    HW117780   0.963   5.826   0.511
 5627SOL    HW217781   1.107   5.887   0.558
 5628SOL     OW17782   1.248   1.025   4.062
 5628SOL    HW117783   1.260   1.046   4.159
 5628SOL    HW217784   1.326   1.060   4.010
 5629SOL     OW17785   3.610   3.627   3.109
 5629SOL    HW117786   3.687   3.621   3.046
 5629SOL    HW217787   3.633   3.690   3.183
 5630SOL     OW17788   6.790   4.550   2.127
 5630SOL    HW117789   6.827   4.457   2.121
 5630SOL    HW217790   6.811   4.589   2.217
 5631SOL     OW17791   4.660   0.508   6.912
 5631SOL    HW117792   4.595   0.581   6.897
 5631SOL    HW217793   4.624   0.444   6.981
 5632SOL     OW17794   3.431   3.684   0.234
 5632SOL    HW117795   3.503   3.732   0.185
 5632SOL    HW217796   3.432   3.587   0.209
 5633SOL     OW17797   6.206   2.729   4.807
 5633SOL    HW117798   6.235   2.731   4.712
 5633SOL    HW217799   6.127   2.789   4.819
 5634SOL     OW17800   4.417   5.721   4.389
 5634SOL    HW117801   4.326   5.757   4.366
 5634SOL    HW217802   4.436   5.640   4.334
 5635SOL     OW17803   3.192   2.048   5.220
 5635SOL    HW117804   3.205   2.134   5.171
 5635SOL    HW217805   3.279   2.019   5.260
 5636SOL     OW17806   3.545   6.132   4.144
 5636SOL    HW117807   3.616   6.075   4.104
 5636SOL    HW217808   3.572   6.159   4.237
 5637SOL     OW17809   5.782   0.305   3.470
 5637SOL    HW117810   5.692   0.312   3.427
 5637SOL    HW217811   5.771   0.278   3.566
 5638SOL     OW17812   4.892   3.626   6.236
 5638SOL    HW117813   4.803   3.595   6.269
 5638SOL    HW217814   4.960   3.555   6.254
 5639SOL     OW17815   2.729   0.752   6.153
 5639SOL    HW117816   2.829   0.743   6.156
 5639SOL    HW217817   2.696   0.728   6.062
 5640SOL     OW17818   2.599   6.969   3.758
 5640SOL    HW117819   2.584   6.870   3.756
 5640SOL    HW217820   2.624   7.001   3.667
 5641SOL     OW17821   5.634   5.859   4.713
 5641SOL    HW117822   5.537   5.850   4.736
 5641SOL    HW217823   5.648   5.941   4.657
 5642SOL     OW17824   1.699   2.100   6.361
 5642SOL    HW117825   1.616   2.066   6.404
 5642SOL    HW217826   1.719   2.046   6.279
 5643SOL     OW17827   5.756   2.391   4.917
 5643SOL    HW117828   5.787   2.484   4.938
 5643SOL    HW217829   5.788   2.329   4.989
 5644SOL     OW17830   2.970   0.178   5.965
 5644SOL    HW117831   3.065   0.170   5.996
 5644SOL    HW217832   2.925   0.089   5.973
 5645SOL     OW17833   4.941   3.331   4.705
 5645SOL    HW117834   5.022   3.303   4.757
 5645SOL    HW217835   4.880   3.253   4.692
 5646SOL     OW17836   1.498   4.283   2.852
 5646SOL    HW117837   1.556   4.203   2.867
 5646SOL    HW217838   1.532   4.335   2.774
 5647SOL     OW17839   6.713   6.607   2.538
 5647SOL    HW117840   6.649   6.676   2.573
 5647SOL    HW217841   6.794   6.653   2.501
 5648SOL     OW17842   4.628   6.544   3.527
 5648SOL    HW117843   4.642   6.593   3.613
 5648SOL    HW217844   4.712   6.495   3.502
 5649SOL     OW17845   1.171   6.270   4.557
 5649SOL    HW117846   1.213   6.272   4.467
 5649SOL    HW217847   1.220   6.206   4.616
 5650SOL     OW17848   6.596   4.399   6.905
 5650SOL    HW117849   6.601   4.480   6.963
 5650SOL    HW217850   6.549   4.325   6.954
 5651SOL     OW17851   2.550   0.945   1.496
 5651SOL    HW117852   2.481   0.887   1.452
 5651SOL    HW217853   2.529   1.041   1.478
 5652SOL     OW17854   0.820   5.740   1.541
 5652SOL    HW117855   0.846   5.834   1.559
 5652SOL    HW217856   0.724   5.726   1.565
 5653SOL     OW17857   0.100   0.222   1.879
 5653SOL    HW117858   0.082   0.274   1.962
 5653SOL    HW217859   0.189   0.249   1.841
 5654SOL     OW17860   3.107   5.477   4.313
 5654SOL    HW117861   3.024   5.421   4.312
 5654SOL    HW217862   3.106   5.538   4.392
 5655SOL     OW17863   6.324   2.464   5.190
 5655SOL    HW117864   6.395   2.434   5.126
 5655SOL    HW217865   6.295   2.386   5.245
 5656SOL     OW17866   6.437   3.526   0.364
 5656SOL    HW117867   6.433   3.610   0.418
 5656SOL    HW217868   6.393   3.542   0.275
 5657SOL     OW17869   5.178   5.679   5.074
 5657SOL    HW117870   5.166   5.581   5.061
 5657SOL    HW217871   5.097   5.727   5.042
 5658SOL     OW17872   2.175   3.033   6.190
 5658SOL    HW117873   2.127   3.121   6.192
 5658SOL    HW217874   2.167   2.988   6.279
 5659SOL     OW17875   2.945   3.762   6.858
 5659SOL    HW117876   2.984   3.852   6.881
 5659SOL    HW217877   2.950   3.748   6.759
 5660SOL     OW17878   4.204   0.512   6.189
 5660SOL    HW117879   4.247   0.425   6.167
 5660SOL    HW217880   4.185   0.562   6.105
 5661SOL     OW17881   1.512   5.237   5.945
 5661SOL    HW117882   1.607   5.205   5.950
 5661SOL    HW217883   1.509   5.335   5.963
 5662SOL     OW17884   3.217   7.010   1.127
 5662SOL    HW117885   3.225   0.018   1.220
 5662SOL    HW217886   3.300   6.960   1.102
 5663SOL     OW17887   1.330   3.168   6.359
 5663SOL    HW117888   1.426   3.160   6.386
 5663SOL    HW217889   1.273   3.115   6.422
 5664SOL     OW17890   4.445   4.922   4.572
 5664SOL    HW117891   4.396   4.877   4.497
 5664SOL    HW217892   4.476   4.853   4.637
 5665SOL     OW17893   1.572   1.594   1.048
 5665SOL    HW117894   1.493   1.655   1.052
 5665SOL    HW217895   1.568   1.539   0.965
 5666SOL     OW17896   5.792   1.855   4.894
 5666SOL    HW117897   5.719   1.923   4.899
 5666SOL    HW217898   5.880   1.901   4.906
 5667SOL     OW17899   2.596   5.021   4.545
 5667SOL    HW117900   2.667   5.008   4.614
 5667SOL    HW217901   2.603   4.948   4.476
 5668SOL     OW17902   4.720   4.168   3.703
 5668SOL    HW117903   4.757   4.224   3.776
 5668SOL    HW217904   4.712   4.223   3.619
 5669SOL     OW17905   5.977   4.231   5.761
 5669SOL    HW117906   5.900   4.168   5.747
 5669SOL    HW217907   5.992   4.243   5.860
 5670SOL     OW17908   1.414   2.467   3.399
 5670SOL    HW117909   1.453   2.559   3.395
 5670SOL    HW217910   1.441   2.423   3.485
 5671SOL     OW17911   0.098   6.303   3.680
 5671SOL    HW117912   0.040   6.361   3.624
 5671SOL    HW217913   0.082   6.207   3.658
 5672SOL     OW17914   5.170   2.818   4.565
 5672SOL    HW117915   5.160   2.765   4.649
 5672SOL    HW217916   5.084   2.863   4.543
 5673SOL     OW17917   0.747   1.273   0.739
 5673SOL    HW117918   0.666   1.256   0.684
 5673SOL    HW217919   0.814   1.200   0.724
 5674SOL     OW17920   2.401   4.574   5.063
 5674SOL    HW117921   2.342   4.648   5.094
 5674SOL    HW217922   2.494   4.608   5.050
 5675SOL     OW17923   2.871   1.869   0.891
 5675SOL    HW117924   2.884   1.804   0.816
 5675SOL    HW217925   2.960   1.897   0.926
 5676SOL     OW17926   2.498   1.422   2.409
 5676SOL    HW117927   2.479   1.376   2.323
 5676SOL    HW217928   2.436   1.389   2.480
 5677SOL     OW17929   6.547   1.533   0.190
 5677SOL    HW117930   6.638   1.547   0.151
 5677SOL    HW217931   6.556   1.513   0.288
 5678SOL     OW17932   3.384   2.087   2.003
 5678SOL    HW117933   3.360   2.112   1.909
 5678SOL    HW217934   3.445   2.157   2.041
 5679SOL     OW17935   6.672   3.121   4.884
 5679SOL    HW117936   6.635   3.178   4.958
 5679SOL    HW217937   6.598   3.068   4.842
 5680SOL     OW17938   0.978   5.658   4.734
 5680SOL    HW117939   0.929   5.671   4.821
 5680SOL    HW217940   1.076   5.670   4.749
 5681SOL     OW17941   1.107   3.858   4.359
 5681SOL    HW117942   1.026   3.887   4.307
 5681SOL    HW217943   1.078   3.799   4.435
 5682SOL     OW17944   2.363   4.597   1.473
 5682SOL    HW117945   2.410   4.640   1.550
 5682SOL    HW217946   2.276   4.558   1.504
 5683SOL     OW17947   6.179   0.638   5.818
 5683SOL    HW117948   6.242   0.696   5.767
 5683SOL    HW217949   6.230   0.575   5.876
 5684SOL     OW17950   2.372   2.710   5.036
 5684SOL    HW117951   2.456   2.655   5.031
 5684SOL    HW217952   2.395   2.807   5.024
 5685SOL     OW17953   2.446   1.859   2.305
 5685SOL    HW117954   2.493   1.936   2.262
 5685SOL    HW217955   2.503   1.778   2.299
 5686SOL     OW17956   4.179   5.532   6.116
 5686SOL    HW117957   4.113   5.604   6.137
 5686SOL    HW217958   4.178   5.463   6.189
 5687SOL     OW17959   1.891   6.443   6.347
 5687SOL    HW117960   1.858   6.470   6.437
 5687SOL    HW217961   1.983   6.479   6.332
 5688SOL     OW17962   1.993   2.013   2.824
 5688SOL    HW117963   2.023   2.022   2.919
 5688SOL    HW217964   1.994   2.103   2.779
 5689SOL     OW17965   0.310   2.713   1.694
 5689SOL    HW117966   0.374   2.649   1.653
 5689SOL    HW217967   0.224   2.712   1.642
 5690SOL     OW17968   2.020   5.224   0.003
 5690SOL    HW117969   2.017   5.211   6.930
 5690SOL    HW217970   1.953   5.294   0.029
 5691SOL     OW17971   3.833   1.495   3.126
 5691SOL    HW117972   3.914   1.438   3.136
 5691SOL    HW217973   3.838   1.548   3.042
 5692SOL     OW17974   5.333   4.874   2.120
 5692SOL    HW117975   5.309   4.971   2.124
 5692SOL    HW217976   5.274   4.823   2.182
 5693SOL     OW17977   4.207   0.947   1.422
 5693SOL    HW117978   4.152   0.934   1.340
 5693SOL    HW217979   4.275   1.019   1.406
 5694SOL     OW17980   1.157   0.073   1.372
 5694SOL    HW117981   1.129   0.118   1.287
 5694SOL    HW217982   1.170   7.001   1.354
 5695SOL     OW17983   2.383   0.569   1.722
 5695SOL    HW117984   2.386   0.668   1.728
 5695SOL    HW217985   2.288   0.538   1.732
 5696SOL     OW17986   1.508   0.249   4.322
 5696SOL    HW117987   1.561   0.217   4.401
 5696SOL    HW217988   1.450   0.175   4.290
 5697SOL     OW17989   6.535   3.313   1.005
 5697SOL    HW117990   6.455   3.286   1.058
 5697SOL    HW217991   6.617   3.271   1.044
 5698SOL     OW17992   3.150   1.945   4.306
 5698SOL    HW117993   3.196   1.870   4.354
 5698SOL    HW217994   3.080   1.985   4.365
 5699SOL     OW17995   1.942   2.898   2.585
 5699SOL    HW117996   2.004   2.964   2.543
 5699SOL    HW217997   1.991   2.811   2.598
 5700SOL     OW17998   6.272   0.268   3.129
 5700SOL    HW117999   6.196   0.208   3.107
 5700SOL    HW218000   6.321   0.293   3.045
 5701SOL     OW18001   0.318   0.155   0.934
 5701SOL    HW118002   0.364   0.186   0.851
 5701SOL    HW218003   0.386   0.119   0.998
 5702SOL     OW18004   2.398   6.991   4.985
 5702SOL    HW118005   2.411   6.992   4.886
 5702SOL    HW218006   2.310   6.947   5.006
 5703SOL     OW18007   0.558   3.299   6.244
 5703SOL    HW118008   0.646   3.282   6.200
 5703SOL    HW218009   0.554   3.394   6.276
 5704SOL     OW18010   3.939   5.651   4.362
 5704SOL    HW118011   3.914   5.560   4.394
 5704SOL    HW218012   3.857   5.698   4.328
 5705SOL     OW18013   6.390   0.513   5.580
 5705SOL    HW118014   6.321   0.484   5.647
 5705SOL    HW218015   6.386   0.612   5.570
 5706SOL     OW18016   4.804   2.023   0.187
 5706SOL    HW118017   4.785   2.016   0.089
 5706SOL    HW218018   4.800   1.932   0.228
 5707SOL     OW18019   5.391   5.705   1.813
 5707SOL    HW118020   5.318   5.770   1.837
 5707SOL    HW218021   5.358   5.612   1.824
 5708SOL     OW18022   5.296   6.511   2.290
 5708SOL    HW118023   5.263   6.490   2.198
 5708SOL    HW218024   5.249   6.593   2.323
 5709SOL     OW18025   0.503   2.197   2.482
 5709SOL    HW118026   0.503   2.217   2.384
 5709SOL    HW218027   0.450   2.267   2.530
 5710SOL     OW18028   3.383   2.329   0.667
 5710SOL    HW118029   3.392   2.246   0.612
 5710SOL    HW218030   3.461   2.336   0.730
 5711SOL     OW18031   5.514   2.094   2.933
 5711SOL    HW118032   5.439   2.029   2.941
 5711SOL    HW218033   5.495   2.158   2.859
 5712SOL     OW18034   6.635   0.221   0.586
 5712SOL    HW118035   6.537   0.216   0.603
 5712SOL    HW218036   6.685   0.179   0.662
 5713SOL     OW18037   2.369   0.990   0.427
 5713SOL    HW118038   2.345   1.014   0.521
 5713SOL    HW218039   2.402   0.896   0.424
 5714SOL     OW18040   6.289   0.262   0.862
 5714SOL    HW118041   6.294   0.357   0.832
 5714SOL    HW218042   6.224   0.255   0.938
 5715SOL     OW18043   0.357   0.296   1.798
 5715SOL    HW118044   0.434   0.239   1.771
 5715SOL    HW218045   0.384   0.392   1.792
 5716SOL     OW18046   6.022   4.577   4.996
 5716SOL    HW118047   6.046   4.513   4.923
 5716SOL    HW218048   6.095   4.644   5.008
 5717SOL     OW18049   1.634   5.248   3.347
 5717SOL    HW118050   1.654   5.346   3.349
 5717SOL    HW218051   1.535   5.234   3.337
 5718SOL     OW18052   1.012   3.231   6.956
 5718SOL    HW118053   1.029   3.317   7.004
 5718SOL    HW218054   0.959   3.170   7.015
 5719SOL     OW18055   2.267   3.226   0.708
 5719SOL    HW118056   2.257   3.154   0.640
 5719SOL    HW218057   2.344   3.285   0.684
 5720SOL     OW18058   2.959   4.960   5.796
 5720SOL    HW118059   2.966   4.864   5.822
 5720SOL    HW218060   2.865   4.981   5.770
 5721SOL     OW18061   1.767   3.123   6.884
 5721SOL    HW118062   1.677   3.128   6.928
 5721SOL    HW218063   1.799   3.215   6.862
 5722SOL     OW18064   1.332   0.362   6.827
 5722SOL    HW118065   1.321   0.398   6.734
 5722SOL    HW218066   1.414   0.402   6.868
 5723SOL     OW18067   3.769   3.138   0.840
 5723SOL    HW118068   3.824   3.055   0.847
 5723SOL    HW218069   3.829   3.218   0.844
 5724SOL     OW18070   5.285   2.353   5.611
 5724SOL    HW118071   5.352   2.319   5.677
 5724SOL    HW218072   5.225   2.279   5.583
 5725SOL     OW18073   0.285   4.328   4.850
 5725SOL    HW118074   0.250   4.420   4.833
 5725SOL    HW218075   0.351   4.304   4.778
 5726SOL     OW18076   5.864   4.150   2.768
 5726SOL    HW118077   5.888   4.167   2.672
 5726SOL    HW218078   5.788   4.084   2.772
 5727SOL     OW18079   0.495   2.053   5.280
 5727SOL    HW118080   0.584   2.076   5.319
 5727SOL    HW218081   0.479   1.955   5.289
 5728SOL     OW18082   4.705   6.977   5.035
 5728SOL    HW118083   4.671   6.883   5.037
 5728SOL    HW218084   4.743   7.000   5.124
 5729SOL     OW18085   2.829   2.280   4.481
 5729SOL    HW118086   2.900   2.240   4.540
 5729SOL    HW218087   2.790   2.360   4.526
 5730SOL     OW18088   7.011   4.317   4.716
 5730SOL    HW118089   7.019   4.374   4.798
 5730SOL    HW218090   0.075   4.285   4.689
 5731SOL     OW18091   1.065   0.012   2.901
 5731SOL    HW118092   1.115   0.046   2.981
 5731SOL    HW218093   1.125   6.982   2.845
 5732SOL     OW18094   0.060   0.239   3.235
 5732SOL    HW118095   0.027   0.212   3.145
 5732SOL    HW218096   0.105   0.328   3.229
 5733SOL     OW18097   3.347   6.876   5.795
 5733SOL    HW118098   3.361   6.956   5.736
 5733SOL    HW218099   3.332   6.795   5.738
 5734SOL     OW18100   1.730   6.819   3.780
 5734SOL    HW118101   1.753   6.902   3.830
 5734SOL    HW218102   1.695   6.844   3.689
 5735SOL     OW18103   2.945   0.974   2.051
 5735SOL    HW118104   2.928   1.067   2.084
 5735SOL    HW218105   2.874   0.949   1.985
 5736SOL     OW18106   1.589   5.470   6.861
 5736SOL    HW118107   1.662   5.501   6.801
 5736SOL    HW218108   1.549   5.386   6.824
 5737SOL     OW18109   5.259   4.273   0.696
 5737SOL    HW118110   5.194   4.202   0.671
 5737SOL    HW218111   5.212   4.346   0.745
 5738SOL     OW18112   1.350   4.179   5.869
 5738SOL    HW118113   1.295   4.097   5.885
 5738SOL    HW218114   1.304   4.238   5.803
 5739SOL     OW18115   1.194   1.994   1.494
 5739SOL    HW118116   1.158   1.906   1.463
 5739SOL    HW218117   1.211   1.990   1.592
 5740SOL     OW18118   3.874   5.918   6.455
 5740SOL    HW118119   3.850   5.936   6.550
 5740SOL    HW218120   3.856   5.822   6.433
 5741SOL     OW18121   6.864   4.634   2.375
 5741SOL    HW118122   6.888   4.557   2.434
 5741SOL    HW218123   6.918   4.714   2.402
 5742SOL     OW18124   6.544   6.210   4.347
 5742SOL    HW118125   6.524   6.294   4.396
 5742SOL    HW218126   6.467   6.188   4.286
 5743SOL     OW18127   1.643   6.439   4.155
 5743SOL    HW118128   1.633   6.487   4.068
 5743SOL    HW218129   1.588   6.484   4.225
 5744SOL     OW18130   5.843   0.017   1.998
 5744SOL    HW118131   5.850   6.988   2.081
 5744SOL    HW218132   5.927   0.069   1.986
 5745SOL     OW18133   1.552   2.451   3.726
 5745SOL    HW118134   1.462   2.412   3.744
 5745SOL    HW218135   1.622   2.382   3.745
 5746SOL     OW18136   6.375   4.874   6.848
 5746SOL    HW118137   6.466   4.850   6.882
 5746SOL    HW218138   6.314   4.891   6.925
 5747SOL     OW18139   0.768   6.431   2.752
 5747SOL    HW118140   0.807   6.511   2.796
 5747SOL    HW218141   0.748   6.452   2.656
 5748SOL     OW18142   2.297   6.265   3.878
 5748SOL    HW118143   2.237   6.327   3.829
 5748SOL    HW218144   2.302   6.177   3.830
 5749SOL     OW18145   2.623   1.282   2.810
 5749SOL    HW118146   2.554   1.213   2.787
 5749SOL    HW218147   2.625   1.296   2.909
 5750SOL     OW18148   6.062   5.749   2.323
 5750SOL    HW118149   6.045   5.689   2.402
 5750SOL    HW218150   6.011   5.834   2.334
 5751SOL     OW18151   1.261   2.908   6.304
 5751SOL    HW118152   1.327   2.854   6.253
 5751SOL    HW218153   1.287   3.005   6.300
 5752SOL     OW18154   0.212   1.279   0.024
 5752SOL    HW118155   0.293   1.246   0.074
 5752SOL    HW218156   0.240   1.350   6.986
 5753SOL     OW18157   4.619   1.996   0.862
 5753SOL    HW118158   4.570   1.988   0.949
 5753SOL    HW218159   4.587   1.925   0.799
 5754SOL     OW18160   6.244   5.013   0.599
 5754SOL    HW118161   6.227   4.999   0.502
 5754SOL    HW218162   6.198   5.097   0.630
 5755SOL     OW18163   3.086   3.525   1.382
 5755SOL    HW118164   3.064   3.618   1.355
 5755SOL    HW218165   3.030   3.499   1.460
 5756SOL     OW18166   6.590   6.746   4.481
 5756SOL    HW118167   6.613   6.726   4.385
 5756SOL    HW218168   6.633   6.833   4.508
 5757SOL     OW18169   0.170   6.584   2.206
 5757SOL    HW118170   0.140   6.535   2.124
 5757SOL    HW218171   0.192   6.678   2.183
 5758SOL     OW18172   1.853   1.207   5.667
 5758SOL    HW118173   1.837   1.247   5.757
 5758SOL    HW218174   1.949   1.179   5.660
 5759SOL     OW18175   0.084   1.666   5.464
 5759SOL    HW118176   0.123   1.584   5.424
 5759SOL    HW218177   0.055   1.728   5.391
 5760SOL     OW18178   1.181   5.188   2.011
 5760SOL    HW118179   1.172   5.119   1.940
 5760SOL    HW218180   1.148   5.152   2.098
 5761SOL     OW18181   5.628   0.652   4.143
 5761SOL    HW118182   5.597   0.703   4.224
 5761SOL    HW218183   5.567   0.670   4.066
 5762SOL     OW18184   5.776   6.489   1.621
 5762SOL    HW118185   5.685   6.451   1.631
 5762SOL    HW218186   5.843   6.415   1.613
 5763SOL     OW18187   0.924   1.297   1.481
 5763SOL    HW118188   1.008   1.339   1.515
 5763SOL    HW218189   0.909   1.326   1.387
 5764SOL     OW18190   4.337   2.744   5.923
 5764SOL    HW118191   4.368   2.689   5.846
 5764SOL    HW218192   4.320   2.684   6.002
 5765SOL     OW18193   6.593   5.549   0.413
 5765SOL    HW118194   6.649   5.476   0.452
 5765SOL    HW218195   6.638   5.586   0.332
 5766SOL     OW18196   3.223   1.009   3.108
 5766SOL    HW118197   3.169   1.068   3.049
 5766SOL    HW218198   3.278   1.065   3.170
 5767SOL     OW18199   6.256   0.752   0.866
 5767SOL    HW118200   6.270   0.824   0.797
 5767SOL    HW218201   6.257   0.663   0.821
 5768SOL     OW18202   6.243   1.045   2.255
 5768SOL    HW118203   6.158   1.049   2.202
 5768SOL    HW218204   6.222   1.030   2.351
 5769SOL     OW18205   2.056   5.467   3.690
 5769SOL    HW118206   1.996   5.447   3.767
 5769SOL    HW218207   2.125   5.533   3.717
 5770SOL     OW18208   5.917   1.601   1.674
 5770SOL    HW118209   5.922   1.627   1.771
 5770SOL    HW218210   5.857   1.522   1.664
 5771SOL     OW18211   0.363   1.074   0.995
 5771SOL    HW118212   0.391   1.053   0.901
 5771SOL    HW218213   0.367   1.172   1.010
 5772SOL     OW18214   6.960   4.377   6.400
 5772SOL    HW118215   6.906   4.311   6.452
 5772SOL    HW218216   6.934   4.470   6.426
 5773SOL     OW18217   4.950   5.795   4.961
 5773SOL    HW118218   4.910   5.791   5.053
 5773SOL    HW218219   4.892   5.742   4.898
 5774SOL     OW18220   2.861   4.755   2.904
 5774SOL    HW118221   2.823   4.843   2.933
 5774SOL    HW218222   2.793   4.706   2.850
 5775SOL     OW18223   0.582   0.604   0.350
 5775SOL    HW118224   0.677   0.614   0.322
 5775SOL    HW218225   0.526   0.671   0.301
 5776SOL     OW18226   4.783   1.043   5.915
 5776SOL    HW118227   4.875   1.043   5.955
 5776SOL    HW218228   4.775   0.966   5.850
 5777SOL     OW18229   5.485   0.705   5.504
 5777SOL    HW118230   5.578   0.720   5.538
 5777SOL    HW218231   5.436   0.645   5.566
 5778SOL     OW18232   2.841   6.447   3.981
 5778SOL    HW118233   2.834   6.546   3.998
 5778SOL    HW218234   2.936   6.422   3.964
 5779SOL     OW18235   4.696   0.119   1.048
 5779SOL    HW118236   4.655   0.040   1.001
 5779SOL    HW218237   4.687   0.200   0.990
 5780SOL     OW18238   5.930   3.951   0.693
 5780SOL    HW118239   5.939   3.876   0.627
 5780SOL    HW218240   6.021   3.984   0.719
 5781SOL     OW18241   3.062   4.542   5.432
 5781SOL    HW118242   3.029   4.495   5.350
 5781SOL    HW218243   3.112   4.624   5.405
 5782SOL     OW18244   4.098   1.851   3.221
 5782SOL    HW118245   4.057   1.934   3.184
 5782SOL    HW218246   4.031   1.801   3.276
 5783SOL     OW18247   2.580   6.970   1.957
 5783SOL    HW118248   2.563   6.878   1.921
 5783SOL    HW218249   2.494   7.010   1.989
 5784SOL     OW18250   1.122   5.620   7.010
 5784SOL    HW118251   1.151   5.612   6.914
 5784SOL    HW218252   1.182   5.564   0.041
 5785SOL     OW18253   1.927   1.793   6.609
 5785SOL    HW118254   1.956   1.758   6.698
 5785SOL    HW218255   1.830   1.773   6.595
 5786SOL     OW18256   0.640   2.556   6.197
 5786SOL    HW118257   0.733   2.566   6.163
 5786SOL    HW218258   0.626   2.464   6.233
 5787SOL     OW18259   0.087   2.951   5.589
 5787SOL    HW118260   0.017   2.889   5.625
 5787SOL    HW218261   0.178   2.914   5.607
 5788SOL     OW18262   0.905   2.495   1.970
 5788SOL    HW118263   0.951   2.582   1.989
 5788SOL    HW218264   0.824   2.487   2.027
 5789SOL     OW18265   2.999   4.804   6.692
 5789SOL    HW118266   2.919   4.856   6.723
 5789SOL    HW218267   3.037   4.754   6.770
 5790SOL     OW18268   6.547   6.238   2.834
 5790SOL    HW118269   6.562   6.335   2.812
 5790SOL    HW218270   6.451   6.223   2.855
 5791SOL     OW18271   4.002   0.927   1.227
 5791SOL    HW118272   3.981   0.858   1.158
 5791SOL    HW218273   3.918   0.957   1.271
 5792SOL     OW18274   4.292   2.112   2.545
 5792SOL    HW118275   4.358   2.133   2.617
 5792SOL    HW218276   4.332   2.133   2.456
 5793SOL     OW18277   3.726   1.810   0.220
 5793SOL    HW118278   3.813   1.826   0.267
 5793SOL    HW218279   3.744   1.782   0.126
 5794SOL     OW18280   3.586   6.066   6.509
 5794SOL    HW118281   3.685   6.057   6.517
 5794SOL    HW218282   3.541   6.011   6.580
 5795SOL     OW18283   1.028   0.010   1.098
 5795SOL    HW118284   1.088   6.981   1.040
 5795SOL    HW218285   1.011   0.098   1.054
 5796SOL     OW18286   4.716   1.080   6.370
 5796SOL    HW118287   4.681   1.157   6.424
 5796SOL    HW218288   4.766   1.017   6.429
 5797SOL     OW18289   0.022   2.653   7.014
 5797SOL    HW118290   7.021   2.622   0.079
 5797SOL    HW218291   6.983   2.722   6.982
 5798SOL     OW18292   1.995   2.763   4.327
 5798SOL    HW118293   1.991   2.851   4.375
 5798SOL    HW218294   1.942   2.695   4.378
 5799SOL     OW18295   2.778   0.169   3.573
 5799SOL    HW118296   2.811   0.228   3.500
 5799SOL    HW218297   2.827   0.082   3.571
 5800SOL     OW18298   1.043   6.919   2.293
 5800SOL    HW118299   1.066   6.822   2.301
 5800SOL    HW218300   1.122   6.973   2.321
 5801SOL     OW18301   1.759   1.462   2.770
 5801SOL    HW118302   1.815   1.537   2.806
 5801SOL    HW218303   1.663   1.480   2.790
 5802SOL     OW18304   0.864   6.958   3.092
 5802SOL    HW118305   0.894   7.019   3.165
 5802SOL    HW218306   0.940   6.945   3.027
 5803SOL     OW18307   0.149   6.360   4.708
 5803SOL    HW118308   0.145   6.422   4.629
 5803SOL    HW218309   0.240   6.319   4.712
 5804SOL     OW18310   6.837   2.112   3.331
 5804SOL    HW118311   6.811   2.136   3.424
 5804SOL    HW218312   6.840   2.012   3.322
 5805SOL     OW18313   1.153   2.839   1.732
 5805SOL    HW118314   1.205   2.923   1.746
 5805SOL    HW218315   1.055   2.859   1.739
 5806SOL     OW18316   6.661   3.963   2.313
 5806SOL    HW118317   6.688   3.912   2.232
 5806SOL    HW218318   6.742   3.982   2.369
 5807SOL     OW18319   0.985   1.346   2.122
 5807SOL    HW118320   1.020   1.407   2.193
 5807SOL    HW218321   0.887   1.334   2.133
 5808SOL     OW18322   0.305   0.549   5.230
 5808SOL    HW118323   0.356   0.543   5.144
 5808SOL    HW218324   0.283   0.457   5.262
 5809SOL     OW18325   6.986   4.007   4.462
 5809SOL    HW118326   0.042   3.966   4.423
 5809SOL    HW218327   6.993   4.009   4.562
 5810SOL     OW18328   1.962   6.353   5.539
 5810SOL    HW118329   1.963   6.253   5.547
 5810SOL    HW218330   2.019   6.381   5.462
 5811SOL     OW18331   4.120   4.813   6.737
 5811SOL    HW118332   4.127   4.863   6.823
 5811SOL    HW218333   4.040   4.753   6.740
 5812SOL     OW18334   6.061   3.476   6.691
 5812SOL    HW118335   6.139   3.440   6.742
 5812SOL    HW218336   6.073   3.457   6.594
 5813SOL     OW18337   5.187   4.476   0.885
 5813SOL    HW118338   5.247   4.437   0.955
 5813SOL    HW218339   5.191   4.576   0.889
 5814SOL     OW18340   6.272   0.995   2.561
 5814SOL    HW118341   6.351   0.971   2.617
 5814SOL    HW218342   6.251   1.092   2.572
 5815SOL     OW18343   6.680   3.356   4.571
 5815SOL    HW118344   6.742   3.352   4.492
 5815SOL    HW218345   6.678   3.449   4.607
 5816SOL     OW18346   6.868   3.995   1.719
 5816SOL    HW118347   6.858   4.049   1.802
 5816SOL    HW218348   6.814   4.036   1.645
 5817SOL     OW18349   6.661   2.639   3.854
 5817SOL    HW118350   6.730   2.696   3.810
 5817SOL    HW218351   6.588   2.698   3.890
 5818SOL     OW18352   2.919   0.721   4.782
 5818SOL    HW118353   2.873   0.638   4.813
 5818SOL    HW218354   2.911   0.727   4.682
 5819SOL     OW18355   4.346   4.152   1.005
 5819SOL    HW118356   4.360   4.071   0.948
 5819SOL    HW218357   4.247   4.167   1.016
 5820SOL     OW18358   6.828   7.008   3.123
 5820SOL    HW118359   6.912   6.955   3.110
 5820SOL    HW218360   6.809   7.016   3.221
 5821SOL     OW18361   6.551   6.791   1.866
 5821SOL    HW118362   6.482   6.818   1.798
 5821SOL    HW218363   6.640   6.826   1.839
 5822SOL     OW18364   0.451   3.915   2.297
 5822SOL    HW118365   0.510   3.991   2.323
 5822SOL    HW218366   0.492   3.865   2.221
 5823SOL     OW18367   2.142   6.837   5.028
 5823SOL    HW118368   2.168   6.764   4.965
 5823SOL    HW218369   2.042   6.844   5.031
 5824SOL     OW18370   2.065   6.520   2.390
 5824SOL    HW118371   2.157   6.503   2.354
 5824SOL    HW218372   2.031   6.437   2.435
 5825SOL     OW18373   4.471   1.948   4.827
 5825SOL    HW118374   4.411   1.948   4.907
 5825SOL    HW218375   4.415   1.941   4.744
 5826SOL     OW18376   1.496   6.314   5.042
 5826SOL    HW118377   1.399   6.315   5.066
 5826SOL    HW218378   1.546   6.257   5.108
 5827SOL     OW18379   2.159   3.703   3.021
 5827SOL    HW118380   2.078   3.649   3.044
 5827SOL    HW218381   2.237   3.642   3.008
 5828SOL     OW18382   4.771   0.229   5.831
 5828SOL    HW118383   4.688   0.182   5.799
 5828SOL    HW218384   4.805   0.183   5.912
 5829SOL     OW18385   2.384   0.349   3.236
 5829SOL    HW118386   2.286   0.330   3.238
 5829SOL    HW218387   2.420   0.329   3.145
 5830SOL     OW18388   4.046   5.171   4.431
 5830SOL    HW118389   4.116   5.226   4.476
 5830SOL    HW218390   3.960   5.178   4.482
 5831SOL     OW18391   2.376   2.693   4.730
 5831SOL    HW118392   2.303   2.698   4.798
 5831SOL    HW218393   2.456   2.647   4.769
 5832SOL     OW18394   2.850   5.674   3.667
 5832SOL    HW118395   2.911   5.657   3.745
 5832SOL    HW218396   2.755   5.667   3.698
 5833SOL     OW18397   3.425   5.217   0.730
 5833SOL    HW118398   3.463   5.294   0.781
 5833SOL    HW218399   3.399   5.247   0.638
 5834SOL     OW18400   6.730   2.878   6.334
 5834SOL    HW118401   6.653   2.888   6.270
 5834SOL    HW218402   6.698   2.898   6.427
 5835SOL     OW18403   4.410   1.675   3.458
 5835SOL    HW118404   4.394   1.763   3.413
 5835SOL    HW218405   4.344   1.608   3.425
 5836SOL     OW18406   4.976   6.044   1.262
 5836SOL    HW118407   4.926   6.049   1.175
 5836SOL    HW218408   4.924   6.092   1.332
 5837SOL     OW18409   3.165   4.435   6.957
 5837SOL    HW118410   3.108   4.380   6.896
 5837SOL    HW218411   3.166   4.394   0.022
 5838SOL     OW18412   3.348   3.437   6.831
 5838SOL    HW118413   3.334   3.515   6.893
 5838SOL    HW218414   3.298   3.357   6.867
 5839SOL     OW18415   2.097   1.533   0.398
 5839SOL    HW118416   2.161   1.472   0.350
 5839SOL    HW218417   2.004   1.515   0.365
 5840SOL     OW18418   1.005   3.777   3.010
 5840SOL    HW118419   1.077   3.847   3.012
 5840SOL    HW218420   1.004   3.734   2.919
 5841SOL     OW18421   5.238   1.604   0.804
 5841SOL    HW118422   5.263   1.700   0.812
 5841SOL    HW218423   5.139   1.594   0.815
 5842SOL     OW18424   3.109   2.030   2.062
 5842SOL    HW118425   3.198   2.071   2.042
 5842SOL    HW218426   3.036   2.091   2.030
 5843SOL     OW18427   3.426   3.438   0.487
 5843SOL    HW118428   3.383   3.442   0.396
 5843SOL    HW218429   3.515   3.393   0.480
 5844SOL     OW18430   0.693   5.738   5.345
 5844SOL    HW118431   0.748   5.816   5.374
 5844SOL    HW218432   0.747   5.654   5.355
 5845SOL     OW18433   2.061   6.652   2.812
 5845SOL    HW118434   2.119   6.709   2.870
 5845SOL    HW218435   2.099   6.650   2.720
 5846SOL     OW18436   0.653   4.852   5.574
 5846SOL    HW118437   0.562   4.815   5.590
 5846SOL    HW218438   0.711   4.781   5.534
 5847SOL     OW18439   1.776   4.454   6.681
 5847SOL    HW118440   1.754   4.551   6.690
 5847SOL    HW218441   1.873   4.443   6.660
 5848SOL     OW18442   2.333   0.084   2.027
 5848SOL    HW118443   2.287   0.143   1.960
 5848SOL    HW218444   2.298   7.017   2.020
 5849SOL     OW18445   2.810   5.734   6.623
 5849SOL    HW118446   2.790   5.647   6.577
 5849SOL    HW218447   2.735   5.798   6.608
 5850SOL     OW18448   6.728   1.249   1.815
 5850SOL    HW118449   6.735   1.253   1.715
 5850SOL    HW218450   6.811   1.207   1.852
 5851SOL     OW18451   6.894   3.702   4.779
 5851SOL    HW118452   6.879   3.660   4.869
 5851SOL    HW218453   6.970   3.655   4.733
 5852SOL     OW18454   4.736   4.084   2.484
 5852SOL    HW118455   4.770   4.100   2.577
 5852SOL    HW218456   4.719   4.172   2.440
 5853SOL     OW18457   4.744   4.950   0.189
 5853SOL    HW118458   4.771   4.898   0.270
 5853SOL    HW218459   4.803   4.926   0.112
 5854SOL     OW18460   3.231   4.765   5.645
 5854SOL    HW118461   3.157   4.781   5.580
 5854SOL    HW218462   3.193   4.732   5.732
 5855SOL     OW18463   2.423   2.430   3.951
 5855SOL    HW118464   2.483   2.443   4.030
 5855SOL    HW218465   2.463   2.362   3.890
 5856SOL     OW18466   1.006   0.333   3.286
 5856SOL    HW118467   1.105   0.319   3.280
 5856SOL    HW218468   0.988   0.423   3.325
 5857SOL     OW18469   5.807   5.070   6.969
 5857SOL    HW118470   5.728   5.023   6.929
 5857SOL    HW218471   5.890   5.034   6.928
 5858SOL     OW18472   2.141   1.253   2.529
 5858SOL    HW118473   2.113   1.341   2.491
 5858SOL    HW218474   2.152   1.187   2.455
 5859SOL     OW18475   5.195   5.102   1.712
 5859SOL    HW118476   5.292   5.104   1.735
 5859SOL    HW218477   5.144   5.055   1.784
 5860SOL     OW18478   1.077   3.397   2.786
 5860SOL    HW118479   1.133   3.475   2.814
 5860SOL    HW218480   1.094   3.376   2.690
 5861SOL     OW18481   5.532   0.602   5.236
 5861SOL    HW118482   5.525   0.606   5.336
 5861SOL    HW218483   5.625   0.627   5.208
 5862SOL     OW18484   6.896   4.778   3.135
 5862SOL    HW118485   6.804   4.811   3.114
 5862SOL    HW218486   6.961   4.813   3.067
 5863SOL     OW18487   4.351   6.837   5.777
 5863SOL    HW118488   4.278   6.901   5.799
 5863SOL    HW218489   4.411   6.877   5.707
 5864SOL     OW18490   4.117   3.282   2.671
 5864SOL    HW118491   4.134   3.322   2.761
 5864SOL    HW218492   4.074   3.192   2.683
 5865SOL     OW18493   6.569   0.189   1.001
 5865SOL    HW118494   6.520   0.273   0.979
 5865SOL    HW218495   6.504   0.118   1.029
 5866SOL     OW18496   3.804   3.295   3.074
 5866SOL    HW118497   3.843   3.386   3.086
 5866SOL    HW218498   3.792   3.275   2.977
 5867SOL     OW18499   3.236   1.660   1.348
 5867SOL    HW118500   3.256   1.756   1.369
 5867SOL    HW218501   3.282   1.634   1.263
 5868SOL     OW18502   1.520   0.518   0.627
 5868SOL    HW118503   1.496   0.605   0.585
 5868SOL    HW218504   1.619   0.506   0.626
 5869SOL     OW18505   1.641   5.737   2.884
 5869SOL    HW118506   1.565   5.729   2.819
 5869SOL    HW218507   1.718   5.782   2.840
 5870SOL     OW18508   4.507   0.429   3.625
 5870SOL    HW118509   4.547   0.508   3.578
 5870SOL    HW218510   4.488   0.357   3.559
 5871SOL     OW18511   4.143   3.342   4.259
 5871SOL    HW118512   4.241   3.340   4.278
 5871SOL    HW218513   4.128   3.332   4.160
 5872SOL     OW18514   4.448   5.892   1.088
 5872SOL    HW118515   4.524   5.909   1.025
 5872SOL    HW218516   4.413   5.799   1.074
 5873SOL     OW18517   3.811   6.035   2.316
 5873SOL    HW118518   3.897   6.041   2.366
 5873SOL    HW218519   3.796   5.941   2.287
 5874SOL     OW18520   0.699   4.838   5.196
 5874SOL    HW118521   0.780   4.888   5.226
 5874SOL    HW218522   0.617   4.889   5.224
 5875SOL     OW18523   3.737   1.843   0.778
 5875SOL    HW118524   3.684   1.798   0.706
 5875SOL    HW218525   3.689   1.834   0.865
 5876SOL     OW18526   3.138   3.411   2.202
 5876SOL    HW118527   3.101   3.396   2.111
 5876SOL    HW218528   3.229   3.451   2.195
 5877SOL     OW18529   5.264   4.282   1.703
 5877SOL    HW118530   5.230   4.373   1.728
 5877SOL    HW218531   5.302   4.285   1.611
 5878SOL     OW18532   1.746   3.658   2.490
 5878SOL    HW118533   1.670   3.640   2.552
 5878SOL    HW218534   1.832   3.648   2.541
 5879SOL     OW18535   1.656   3.718   3.940
 5879SOL    HW118536   1.610   3.653   4.000
 5879SOL    HW218537   1.729   3.764   3.991
 5880SOL     OW18538   3.769   6.012   0.292
 5880SOL    HW118539   3.734   6.105   0.304
 5880SOL    HW218540   3.699   5.955   0.249
 5881SOL     OW18541   1.436   6.086   4.244
 5881SOL    HW118542   1.363   6.072   4.177
 5881SOL    HW218543   1.462   5.998   4.284
 5882SOL     OW18544   5.188   0.685   2.856
 5882SOL    HW118545   5.230   0.668   2.767
 5882SOL    HW218546   5.218   0.615   2.921
 5883SOL     OW18547   0.983   3.629   5.560
 5883SOL    HW118548   0.981   3.700   5.490
 5883SOL    HW218549   0.889   3.599   5.579
 5884SOL     OW18550   0.692   0.591   3.370
 5884SOL    HW118551   0.681   0.677   3.321
 5884SOL    HW218552   0.640   0.519   3.324
 5885SOL     OW18553   5.900   6.420   1.030
 5885SOL    HW118554   5.834   6.477   0.982
 5885SOL    HW218555   5.945   6.474   1.101
 5886SOL     OW18556   6.557   1.560   6.329
 5886SOL    HW118557   6.591   1.488   6.390
 5886SOL    HW218558   6.471   1.595   6.365
 5887SOL     OW18559   4.067   5.775   2.735
 5887SOL    HW118560   4.027   5.774   2.826
 5887SOL    HW218561   3.995   5.786   2.667
 5888SOL     OW18562   6.945   0.338   2.721
 5888SOL    HW118563   6.870   0.385   2.767
 5888SOL    HW218564   6.908   0.282   2.646
 5889SOL     OW18565   2.277   7.013   6.507
 5889SOL    HW118566   2.359   6.957   6.502
 5889SOL    HW218567   2.226   7.006   6.421
 5890SOL     OW18568   3.801   4.653   5.951
 5890SOL    HW118569   3.868   4.669   5.879
 5890SOL    HW218570   3.711   4.682   5.919
 5891SOL     OW18571   2.168   3.621   6.333
 5891SOL    HW118572   2.164   3.610   6.234
 5891SOL    HW218573   2.263   3.631   6.362
 5892SOL     OW18574   2.023   6.306   2.605
 5892SOL    HW118575   1.946   6.254   2.644
 5892SOL    HW218576   2.078   6.344   2.679
 5893SOL     OW18577   1.957   1.725   3.144
 5893SOL    HW118578   1.960   1.626   3.131
 5893SOL    HW218579   1.916   1.746   3.232
 5894SOL     OW18580   1.003   3.073   3.747
 5894SOL    HW118581   1.087   3.125   3.753
 5894SOL    HW218582   0.954   3.078   3.834
 5895SOL     OW18583   5.784   4.050   3.427
 5895SOL    HW118584   5.830   4.137   3.444
 5895SOL    HW218585   5.847   3.985   3.385
 5896SOL     OW18586   5.441   2.807   5.686
 5896SOL    HW118587   5.513   2.875   5.705
 5896SOL    HW218588   5.422   2.805   5.588
 5897SOL     OW18589   4.656   5.303   1.053
 5897SOL    HW118590   4.703   5.215   1.065
 5897SOL    HW218591   4.724   5.374   1.037
 5898SOL     OW18592   2.810   6.357   3.110
 5898SOL    HW118593   2.839   6.445   3.149
 5898SOL    HW218594   2.883   6.320   3.053
 5899SOL     OW18595   5.464   0.643   3.707
 5899SOL    HW118596   5.435   0.652   3.612
 5899SOL    HW218597   5.557   0.606   3.710
 5900SOL     OW18598   3.474   5.287   2.204
 5900SOL    HW118599   3.436   5.248   2.120
 5900SOL    HW218600   3.519   5.215   2.256
 5901SOL     OW18601   2.921   6.265   5.004
 5901SOL    HW118602   3.005   6.271   5.059
 5901SOL    HW218603   2.939   6.210   4.922
 5902SOL     OW18604   6.005   2.391   6.989
 5902SOL    HW118605   6.017   2.402   6.891
 5902SOL    HW218606   5.980   2.296   7.009
 5903SOL     OW18607   0.183   3.156   6.482
 5903SOL    HW118608   0.095   3.120   6.451
 5903SOL    HW218609   0.244   3.168   6.403
 5904SOL     OW18610   1.095   3.324   2.520
 5904SOL    HW118611   1.120   3.401   2.461
 5904SOL    HW218612   1.040   3.258   2.469
 5905SOL     OW18613   0.081   4.749   2.625
 5905SOL    HW118614   0.093   4.654   2.596
 5905SOL    HW218615   0.047   4.803   2.548
 5906SOL     OW18616   1.021   1.099   2.716
 5906SOL    HW118617   1.062   1.136   2.632
 5906SOL    HW218618   0.964   1.020   2.694
 5907SOL     OW18619   2.198   0.653   2.329
 5907SOL    HW118620   2.119   0.604   2.365
 5907SOL    HW218621   2.268   0.587   2.300
 5908SOL     OW18622   0.385   3.121   5.918
 5908SOL    HW118623   0.346   3.178   5.990
 5908SOL    HW218624   0.360   3.026   5.933
 5909SOL     OW18625   5.708   4.755   0.595
 5909SOL    HW118626   5.755   4.781   0.511
 5909SOL    HW218627   5.773   4.756   0.671
 5910SOL     OW18628   1.614   1.593   3.426
 5910SOL    HW118629   1.655   1.510   3.462
 5910SOL    HW218630   1.662   1.621   3.343
 5911SOL     OW18631   6.414   5.742   6.721
 5911SOL    HW118632   6.496   5.783   6.762
 5911SOL    HW218633   6.421   5.746   6.621
 5912SOL     OW18634   0.368   6.919   3.699
 5912SOL    HW118635   0.393   6.839   3.755
 5912SOL    HW218636   0.296   6.893   3.634
 5913SOL     OW18637   5.616   1.950   0.769
 5913SOL    HW118638   5.606   2.037   0.817
 5913SOL    HW218639   5.709   1.915   0.781
 5914SOL     OW18640   0.883   6.263   0.403
 5914SOL    HW118641   0.904   6.351   0.361
 5914SOL    HW218642   0.956   6.198   0.384
 5915SOL     OW18643   3.556   1.251   6.016
 5915SOL    HW118644   3.472   1.266   6.069
 5915SOL    HW218645   3.559   1.317   5.940
 5916SOL     OW18646   1.005   6.813   1.924
 5916SOL    HW118647   1.070   6.879   1.886
 5916SOL    HW218648   0.930   6.863   1.968
 5917SOL     OW18649   3.375   3.402   0.193
 5917SOL    HW118650   3.312   3.335   0.154
 5917SOL    HW218651   3.434   3.358   0.261
 5918SOL     OW18652   3.088   0.078   4.828
 5918SOL    HW118653   3.073   0.037   4.918
 5918SOL    HW218654   3.079   0.007   4.758
 5919SOL     OW18655   3.275   3.311   4.496
 5919SOL    HW118656   3.188   3.280   4.458
 5919SOL    HW218657   3.329   3.356   4.425
 5920SOL     OW18658   7.021   0.131   5.331
 5920SOL    HW118659   0.015   0.078   5.248
 5920SOL    HW218660   6.959   0.079   5.389
 5921SOL     OW18661   2.951   4.291   6.858
 5921SOL    HW118662   2.952   4.209   6.801
 5921SOL    HW218663   2.900   4.364   6.812
 5922SOL     OW18664   5.575   2.982   2.352
 5922SOL    HW118665   5.510   2.910   2.375
 5922SOL    HW218666   5.581   3.047   2.428
 5923SOL     OW18667   6.195   0.975   3.355
 5923SOL    HW118668   6.216   1.021   3.269
 5923SOL    HW218669   6.102   0.938   3.351
 5924SOL     OW18670   5.469   6.228   3.950
 5924SOL    HW118671   5.372   6.245   3.970
 5924SOL    HW218672   5.492   6.266   3.860
 5925SOL     OW18673   4.197   1.377   1.006
 5925SOL    HW118674   4.098   1.393   1.006
 5925SOL    HW218675   4.240   1.437   1.074
 5926SOL     OW18676   5.338   3.879   3.355
 5926SOL    HW118677   5.411   3.901   3.420
 5926SOL    HW218678   5.373   3.818   3.284
 5927SOL     OW18679   0.805   5.421   1.998
 5927SOL    HW118680   0.777   5.517   1.991
 5927SOL    HW218681   0.900   5.416   2.029
 5928SOL     OW18682   2.500   6.674   6.848
 5928SOL    HW118683   2.521   6.757   6.797
 5928SOL    HW218684   2.433   6.694   6.920
 5929SOL     OW18685   0.878   0.634   0.341
 5929SOL    HW118686   0.927   0.576   0.276
 5929SOL    HW218687   0.894   0.601   0.434
 5930SOL     OW18688   1.736   3.872   1.991
 5930SOL    HW118689   1.769   3.807   2.059
 5930SOL    HW218690   1.722   3.825   1.903
 5931SOL     OW18691   5.400   6.607   3.037
 5931SOL    HW118692   5.418   6.539   3.108
 5931SOL    HW218693   5.318   6.579   2.986
 5932SOL     OW18694   3.030   6.935   0.271
 5932SOL    HW118695   3.083   6.852   0.255
 5932SOL    HW218696   3.078   7.014   0.233
 5933SOL     OW18697   5.998   6.553   4.398
 5933SOL    HW118698   6.063   6.536   4.472
 5933SOL    HW218699   6.046   6.598   4.322
 5934SOL     OW18700   2.659   3.172   0.129
 5934SOL    HW118701   2.744   3.166   0.077
 5934SOL    HW218702   2.681   3.200   0.223
 5935SOL     OW18703   1.121   0.374   5.335
 5935SOL    HW118704   1.063   0.313   5.281
 5935SOL    HW218705   1.148   0.452   5.279
 5936SOL     OW18706   3.296   2.829   2.018
 5936SOL    HW118707   3.376   2.784   1.978
 5936SOL    HW218708   3.215   2.805   1.964
 5937SOL     OW18709   0.135   2.745   1.259
 5937SOL    HW118710   0.159   2.768   1.164
 5937SOL    HW218711   0.218   2.720   1.309
 5938SOL     OW18712   0.147   4.296   4.024
 5938SOL    HW118713   0.103   4.381   3.997
 5938SOL    HW218714   0.110   4.266   4.112
 5939SOL     OW18715   4.037   1.678   5.450
 5939SOL    HW118716   3.947   1.681   5.408
 5939SOL    HW218717   4.045   1.751   5.517
 5940SOL     OW18718   5.041   5.607   1.202
 5940SOL    HW118719   4.965   5.652   1.249
 5940SOL    HW218720   5.091   5.550   1.268
 5941SOL     OW18721   0.252   2.320   3.212
 5941SOL    HW118722   0.193   2.252   3.255
 5941SOL    HW218723   0.233   2.324   3.114
 5942SOL     OW18724   4.875   2.770   6.285
 5942SOL    HW118725   4.935   2.691   6.294
 5942SOL    HW218726   4.925   2.844   6.240
 5943SOL     OW18727   2.213   4.764   1.266
 5943SOL    HW118728   2.276   4.710   1.323
 5943SOL    HW218729   2.158   4.702   1.210
 5944SOL     OW18730   6.499   3.301   5.532
 5944SOL    HW118731   6.546   3.388   5.550
 5944SOL    HW218732   6.458   3.303   5.441
 5945SOL     OW18733   6.558   6.408   4.657
 5945SOL    HW118734   6.526   6.454   4.740
 5945SOL    HW218735   6.492   6.423   4.583
 5946SOL     OW18736   1.968   3.804   6.623
 5946SOL    HW118737   1.903   3.780   6.695
 5946SOL    HW218738   1.928   3.782   6.534
 5947SOL     OW18739   3.614   3.535   4.590
 5947SOL    HW118740   3.633   3.511   4.686
 5947SOL    HW218741   3.517   3.556   4.580
 5948SOL     OW18742   4.835   3.322   1.283
 5948SOL    HW118743   4.814   3.417   1.306
 5948SOL    HW218744   4.912   3.290   1.338
 5949SOL     OW18745   0.436   4.140   3.470
 5949SOL    HW118746   0.380   4.095   3.401
 5949SOL    HW218747   0.379   4.202   3.524
 5950SOL     OW18748   3.613   0.446   4.577
 5950SOL    HW118749   3.538   0.498   4.619
 5950SOL    HW218750   3.586   0.351   4.567
 5951SOL     OW18751   6.853   4.301   6.816
 5951SOL    HW118752   6.760   4.323   6.846
 5951SOL    HW218753   6.853   4.278   6.719
 5952SOL     OW18754   4.091   4.454   1.616
 5952SOL    HW118755   4.065   4.369   1.660
 5952SOL    HW218756   4.152   4.506   1.676
 5953SOL     OW18757   0.030   3.453   5.161
 5953SOL    HW118758   0.017   3.549   5.136
 5953SOL    HW218759   0.096   3.447   5.236
 5954SOL     OW18760   2.068   5.692   4.034
 5954SOL    HW118761   2.156   5.676   4.078
 5954SOL    HW218762   1.994   5.673   4.099
 5955SOL     OW18763   4.858   3.302   0.472
 5955SOL    HW118764   4.830   3.348   0.557
 5955SOL    HW218765   4.784   3.307   0.405
 5956SOL     OW18766   5.123   2.995   5.234
 5956SOL    HW118767   5.094   3.087   5.209
 5956SOL    HW218768   5.047   2.946   5.277
 5957SOL     OW18769   6.662   1.246   3.477
 5957SOL    HW118770   6.744   1.293   3.509
 5957SOL    HW218771   6.602   1.227   3.554
 5958SOL     OW18772   3.061   6.155   3.254
 5958SOL    HW118773   3.151   6.197   3.262
 5958SOL    HW218774   3.017   6.187   3.171
 5959SOL     OW18775   5.477   2.288   2.736
 5959SOL    HW118776   5.537   2.315   2.660
 5959SOL    HW218777   5.421   2.366   2.764
 5960SOL     OW18778   4.149   1.176   6.285
 5960SOL    HW118779   4.061   1.169   6.331
 5960SOL    HW218780   4.208   1.240   6.334
 5961SOL     OW18781   2.962   2.260   3.463
 5961SOL    HW118782   2.890   2.193   3.482
 5961SOL    HW218783   2.959   2.285   3.366
 5962SOL     OW18784   4.868   5.106   0.418
 5962SOL    HW118785   4.778   5.126   0.455
 5962SOL    HW218786   4.866   5.113   0.319
 5963SOL     OW18787   2.255   4.087   0.406
 5963SOL    HW118788   2.185   4.033   0.452
 5963SOL    HW218789   2.223   4.181   0.395
 5964SOL     OW18790   2.394   6.889   3.438
 5964SOL    HW118791   2.460   6.816   3.458
 5964SOL    HW218792   2.427   6.975   3.475
 5965SOL     OW18793   2.873   0.548   0.569
 5965SOL    HW118794   2.849   0.453   0.548
 5965SOL    HW218795   2.803   0.609   0.531
 5966SOL     OW18796   2.669   1.536   5.169
 5966SOL    HW118797   2.747   1.514   5.228
 5966SOL    HW218798   2.683   1.625   5.126
 5967SOL     OW18799   4.515   2.269   5.101
 5967SOL    HW118800   4.607   2.306   5.090
 5967SOL    HW218801   4.520   2.173   5.128
 5968SOL     OW18802   6.117   2.561   2.429
 5968SOL    HW118803   6.215   2.549   2.442
 5968SOL    HW218804   6.086   2.505   2.352
 5969SOL     OW18805   5.113   0.448   0.488
 5969SOL    HW118806   5.059   0.482   0.565
 5969SOL    HW218807   5.061   0.461   0.404
 5970SOL     OW18808   0.126   3.176   0.976
 5970SOL    HW118809   0.046   3.157   0.919
 5970SOL    HW218810   0.199   3.112   0.952
 5971SOL     OW18811   6.971   6.208   3.997
 5971SOL    HW118812   6.959   6.146   3.920
 5971SOL    HW218813   6.881   6.234   4.033
 5972SOL     OW18814   5.935   5.289   0.239
 5972SOL    HW118815   5.892   5.379   0.246
 5972SOL    HW218816   5.983   5.281   0.152
 5973SOL     OW18817   2.747   1.179   2.341
 5973SOL    HW118818   2.788   1.211   2.256
 5973SOL    HW218819   2.773   1.239   2.416
 5974SOL     OW18820   5.688   1.520   4.493
 5974SOL    HW118821   5.621   1.484   4.428
 5974SOL    HW218822   5.780   1.504   4.458
 5975SOL     OW18823   4.105   5.067   1.294
 5975SOL    HW118824   4.197   5.057   1.256
 5975SOL    HW218825   4.048   5.118   1.229
 5976SOL     OW18826   1.882   3.756   5.453
 5976SOL    HW118827   1.975   3.784   5.429
 5976SOL    HW218828   1.836   3.830   5.501
 5977SOL     OW18829   6.713   4.711   0.397
 5977SOL    HW118830   6.714   4.650   0.476
 5977SOL    HW218831   6.776   4.787   0.414
 5978SOL     OW18832   2.980   3.701   6.562
 5978SOL    HW118833   3.068   3.746   6.556
 5978SOL    HW218834   2.926   3.721   6.480
 5979SOL     OW18835   6.336   0.364   1.174
 5979SOL    HW118836   6.335   0.298   1.249
 5979SOL    HW218837   6.247   0.407   1.166
 5980SOL     OW18838   2.642   2.658   1.029
 5980SOL    HW118839   2.635   2.659   0.929
 5980SOL    HW218840   2.738   2.662   1.056
 5981SOL     OW18841   2.789   1.528   1.135
 5981SOL    HW118842   2.877   1.575   1.127
 5981SOL    HW218843   2.786   1.476   1.220
 5982SOL     OW18844   5.576   2.899   1.356
 5982SOL    HW118845   5.598   2.997   1.350
 5982SOL    HW218846   5.574   2.859   1.264
 5983SOL     OW18847   0.189   0.815   3.395
 5983SOL    HW118848   0.219   0.843   3.486
 5983SOL    HW218849   0.142   0.892   3.351
 5984SOL     OW18850   6.264   5.928   4.115
 5984SOL    HW118851   6.201   5.980   4.173
 5984SOL    HW218852   6.316   5.991   4.057
 5985SOL     OW18853   6.497   3.060   2.482
 5985SOL    HW118854   6.541   3.123   2.546
 5985SOL    HW218855   6.398   3.075   2.482
 5986SOL     OW18856   4.076   3.574   3.943
 5986SOL    HW118857   3.986   3.587   3.985
 5986SOL    HW218858   4.115   3.487   3.976
 5987SOL     OW18859   0.465   5.896   5.505
 5987SOL    HW118860   0.429   5.839   5.579
 5987SOL    HW218861   0.531   5.844   5.451
 5988SOL     OW18862   0.700   3.023   0.032
 5988SOL    HW118863   0.629   3.091   0.047
 5988SOL    HW218864   0.665   2.951   6.997
 5989SOL     OW18865   0.705   6.530   5.746
 5989SOL    HW118866   0.638   6.466   5.708
 5989SOL    HW218867   0.797   6.501   5.721
 5990SOL     OW18868   2.615   4.774   1.915
 5990SOL    HW118869   2.705   4.731   1.925
 5990SOL    HW218870   2.573   4.785   2.005
 5991SOL     OW18871   5.228   0.186   0.472
 5991SOL    HW118872   5.214   0.147   0.563
 5991SOL    HW218873   5.195   0.281   0.471
 5992SOL     OW18874   3.818   6.016   2.688
 5992SOL    HW118875   3.866   5.937   2.649
 5992SOL    HW218876   3.721   6.011   2.666
 5993SOL     OW18877   5.662   1.827   0.509
 5993SOL    HW118878   5.719   1.745   0.516
 5993SOL    HW218879   5.676   1.885   0.589
 5994SOL     OW18880   6.629   3.417   0.177
 5994SOL    HW118881   6.565   3.467   0.236
 5994SOL    HW218882   6.581   3.388   0.094
 5995SOL     OW18883   5.116   3.553   1.330
 5995SOL    HW118884   5.088   3.593   1.417
 5995SOL    HW218885   5.080   3.460   1.323
 5996SOL     OW18886   2.873   6.699   1.424
 5996SOL    HW118887   2.924   6.614   1.418
 5996SOL    HW218888   2.928   6.768   1.470
 5997SOL     OW18889   6.583   0.430   4.058
 5997SOL    HW118890   6.616   0.454   4.149
 5997SOL    HW218891   6.565   0.514   4.006
 5998SOL     OW18892   6.753   6.149   6.883
 5998SOL    HW118893   6.834   6.205   6.865
 5998SOL    HW218894   6.750   6.124   6.980
 5999SOL     OW18895   5.384   3.339   1.389
 5999SOL    HW118896   5.365   3.362   1.485
 5999SOL    HW218897   5.299   3.310   1.345
 6000SOL     OW18898   0.756   4.169   1.335
 6000SOL    HW118899   0.680   4.170   1.401
 6000SOL    HW218900   0.833   4.220   1.373
 6001SOL     OW18901   5.729   5.371   5.872
 6001SOL    HW118902   5.704   5.410   5.961
 6001SOL    HW218903   5.817   5.323   5.881
 6002SOL     OW18904   5.853   4.684   5.423
 6002SOL    HW118905   5.942   4.653   5.457
 6002SOL    HW218906   5.823   4.622   5.350
 6003SOL     OW18907   2.561   2.509   4.824
 6003SOL    HW118908   2.620   2.460   4.889
 6003SOL    HW218909   2.492   2.447   4.788
 6004SOL     OW18910   5.352   2.884   5.119
 6004SOL    HW118911   5.407   2.955   5.076
 6004SOL    HW218912   5.277   2.926   5.170
 6005SOL     OW18913   4.276   4.091   6.661
 6005SOL    HW118914   4.316   4.014   6.712
 6005SOL    HW218915   4.346   4.161   6.647
 6006SOL     OW18916   3.254   5.965   6.848
 6006SOL    HW118917   3.300   6.033   6.905
 6006SOL    HW218918   3.167   5.940   6.890
 6007SOL     OW18919   2.186   5.848   4.743
 6007SOL    HW118920   2.149   5.867   4.834
 6007SOL    HW218921   2.233   5.759   4.744
 6008SOL     OW18922   2.539   3.859   6.522
 6008SOL    HW118923   2.486   3.776   6.540
 6008SOL    HW218924   2.525   3.924   6.597
 6009SOL     OW18925   4.020   5.133   2.721
 6009SOL    HW118926   3.978   5.214   2.679
 6009SOL    HW218927   4.054   5.157   2.812
 6010SOL     OW18928   0.278   4.568   4.542
 6010SOL    HW118929   0.243   4.659   4.520
 6010SOL    HW218930   0.265   4.508   4.463
 6011SOL     OW18931   5.885   1.475   2.772
 6011SOL    HW118932   5.932   1.452   2.858
 6011SOL    HW218933   5.839   1.393   2.738
 6012SOL     OW18934   6.515   0.246   5.673
 6012SOL    HW118935   6.518   0.268   5.576
 6012SOL    HW218936   6.427   0.276   5.711
 6013SOL     OW18937   6.146   1.478   2.132
 6013SOL    HW118938   6.087   1.556   2.110
 6013SOL    HW218939   6.125   1.402   2.071
 6014SOL     OW18940   3.030   3.190   3.728
 6014SOL    HW118941   3.092   3.162   3.801
 6014SOL    HW218942   2.965   3.257   3.763
 6015SOL     OW18943   6.042   0.692   3.523
 6015SOL    HW118944   6.136   0.706   3.554
 6015SOL    HW218945   5.979   0.735   3.587
 6016SOL     OW18946   4.191   1.952   4.298
 6016SOL    HW118947   4.135   1.880   4.257
 6016SOL    HW218948   4.286   1.923   4.300
 6017SOL     OW18949   1.123   1.188   5.560
 6017SOL    HW118950   1.203   1.134   5.533
 6017SOL    HW218951   1.153   1.267   5.613
 6018SOL     OW18952   2.764   0.857   3.956
 6018SOL    HW118953   2.718   0.843   3.868
 6018SOL    HW218954   2.776   0.955   3.972
 6019SOL     OW18955   6.320   4.411   6.169
 6019SOL    HW118956   6.333   4.465   6.086
 6019SOL    HW218957   6.222   4.396   6.185
 6020SOL     OW18958   0.823   5.133   6.137
 6020SOL    HW118959   0.878   5.069   6.085
 6020SOL    HW218960   0.729   5.134   6.102
 6021SOL     OW18961   5.903   6.822   3.480
 6021SOL    HW118962   5.910   6.916   3.513
 6021SOL    HW218963   5.817   6.809   3.431
 6022SOL     OW18964   6.336   2.675   1.941
 6022SOL    HW118965   6.423   2.647   1.899
 6022SOL    HW218966   6.347   2.682   2.040
 6023SOL     OW18967   4.195   6.954   2.087
 6023SOL    HW118968   4.282   6.918   2.120
 6023SOL    HW218969   4.125   6.883   2.094
 6024SOL     OW18970   1.260   6.091   6.884
 6024SOL    HW118971   1.264   6.176   6.936
 6024SOL    HW218972   1.352   6.063   6.858
 6025SOL     OW18973   2.838   0.829   5.075
 6025SOL    HW118974   2.755   0.817   5.021
 6025SOL    HW218975   2.916   0.845   5.013
 6026SOL     OW18976   5.703   6.376   4.538
 6026SOL    HW118977   5.646   6.358   4.458
 6026SOL    HW218978   5.747   6.291   4.568
 6027SOL     OW18979   5.264   5.108   6.228
 6027SOL    HW118980   5.249   5.018   6.188
 6027SOL    HW218981   5.323   5.101   6.308
 6028SOL     OW18982   5.849   5.352   6.167
 6028SOL    HW118983   5.758   5.392   6.179
 6028SOL    HW218984   5.917   5.409   6.212
 6029SOL     OW18985   3.074   1.569   2.853
 6029SOL    HW118986   3.095   1.554   2.756
 6029SOL    HW218987   2.979   1.598   2.862
 6030SOL     OW18988   5.800   3.345   4.084
 6030SOL    HW118989   5.848   3.400   4.153
 6030SOL    HW218990   5.804   3.392   3.996
 6031SOL     OW18991   6.869   6.191   4.971
 6031SOL    HW118992   6.845   6.271   5.027
 6031SOL    HW218993   6.807   6.186   4.892
 6032SOL     OW18994   3.814   6.633   3.450
 6032SOL    HW118995   3.802   6.732   3.461
 6032SOL    HW218996   3.747   6.598   3.385
 6033SOL     OW18997   1.173   1.518   2.539
 6033SOL    HW118998   1.091   1.575   2.529
 6033SOL    HW218999   1.253   1.576   2.552
 6034SOL     OW19000   0.730   6.857   1.315
 6034SOL    HW119001   0.772   6.766   1.320
 6034SOL    HW219002   0.726   6.896   1.407
 6035SOL     OW19003   2.774   0.389   2.540
 6035SOL    HW119004   2.832   0.465   2.515
 6035SOL    HW219005   2.823   0.303   2.525
 6036SOL     OW19006   6.543   3.675   1.107
 6036SOL    HW119007   6.609   3.615   1.062
 6036SOL    HW219008   6.453   3.631   1.107
 6037SOL     OW19009   4.534   1.335   6.055
 6037SOL    HW119010   4.512   1.381   6.141
 6037SOL    HW219011   4.520   1.236   6.066
 6038SOL     OW19012   1.489   1.252   6.455
 6038SOL    HW119013   1.529   1.341   6.433
 6038SOL    HW219014   1.433   1.220   6.379
 6039SOL     OW19015   3.814   3.697   3.993
 6039SOL    HW119016   3.756   3.779   3.988
 6039SOL    HW219017   3.910   3.724   3.988
 6040SOL     OW19018   0.097   1.907   0.581
 6040SOL    HW119019   0.065   1.976   0.515
 6040SOL    HW219020   0.038   1.908   0.661
 6041SOL     OW19021   2.152   3.923   6.118
 6041SOL    HW119022   2.205   3.882   6.191
 6041SOL    HW219023   2.058   3.887   6.120
 6042SOL     OW19024   3.234   5.892   3.997
 6042SOL    HW119025   3.171   5.927   4.067
 6042SOL    HW219026   3.294   5.823   4.038
 6043SOL     OW19027   2.563   6.928   2.960
 6043SOL    HW119028   2.545   6.967   2.870
 6043SOL    HW219029   2.636   6.979   3.004
 6044SOL     OW19030   0.348   3.471   1.104
 6044SOL    HW119031   0.350   3.399   1.173
 6044SOL    HW219032   0.302   3.552   1.141
 6045SOL     OW19033   5.778   1.604   3.398
 6045SOL    HW119034   5.729   1.559   3.323
 6045SOL    HW219035   5.767   1.703   3.389
 6046SOL     OW19036   3.361   3.206   2.734
 6046SOL    HW119037   3.339   3.285   2.791
 6046SOL    HW219038   3.374   3.236   2.640
 6047SOL     OW19039   6.840   1.651   0.406
 6047SOL    HW119040   6.873   1.740   0.375
 6047SOL    HW219041   6.745   1.640   0.378
 6048SOL     OW19042   5.722   5.674   3.204
 6048SOL    HW119043   5.779   5.718   3.274
 6048SOL    HW219044   5.728   5.726   3.119
 6049SOL     OW19045   4.678   4.920   6.324
 6049SOL    HW119046   4.764   4.885   6.288
 6049SOL    HW219047   4.656   5.007   6.280
 6050SOL     OW19048   2.731   5.871   2.418
 6050SOL    HW119049   2.688   5.783   2.435
 6050SOL    HW219050   2.798   5.862   2.343
 6051SOL     OW19051   0.524   1.605   3.078
 6051SOL    HW119052   0.597   1.594   3.146
 6051SOL    HW219053   0.537   1.537   3.006
 6052SOL     OW19054   5.294   5.494   0.729
 6052SOL    HW119055   5.307   5.572   0.667
 6052SOL    HW219056   5.245   5.525   0.811
 6053SOL     OW19057   4.266   2.607   6.137
 6053SOL    HW119058   4.303   2.584   6.227
 6053SOL    HW219059   4.192   2.674   6.148
 6054SOL     OW19060   4.287   4.362   0.691
 6054SOL    HW119061   4.313   4.403   0.778
 6054SOL    HW219062   4.232   4.428   0.639
 6055SOL     OW19063   2.851   4.172   0.874
 6055SOL    HW119064   2.778   4.233   0.843
 6055SOL    HW219065   2.862   4.180   0.973
 6056SOL     OW19066   5.296   6.251   3.448
 6056SOL    HW119067   5.257   6.270   3.538
 6056SOL    HW219068   5.323   6.155   3.442
 6057SOL     OW19069   5.109   0.510   4.334
 6057SOL    HW119070   5.135   0.513   4.237
 6057SOL    HW219071   5.181   0.466   4.387
 6058SOL     OW19072   6.768   2.617   5.876
 6058SOL    HW119073   6.718   2.570   5.949
 6058SOL    HW219074   6.808   2.701   5.911
 6059SOL     OW19075   4.026   2.693   0.024
 6059SOL    HW119076   4.123   2.675   0.009
 6059SOL    HW219077   3.987   2.623   0.083
 6060SOL     OW19078   2.221   3.077   6.874
 6060SOL    HW119079   2.174   3.164   6.886
 6060SOL    HW219080   2.316   3.086   6.904
 6061SOL     OW19081   3.653   4.346   6.845
 6061SOL    HW119082   3.564   4.327   6.804
 6061SOL    HW219083   3.725   4.310   6.785
 6062SOL     OW19084   2.258   2.221   6.352
 6062SOL    HW119085   2.162   2.194   6.357
 6062SOL    HW219086   2.285   2.262   6.439
 6063SOL     OW19087   4.343   3.786   6.502
 6063SOL    HW119088   4.301   3.695   6.498
 6063SOL    HW219089   4.344   3.817   6.597
 6064SOL     OW19090   6.226   5.246   0.824
 6064SOL    HW119091   6.295   5.288   0.765
 6064SOL    HW219092   6.220   5.298   0.910
 6065SOL     OW19093   2.082   6.824   1.606
 6065SOL    HW119094   2.085   6.822   1.506
 6065SOL    HW219095   2.026   6.748   1.639
 6066SOL     OW19096   5.607   6.119   3.144
 6066SOL    HW119097   5.653   6.044   3.191
 6066SOL    HW219098   5.559   6.176   3.210
 6067SOL     OW19099   6.745   6.061   5.709
 6067SOL    HW119100   6.784   6.064   5.617
 6067SOL    HW219101   6.771   6.144   5.759
 6068SOL     OW19102   4.756   2.466   4.280
 6068SOL    HW119103   4.822   2.540   4.270
 6068SOL    HW219104   4.689   2.491   4.351
 6069SOL     OW19105   6.889   4.193   6.156
 6069SOL    HW119106   6.891   4.093   6.167
 6069SOL    HW219107   6.938   4.236   6.232
 6070SOL     OW19108   2.120   1.703   1.208
 6070SOL    HW119109   2.189   1.725   1.139
 6070SOL    HW219110   2.031   1.737   1.178
 6071SOL     OW19111   6.414   1.211   5.827
 6071SOL    HW119112   6.374   1.128   5.791
 6071SOL    HW219113   6.342   1.273   5.858
 6072SOL     OW19114   0.158   3.715   6.638
 6072SOL    HW119115   0.214   3.736   6.557
 6072SOL    HW219116   0.209   3.740   6.721
 6073SOL     OW19117   4.941   3.851   0.141
 6073SOL    HW119118   4.968   3.775   0.080
 6073SOL    HW219119   5.013   3.866   0.209
 6074SOL     OW19120   1.395   6.422   2.476
 6074SOL    HW119121   1.442   6.460   2.397
 6074SOL    HW219122   1.299   6.451   2.474
 6075SOL     OW19123   5.866   0.709   6.544
 6075SOL    HW119124   5.900   0.803   6.549
 6075SOL    HW219125   5.920   0.658   6.476
 6076SOL     OW19126   0.885   6.023   2.665
 6076SOL    HW119127   0.931   5.979   2.743
 6076SOL    HW219128   0.790   6.042   2.690
 6077SOL     OW19129   5.398   6.365   2.757
 6077SOL    HW119130   5.461   6.442   2.756
 6077SOL    HW219131   5.402   6.318   2.669
 6078SOL     OW19132   4.468   4.009   0.165
 6078SOL    HW119133   4.411   4.047   0.092
 6078SOL    HW219134   4.450   4.058   0.250
 6079SOL     OW19135   2.828   2.618   0.517
 6079SOL    HW119136   2.908   2.648   0.568
 6079SOL    HW219137   2.806   2.685   0.446
 6080SOL     OW19138   6.640   3.987   6.304
 6080SOL    HW119139   6.594   3.912   6.352
 6080SOL    HW219140   6.575   4.061   6.288
 6081SOL     OW19141   1.600   3.155   3.653
 6081SOL    HW119142   1.633   3.158   3.747
 6081SOL    HW219143   1.503   3.183   3.651
 6082SOL     OW19144   4.730   1.462   1.440
 6082SOL    HW119145   4.680   1.474   1.526
 6082SOL    HW219146   4.818   1.510   1.446
 6083SOL     OW19147   4.402   0.493   6.382
 6083SOL    HW119148   4.492   0.511   6.341
 6083SOL    HW219149   4.331   0.502   6.313
 6084SOL     OW19150   0.078   5.733   2.531
 6084SOL    HW119151   0.071   5.633   2.532
 6084SOL    HW219152   7.014   5.773   2.549
 6085SOL     OW19153   0.597   6.718   0.225
 6085SOL    HW119154   0.515   6.774   0.217
 6085SOL    HW219155   0.663   6.745   0.154
 6086SOL     OW19156   3.498   3.982   0.235
 6086SOL    HW119157   3.568   3.989   0.165
 6086SOL    HW219158   3.534   4.016   0.322
 6087SOL     OW19159   4.704   0.096   0.727
 6087SOL    HW119160   4.776   0.028   0.741
 6087SOL    HW219161   4.742   0.188   0.739
 6088SOL     OW19162   4.918   5.448   2.730
 6088SOL    HW119163   4.853   5.518   2.762
 6088SOL    HW219164   5.008   5.468   2.767
 6089SOL     OW19165   5.650   3.838   3.793
 6089SOL    HW119166   5.687   3.798   3.877
 6089SOL    HW219167   5.579   3.778   3.756
 6090SOL     OW19168   3.835   5.401   4.401
 6090SOL    HW119169   3.834   5.312   4.355
 6090SOL    HW219170   3.852   5.387   4.498
 6091SOL     OW19171   1.320   1.225   1.491
 6091SOL    HW119172   1.401   1.281   1.473
 6091SOL    HW219173   1.334   1.133   1.455
 6092SOL     OW19174   2.728   6.775   1.182
 6092SOL    HW119175   2.758   6.734   1.269
 6092SOL    HW219176   2.718   6.873   1.193
 6093SOL     OW19177   2.534   2.402   2.503
 6093SOL    HW119178   2.537   2.469   2.429
 6093SOL    HW219179   2.619   2.349   2.503
 6094SOL     OW19180   0.496   6.330   4.946
 6094SOL    HW119181   0.481   6.298   4.853
 6094SOL    HW219182   0.523   6.252   5.003
 6095SOL     OW19183   4.755   4.602   1.672
 6095SOL    HW119184   4.803   4.574   1.755
 6095SOL    HW219185   4.662   4.630   1.696
 6096SOL     OW19186   5.302   5.690   3.139
 6096SOL    HW119187   5.345   5.610   3.180
 6096SOL    HW219188   5.367   5.735   3.078
 6097SOL     OW19189   2.048   4.792   2.649
 6097SOL    HW119190   2.078   4.697   2.646
 6097SOL    HW219191   2.047   4.829   2.556
 6098SOL     OW19192   6.437   0.493   4.637
 6098SOL    HW119193   6.388   0.576   4.664
 6098SOL    HW219194   6.500   0.514   4.562
 6099SOL     OW19195   3.347   0.561   5.790
 6099SOL    HW119196   3.318   0.568   5.695
 6099SOL    HW219197   3.376   0.467   5.809
 6100SOL     OW19198   0.614   5.741   4.828
 6100SOL    HW119199   0.644   5.795   4.906
 6100SOL    HW219200   0.661   5.653   4.828
 6101SOL     OW19201   0.069   3.617   1.932
 6101SOL    HW119202   7.007   3.660   1.916
 6101SOL    HW219203   0.141   3.686   1.935
 6102SOL     OW19204   3.739   6.953   2.444
 6102SOL    HW119205   3.721   0.010   2.497
 6102SOL    HW219206   3.655   6.923   2.400
 6103SOL     OW19207   6.717   1.771   1.877
 6103SOL    HW119208   6.697   1.869   1.872
 6103SOL    HW219209   6.635   1.721   1.903
 6104SOL     OW19210   6.748   0.511   4.325
 6104SOL    HW119211   6.815   0.584   4.321
 6104SOL    HW219212   6.794   0.425   4.348
 6105SOL     OW19213   3.174   4.464   5.741
 6105SOL    HW119214   3.092   4.501   5.698
 6105SOL    HW219215   3.231   4.418   5.673
 6106SOL     OW19216   6.088   4.660   5.594
 6106SOL    HW119217   6.173   4.693   5.554
 6106SOL    HW219218   6.079   4.562   5.576
 6107SOL     OW19219   5.782   5.194   5.258
 6107SOL    HW119220   5.841   5.274   5.257
 6107SOL    HW219221   5.836   5.111   5.243
 6108SOL     OW19222   1.985   1.263   6.969
 6108SOL    HW119223   2.068   1.316   6.950
 6108SOL    HW219224   1.914   1.324   7.005
 6109SOL     OW19225   6.912   6.813   3.553
 6109SOL    HW119226   6.951   6.774   3.636
 6109SOL    HW219227   6.956   6.771   3.473
 6110SOL     OW19228   2.018   1.399   4.169
 6110SOL    HW119229   2.053   1.462   4.099
 6110SOL    HW219230   2.093   1.370   4.228
 6111SOL     OW19231   2.115   4.063   1.273
 6111SOL    HW119232   2.068   4.037   1.357
 6111SOL    HW219233   2.140   3.982   1.221
 6112SOL     OW19234   5.076   6.498   3.814
 6112SOL    HW119235   4.999   6.562   3.815
 6112SOL    HW219236   5.161   6.549   3.799
 6113SOL     OW19237   2.412   5.656   1.220
 6113SOL    HW119238   2.444   5.562   1.207
 6113SOL    HW219239   2.370   5.689   1.136
 6114SOL     OW19240   5.235   1.823   0.560
 6114SOL    HW119241   5.310   1.853   0.502
 6114SOL    HW219242   5.266   1.818   0.655
 6115SOL     OW19243   0.563   0.428   6.397
 6115SOL    HW119244   0.639   0.478   6.355
 6115SOL    HW219245   0.480   0.441   6.343
 6116SOL     OW19246   5.626   3.051   6.590
 6116SOL    HW119247   5.546   3.009   6.634
 6116SOL    HW219248   5.703   2.988   6.594
 6117SOL     OW19249   1.992   2.055   1.110
 6117SOL    HW119250   2.085   2.056   1.075
 6117SOL    HW219251   1.948   2.143   1.093
 6118SOL     OW19252   5.717   0.820   1.613
 6118SOL    HW119253   5.761   0.874   1.685
 6118SOL    HW219254   5.690   0.731   1.650
 6119SOL     OW19255   6.757   1.653   6.757
 6119SOL    HW119256   6.793   1.742   6.727
 6119SOL    HW219257   6.824   1.582   6.735
 6120SOL     OW19258   3.033   0.578   4.316
 6120SOL    HW119259   3.107   0.644   4.327
 6120SOL    HW219260   3.013   0.565   4.218
 6121SOL     OW19261   1.584   2.410   5.002
 6121SOL    HW119262   1.562   2.486   4.941
 6121SOL    HW219263   1.653   2.352   4.958
 6122SOL     OW19264   5.130   4.428   5.210
 6122SOL    HW119265   5.160   4.497   5.145
 6122SOL    HW219266   5.158   4.455   5.302
 6123SOL     OW19267   5.670   1.753   5.337
 6123SOL    HW119268   5.656   1.805   5.421
 6123SOL    HW219269   5.582   1.739   5.291
 6124SOL     OW19270   2.597   6.127   4.202
 6124SOL    HW119271   2.517   6.109   4.145
 6124SOL    HW219272   2.569   6.134   4.298
 6125SOL     OW19273   3.008   1.990   6.290
 6125SOL    HW119274   2.947   1.911   6.297
 6125SOL    HW219275   2.987   2.041   6.207
 6126SOL     OW19276   5.980   2.834   5.897
 6126SOL    HW119277   5.956   2.766   5.828
 6126SOL    HW219278   5.957   2.925   5.863
 6127SOL     OW19279   4.825   2.319   2.289
 6127SOL    HW119280   4.733   2.324   2.250
 6127SOL    HW219281   4.892   2.351   2.221
 6128SOL     OW19282   5.819   5.848   0.065
 6128SOL    HW119283   5.828   5.933   0.013
 6128SOL    HW219284   5.819   5.770   0.003
 6129SOL     OW19285   2.096   5.725   2.294
 6129SOL    HW119286   2.145   5.711   2.208
 6129SOL    HW219287   2.101   5.642   2.349
 6130SOL     OW19288   5.944   2.646   0.399
 6130SOL    HW119289   5.981   2.597   0.478
 6130SOL    HW219290   5.898   2.581   0.339
 6131SOL     OW19291   6.681   2.032   2.817
 6131SOL    HW119292   6.674   2.025   2.916
 6131SOL    HW219293   6.600   1.992   2.774
 6132SOL     OW19294   3.864   1.323   6.023
 6132SOL    HW119295   3.819   1.245   6.066
 6132SOL    HW219296   3.800   1.368   5.960
 6133SOL     OW19297   0.968   2.329   2.983
 6133SOL    HW119298   0.889   2.389   2.970
 6133SOL    HW219299   0.954   2.274   3.065
 6134SOL     OW19300   0.130   6.897   5.843
 6134SOL    HW119301   0.144   6.941   5.931
 6134SOL    HW219302   0.204   6.832   5.825
 6135SOL     OW19303   0.355   6.841   0.177
 6135SOL    HW119304   0.360   6.832   0.078
 6135SOL    HW219305   0.269   6.801   0.209
 6136SOL     OW19306   0.787   3.142   2.518
 6136SOL    HW119307   0.788   3.191   2.605
 6136SOL    HW219308   0.838   3.056   2.528
 6137SOL     OW19309   6.901   4.208   1.911
 6137SOL    HW119310   6.886   4.273   1.837
 6137SOL    HW219311   6.999   4.194   1.924
 6138SOL     OW19312   4.574   0.307   2.067
 6138SOL    HW119313   4.616   0.243   2.131
 6138SOL    HW219314   4.518   0.257   2.001
 6139SOL     OW19315   1.396   0.897   5.067
 6139SOL    HW119316   1.337   0.819   5.043
 6139SOL    HW219317   1.463   0.911   4.994
 6140SOL     OW19318   1.637   0.357   3.084
 6140SOL    HW119319   1.689   0.385   3.004
 6140SOL    HW219320   1.671   0.407   3.165
 6141SOL     OW19321   0.505   0.821   6.227
 6141SOL    HW119322   0.502   0.920   6.211
 6141SOL    HW219323   0.419   0.792   6.270
 6142SOL     OW19324   6.797   0.165   1.515
 6142SOL    HW119325   6.893   0.176   1.488
 6142SOL    HW219326   6.776   0.068   1.523
 6143SOL     OW19327   6.806   3.423   5.373
 6143SOL    HW119328   6.734   3.455   5.435
 6143SOL    HW219329   6.893   3.467   5.396
 6144SOL     OW19330   4.754   5.322   2.515
 6144SOL    HW119331   4.810   5.377   2.578
 6144SOL    HW219332   4.786   5.228   2.517
 6145SOL     OW19333   4.874   3.532   3.998
 6145SOL    HW119334   4.780   3.499   4.011
 6145SOL    HW219335   4.873   3.631   3.988
 6146SOL     OW19336   5.589   0.337   5.139
 6146SOL    HW119337   5.569   0.422   5.187
 6146SOL    HW219338   5.556   0.343   5.045
 6147SOL     OW19339   1.413   2.577   5.128
 6147SOL    HW119340   1.487   2.518   5.096
 6147SOL    HW219341   1.372   2.625   5.051
 6148SOL     OW19342   3.282   5.293   6.966
 6148SOL    HW119343   3.309   5.331   0.028
 6148SOL    HW219344   3.310   5.355   6.893
 6149SOL     OW19345   3.262   1.166   1.475
 6149SOL    HW119346   3.225   1.257   1.492
 6149SOL    HW219347   3.232   1.133   1.386
 6150SOL     OW19348   1.098   4.155   5.658
 6150SOL    HW119349   1.004   4.155   5.693
 6150SOL    HW219350   1.103   4.094   5.579
 6151SOL     OW19351   4.615   5.367   3.390
 6151SOL    HW119352   4.640   5.275   3.421
 6151SOL    HW219353   4.537   5.360   3.327
 6152SOL     OW19354   1.701   4.030   4.442
 6152SOL    HW119355   1.691   3.944   4.391
 6152SOL    HW219356   1.785   4.026   4.497
 6153SOL     OW19357   5.159   5.522   0.963
 6153SOL    HW119358   5.126   5.428   0.954
 6153SOL    HW219359   5.147   5.552   1.058
 6154SOL     OW19360   5.019   3.330   2.287
 6154SOL    HW119361   4.980   3.285   2.207
 6154SOL    HW219362   5.115   3.305   2.295
 6155SOL     OW19363   1.598   1.456   3.085
 6155SOL    HW119364   1.690   1.486   3.111
 6155SOL    HW219365   1.603   1.364   3.047
 6156SOL     OW19366   5.130   4.814   1.696
 6156SOL    HW119367   5.192   4.884   1.660
 6156SOL    HW219368   5.096   4.843   1.786
 6157SOL     OW19369   1.026   2.715   1.994
 6157SOL    HW119370   1.119   2.710   2.030
 6157SOL    HW219371   0.984   2.802   2.022
 6158SOL     OW19372   3.021   2.211   4.809
 6158SOL    HW119373   2.927   2.243   4.819
 6158SOL    HW219374   3.075   2.240   4.888
 6159SOL     OW19375   6.641   2.899   0.844
 6159SOL    HW119376   6.729   2.929   0.882
 6159SOL    HW219377   6.624   2.948   0.758
 6160SOL     OW19378   1.691   0.676   1.032
 6160SOL    HW119379   1.643   0.616   0.968
 6160SOL    HW219380   1.776   0.631   1.062
 6161SOL     OW19381   4.224   3.557   6.455
 6161SOL    HW119382   4.156   3.491   6.490
 6161SOL    HW219383   4.285   3.511   6.391
 6162SOL     OW19384   6.038   5.259   2.436
 6162SOL    HW119385   6.117   5.292   2.384
 6162SOL    HW219386   6.051   5.161   2.456
 6163SOL     OW19387   6.022   6.139   3.669
 6163SOL    HW119388   5.971   6.115   3.751
 6163SOL    HW219389   6.062   6.230   3.679
 6164SOL     OW19390   2.959   3.583   4.476
 6164SOL    HW119391   3.022   3.576   4.398
 6164SOL    HW219392   2.924   3.493   4.499
 6165SOL     OW19393   3.733   1.448   6.757
 6165SOL    HW119394   3.658   1.492   6.709
 6165SOL    HW219395   3.721   1.459   6.856
 6166SOL     OW19396   2.220   2.808   6.594
 6166SOL    HW119397   2.164   2.725   6.591
 6166SOL    HW219398   2.168   2.883   6.635
 6167SOL     OW19399   1.622   3.347   3.156
 6167SOL    HW119400   1.592   3.276   3.220
 6167SOL    HW219401   1.710   3.384   3.186
 6168SOL     OW19402   0.257   4.043   3.926
 6168SOL    HW119403   0.354   4.065   3.922
 6168SOL    HW219404   0.204   4.127   3.932
 6169SOL     OW19405   2.102   0.851   7.007
 6169SOL    HW119406   2.074   0.756   6.993
 6169SOL    HW219407   2.044   0.911   6.951
 6170SOL     OW19408   2.989   3.899   0.408
 6170SOL    HW119409   2.967   3.860   0.318
 6170SOL    HW219410   3.088   3.904   0.418
 6171SOL     OW19411   2.018   3.913   1.960
 6171SOL    HW119412   1.922   3.943   1.958
 6171SOL    HW219413   2.029   3.834   1.899
 6172SOL     OW19414   2.240   5.514   2.534
 6172SOL    HW119415   2.224   5.555   2.624
 6172SOL    HW219416   2.290   5.428   2.546
 6173SOL     OW19417   1.320   5.855   2.013
 6173SOL    HW119418   1.368   5.797   1.946
 6173SOL    HW219419   1.294   5.941   1.969
 6174SOL     OW19420   5.488   4.944   2.603
 6174SOL    HW119421   5.469   5.033   2.646
 6174SOL    HW219422   5.440   4.872   2.653
 6175SOL     OW19423   4.931   0.018   2.991
 6175SOL    HW119424   4.877   0.036   3.073
 6175SOL    HW219425   4.895   0.071   2.914
 6176SOL     OW19426   6.347   2.913   5.767
 6176SOL    HW119427   6.287   2.993   5.769
 6176SOL    HW219428   6.348   2.876   5.674
 6177SOL     OW19429   6.647   2.849   1.234
 6177SOL    HW119430   6.667   2.769   1.177
 6177SOL    HW219431   6.732   2.891   1.263
 6178SOL     OW19432   6.120   3.201   1.355
 6178SOL    HW119433   6.142   3.107   1.378
 6178SOL    HW219434   6.130   3.258   1.437
 6179SOL     OW19435   0.698   1.898   5.739
 6179SOL    HW119436   0.787   1.920   5.698
 6179SOL    HW219437   0.697   1.927   5.835
 6180SOL     OW19438   3.584   6.899   6.777
 6180SOL    HW119439   3.574   6.940   6.868
 6180SOL    HW219440   3.562   6.802   6.781
 6181SOL     OW19441   5.212   5.751   6.641
 6181SOL    HW119442   5.152   5.801   6.580
 6181SOL    HW219443   5.304   5.745   6.601
 6182SOL     OW19444   4.316   6.557   6.609
 6182SOL    HW119445   4.255   6.567   6.531
 6182SOL    HW219446   4.358   6.645   6.631
 6183SOL     OW19447   3.139   0.271   3.148
 6183SOL    HW119448   3.173   0.304   3.236
 6183SOL    HW219449   3.204   0.207   3.109
 6184SOL     OW19450   0.108   0.420   6.812
 6184SOL    HW119451   0.186   0.447   6.756
 6184SOL    HW219452   0.107   0.320   6.821
 6185SOL     OW19453   0.869   3.909   6.207
 6185SOL    HW119454   0.914   3.950   6.129
 6185SOL    HW219455   0.772   3.933   6.206
 6186SOL     OW19456   5.957   6.981   5.041
 6186SOL    HW119457   5.934   0.012   4.962
 6186SOL    HW219458   5.873   6.949   5.085
 6187SOL     OW19459   3.961   5.010   4.235
 6187SOL    HW119460   4.025   4.975   4.167
 6187SOL    HW219461   4.012   5.057   4.307
 6188SOL     OW19462   2.748   6.984   1.700
 6188SOL    HW119463   2.788   0.007   1.777
 6188SOL    HW219464   2.651   6.970   1.716
 6189SOL     OW19465   6.095   4.981   3.337
 6189SOL    HW119466   6.018   5.044   3.326
 6189SOL    HW219467   6.161   4.996   3.263
 6190SOL     OW19468   5.132   2.659   6.891
 6190SOL    HW119469   5.148   2.596   6.814
 6190SOL    HW219470   5.141   2.608   6.977
 6191SOL     OW19471   6.389   2.225   6.500
 6191SOL    HW119472   6.483   2.226   6.466
 6191SOL    HW219473   6.387   2.187   6.592
 6192SOL     OW19474   3.335   2.880   0.389
 6192SOL    HW119475   3.357   2.811   0.320
 6192SOL    HW219476   3.370   2.969   0.360
 6193SOL     OW19477   6.185   0.154   1.332
 6193SOL    HW119478   6.147   0.194   1.249
 6193SOL    HW219479   6.122   0.085   1.368
 6194SOL     OW19480   2.288   0.188   0.079
 6194SOL    HW119481   2.343   0.114   0.117
 6194SOL    HW219482   2.202   0.150   0.043
 6195SOL     OW19483   3.077   6.758   6.328
 6195SOL    HW119484   3.167   6.732   6.364
 6195SOL    HW219485   3.046   6.841   6.374
 6196SOL     OW19486   0.044   1.115   6.764
 6196SOL    HW119487   0.142   1.111   6.788
 6196SOL    HW219488   0.009   1.022   6.753
 6197SOL     OW19489   2.075   3.388   0.233
 6197SOL    HW119490   2.077   3.308   0.174
 6197SOL    HW219491   1.981   3.412   0.254
 6198SOL     OW19492   4.277   4.935   2.584
 6198SOL    HW119493   4.279   5.021   2.534
 6198SOL    HW219494   4.196   4.882   2.558
 6199SOL     OW19495   1.582   0.289   6.509
 6199SOL    HW119496   1.636   0.273   6.591
 6199SOL    HW219497   1.616   0.231   6.435
 6200SOL     OW19498   3.742   6.886   5.967
 6200SOL    HW119499   3.754   6.797   6.011
 6200SOL    HW219500   3.682   6.943   6.021
 6201SOL     OW19501   2.418   4.377   4.358
 6201SOL    HW119502   2.486   4.430   4.309
 6201SOL    HW219503   2.393   4.297   4.304
 6202SOL     OW19504   3.277   2.360   1.035
 6202SOL    HW119505   3.331   2.315   1.107
 6202SOL    HW219506   3.227   2.291   0.983
 6203SOL     OW19507   4.632   1.713   5.319
 6203SOL    HW119508   4.544   1.707   5.367
 6203SOL    HW219509   4.705   1.730   5.385
 6204SOL     OW19510   1.134   6.629   5.783
 6204SOL    HW119511   1.231   6.629   5.807
 6204SOL    HW219512   1.124   6.662   5.689
 6205SOL     OW19513   5.490   5.661   6.979
 6205SOL    HW119514   5.540   5.645   0.038
 6205SOL    HW219515   5.554   5.667   6.903
 6206SOL     OW19516   5.167   0.090   3.104
 6206SOL    HW119517   5.091   0.055   3.050
 6206SOL    HW219518   5.210   0.166   3.056
 6207SOL     OW19519   1.800   3.900   4.847
 6207SOL    HW119520   1.854   3.896   4.931
 6207SOL    HW219521   1.778   3.808   4.816
 6208SOL     OW19522   5.629   6.598   6.076
 6208SOL    HW119523   5.615   6.499   6.068
 6208SOL    HW219524   5.635   6.638   5.985
 6209SOL     OW19525   3.531   5.553   1.259
 6209SOL    HW119526   3.513   5.456   1.245
 6209SOL    HW219527   3.469   5.589   1.329
 6210SOL     OW19528   5.945   4.446   3.924
 6210SOL    HW119529   5.970   4.541   3.906
 6210SOL    HW219530   5.897   4.409   3.845
 6211SOL     OW19531   2.494   0.259   4.943
 6211SOL    HW119532   2.563   0.220   4.882
 6211SOL    HW219533   2.532   0.338   4.991
 6212SOL     OW19534   0.140   6.468   3.380
 6212SOL    HW119535   0.140   6.466   3.280
 6212SOL    HW219536   0.222   6.424   3.415
 6213SOL     OW19537   0.317   6.277   6.121
 6213SOL    HW119538   0.357   6.201   6.171
 6213SOL    HW219539   0.219   6.281   6.141
 6214SOL     OW19540   6.436   4.877   2.664
 6214SOL    HW119541   6.512   4.817   2.638
 6214SOL    HW219542   6.353   4.823   2.678
 6215SOL     OW19543   2.835   4.500   0.680
 6215SOL    HW119544   2.845   4.467   0.586
 6215SOL    HW219545   2.784   4.432   0.733
 6216SOL     OW19546   6.497   1.816   2.822
 6216SOL    HW119547   6.398   1.821   2.806
 6216SOL    HW219548   6.530   1.724   2.800
 6217SOL     OW19549   5.408   3.233   1.682
 6217SOL    HW119550   5.317   3.193   1.690
 6217SOL    HW219551   5.400   3.331   1.662
 6218SOL     OW19552   3.657   5.019   5.078
 6218SOL    HW119553   3.583   4.970   5.031
 6218SOL    HW219554   3.710   4.955   5.132
 6219SOL     OW19555   1.016   1.964   4.391
 6219SOL    HW119556   0.985   1.985   4.484
 6219SOL    HW219557   0.984   2.036   4.329
 6220SOL     OW19558   1.623   4.061   5.248
 6220SOL    HW119559   1.526   4.064   5.269
 6220SOL    HW219560   1.658   3.968   5.259
 6221SOL     OW19561   3.913   4.911   4.812
 6221SOL    HW119562   3.935   4.952   4.900
 6221SOL    HW219563   3.994   4.867   4.774
 6222SOL     OW19564   6.919   1.382   0.979
 6222SOL    HW119565   6.938   1.312   1.047
 6222SOL    HW219566   6.859   1.345   0.908
 6223SOL     OW19567   5.194   3.525   4.728
 6223SOL    HW119568   5.178   3.428   4.712
 6223SOL    HW219569   5.108   3.570   4.751
 6224SOL     OW19570   2.560   1.096   5.108
 6224SOL    HW119571   2.502   1.019   5.133
 6224SOL    HW219572   2.594   1.141   5.190
 6225SOL     OW19573   4.164   2.342   0.104
 6225SOL    HW119574   4.221   2.362   0.185
 6225SOL    HW219575   4.068   2.349   0.129
 6226SOL     OW19576   5.950   7.009   4.625
 6226SOL    HW119577   5.929   0.014   4.717
 6226SOL    HW219578   5.935   0.057   4.560
 6227SOL     OW19579   3.409   4.815   6.149
 6227SOL    HW119580   3.364   4.733   6.186
 6227SOL    HW219581   3.507   4.798   6.140
 6228SOL     OW19582   6.992   0.591   3.590
 6228SOL    HW119583   6.917   0.598   3.523
 6228SOL    HW219584   0.037   0.531   3.554
 6229SOL     OW19585   2.185   2.920   2.136
 6229SOL    HW119586   2.106   2.874   2.094
 6229SOL    HW219587   2.261   2.921   2.071
 6230SOL     OW19588   2.381   2.157   3.311
 6230SOL    HW119589   2.433   2.242   3.299
 6230SOL    HW219590   2.370   2.112   3.223
 6231SOL     OW19591   0.024   4.799   1.519
 6231SOL    HW119592   6.999   4.833   1.598
 6231SOL    HW219593   0.102   4.745   1.550
 6232SOL     OW19594   0.977   1.270   6.643
 6232SOL    HW119595   0.979   1.269   6.743
 6232SOL    HW219596   0.965   1.364   6.611
 6233SOL     OW19597   4.736   2.062   6.949
 6233SOL    HW119598   4.780   2.117   6.878
 6233SOL    HW219599   4.652   2.107   6.978
 6234SOL     OW19600   2.457   2.046   3.602
 6234SOL    HW119601   2.400   2.080   3.527
 6234SOL    HW219602   2.400   2.001   3.670
 6235SOL     OW19603   2.735   6.335   3.704
 6235SOL    HW119604   2.713   6.238   3.719
 6235SOL    HW219605   2.719   6.386   3.788
 6236SOL     OW19606   6.751   4.245   0.518
 6236SOL    HW119607   6.666   4.202   0.549
 6236SOL    HW219608   6.755   4.243   0.418
 6237SOL     OW19609   4.504   6.750   0.477
 6237SOL    HW119610   4.590   6.706   0.501
 6237SOL    HW219611   4.474   6.809   0.552
 6238SOL     OW19612   4.752   4.232   1.169
 6238SOL    HW119613   4.840   4.279   1.181
 6238SOL    HW219614   4.732   4.178   1.251
 6239SOL     OW19615   2.604   0.529   3.642
 6239SOL    HW119616   2.588   0.533   3.741
 6239SOL    HW219617   2.538   0.468   3.600
 6240SOL     OW19618   2.443   3.873   0.901
 6240SOL    HW119619   2.522   3.859   0.842
 6240SOL    HW219620   2.409   3.785   0.933
 6241SOL     OW19621   4.853   0.138   1.600
 6241SOL    HW119622   4.797   0.190   1.535
 6241SOL    HW219623   4.828   0.164   1.694
 6242SOL     OW19624   4.226   1.984   3.846
 6242SOL    HW119625   4.133   1.947   3.852
 6242SOL    HW219626   4.245   2.014   3.752
 6243SOL     OW19627   6.223   5.723   3.447
 6243SOL    HW119628   6.189   5.808   3.486
 6243SOL    HW219629   6.277   5.674   3.515
 6244SOL     OW19630   2.053   1.951   2.107
 6244SOL    HW119631   2.115   1.990   2.175
 6244SOL    HW219632   1.975   1.909   2.153
 6245SOL     OW19633   2.128   4.714   0.430
 6245SOL    HW119634   2.057   4.764   0.479
 6245SOL    HW219635   2.093   4.624   0.403
 6246SOL     OW19636   2.963   1.074   5.915
 6246SOL    HW119637   2.979   1.002   5.847
 6246SOL    HW219638   2.865   1.081   5.934
 6247SOL     OW19639   6.770   6.276   2.997
 6247SOL    HW119640   6.702   6.258   2.925
 6247SOL    HW219641   6.822   6.357   2.974
 6248SOL     OW19642   0.387   4.808   1.335
 6248SOL    HW119643   0.401   4.876   1.406
 6248SOL    HW219644   0.427   4.840   1.249
 6249SOL     OW19645   5.234   3.802   6.226
 6249SOL    HW119646   5.182   3.732   6.177
 6249SOL    HW219647   5.283   3.760   6.302
 6250SOL     OW19648   5.372   5.500   6.255
 6250SOL    HW119649   5.370   5.464   6.348
 6250SOL    HW219650   5.308   5.576   6.247
 6251SOL     OW19651   4.484   2.065   1.126
 6251SOL    HW119652   4.400   2.011   1.135
 6251SOL    HW219653   4.462   2.156   1.092
 6252SOL     OW19654   2.373   6.284   5.294
 6252SOL    HW119655   2.387   6.341   5.375
 6252SOL    HW219656   2.450   6.220   5.284
 6253SOL     OW19657   1.630   3.718   1.020
 6253SOL    HW119658   1.606   3.765   1.105
 6253SOL    HW219659   1.586   3.628   1.018
 6254SOL     OW19660   5.353   0.610   0.543
 6254SOL    HW119661   5.408   0.592   0.625
 6254SOL    HW219662   5.274   0.549   0.542
 6255SOL     OW19663   0.369   1.412   2.406
 6255SOL    HW119664   0.283   1.448   2.443
 6255SOL    HW219665   0.434   1.399   2.481
 6256SOL     OW19666   3.079   4.887   3.165
 6256SOL    HW119667   3.060   4.859   3.259
 6256SOL    HW219668   2.994   4.909   3.118
 6257SOL     OW19669   4.681   2.740   6.458
 6257SOL    HW119670   4.745   2.782   6.393
 6257SOL    HW219671   4.657   2.649   6.425
 6258SOL     OW19672   5.200   1.760   2.823
 6258SOL    HW119673   5.187   1.812   2.738
 6258SOL    HW219674   5.236   1.820   2.894
 6259SOL     OW19675   3.116   2.540   1.723
 6259SOL    HW119676   3.081   2.500   1.807
 6259SOL    HW219677   3.065   2.504   1.645
 6260SOL     OW19678   3.748   3.479   0.161
 6260SOL    HW119679   3.738   3.404   0.095
 6260SOL    HW219680   3.746   3.441   0.254
 6261SOL     OW19681   4.047   0.628   0.339
 6261SOL    HW119682   3.976   0.574   0.383
 6261SOL    HW219683   4.127   0.571   0.322
 6262SOL     OW19684   0.429   5.367   5.635
 6262SOL    HW119685   0.425   5.288   5.697
 6262SOL    HW219686   0.516   5.366   5.585
 6263SOL     OW19687   6.009   0.704   1.129
 6263SOL    HW119688   5.960   0.719   1.043
 6263SOL    HW219689   6.107   0.711   1.112
 6264SOL     OW19690   2.251   1.489   0.113
 6264SOL    HW119691   2.266   1.408   0.170
 6264SOL    HW219692   2.230   1.460   0.020
 6265SOL     OW19693   3.867   2.921   1.007
 6265SOL    HW119694   3.770   2.898   1.016
 6265SOL    HW219695   3.913   2.852   0.952
 6266SOL     OW19696   2.410   6.985   2.747
 6266SOL    HW119697   2.329   7.000   2.804
 6266SOL    HW219698   2.384   6.984   2.651
 6267SOL     OW19699   2.535   6.892   6.444
 6267SOL    HW119700   2.583   6.956   6.385
 6267SOL    HW219701   2.530   6.802   6.399
 6268SOL     OW19702   3.147   4.889   2.898
 6268SOL    HW119703   3.113   4.805   2.855
 6268SOL    HW219704   3.114   4.894   2.992
 6269SOL     OW19705   5.890   4.736   0.802
 6269SOL    HW119706   5.845   4.813   0.846
 6269SOL    HW219707   5.983   4.761   0.775
 6270SOL     OW19708   0.584   1.221   4.510
 6270SOL    HW119709   0.607   1.199   4.415
 6270SOL    HW219710   0.621   1.150   4.570
 6271SOL     OW19711   5.853   1.092   1.232
 6271SOL    HW119712   5.766   1.096   1.280
 6271SOL    HW219713   5.905   1.013   1.265
 6272SOL     OW19714   1.734   1.972   3.505
 6272SOL    HW119715   1.636   1.978   3.486
 6272SOL    HW219716   1.774   1.899   3.450
 6273SOL     OW19717   3.518   0.787   1.420
 6273SOL    HW119718   3.564   0.720   1.361
 6273SOL    HW219719   3.573   0.803   1.502
 6274SOL     OW19720   3.845   6.419   6.446
 6274SOL    HW119721   3.841   6.506   6.397
 6274SOL    HW219722   3.832   6.344   6.381
 6275SOL     OW19723   2.743   0.892   4.340
 6275SOL    HW119724   2.753   0.884   4.241
 6275SOL    HW219725   2.648   0.917   4.362
 6276SOL     OW19726   1.438   5.077   4.249
 6276SOL    HW119727   1.379   5.008   4.206
 6276SOL    HW219728   1.505   5.109   4.181
 6277SOL     OW19729   5.300   3.356   3.204
 6277SOL    HW119730   5.376   3.381   3.264
 6277SOL    HW219731   5.335   3.336   3.113
 6278SOL     OW19732   5.398   0.410   3.877
 6278SOL    HW119733   5.409   0.475   3.802
 6278SOL    HW219734   5.482   0.405   3.930
 6279SOL     OW19735   4.763   1.622   0.003
 6279SOL    HW119736   4.736   1.528   7.008
 6279SOL    HW219737   4.787   1.669   6.944
 6280SOL     OW19738   0.534   4.769   5.936
 6280SOL    HW119739   0.596   4.691   5.952
 6280SOL    HW219740   0.552   4.839   6.005
 6281SOL     OW19741   2.739   6.997   5.340
 6281SOL    HW119742   2.807   0.042   5.356
 6281SOL    HW219743   2.656   0.012   5.301
 6282SOL     OW19744   1.900   0.049   3.608
 6282SOL    HW119745   1.835   0.111   3.562
 6282SOL    HW219746   1.858   0.012   3.691
 6283SOL     OW19747   6.985   2.466   5.358
 6283SOL    HW119748   6.933   2.525   5.419
 6283SOL    HW219749   0.048   2.508   5.339
 6284SOL     OW19750   2.239   4.578   5.991
 6284SOL    HW119751   2.267   4.519   6.067
 6284SOL    HW219752   2.316   4.591   5.929
 6285SOL     OW19753   1.548   4.226   2.386
 6285SOL    HW119754   1.534   4.313   2.432
 6285SOL    HW219755   1.646   4.215   2.365
 6286SOL     OW19756   5.738   0.434   4.279
 6286SOL    HW119757   5.709   0.516   4.229
 6286SOL    HW219758   5.659   0.391   4.322
 6287SOL     OW19759   4.760   4.332   1.893
 6287SOL    HW119760   4.666   4.343   1.924
 6287SOL    HW219761   4.767   4.253   1.833
 6288SOL     OW19762   5.078   3.735   1.104
 6288SOL    HW119763   5.108   3.662   1.166
 6288SOL    HW219764   5.063   3.697   1.013
 6289SOL     OW19765   1.427   0.959   2.953
 6289SOL    HW119766   1.329   0.975   2.944
 6289SOL    HW219767   1.468   1.032   3.008
 6290SOL     OW19768   5.541   3.656   2.967
 6290SOL    HW119769   5.581   3.728   2.910
 6290SOL    HW219770   5.479   3.697   3.034
 6291SOL     OW19771   3.702   4.152   2.804
 6291SOL    HW119772   3.771   4.180   2.870
 6291SOL    HW219773   3.614   4.141   2.850
 6292SOL     OW19774   0.724   2.264   1.763
 6292SOL    HW119775   0.790   2.329   1.724
 6292SOL    HW219776   0.671   2.311   1.834
 6293SOL     OW19777   4.966   6.143   0.589
 6293SOL    HW119778   4.885   6.093   0.618
 6293SOL    HW219779   4.975   6.226   0.644
 6294SOL     OW19780   4.269   5.163   2.433
 6294SOL    HW119781   4.333   5.209   2.370
 6294SOL    HW219782   4.247   5.224   2.508
 6295SOL     OW19783   5.885   6.799   6.031
 6295SOL    HW119784   5.955   6.781   5.961
 6295SOL    HW219785   5.840   6.713   6.055
 6296SOL     OW19786   6.414   1.629   2.426
 6296SOL    HW119787   6.502   1.677   2.419
 6296SOL    HW219788   6.398   1.576   2.342
 6297SOL     OW19789   5.079   0.146   6.008
 6297SOL    HW119790   5.138   0.212   5.962
 6297SOL    HW219791   5.119   0.122   6.097
 6298SOL     OW19792   1.299   1.941   4.410
 6298SOL    HW119793   1.304   1.866   4.477
 6298SOL    HW219794   1.203   1.966   4.397
 6299SOL     OW19795   6.546   2.892   6.943
 6299SOL    HW119796   6.450   2.904   6.968
 6299SOL    HW219797   6.580   2.977   6.901
 6300SOL     OW19798   5.045   0.965   4.049
 6300SOL    HW119799   4.983   0.889   4.028
 6300SOL    HW219800   5.008   1.016   4.127
 6301SOL     OW19801   2.938   0.100   0.924
 6301SOL    HW119802   2.931   0.001   0.930
 6301SOL    HW219803   3.033   0.128   0.941
 6302SOL     OW19804   0.342   1.052   3.290
 6302SOL    HW119805   0.252   1.034   3.331
 6302SOL    HW219806   0.409   1.066   3.363
 6303SOL     OW19807   2.354   6.241   5.736
 6303SOL    HW119808   2.393   6.160   5.692
 6303SOL    HW219809   2.293   6.212   5.810
 6304SOL     OW19810   3.237   1.041   6.269
 6304SOL    HW119811   3.265   0.966   6.329
 6304SOL    HW219812   3.138   1.047   6.267
 6305SOL     OW19813   5.679   1.186   1.425
 6305SOL    HW119814   5.664   1.284   1.435
 6305SOL    HW219815   5.754   1.158   1.485
 6306SOL     OW19816   5.729   3.118   4.231
 6306SOL    HW119817   5.677   3.054   4.175
 6306SOL    HW219818   5.767   3.190   4.173
 6307SOL     OW19819   2.698   4.995   0.933
 6307SOL    HW119820   2.706   4.916   0.872
 6307SOL    HW219821   2.753   5.070   0.897
 6308SOL     OW19822   2.994   2.165   5.461
 6308SOL    HW119823   2.909   2.118   5.438
 6308SOL    HW219824   3.019   2.227   5.387
 6309SOL     OW19825   6.038   2.170   4.896
 6309SOL    HW119826   6.035   2.270   4.898
 6309SOL    HW219827   6.007   2.136   4.808
 6310SOL     OW19828   1.382   4.534   4.819
 6310SOL    HW119829   1.352   4.440   4.838
 6310SOL    HW219830   1.392   4.584   4.904
 6311SOL     OW19831   6.222   6.764   4.896
 6311SOL    HW119832   6.189   6.834   4.832
 6311SOL    HW219833   6.262   6.808   4.976
 6312SOL     OW19834   4.934   4.891   6.190
 6312SOL    HW119835   4.990   4.847   6.120
 6312SOL    HW219836   4.872   4.957   6.146
 6313SOL     OW19837   2.991   5.125   3.537
 6313SOL    HW119838   3.057   5.184   3.490
 6313SOL    HW219839   3.003   5.031   3.505
 6314SOL     OW19840   3.312   6.261   3.693
 6314SOL    HW119841   3.341   6.192   3.759
 6314SOL    HW219842   3.261   6.217   3.619
 6315SOL     OW19843   2.455   3.687   0.548
 6315SOL    HW119844   2.400   3.619   0.498
 6315SOL    HW219845   2.528   3.721   0.489
 6316SOL     OW19846   5.342   1.458   6.267
 6316SOL    HW119847   5.249   1.429   6.245
 6316SOL    HW219848   5.340   1.523   6.343
 6317SOL     OW19849   6.458   5.558   3.935
 6317SOL    HW119850   6.384   5.556   4.001
 6317SOL    HW219851   6.443   5.633   3.870
 6318SOL     OW19852   2.752   1.995   4.388
 6318SOL    HW119853   2.751   2.061   4.463
 6318SOL    HW219854   2.675   2.011   4.327
 6319SOL     OW19855   0.841   1.602   2.900
 6319SOL    HW119856   0.785   1.664   2.844
 6319SOL    HW219857   0.894   1.542   2.840
 6320SOL     OW19858   6.956   2.603   3.360
 6320SOL    HW119859   6.872   2.594   3.414
 6320SOL    HW219860   7.023   2.536   3.391
 6321SOL     OW19861   1.816   3.549   0.006
 6321SOL    HW119862   1.743   3.594   0.057
 6321SOL    HW219863   1.812   3.450   0.021
 6322SOL     OW19864   0.881   1.014   0.014
 6322SOL    HW119865   0.830   0.934   7.008
 6322SOL    HW219866   0.820   1.093   0.018
 6323SOL     OW19867   3.578   1.631   1.459
 6323SOL    HW119868   3.645   1.700   1.488
 6323SOL    HW219869   3.613   1.540   1.479
 6324SOL     OW19870   4.157   1.536   6.425
 6324SOL    HW119871   4.145   1.446   6.467
 6324SOL    HW219872   4.077   1.593   6.445
 6325SOL     OW19873   1.660   2.827   1.927
 6325SOL    HW119874   1.646   2.774   1.844
 6325SOL    HW219875   1.638   2.771   2.007
 6326SOL     OW19876   5.246   5.886   1.144
 6326SOL    HW119877   5.184   5.812   1.119
 6326SOL    HW219878   5.264   5.883   1.243
 6327SOL     OW19879   4.951   5.366   6.015
 6327SOL    HW119880   4.987   5.460   6.015
 6327SOL    HW219881   5.023   5.304   5.984
 6328SOL     OW19882   3.023   4.022   6.411
 6328SOL    HW119883   3.070   4.106   6.381
 6328SOL    HW219884   2.938   4.012   6.359
 6329SOL     OW19885   1.221   1.776   3.352
 6329SOL    HW119886   1.135   1.766   3.402
 6329SOL    HW219887   1.274   1.692   3.360
 6330SOL     OW19888   3.279   1.434   0.290
 6330SOL    HW119889   3.256   1.434   0.387
 6330SOL    HW219890   3.329   1.518   0.267
 6331SOL     OW19891   5.858   3.230   1.914
 6331SOL    HW119892   5.833   3.325   1.932
 6331SOL    HW219893   5.881   3.219   1.817
 6332SOL     OW19894   5.672   5.958   2.291
 6332SOL    HW119895   5.587   5.981   2.244
 6332SOL    HW219896   5.664   5.867   2.333
 6333SOL     OW19897   2.122   5.254   3.352
 6333SOL    HW119898   2.159   5.250   3.259
 6333SOL    HW219899   2.105   5.349   3.377
 6334SOL     OW19900   2.701   1.462   2.567
 6334SOL    HW119901   2.666   1.471   2.660
 6334SOL    HW219902   2.627   1.433   2.507
 6335SOL     OW19903   6.876   1.376   0.383
 6335SOL    HW119904   6.869   1.473   0.363
 6335SOL    HW219905   6.966   1.356   0.423
 6336SOL     OW19906   0.386   2.808   5.335
 6336SOL    HW119907   0.480   2.779   5.317
 6336SOL    HW219908   0.368   2.892   5.285
 6337SOL     OW19909   6.553   4.727   5.229
 6337SOL    HW119910   6.504   4.644   5.254
 6337SOL    HW219911   6.650   4.708   5.221
 6338SOL     OW19912   3.829   1.113   4.019
 6338SOL    HW119913   3.856   1.042   4.084
 6338SOL    HW219914   3.895   1.117   3.944
 6339SOL     OW19915   6.731   2.133   4.879
 6339SOL    HW119916   6.768   2.223   4.853
 6339SOL    HW219917   6.736   2.071   4.801
 6340SOL     OW19918   1.806   5.168   4.371
 6340SOL    HW119919   1.788   5.093   4.434
 6340SOL    HW219920   1.803   5.255   4.421
 6341SOL     OW19921   6.535   4.260   2.733
 6341SOL    HW119922   6.565   4.352   2.759
 6341SOL    HW219923   6.588   4.229   2.655
 6342SOL     OW19924   1.793   2.907   0.973
 6342SOL    HW119925   1.754   2.997   0.993
 6342SOL    HW219926   1.729   2.836   1.003
 6343SOL     OW19927   3.727   0.981   0.591
 6343SOL    HW119928   3.771   0.981   0.501
 6343SOL    HW219929   3.628   0.970   0.579
 6344SOL     OW19930   0.345   4.433   4.273
 6344SOL    HW119931   0.271   4.366   4.280
 6344SOL    HW219932   0.381   4.433   4.180
 6345SOL     OW19933   2.861   2.199   2.317
 6345SOL    HW119934   2.885   2.243   2.230
 6345SOL    HW219935   2.837   2.103   2.301
 6346SOL     OW19936   1.248   4.876   4.188
 6346SOL    HW119937   1.162   4.866   4.238
 6346SOL    HW219938   1.284   4.786   4.164
 6347SOL     OW19939   3.365   0.526   1.727
 6347SOL    HW119940   3.267   0.504   1.721
 6347SOL    HW219941   3.415   0.447   1.760
 6348SOL     OW19942   1.344   2.507   4.545
 6348SOL    HW119943   1.425   2.450   4.556
 6348SOL    HW219944   1.354   2.565   4.465
 6349SOL     OW19945   2.141   0.064   0.465
 6349SOL    HW119946   2.142   7.021   0.393
 6349SOL    HW219947   2.047   0.086   0.488
 6350SOL     OW19948   1.132   6.404   2.387
 6350SOL    HW119949   1.106   6.326   2.443
 6350SOL    HW219950   1.186   6.373   2.308
 6351SOL     OW19951   0.211   1.568   2.972
 6351SOL    HW119952   0.196   1.623   3.054
 6351SOL    HW219953   0.227   1.473   2.999
 6352SOL     OW19954   6.458   6.487   2.432
 6352SOL    HW119955   6.420   6.529   2.349
 6352SOL    HW219956   6.548   6.525   2.451
 6353SOL     OW19957   0.169   6.857   2.429
 6353SOL    HW119958   0.194   6.803   2.349
 6353SOL    HW219959   0.223   6.827   2.508
 6354SOL     OW19960   0.375   6.507   3.772
 6354SOL    HW119961   0.475   6.512   3.772
 6354SOL    HW219962   0.346   6.414   3.792
 6355SOL     OW19963   1.683   2.212   2.579
 6355SOL    HW119964   1.611   2.178   2.639
 6355SOL    HW219965   1.738   2.280   2.628
 6356SOL     OW19966   3.080   3.321   1.013
 6356SOL    HW119967   3.019   3.252   0.974
 6356SOL    HW219968   3.156   3.276   1.060
 6357SOL     OW19969   4.741   2.026   0.584
 6357SOL    HW119970   4.795   1.971   0.648
 6357SOL    HW219971   4.803   2.082   0.529
 6358SOL     OW19972   0.564   2.279   4.096
 6358SOL    HW119973   0.484   2.313   4.145
 6358SOL    HW219974   0.549   2.287   3.998
 6359SOL     OW19975   6.956   0.858   6.745
 6359SOL    HW119976   6.926   0.798   6.671
 6359SOL    HW219977   6.876   0.901   6.788
 6360SOL     OW19978   3.295   6.077   4.315
 6360SOL    HW119979   3.203   6.065   4.278
 6360SOL    HW219980   3.342   6.150   4.266
 6361SOL     OW19981   4.161   6.357   5.791
 6361SOL    HW119982   4.075   6.342   5.744
 6361SOL    HW219983   4.183   6.455   5.789
 6362SOL     OW19984   6.207   5.173   6.255
 6362SOL    HW119985   6.243   5.084   6.226
 6362SOL    HW219986   6.259   5.246   6.210
 6363SOL     OW19987   0.817   6.160   4.042
 6363SOL    HW119988   0.773   6.190   3.957
 6363SOL    HW219989   0.789   6.066   4.061
 6364SOL     OW19990   1.870   2.813   6.313
 6364SOL    HW119991   1.868   2.713   6.317
 6364SOL    HW219992   1.832   2.851   6.397
 6365SOL     OW19993   5.108   5.719   2.540
 6365SOL    HW119994   5.095   5.780   2.619
 6365SOL    HW219995   5.197   5.739   2.497
 6366SOL     OW19996   0.137   4.698   6.089
 6366SOL    HW119997   0.182   4.772   6.038
 6366SOL    HW219998   0.198   4.619   6.093
 6367SOL     OW19999   6.046   5.881   2.819
 6367SOL    HW120000   6.008   5.936   2.894
 6367SOL    HW220001   6.041   5.933   2.734
 6368SOL     OW20002   2.818   0.255   4.098
 6368SOL    HW120003   2.770   0.190   4.039
 6368SOL    HW220004   2.901   0.213   4.134
 6369SOL     OW20005   2.173   5.307   4.980
 6369SOL    HW120006   2.088   5.356   4.997
 6369SOL    HW220007   2.250   5.361   5.017
 6370SOL     OW20008   6.383   2.664   2.237
 6370SOL    HW120009   6.297   2.714   2.229
 6370SOL    HW220010   6.399   2.641   2.333
 6371SOL     OW20011   5.091   2.045   3.212
 6371SOL    HW120012   5.137   2.123   3.254
 6371SOL    HW220013   4.994   2.048   3.234
 6372SOL     OW20014   2.578   6.083   2.407
 6372SOL    HW120015   2.545   6.098   2.314
 6372SOL    HW220016   2.628   5.996   2.410
 6373SOL     OW20017   3.688   4.219   0.214
 6373SOL    HW120018   3.750   4.292   0.243
 6373SOL    HW220019   3.741   4.135   0.196
 6374SOL     OW20020   3.151   3.460   2.668
 6374SOL    HW120021   3.203   3.450   2.583
 6374SOL    HW220022   3.057   3.485   2.647
 6375SOL     OW20023   1.826   6.158   2.696
 6375SOL    HW120024   1.749   6.094   2.688
 6375SOL    HW220025   1.904   6.112   2.738
 6376SOL     OW20026   0.454   2.649   5.975
 6376SOL    HW120027   0.445   2.586   5.899
 6376SOL    HW220028   0.497   2.603   6.053
 6377SOL     OW20029   0.446   0.913   4.299
 6377SOL    HW120030   0.400   1.001   4.311
 6377SOL    HW220031   0.529   0.927   4.244
 6378SOL     OW20032   4.530   4.523   3.651
 6378SOL    HW120033   4.452   4.570   3.609
 6378SOL    HW220034   4.574   4.464   3.583
 6379SOL     OW20035   2.590   4.699   3.122
 6379SOL    HW120036   2.597   4.685   3.220
 6379SOL    HW220037   2.657   4.767   3.093
 6380SOL     OW20038   0.691   0.556   6.060
 6380SOL    HW120039   0.720   0.631   6.120
 6380SOL    HW220040   0.746   0.558   5.976
 6381SOL     OW20041   3.356   3.525   2.026
 6381SOL    HW120042   3.442   3.552   1.981
 6381SOL    HW220043   3.306   3.607   2.053
 6382SOL     OW20044   1.140   4.115   4.833
 6382SOL    HW120045   1.237   4.134   4.843
 6382SOL    HW220046   1.127   4.038   4.770
 6383SOL     OW20047   3.967   1.357   4.004
 6383SOL    HW120048   3.915   1.274   4.019
 6383SOL    HW220049   4.064   1.341   4.025
 6384SOL     OW20050   6.204   4.294   3.097
 6384SOL    HW120051   6.284   4.255   3.143
 6384SOL    HW220052   6.123   4.241   3.121
 6385SOL     OW20053   0.537   6.034   4.782
 6385SOL    HW120054   0.549   5.948   4.731
 6385SOL    HW220055   0.600   6.035   4.860
 6386SOL     OW20056   2.780   5.752   1.801
 6386SOL    HW120057   2.709   5.768   1.732
 6386SOL    HW220058   2.782   5.655   1.825
 6387SOL     OW20059   6.372   1.571   4.822
 6387SOL    HW120060   6.391   1.647   4.761
 6387SOL    HW220061   6.449   1.506   4.821
 6388SOL     OW20062   2.257   4.425   2.923
 6388SOL    HW120063   2.333   4.481   2.891
 6388SOL    HW220064   2.194   4.483   2.976
 6389SOL     OW20065   0.855   4.880   2.195
 6389SOL    HW120066   0.766   4.840   2.219
 6389SOL    HW220067   0.923   4.853   2.263
 6390SOL     OW20068   0.332   3.815   4.118
 6390SOL    HW120069   0.304   3.864   4.035
 6390SOL    HW220070   0.315   3.717   4.106
 6391SOL     OW20071   3.360   1.288   6.941
 6391SOL    HW120072   3.387   1.220   6.873
 6391SOL    HW220073   3.286   1.252   6.997
 6392SOL     OW20074   1.380   6.349   3.991
 6392SOL    HW120075   1.386   6.251   4.005
 6392SOL    HW220076   1.437   6.376   3.914
 6393SOL     OW20077   5.317   0.868   0.487
 6393SOL    HW120078   5.259   0.890   0.565
 6393SOL    HW220079   5.324   0.769   0.477
 6394SOL     OW20080   3.235   4.924   1.643
 6394SOL    HW120081   3.281   4.848   1.688
 6394SOL    HW220082   3.299   4.971   1.582
 6395SOL     OW20083   5.590   1.166   1.017
 6395SOL    HW120084   5.581   1.161   0.917
 6395SOL    HW220085   5.613   1.260   1.043
 6396SOL     OW20086   5.479   3.712   5.172
 6396SOL    HW120087   5.464   3.726   5.270
 6396SOL    HW220088   5.526   3.626   5.157
 6397SOL     OW20089   6.862   0.851   0.452
 6397SOL    HW120090   6.866   0.927   0.516
 6397SOL    HW220091   6.796   0.872   0.380
 6398SOL     OW20092   3.797   1.026   1.374
 6398SOL    HW120093   3.703   1.058   1.370
 6398SOL    HW220094   3.841   1.062   1.457
 6399SOL     OW20095   2.838   5.723   0.222
 6399SOL    HW120096   2.858   5.717   0.124
 6399SOL    HW220097   2.882   5.647   0.270
 6400SOL     OW20098   2.680   5.455   4.087
 6400SOL    HW120099   2.624   5.401   4.149
 6400SOL    HW220100   2.655   5.552   4.096
 6401SOL     OW20101   0.986   4.614   4.345
 6401SOL    HW120102   1.075   4.578   4.373
 6401SOL    HW220103   0.948   4.557   4.271
 6402SOL     OW20104   1.851   2.231   3.162
 6402SOL    HW120105   1.858   2.307   3.227
 6402SOL    HW220106   1.759   2.229   3.123
 6403SOL     OW20107   0.390   5.868   1.412
 6403SOL    HW120108   0.425   5.929   1.341
 6403SOL    HW220109   0.331   5.799   1.372
 6404SOL     OW20110   5.034   1.006   3.098
 6404SOL    HW120111   4.963   0.936   3.103
 6404SOL    HW220112   5.025   1.056   3.011
 6405SOL     OW20113   2.781   1.481   2.100
 6405SOL    HW120114   2.868   1.502   2.145
 6405SOL    HW220115   2.780   1.522   2.009
 6406SOL     OW20116   2.672   1.850   3.633
 6406SOL    HW120117   2.661   1.835   3.731
 6406SOL    HW220118   2.586   1.881   3.594
 6407SOL     OW20119   4.310   5.265   6.302
 6407SOL    HW120120   4.215   5.236   6.293
 6407SOL    HW220121   4.336   5.261   6.399
 6408SOL     OW20122   6.174   1.732   0.475
 6408SOL    HW120123   6.144   1.798   0.543
 6408SOL    HW220124   6.094   1.698   0.424
 6409SOL     OW20125   0.674   4.477   2.273
 6409SOL    HW120126   0.645   4.572   2.290
 6409SOL    HW220127   0.722   4.442   2.354
 6410SOL     OW20128   1.222   1.363   1.697
 6410SOL    HW120129   1.259   1.298   1.630
 6410SOL    HW220130   1.294   1.427   1.724
 6411SOL     OW20131   1.957   0.622   3.177
 6411SOL    HW120132   2.018   0.666   3.112
 6411SOL    HW220133   1.981   0.649   3.270
 6412SOL     OW20134   0.055   1.938   4.931
 6412SOL    HW120135   0.006   2.019   4.899
 6412SOL    HW220136   0.018   1.856   4.886
 6413SOL     OW20137   0.466   4.338   0.511
 6413SOL    HW120138   0.452   4.429   0.549
 6413SOL    HW220139   0.434   4.269   0.577
 6414SOL     OW20140   6.539   6.803   2.606
 6414SOL    HW120141   6.453   6.774   2.565
 6414SOL    HW220142   6.532   6.898   2.637
 6415SOL     OW20143   1.458   1.683   1.906
 6415SOL    HW120144   1.399   1.683   1.987
 6415SOL    HW220145   1.426   1.614   1.841
 6416SOL     OW20146   2.062   6.784   6.381
 6416SOL    HW120147   2.119   6.729   6.320
 6416SOL    HW220148   2.069   6.749   6.475
 6417SOL     OW20149   0.734   6.608   3.105
 6417SOL    HW120150   0.691   6.518   3.112
 6417SOL    HW220151   0.821   6.600   3.057
 6418SOL     OW20152   6.776   6.038   2.663
 6418SOL    HW120153   6.846   6.034   2.735
 6418SOL    HW220154   6.785   6.124   2.612
 6419SOL     OW20155   2.684   4.663   1.489
 6419SOL    HW120156   2.672   4.564   1.488
 6419SOL    HW220157   2.618   4.704   1.551
 6420SOL     OW20158   0.784   3.530   0.006
 6420SOL    HW120159   0.789   3.617   6.985
 6420SOL    HW220160   0.772   3.456   6.965
 6421SOL     OW20161   5.837   2.001   1.127
 6421SOL    HW120162   5.784   1.997   1.211
 6421SOL    HW220163   5.883   1.914   1.112
 6422SOL     OW20164   6.073   1.875   3.764
 6422SOL    HW120165   6.155   1.838   3.809
 6422SOL    HW220166   6.085   1.869   3.665
 6423SOL     OW20167   5.041   4.310   1.140
 6423SOL    HW120168   5.071   4.249   1.067
 6423SOL    HW220169   5.102   4.302   1.219
 6424SOL     OW20170   6.750   5.248   5.101
 6424SOL    HW120171   6.790   5.317   5.041
 6424SOL    HW220172   6.711   5.174   5.046
 6425SOL     OW20173   0.170   4.651   1.307
 6425SOL    HW120174   0.194   4.603   1.222
 6425SOL    HW220175   0.243   4.716   1.329
 6426SOL     OW20176   6.613   2.843   3.541
 6426SOL    HW120177   6.697   2.831   3.595
 6426SOL    HW220178   6.637   2.875   3.449
 6427SOL     OW20179   1.158   3.102   5.711
 6427SOL    HW120180   1.161   3.109   5.811
 6427SOL    HW220181   1.076   3.148   5.677
 6428SOL     OW20182   6.424   2.786   2.836
 6428SOL    HW120183   6.474   2.831   2.762
 6428SOL    HW220184   6.487   2.728   2.887
 6429SOL     OW20185   1.078   0.694   4.310
 6429SOL    HW120186   1.160   0.728   4.355
 6429SOL    HW220187   1.103   0.636   4.233
 6430SOL     OW20188   5.984   3.603   0.458
 6430SOL    HW120189   6.027   3.512   0.461
 6430SOL    HW220190   5.958   3.630   0.550
 6431SOL     OW20191   5.267   0.749   3.212
 6431SOL    HW120192   5.251   0.768   3.309
 6431SOL    HW220193   5.203   0.802   3.157
 6432SOL     OW20194   5.990   3.477   0.092
 6432SOL    HW120195   5.913   3.453   0.151
 6432SOL    HW220196   5.964   3.555   0.034
 6433SOL     OW20197   2.560   3.899   1.571
 6433SOL    HW120198   2.657   3.908   1.545
 6433SOL    HW220199   2.535   3.972   1.634
 6434SOL     OW20200   2.124   5.652   0.122
 6434SOL    HW120201   2.148   5.556   0.106
 6434SOL    HW220202   2.208   5.706   0.128
 6435SOL     OW20203   4.765   3.972   0.371
 6435SOL    HW120204   4.719   3.906   0.311
 6435SOL    HW220205   4.864   3.956   0.367
 6436SOL     OW20206   1.461   3.130   2.697
 6436SOL    HW120207   1.454   3.065   2.622
 6436SOL    HW220208   1.371   3.140   2.741
 6437SOL     OW20209   0.476   0.573   6.746
 6437SOL    HW120210   0.447   0.507   6.815
 6437SOL    HW220211   0.414   0.571   6.668
 6438SOL     OW20212   1.078   3.409   3.477
 6438SOL    HW120213   1.019   3.398   3.398
 6438SOL    HW220214   1.026   3.390   3.561
 6439SOL     OW20215   6.870   6.679   2.214
 6439SOL    HW120216   6.782   6.669   2.168
 6439SOL    HW220217   6.934   6.611   2.179
 6440SOL     OW20218   0.498   0.968   2.416
 6440SOL    HW120219   0.445   1.022   2.351
 6440SOL    HW220220   0.441   0.945   2.494
 6441SOL     OW20221   3.398   1.386   3.479
 6441SOL    HW120222   3.361   1.390   3.572
 6441SOL    HW220223   3.422   1.479   3.450
 6442SOL     OW20224   3.329   0.461   3.748
 6442SOL    HW120225   3.312   0.537   3.810
 6442SOL    HW220226   3.348   0.496   3.656
 6443SOL     OW20227   2.312   1.313   0.542
 6443SOL    HW120228   2.332   1.243   0.610
 6443SOL    HW220229   2.397   1.357   0.513
 6444SOL     OW20230   0.718   0.855   3.604
 6444SOL    HW120231   0.703   0.790   3.679
 6444SOL    HW220232   0.814   0.849   3.574
 6445SOL     OW20233   3.587   3.468   5.651
 6445SOL    HW120234   3.627   3.384   5.616
 6445SOL    HW220235   3.490   3.471   5.627
 6446SOL     OW20236   6.387   1.610   0.877
 6446SOL    HW120237   6.438   1.525   0.875
 6446SOL    HW220238   6.439   1.682   0.831
 6447SOL     OW20239   1.816   0.391   2.851
 6447SOL    HW120240   1.900   0.360   2.897
 6447SOL    HW220241   1.838   0.426   2.760
 6448SOL     OW20242   6.327   2.394   2.674
 6448SOL    HW120243   6.401   2.376   2.610
 6448SOL    HW220244   6.330   2.328   2.749
 6449SOL     OW20245   3.351   3.131   1.334
 6449SOL    HW120246   3.316   3.132   1.240
 6449SOL    HW220247   3.303   3.061   1.387
 6450SOL     OW20248   6.838   3.512   0.024
 6450SOL    HW120249   6.760   3.482   0.078
 6450SOL    HW220250   6.908   3.440   0.024
 6451SOL     OW20251   1.933   6.796   4.353
 6451SOL    HW120252   2.014   6.846   4.322
 6451SOL    HW220253   1.933   6.792   4.453
 6452SOL     OW20254   4.258   6.463   3.305
 6452SOL    HW120255   4.258   6.402   3.385
 6452SOL    HW220256   4.199   6.542   3.323
 6453SOL     OW20257   2.061   4.318   6.284
 6453SOL    HW120258   2.156   4.341   6.307
 6453SOL    HW220259   2.003   4.398   6.296
 6454SOL     OW20260   2.964   1.409   4.285
 6454SOL    HW120261   2.996   1.426   4.378
 6454SOL    HW220262   2.965   1.495   4.233
 6455SOL     OW20263   6.841   2.798   5.193
 6455SOL    HW120264   6.780   2.858   5.246
 6455SOL    HW220265   6.935   2.807   5.228
 6456SOL     OW20266   6.847   0.922   4.337
 6456SOL    HW120267   6.778   0.888   4.273
 6456SOL    HW220268   6.846   0.867   4.420
 6457SOL     OW20269   6.394   3.046   2.121
 6457SOL    HW120270   6.402   3.098   2.036
 6457SOL    HW220271   6.452   3.088   2.191
 6458SOL     OW20272   1.586   5.793   2.522
 6458SOL    HW120273   1.684   5.802   2.503
 6458SOL    HW220274   1.562   5.849   2.601
 6459SOL     OW20275   5.259   4.507   0.424
 6459SOL    HW120276   5.184   4.441   0.416
 6459SOL    HW220277   5.308   4.492   0.510
 6460SOL     OW20278   3.259   4.946   0.061
 6460SOL    HW120279   3.282   4.977   0.153
 6460SOL    HW220280   3.323   4.875   0.033
 6461SOL     OW20281   3.762   5.370   4.830
 6461SOL    HW120282   3.862   5.375   4.831
 6461SOL    HW220283   3.724   5.458   4.802
 6462SOL     OW20284   2.018   3.072   3.677
 6462SOL    HW120285   2.107   3.075   3.721
 6462SOL    HW220286   1.998   2.979   3.648
 6463SOL     OW20287   1.211   4.521   5.208
 6463SOL    HW120288   1.149   4.459   5.158
 6463SOL    HW220289   1.261   4.469   5.277
 6464SOL     OW20290   0.604   5.483   2.497
 6464SOL    HW120291   0.511   5.452   2.478
 6464SOL    HW220292   0.604   5.583   2.508
 6465SOL     OW20293   6.451   0.663   2.650
 6465SOL    HW120294   6.535   0.714   2.633
 6465SOL    HW220295   6.422   0.617   2.566
 6466SOL     OW20296   0.357   2.409   5.543
 6466SOL    HW120297   0.386   2.496   5.502
 6466SOL    HW220298   0.293   2.363   5.482
 6467SOL     OW20299   2.705   0.989   6.276
 6467SOL    HW120300   2.716   0.899   6.234
 6467SOL    HW220301   2.609   1.005   6.297
 6468SOL     OW20302   4.742   4.493   1.046
 6468SOL    HW120303   4.740   4.409   1.101
 6468SOL    HW220304   4.721   4.572   1.104
 6469SOL     OW20305   6.765   1.066   5.816
 6469SOL    HW120306   6.702   1.133   5.776
 6469SOL    HW220307   6.853   1.109   5.834
 6470SOL     OW20308   6.421   6.294   5.518
 6470SOL    HW120309   6.345   6.359   5.526
 6470SOL    HW220310   6.500   6.339   5.476
 6471SOL     OW20311   5.616   5.467   6.105
 6471SOL    HW120312   5.533   5.460   6.159
 6471SOL    HW220313   5.618   5.557   6.059
 6472SOL     OW20314   1.128   5.547   1.027
 6472SOL    HW120315   1.215   5.568   1.073
 6472SOL    HW220316   1.100   5.625   0.971
 6473SOL     OW20317   2.209   1.284   5.470
 6473SOL    HW120318   2.301   1.323   5.478
 6473SOL    HW220319   2.163   1.290   5.559
 6474SOL     OW20320   2.570   3.464   5.310
 6474SOL    HW120321   2.569   3.564   5.303
 6474SOL    HW220322   2.476   3.430   5.306
 6475SOL     OW20323   4.343   6.474   3.832
 6475SOL    HW120324   4.396   6.558   3.821
 6475SOL    HW220325   4.385   6.417   3.903
 6476SOL     OW20326   4.964   4.812   2.604
 6476SOL    HW120327   4.969   4.843   2.699
 6476SOL    HW220328   5.052   4.773   2.577
 6477SOL     OW20329   0.267   6.213   6.499
 6477SOL    HW120330   0.321   6.298   6.506
 6477SOL    HW220331   0.324   6.141   6.461
 6478SOL     OW20332   4.965   6.386   0.729
 6478SOL    HW120333   4.955   6.481   0.701
 6478SOL    HW220334   5.026   6.381   0.809
 6479SOL     OW20335   4.304   5.912   2.647
 6479SOL    HW120336   4.237   5.851   2.688
 6479SOL    HW220337   4.374   5.936   2.715
 6480SOL     OW20338   2.942   1.678   0.240
 6480SOL    HW120339   2.869   1.652   0.177
 6480SOL    HW220340   2.992   1.596   0.269
 6481SOL     OW20341   4.673   1.020   1.314
 6481SOL    HW120342   4.575   1.037   1.312
 6481SOL    HW220343   4.695   0.956   1.388
 6482SOL     OW20344   0.352   0.738   0.159
 6482SOL    HW120345   0.286   0.806   0.130
 6482SOL    HW220346   0.321   0.647   0.131
 6483SOL     OW20347   2.086   6.180   2.378
 6483SOL    HW120348   2.179   6.206   2.351
 6483SOL    HW220349   2.059   6.232   2.459
 6484SOL     OW20350   5.514   5.997   3.430
 6484SOL    HW120351   5.547   5.964   3.518
 6484SOL    HW220352   5.587   5.989   3.362
 6485SOL     OW20353   0.770   2.650   3.150
 6485SOL    HW120354   0.817   2.738   3.158
 6485SOL    HW220355   0.796   2.591   3.226
 6486SOL     OW20356   1.859   2.812   3.284
 6486SOL    HW120357   1.857   2.780   3.189
 6486SOL    HW220358   1.771   2.852   3.308
 6487SOL     OW20359   5.929   5.766   3.385
 6487SOL    HW120360   5.939   5.759   3.484
 6487SOL    HW220361   6.007   5.724   3.340
 6488SOL     OW20362   3.553   5.008   6.401
 6488SOL    HW120363   3.466   5.012   6.350
 6488SOL    HW220364   3.597   4.920   6.383
 6489SOL     OW20365   1.897   2.316   5.595
 6489SOL    HW120366   1.927   2.409   5.575
 6489SOL    HW220367   1.971   2.267   5.641
 6490SOL     OW20368   3.679   1.296   0.304
 6490SOL    HW120369   3.636   1.279   0.216
 6490SOL    HW220370   3.615   1.275   0.378
 6491SOL     OW20371   3.522   1.447   6.345
 6491SOL    HW120372   3.442   1.425   6.289
 6491SOL    HW220373   3.571   1.524   6.304
 6492SOL     OW20374   6.015   5.611   6.734
 6492SOL    HW120375   5.996   5.709   6.730
 6492SOL    HW220376   6.076   5.586   6.659
 6493SOL     OW20377   0.955   6.418   5.785
 6493SOL    HW120378   1.018   6.492   5.809
 6493SOL    HW220379   0.944   6.357   5.864
 6494SOL     OW20380   1.652   6.944   3.549
 6494SOL    HW120381   1.693   0.002   3.516
 6494SOL    HW220382   1.636   6.882   3.472
 6495SOL     OW20383   5.292   5.122   2.225
 6495SOL    HW120384   5.342   5.206   2.245
 6495SOL    HW220385   5.215   5.113   2.288
 6496SOL     OW20386   2.198   6.808   3.245
 6496SOL    HW120387   2.106   6.803   3.283
 6496SOL    HW220388   2.265   6.809   3.318
 6497SOL     OW20389   0.238   5.209   0.090
 6497SOL    HW120390   0.202   5.302   0.092
 6497SOL    HW220391   0.183   5.153   0.029
 6498SOL     OW20392   1.684   4.312   3.697
 6498SOL    HW120393   1.742   4.298   3.617
 6498SOL    HW220394   1.715   4.255   3.773
 6499SOL     OW20395   5.867   1.072   3.711
 6499SOL    HW120396   5.823   1.005   3.651
 6499SOL    HW220397   5.928   1.025   3.775
 6500SOL     OW20398   5.492   4.568   3.568
 6500SOL    HW120399   5.394   4.568   3.547
 6500SOL    HW220400   5.534   4.486   3.530
 6501SOL     OW20401   6.954   3.875   1.035
 6501SOL    HW120402   6.970   3.782   1.068
 6501SOL    HW220403   6.919   3.871   0.941
 6502SOL     OW20404   1.320   4.834   2.286
 6502SOL    HW120405   1.344   4.836   2.189
 6502SOL    HW220406   1.397   4.797   2.338
 6503SOL     OW20407   4.155   0.407   4.389
 6503SOL    HW120408   4.158   0.324   4.334
 6503SOL    HW220409   4.070   0.411   4.440
 6504SOL     OW20410   2.290   1.083   0.693
 6504SOL    HW120411   2.352   1.077   0.772
 6504SOL    HW220412   2.195   1.082   0.726
 6505SOL     OW20413   5.619   5.201   1.097
 6505SOL    HW120414   5.598   5.265   1.022
 6505SOL    HW220415   5.569   5.229   1.179
 6506SOL     OW20416   1.802   2.325   0.747
 6506SOL    HW120417   1.890   2.343   0.702
 6506SOL    HW220418   1.751   2.411   0.756
 6507SOL     OW20419   2.595   0.664   2.191
 6507SOL    HW120420   2.628   0.757   2.210
 6507SOL    HW220421   2.567   0.620   2.276
 6508SOL     OW20422   2.175   1.815   2.367
 6508SOL    HW120423   2.172   1.813   2.467
 6508SOL    HW220424   2.268   1.838   2.337
 6509SOL     OW20425   0.667   2.797   4.857
 6509SOL    HW120426   0.576   2.835   4.841
 6509SOL    HW220427   0.727   2.821   4.781
 6510SOL     OW20428   5.437   5.101   6.450
 6510SOL    HW120429   5.503   5.060   6.386
 6510SOL    HW220430   5.477   5.106   6.541
 6511SOL     OW20431   5.979   6.186   5.405
 6511SOL    HW120432   6.034   6.116   5.450
 6511SOL    HW220433   5.900   6.208   5.462
 6512SOL     OW20434   5.438   6.787   3.661
 6512SOL    HW120435   5.490   6.724   3.603
 6512SOL    HW220436   5.405   6.863   3.605
 6513SOL     OW20437   3.004   6.857   2.866
 6513SOL    HW120438   3.084   6.910   2.839
 6513SOL    HW220439   2.933   6.866   2.797
 6514SOL     OW20440   3.634   6.905   3.374
 6514SOL    HW120441   3.715   6.914   3.316
 6514SOL    HW220442   3.661   6.905   3.470
 6515SOL     OW20443   1.183   1.077   4.367
 6515SOL    HW120444   1.273   1.077   4.411
 6515SOL    HW220445   1.113   1.100   4.434
 6516SOL     OW20446   1.544   1.312   5.452
 6516SOL    HW120447   1.503   1.256   5.525
 6516SOL    HW220448   1.518   1.275   5.363
 6517SOL     OW20449   1.512   2.086   6.898
 6517SOL    HW120450   1.432   2.107   6.842
 6517SOL    HW220451   1.583   2.045   6.840
 6518SOL     OW20452   6.115   6.446   0.538
 6518SOL    HW120453   6.151   6.533   0.504
 6518SOL    HW220454   6.189   6.395   0.582
 6519SOL     OW20455   2.159   1.901   3.487
 6519SOL    HW120456   2.188   1.917   3.581
 6519SOL    HW220457   2.239   1.883   3.430
 6520SOL     OW20458   5.436   4.990   1.762
 6520SOL    HW120459   5.463   4.956   1.672
 6520SOL    HW220460   5.511   4.976   1.826
 6521SOL     OW20461   1.271   1.448   5.539
 6521SOL    HW120462   1.245   1.534   5.495
 6521SOL    HW220463   1.358   1.460   5.587
 6522SOL     OW20464   2.461   5.208   5.332
 6522SOL    HW120465   2.427   5.297   5.362
 6522SOL    HW220466   2.551   5.190   5.373
 6523SOL     OW20467   1.596   2.368   6.832
 6523SOL    HW120468   1.684   2.363   6.784
 6523SOL    HW220469   1.577   2.279   6.875
 6524SOL     OW20470   3.395   4.168   4.167
 6524SOL    HW120471   3.315   4.157   4.227
 6524SOL    HW220472   3.443   4.081   4.160
 6525SOL     OW20473   0.614   2.705   4.505
 6525SOL    HW120474   0.563   2.671   4.426
 6525SOL    HW220475   0.617   2.805   4.502
 6526SOL     OW20476   1.889   5.781   4.527
 6526SOL    HW120477   1.923   5.705   4.472
 6526SOL    HW220478   1.893   5.865   4.473
 6527SOL     OW20479   2.452   1.016   4.386
 6527SOL    HW120480   2.382   0.983   4.322
 6527SOL    HW220481   2.415   1.014   4.479
 6528SOL     OW20482   6.589   6.782   3.287
 6528SOL    HW120483   6.540   6.765   3.372
 6528SOL    HW220484   6.551   6.864   3.242
 6529SOL     OW20485   6.567   2.569   1.878
 6529SOL    HW120486   6.648   2.624   1.858
 6529SOL    HW220487   6.538   2.521   1.795
 6530SOL     OW20488   6.772   2.288   0.773
 6530SOL    HW120489   6.754   2.386   0.771
 6530SOL    HW220490   6.844   2.269   0.840
 6531SOL     OW20491   5.369   2.656   4.096
 6531SOL    HW120492   5.403   2.570   4.057
 6531SOL    HW220493   5.365   2.646   4.196
 6532SOL     OW20494   0.528   2.075   6.337
 6532SOL    HW120495   0.579   1.990   6.337
 6532SOL    HW220496   0.430   2.055   6.338
 6533SOL     OW20497   4.812   1.417   0.794
 6533SOL    HW120498   4.884   1.386   0.732
 6533SOL    HW220499   4.834   1.388   0.887
 6534SOL     OW20500   1.855   3.466   0.404
 6534SOL    HW120501   1.829   3.550   0.355
 6534SOL    HW220502   1.880   3.490   0.498
 6535SOL     OW20503   1.986   3.672   5.858
 6535SOL    HW120504   2.037   3.741   5.808
 6535SOL    HW220505   2.036   3.585   5.856
 6536SOL     OW20506   6.954   2.325   0.166
 6536SOL    HW120507   6.876   2.387   0.155
 6536SOL    HW220508   0.002   2.373   0.212
 6537SOL     OW20509   0.408   6.808   6.950
 6537SOL    HW120510   0.472   6.833   6.877
 6537SOL    HW220511   0.315   6.802   6.912
 6538SOL     OW20512   1.875   3.478   6.160
 6538SOL    HW120513   1.824   3.431   6.089
 6538SOL    HW220514   1.813   3.504   6.234
 6539SOL     OW20515   2.446   1.657   6.433
 6539SOL    HW120516   2.429   1.561   6.410
 6539SOL    HW220517   2.540   1.667   6.467
 6540SOL     OW20518   3.447   1.339   3.975
 6540SOL    HW120519   3.428   1.426   3.931
 6540SOL    HW220520   3.425   1.264   3.913
 6541SOL     OW20521   2.724   2.563   5.377
 6541SOL    HW120522   2.787   2.636   5.404
 6541SOL    HW220523   2.642   2.566   5.435
 6542SOL     OW20524   5.624   4.365   3.457
 6542SOL    HW120525   5.692   4.359   3.385
 6542SOL    HW220526   5.575   4.278   3.464
 6543SOL     OW20527   0.071   5.597   6.818
 6543SOL    HW120528   7.019   5.646   6.856
 6543SOL    HW220529   0.139   5.662   6.786
 6544SOL     OW20530   6.396   6.040   3.852
 6544SOL    HW120531   6.314   6.037   3.794
 6544SOL    HW220532   6.427   6.135   3.861
 6545SOL     OW20533   5.232   2.677   5.812
 6545SOL    HW120534   5.196   2.765   5.843
 6545SOL    HW220535   5.304   2.693   5.744
 6546SOL     OW20536   3.335   4.532   5.967
 6546SOL    HW120537   3.279   4.495   5.893
 6546SOL    HW220538   3.276   4.574   6.036
 6547SOL     OW20539   5.025   1.718   6.435
 6547SOL    HW120540   4.973   1.634   6.428
 6547SOL    HW220541   4.983   1.778   6.503
 6548SOL     OW20542   6.204   4.750   5.017
 6548SOL    HW120543   6.134   4.818   4.995
 6548SOL    HW220544   6.294   4.794   5.017
 6549SOL     OW20545   3.174   1.434   1.526
 6549SOL    HW120546   3.199   1.502   1.457
 6549SOL    HW220547   3.076   1.442   1.547
 6550SOL     OW20548   0.669   5.567   3.256
 6550SOL    HW120549   0.622   5.605   3.335
 6550SOL    HW220550   0.768   5.567   3.272
 6551SOL     OW20551   2.439   5.056   2.206
 6551SOL    HW120552   2.368   5.092   2.267
 6551SOL    HW220553   2.433   5.102   2.117
 6552SOL     OW20554   4.388   4.938   6.381
 6552SOL    HW120555   4.357   4.987   6.463
 6552SOL    HW220556   4.486   4.955   6.367
 6553SOL     OW20557   0.257   2.834   2.780
 6553SOL    HW120558   0.325   2.906   2.771
 6553SOL    HW220559   0.198   2.854   2.859
 6554SOL     OW20560   0.297   3.300   5.111
 6554SOL    HW120561   0.270   3.347   5.195
 6554SOL    HW220562   0.251   3.342   5.033
 6555SOL     OW20563   0.674   1.537   2.131
 6555SOL    HW120564   0.581   1.524   2.166
 6555SOL    HW220565   0.686   1.483   2.047
 6556SOL     OW20566   3.352   0.326   4.416
 6556SOL    HW120567   3.418   0.256   4.443
 6556SOL    HW220568   3.352   0.335   4.316
 6557SOL     OW20569   6.169   6.233   1.494
 6557SOL    HW120570   6.122   6.292   1.560
 6557SOL    HW220571   6.103   6.169   1.454
 6558SOL     OW20572   6.688   5.539   6.396
 6558SOL    HW120573   6.780   5.572   6.416
 6558SOL    HW220574   6.637   5.529   6.481
 6559SOL     OW20575   3.284   3.157   1.072
 6559SOL    HW120576   3.248   3.074   1.029
 6559SOL    HW220577   3.361   3.192   1.018
 6560SOL     OW20578   3.755   2.142   0.346
 6560SOL    HW120579   3.780   2.053   0.306
 6560SOL    HW220580   3.748   2.133   0.446
 6561SOL     OW20581   3.742   3.980   4.238
 6561SOL    HW120582   3.699   4.065   4.267
 6561SOL    HW220583   3.681   3.903   4.257
 6562SOL     OW20584   5.837   3.473   5.353
 6562SOL    HW120585   5.899   3.463   5.275
 6562SOL    HW220586   5.743   3.453   5.323
 6563SOL     OW20587   1.548   4.750   2.391
 6563SOL    HW120588   1.608   4.787   2.320
 6563SOL    HW220589   1.602   4.717   2.468
 6564SOL     OW20590   1.248   5.920   2.561
 6564SOL    HW120591   1.151   5.917   2.539
 6564SOL    HW220592   1.299   5.958   2.484
 6565SOL     OW20593   6.303   3.417   5.032
 6565SOL    HW120594   6.247   3.452   4.957
 6565SOL    HW220595   6.287   3.472   5.114
 6566SOL     OW20596   3.790   6.898   0.852
 6566SOL    HW120597   3.762   6.838   0.926
 6566SOL    HW220598   3.889   6.909   0.853
 6567SOL     OW20599   6.283   3.031   1.495
 6567SOL    HW120600   6.255   3.045   1.590
 6567SOL    HW220601   6.370   2.982   1.493
 6568SOL     OW20602   3.978   4.224   1.721
 6568SOL    HW120603   3.912   4.150   1.710
 6568SOL    HW220604   4.071   4.187   1.711
 6569SOL     OW20605   0.846   4.717   6.595
 6569SOL    HW120606   0.847   4.626   6.554
 6569SOL    HW220607   0.850   4.709   6.694
 6570SOL     OW20608   5.872   2.983   1.190
 6570SOL    HW120609   5.969   2.991   1.166
 6570SOL    HW220610   5.834   2.902   1.147
 6571SOL     OW20611   3.012   6.108   3.985
 6571SOL    HW120612   3.034   6.038   3.918
 6571SOL    HW220613   3.046   6.197   3.953
 6572SOL     OW20614   1.153   3.772   6.733
 6572SOL    HW120615   1.162   3.775   6.633
 6572SOL    HW220616   1.091   3.698   6.759
 6573SOL     OW20617   1.733   1.957   2.194
 6573SOL    HW120618   1.746   2.045   2.148
 6573SOL    HW220619   1.742   1.883   2.128
 6574SOL     OW20620   2.194   4.557   3.284
 6574SOL    HW120621   2.137   4.631   3.319
 6574SOL    HW220622   2.254   4.592   3.212
 6575SOL     OW20623   1.187   1.239   2.521
 6575SOL    HW120624   1.278   1.236   2.479
 6575SOL    HW220625   1.165   1.334   2.544
 6576SOL     OW20626   1.053   6.253   5.032
 6576SOL    HW120627   1.105   6.236   5.116
 6576SOL    HW220628   1.111   6.298   4.965
 6577SOL     OW20629   6.497   2.522   4.639
 6577SOL    HW120630   6.478   2.535   4.736
 6577SOL    HW220631   6.446   2.591   4.586
 6578SOL     OW20632   6.605   5.235   3.121
 6578SOL    HW120633   6.617   5.333   3.106
 6578SOL    HW220634   6.640   5.211   3.212
 6579SOL     OW20635   0.841   3.778   2.561
 6579SOL    HW120636   0.901   3.792   2.482
 6579SOL    HW220637   0.885   3.716   2.626
 6580SOL     OW20638   6.192   2.449   1.616
 6580SOL    HW120639   6.192   2.546   1.642
 6580SOL    HW220640   6.117   2.433   1.552
 6581SOL     OW20641   2.380   2.151   5.427
 6581SOL    HW120642   2.394   2.055   5.404
 6581SOL    HW220643   2.396   2.165   5.525
 6582SOL     OW20644   0.258   0.155   2.945
 6582SOL    HW120645   0.166   0.182   2.975
 6582SOL    HW220646   0.277   0.195   2.855
 6583SOL     OW20647   5.256   1.917   5.455
 6583SOL    HW120648   5.276   1.892   5.361
 6583SOL    HW220649   5.213   1.840   5.502
 6584SOL     OW20650   5.381   2.145   6.772
 6584SOL    HW120651   5.395   2.212   6.700
 6584SOL    HW220652   5.469   2.105   6.798
 6585SOL     OW20653   2.012   0.860   0.588
 6585SOL    HW120654   2.010   0.959   0.595
 6585SOL    HW220655   1.985   0.819   0.675
 6586SOL     OW20656   0.171   2.246   0.031
 6586SOL    HW120657   0.195   2.198   0.116
 6586SOL    HW220658   0.086   2.297   0.044
 6587SOL     OW20659   2.189   6.692   2.571
 6587SOL    HW120660   2.207   6.783   2.535
 6587SOL    HW220661   2.154   6.633   2.497
 6588SOL     OW20662   2.300   2.784   6.948
 6588SOL    HW120663   2.280   2.874   6.910
 6588SOL    HW220664   2.226   2.721   6.925
 6589SOL     OW20665   5.124   1.689   5.579
 6589SOL    HW120666   5.132   1.590   5.588
 6589SOL    HW220667   5.113   1.731   5.669
 6590SOL     OW20668   6.535   1.513   5.292
 6590SOL    HW120669   6.620   1.461   5.279
 6590SOL    HW220670   6.470   1.458   5.344
 6591SOL     OW20671   5.706   1.025   2.422
 6591SOL    HW120672   5.792   0.975   2.410
 6591SOL    HW220673   5.709   1.078   2.507
 6592SOL     OW20674   5.078   5.534   4.819
 6592SOL    HW120675   5.166   5.487   4.827
 6592SOL    HW220676   5.077   5.588   4.735
 6593SOL     OW20677   4.076   0.714   2.769
 6593SOL    HW120678   4.162   0.765   2.775
 6593SOL    HW220679   4.016   0.757   2.702
 6594SOL     OW20680   5.574   1.026   6.312
 6594SOL    HW120681   5.661   1.064   6.345
 6594SOL    HW220682   5.564   0.933   6.349
 6595SOL     OW20683   1.426   3.535   0.641
 6595SOL    HW120684   1.450   3.601   0.569
 6595SOL    HW220685   1.329   3.542   0.662
 6596SOL     OW20686   3.656   6.692   5.037
 6596SOL    HW120687   3.722   6.628   5.077
 6596SOL    HW220688   3.563   6.660   5.056
 6597SOL     OW20689   6.897   4.603   5.980
 6597SOL    HW120690   6.897   4.668   5.904
 6597SOL    HW220691   6.977   4.619   6.037
 6598SOL     OW20692   2.209   5.687   5.481
 6598SOL    HW120693   2.236   5.728   5.568
 6598SOL    HW220694   2.197   5.760   5.413
 6599SOL     OW20695   4.560   3.664   6.029
 6599SOL    HW120696   4.601   3.673   6.120
 6599SOL    HW220697   4.624   3.616   5.968
 6600SOL     OW20698   4.168   5.791   4.300
 6600SOL    HW120699   4.191   5.785   4.203
 6600SOL    HW220700   4.085   5.739   4.318
 6601SOL     OW20701   1.107   0.444   1.204
 6601SOL    HW120702   1.022   0.398   1.230
 6601SOL    HW220703   1.097   0.543   1.218
 6602SOL     OW20704   6.531   1.427   1.495
 6602SOL    HW120705   6.529   1.450   1.593
 6602SOL    HW220706   6.501   1.506   1.442
 6603SOL     OW20707   2.206   2.577   2.764
 6603SOL    HW120708   2.155   2.600   2.847
 6603SOL    HW220709   2.291   2.629   2.762
 6604SOL     OW20710   3.707   5.780   3.329
 6604SOL    HW120711   3.727   5.847   3.258
 6604SOL    HW220712   3.609   5.783   3.351
 6605SOL     OW20713   5.953   6.703   6.925
 6605SOL    HW120714   5.875   6.667   6.874
 6605SOL    HW220715   6.026   6.635   6.925
 6606SOL     OW20716   6.068   1.220   2.612
 6606SOL    HW120717   6.124   1.236   2.693
 6606SOL    HW220718   6.078   1.296   2.548
 6607SOL     OW20719   1.512   2.184   3.545
 6607SOL    HW120720   1.583   2.201   3.613
 6607SOL    HW220721   1.427   2.158   3.591
 6608SOL     OW20722   5.448   3.526   4.841
 6608SOL    HW120723   5.528   3.478   4.806
 6608SOL    HW220724   5.372   3.515   4.778
 6609SOL     OW20725   5.555   1.595   6.770
 6609SOL    HW120726   5.641   1.623   6.812
 6609SOL    HW220727   5.498   1.675   6.752
 6610SOL     OW20728   2.869   1.213   0.448
 6610SOL    HW120729   2.837   1.296   0.404
 6610SOL    HW220730   2.934   1.236   0.520
 6611SOL     OW20731   5.422   3.267   2.978
 6611SOL    HW120732   5.498   3.229   2.924
 6611SOL    HW220733   5.338   3.262   2.925
 6612SOL     OW20734   1.435   5.893   6.215
 6612SOL    HW120735   1.380   5.857   6.291
 6612SOL    HW220736   1.494   5.966   6.249
 6613SOL     OW20737   4.939   5.060   1.381
 6613SOL    HW120738   4.909   5.136   1.438
 6613SOL    HW220739   4.915   4.973   1.425
 6614SOL     OW20740   5.274   5.881   5.995
 6614SOL    HW120741   5.209   5.840   6.059
 6614SOL    HW220742   5.341   5.935   6.046
 6615SOL     OW20743   1.076   4.415   5.607
 6615SOL    HW120744   1.131   4.460   5.537
 6615SOL    HW220745   1.087   4.316   5.599
 6616SOL     OW20746   4.925   0.319   4.631
 6616SOL    HW120747   4.889   0.319   4.538
 6616SOL    HW220748   5.012   0.269   4.634
 6617SOL     OW20749   4.891   0.003   5.233
 6617SOL    HW120750   4.933   0.093   5.246
 6617SOL    HW220751   4.960   6.958   5.247
 6618SOL     OW20752   1.089   4.790   1.442
 6618SOL    HW120753   1.093   4.890   1.449
 6618SOL    HW220754   1.003   4.758   1.482
 6619SOL     OW20755   6.298   6.273   2.059
 6619SOL    HW120756   6.345   6.249   1.974
 6619SOL    HW220757   6.276   6.371   2.058
 6620SOL     OW20758   3.638   3.039   5.799
 6620SOL    HW120759   3.715   3.031   5.862
 6620SOL    HW220760   3.552   3.035   5.850
 6621SOL     OW20761   2.838   3.724   0.211
 6621SOL    HW120762   2.801   3.769   0.129
 6621SOL    HW220763   2.920   3.673   0.187
 6622SOL     OW20764   5.890   6.795   0.384
 6622SOL    HW120765   5.904   6.743   0.468
 6622SOL    HW220766   5.830   6.872   0.403
 6623SOL     OW20767   3.447   3.910   2.438
 6623SOL    HW120768   3.508   3.891   2.361
 6623SOL    HW220769   3.488   3.979   2.498
 6624SOL     OW20770   4.298   5.074   4.131
 6624SOL    HW120771   4.299   5.150   4.067
 6624SOL    HW220772   4.349   5.099   4.214
 6625SOL     OW20773   5.669   0.598   0.077
 6625SOL    HW120774   5.617   0.515   0.056
 6625SOL    HW220775   5.658   0.621   0.174
 6626SOL     OW20776   3.535   5.181   3.420
 6626SOL    HW120777   3.485   5.176   3.507
 6626SOL    HW220778   3.580   5.094   3.402
 6627SOL     OW20779   2.126   6.324   1.684
 6627SOL    HW120780   2.176   6.249   1.727
 6627SOL    HW220781   2.175   6.353   1.602
 6628SOL     OW20782   4.303   6.128   3.406
 6628SOL    HW120783   4.205   6.113   3.408
 6628SOL    HW220784   4.325   6.212   3.458
 6629SOL     OW20785   3.201   4.189   0.306
 6629SOL    HW120786   3.144   4.196   0.387
 6629SOL    HW220787   3.185   4.101   0.261
 6630SOL     OW20788   2.740   2.331   5.708
 6630SOL    HW120789   2.750   2.231   5.704
 6630SOL    HW220790   2.828   2.374   5.687
 6631SOL     OW20791   3.658   0.639   2.304
 6631SOL    HW120792   3.564   0.624   2.271
 6631SOL    HW220793   3.665   0.730   2.343
 6632SOL     OW20794   6.937   2.553   2.495
 6632SOL    HW120795   7.019   2.502   2.470
 6632SOL    HW220796   6.945   2.586   2.589
 6633SOL     OW20797   0.261   6.733   1.053
 6633SOL    HW120798   0.212   6.803   1.104
 6633SOL    HW220799   0.350   6.717   1.095
 6634SOL     OW20800   0.137   2.984   6.109
 6634SOL    HW120801   0.178   2.896   6.133
 6634SOL    HW220802   0.189   3.058   6.153
 6635SOL     OW20803   4.228   4.763   3.294
 6635SOL    HW120804   4.162   4.741   3.221
 6635SOL    HW220805   4.255   4.859   3.285
 6636SOL     OW20806   1.551   2.813   4.296
 6636SOL    HW120807   1.582   2.783   4.386
 6636SOL    HW220808   1.536   2.734   4.237
 6637SOL     OW20809   6.677   1.123   1.570
 6637SOL    HW120810   6.691   1.026   1.549
 6637SOL    HW220811   6.723   1.178   1.500
 6638SOL     OW20812   2.211   6.187   6.428
 6638SOL    HW120813   2.194   6.173   6.526
 6638SOL    HW220814   2.123   6.202   6.382
 6639SOL     OW20815   5.675   5.549   6.483
 6639SOL    HW120816   5.697   5.554   6.580
 6639SOL    HW220817   5.662   5.454   6.456
 6640SOL     OW20818   5.879   3.199   3.693
 6640SOL    HW120819   5.847   3.105   3.687
 6640SOL    HW220820   5.977   3.202   3.673
 6641SOL     OW20821   2.017   4.152   6.858
 6641SOL    HW120822   2.047   4.088   6.928
 6641SOL    HW220823   2.046   4.120   6.768
 6642SOL     OW20824   0.109   6.807   0.319
 6642SOL    HW120825   0.129   6.876   0.389
 6642SOL    HW220826   0.051   6.735   0.358
 6643SOL     OW20827   4.436   5.578   0.105
 6643SOL    HW120828   4.509   5.633   0.065
 6643SOL    HW220829   4.355   5.582   0.046
 6644SOL     OW20830   2.568   4.603   2.147
 6644SOL    HW120831   2.584   4.661   2.228
 6644SOL    HW220832   2.656   4.578   2.107
 6645SOL     OW20833   6.648   4.788   4.888
 6645SOL    HW120834   6.554   4.752   4.885
 6645SOL    HW220835   6.703   4.731   4.949
 6646SOL     OW20836   1.847   6.224   3.657
 6646SOL    HW120837   1.774   6.156   3.664
 6646SOL    HW220838   1.907   6.216   3.737
 6647SOL     OW20839   3.616   1.920   2.512
 6647SOL    HW120840   3.529   1.966   2.502
 6647SOL    HW220841   3.688   1.974   2.468
 6648SOL     OW20842   4.786   5.929   2.280
 6648SOL    HW120843   4.780   5.924   2.180
 6648SOL    HW220844   4.880   5.950   2.306
 6649SOL     OW20845   3.716   2.234   6.203
 6649SOL    HW120846   3.807   2.252   6.241
 6649SOL    HW220847   3.710   2.276   6.112
 6650SOL     OW20848   2.978   2.238   3.168
 6650SOL    HW120849   2.946   2.228   3.073
 6650SOL    HW220850   3.075   2.214   3.173
 6651SOL     OW20851   1.147   2.744   0.005
 6651SOL    HW120852   1.088   2.771   6.955
 6651SOL    HW220853   1.119   2.654   0.039
 6652SOL     OW20854   0.276   5.410   3.244
 6652SOL    HW120855   0.217   5.377   3.318
 6652SOL    HW220856   0.369   5.377   3.258
 6653SOL     OW20857   3.206   3.228   3.296
 6653SOL    HW120858   3.112   3.257   3.313
 6653SOL    HW220859   3.210   3.173   3.213
 6654SOL     OW20860   2.226   3.334   1.667
 6654SOL    HW120861   2.131   3.353   1.694
 6654SOL    HW220862   2.288   3.375   1.734
 6655SOL     OW20863   2.357   0.399   0.983
 6655SOL    HW120864   2.349   0.314   0.932
 6655SOL    HW220865   2.443   0.445   0.959
 6656SOL     OW20866   6.631   2.390   1.178
 6656SOL    HW120867   6.692   2.311   1.184
 6656SOL    HW220868   6.568   2.377   1.102
 6657SOL     OW20869   2.842   5.672   6.103
 6657SOL    HW120870   2.940   5.656   6.119
 6657SOL    HW220871   2.789   5.601   6.150
 6658SOL     OW20872   5.163   0.401   6.161
 6658SOL    HW120873   5.197   0.339   6.232
 6658SOL    HW220874   5.063   0.408   6.169
 6659SOL     OW20875   1.181   3.411   6.597
 6659SOL    HW120876   1.269   3.457   6.580
 6659SOL    HW220877   1.178   3.325   6.547
 6660SOL     OW20878   0.211   6.932   3.214
 6660SOL    HW120879   0.302   6.926   3.253
 6660SOL    HW220880   0.148   6.973   3.281
 6661SOL     OW20881   0.046   5.798   3.535
 6661SOL    HW120882   7.019   5.773   3.616
 6661SOL    HW220883   0.141   5.767   3.547
 6662SOL     OW20884   0.985   3.599   5.939
 6662SOL    HW120885   0.960   3.516   5.890
 6662SOL    HW220886   1.080   3.593   5.969
 6663SOL     OW20887   0.327   5.654   2.259
 6663SOL    HW120888   0.323   5.753   2.276
 6663SOL    HW220889   0.311   5.605   2.345
 6664SOL     OW20890   0.826   1.863   3.248
 6664SOL    HW120891   0.728   1.852   3.228
 6664SOL    HW220892   0.878   1.792   3.200
 6665SOL     OW20893   2.839   6.532   2.518
 6665SOL    HW120894   2.897   6.524   2.600
 6665SOL    HW220895   2.814   6.441   2.486
 6666SOL     OW20896   6.014   0.199   0.612
 6666SOL    HW120897   6.089   0.217   0.549
 6666SOL    HW220898   5.944   0.145   0.567
 6667SOL     OW20899   6.901   5.224   4.274
 6667SOL    HW120900   6.838   5.179   4.337
 6667SOL    HW220901   6.861   5.224   4.182
 6668SOL     OW20902   0.380   6.134   1.955
 6668SOL    HW120903   0.310   6.165   1.892
 6668SOL    HW220904   0.449   6.206   1.967
 6669SOL     OW20905   1.712   5.559   3.075
 6669SOL    HW120906   1.705   5.620   2.996
 6669SOL    HW220907   1.622   5.553   3.120
 6670SOL     OW20908   3.402   4.778   0.510
 6670SOL    HW120909   3.361   4.735   0.590
 6670SOL    HW220910   3.502   4.776   0.518
 6671SOL     OW20911   0.271   2.225   5.313
 6671SOL    HW120912   0.287   2.267   5.223
 6671SOL    HW220913   0.344   2.160   5.333
 6672SOL     OW20914   1.494   0.769   5.356
 6672SOL    HW120915   1.396   0.770   5.375
 6672SOL    HW220916   1.513   0.825   5.275
 6673SOL     OW20917   4.806   4.856   1.821
 6673SOL    HW120918   4.834   4.829   1.913
 6673SOL    HW220919   4.788   4.775   1.766
 6674SOL     OW20920   0.599   6.965   4.234
 6674SOL    HW120921   0.569   6.877   4.271
 6674SOL    HW220922   0.697   6.977   4.251
 6675SOL     OW20923   6.684   6.379   0.415
 6675SOL    HW120924   6.731   6.407   0.331
 6675SOL    HW220925   6.692   6.280   0.425
 6676SOL     OW20926   1.384   2.405   6.546
 6676SOL    HW120927   1.432   2.400   6.459
 6676SOL    HW220928   1.443   2.450   6.614
 6677SOL     OW20929   6.613   3.927   0.297
 6677SOL    HW120930   6.666   3.931   0.382
 6677SOL    HW220931   6.526   3.976   0.310
 6678SOL     OW20932   1.155   2.935   4.829
 6678SOL    HW120933   1.202   2.850   4.853
 6678SOL    HW220934   1.217   3.012   4.842
 6679SOL     OW20935   1.836   1.948   4.611
 6679SOL    HW120936   1.775   2.026   4.611
 6679SOL    HW220937   1.903   1.957   4.685
 6680SOL     OW20938   2.143   6.530   6.276
 6680SOL    HW120939   2.231   6.504   6.314
 6680SOL    HW220940   2.143   6.512   6.177
 6681SOL     OW20941   5.894   5.581   0.265
 6681SOL    HW120942   5.942   5.632   0.336
 6681SOL    HW220943   5.934   5.602   0.176
 6682SOL     OW20944   0.155   6.035   2.707
 6682SOL    HW120945   0.072   6.087   2.687
 6682SOL    HW220946   0.134   5.961   2.771
 6683SOL     OW20947   5.216   1.681   4.200
 6683SOL    HW120948   5.120   1.651   4.203
 6683SOL    HW220949   5.243   1.715   4.290
 6684SOL     OW20950   2.091   0.303   2.124
 6684SOL    HW120951   2.183   0.333   2.151
 6684SOL    HW220952   2.072   0.213   2.164
 6685SOL     OW20953   5.147   3.524   6.189
 6685SOL    HW120954   5.187   3.489   6.274
 6685SOL    HW220955   5.186   3.475   6.111
 6686SOL     OW20956   5.792   4.298   4.100
 6686SOL    HW120957   5.719   4.278   4.034
 6686SOL    HW220958   5.853   4.367   4.061
 6687SOL     OW20959   1.281   1.311   0.271
 6687SOL    HW120960   1.297   1.216   0.294
 6687SOL    HW220961   1.277   1.321   0.171
 6688SOL     OW20962   0.593   4.853   3.416
 6688SOL    HW120963   0.592   4.772   3.358
 6688SOL    HW220964   0.615   4.826   3.510
 6689SOL     OW20965   4.550   5.098   0.083
 6689SOL    HW120966   4.621   5.051   0.134
 6689SOL    HW220967   4.525   5.183   0.131
 6690SOL     OW20968   1.692   2.097   0.667
 6690SOL    HW120969   1.727   2.185   0.699
 6690SOL    HW220970   1.741   2.070   0.584
 6691SOL     OW20971   1.976   5.607   1.087
 6691SOL    HW120972   1.968   5.706   1.090
 6691SOL    HW220973   1.984   5.576   0.992
 6692SOL     OW20974   3.498   4.404   6.142
 6692SOL    HW120975   3.564   4.389   6.069
 6692SOL    HW220976   3.427   4.467   6.111
 6693SOL     OW20977   3.477   4.195   4.755
 6693SOL    HW120978   3.411   4.168   4.825
 6693SOL    HW220979   3.440   4.174   4.665
 6694SOL     OW20980   3.037   6.384   0.484
 6694SOL    HW120981   3.048   6.351   0.577
 6694SOL    HW220982   3.106   6.453   0.464
 6695SOL     OW20983   1.631   1.790   6.684
 6695SOL    HW120984   1.696   1.854   6.724
 6695SOL    HW220985   1.587   1.833   6.605
 6696SOL     OW20986   2.063   3.299   1.995
 6696SOL    HW120987   2.105   3.390   1.992
 6696SOL    HW220988   2.110   3.238   1.932
 6697SOL     OW20989   5.380   1.864   3.256
 6697SOL    HW120990   5.402   1.959   3.236
 6697SOL    HW220991   5.296   1.859   3.310
 6698SOL     OW20992   3.785   3.834   0.695
 6698SOL    HW120993   3.871   3.866   0.653
 6698SOL    HW220994   3.708   3.879   0.651
 6699SOL     OW20995   1.491   3.606   7.023
 6699SOL    HW120996   1.468   3.520   6.977
 6699SOL    HW220997   1.412   3.667   7.022
 6700SOL     OW20998   6.328   6.450   6.558
 6700SOL    HW120999   6.393   6.523   6.577
 6700SOL    HW221000   6.254   6.485   6.500
 6701SOL     OW21001   0.929   2.563   0.772
 6701SOL    HW121002   0.997   2.510   0.823
 6701SOL    HW221003   0.960   2.658   0.765
 6702SOL     OW21004   2.030   2.728   1.137
 6702SOL    HW121005   2.048   2.826   1.146
 6702SOL    HW221006   2.104   2.685   1.085
 6703SOL     OW21007   0.415   2.281   6.916
 6703SOL    HW121008   0.346   2.303   6.985
 6703SOL    HW221009   0.466   2.363   6.891
 6704SOL     OW21010   5.232   2.251   3.301
 6704SOL    HW121011   5.227   2.345   3.335
 6704SOL    HW221012   5.320   2.237   3.255
 6705SOL     OW21013   6.140   1.250   0.590
 6705SOL    HW121014   6.162   1.169   0.535
 6705SOL    HW221015   6.054   1.234   0.639
 6706SOL     OW21016   0.506   4.875   6.836
 6706SOL    HW121017   0.564   4.956   6.838
 6706SOL    HW221018   0.558   4.798   6.799
 6707SOL     OW21019   1.422   5.871   2.260
 6707SOL    HW121020   1.395   5.864   2.165
 6707SOL    HW221021   1.413   5.783   2.305
 6708SOL     OW21022   2.720   6.280   1.311
 6708SOL    HW121023   2.777   6.245   1.385
 6708SOL    HW221024   2.624   6.272   1.336
 6709SOL     OW21025   5.757   1.140   2.670
 6709SOL    HW121026   5.848   1.163   2.635
 6709SOL    HW221027   5.700   1.222   2.672
 6710SOL     OW21028   2.459   2.455   1.439
 6710SOL    HW121029   2.553   2.427   1.421
 6710SOL    HW221030   2.425   2.409   1.521
 6711SOL     OW21031   3.824   3.761   0.297
 6711SOL    HW121032   3.748   3.788   0.355
 6711SOL    HW221033   3.824   3.662   0.285
 6712SOL     OW21034   3.620   5.972   1.007
 6712SOL    HW121035   3.540   6.019   1.044
 6712SOL    HW221036   3.612   5.966   0.907
 6713SOL     OW21037   1.804   1.515   1.937
 6713SOL    HW121038   1.789   1.610   1.965
 6713SOL    HW221039   1.758   1.454   2.001
 6714SOL     OW21040   6.678   0.229   3.464
 6714SOL    HW121041   6.612   0.283   3.412
 6714SOL    HW221042   6.678   0.135   3.429
 6715SOL     OW21043   0.575   2.221   0.506
 6715SOL    HW121044   0.575   2.321   0.503
 6715SOL    HW221045   0.495   2.189   0.556
 6716SOL     OW21046   2.796   5.627   0.562
 6716SOL    HW121047   2.727   5.558   0.587
 6716SOL    HW221048   2.836   5.603   0.474
 6717SOL     OW21049   3.635   1.787   6.531
 6717SOL    HW121050   3.573   1.860   6.561
 6717SOL    HW221051   3.601   1.699   6.562
 6718SOL     OW21052   3.538   0.025   6.989
 6718SOL    HW121053   3.527   0.118   6.954
 6718SOL    HW221054   3.490   0.016   0.050
 6719SOL     OW21055   0.255   0.300   5.313
 6719SOL    HW121056   0.188   0.231   5.340
 6719SOL    HW221057   0.330   0.302   5.379
 6720SOL     OW21058   1.893   4.875   1.802
 6720SOL    HW121059   1.957   4.922   1.863
 6720SOL    HW221060   1.928   4.784   1.781
 6721SOL     OW21061   6.479   6.261   3.489
 6721SOL    HW121062   6.427   6.186   3.449
 6721SOL    HW221063   6.514   6.320   3.417
 6722SOL     OW21064   4.784   4.322   6.727
 6722SOL    HW121065   4.726   4.241   6.724
 6722SOL    HW221066   4.880   4.294   6.721
 6723SOL     OW21067   4.404   6.819   2.220
 6723SOL    HW121068   4.364   6.741   2.268
 6723SOL    HW221069   4.486   6.849   2.269
 6724SOL     OW21070   3.353   4.649   5.407
 6724SOL    HW121071   3.322   4.670   5.499
 6724SOL    HW221072   3.374   4.551   5.401
 6725SOL     OW21073   0.644   5.037   2.513
 6725SOL    HW121074   0.717   5.083   2.463
 6725SOL    HW221075   0.584   5.105   2.554
 6726SOL     OW21076   2.471   2.508   2.262
 6726SOL    HW121077   2.374   2.495   2.238
 6726SOL    HW221078   2.528   2.455   2.199
 6727SOL     OW21079   4.070   4.035   0.058
 6727SOL    HW121080   4.081   4.129   0.024
 6727SOL    HW221081   4.108   3.971   7.017
 6728SOL     OW21082   4.532   1.359   4.132
 6728SOL    HW121083   4.611   1.367   4.193
 6728SOL    HW221084   4.528   1.439   4.072
 6729SOL     OW21085   5.801   6.326   2.936
 6729SOL    HW121086   5.869   6.397   2.954
 6729SOL    HW221087   5.829   6.272   2.856
 6730SOL     OW21088   1.357   6.769   1.166
 6730SOL    HW121089   1.339   6.834   1.240
 6730SOL    HW221090   1.315   6.681   1.188
 6731SOL     OW21091   2.159   4.581   1.942
 6731SOL    HW121092   2.114   4.511   1.999
 6731SOL    HW221093   2.254   4.555   1.927
 6732SOL     OW21094   1.682   4.678   0.909
 6732SOL    HW121095   1.679   4.674   1.008
 6732SOL    HW221096   1.688   4.773   0.879
 6733SOL     OW21097   5.534   5.821   5.387
 6733SOL    HW121098   5.443   5.820   5.346
 6733SOL    HW221099   5.587   5.743   5.353
 6734SOL     OW21100   2.609   3.729   5.614
 6734SOL    HW121101   2.534   3.679   5.657
 6734SOL    HW221102   2.599   3.726   5.514
 6735SOL     OW21103   6.964   5.102   6.446
 6735SOL    HW121104   6.915   5.160   6.512
 6735SOL    HW221105   6.914   5.100   6.360
 6736SOL     OW21106   1.973   3.600   2.612
 6736SOL    HW121107   2.021   3.672   2.662
 6736SOL    HW221108   2.017   3.512   2.630
 6737SOL     OW21109   1.914   0.518   1.096
 6737SOL    HW121110   1.879   0.439   1.146
 6737SOL    HW221111   1.921   0.597   1.158
 6738SOL     OW21112   3.848   1.467   2.012
 6738SOL    HW121113   3.850   1.477   2.112
 6738SOL    HW221114   3.941   1.475   1.977
 6739SOL     OW21115   4.639   0.295   4.723
 6739SOL    HW121116   4.738   0.296   4.706
 6739SOL    HW221117   4.606   0.201   4.723
 6740SOL     OW21118   5.875   3.052   4.664
 6740SOL    HW121119   5.864   2.965   4.615
 6740SOL    HW221120   5.814   3.121   4.624
 6741SOL     OW21121   6.681   0.014   5.320
 6741SOL    HW121122   6.735   6.963   5.353
 6741SOL    HW221123   6.602   0.028   5.380
 6742SOL     OW21124   6.188   6.031   5.560
 6742SOL    HW121125   6.265   6.018   5.498
 6742SOL    HW221126   6.168   5.945   5.607
 6743SOL     OW21127   5.071   3.100   0.549
 6743SOL    HW121128   5.089   3.110   0.647
 6743SOL    HW221129   5.007   3.171   0.520
 6744SOL     OW21130   5.226   5.255   5.394
 6744SOL    HW121131   5.318   5.226   5.368
 6744SOL    HW221132   5.175   5.177   5.431
 6745SOL     OW21133   0.531   3.937   3.900
 6745SOL    HW121134   0.474   3.909   3.823
 6745SOL    HW221135   0.614   3.881   3.902
 6746SOL     OW21136   6.812   1.250   1.267
 6746SOL    HW121137   6.886   1.185   1.287
 6746SOL    HW221138   6.730   1.201   1.240
 6747SOL     OW21139   5.613   6.510   6.531
 6747SOL    HW121140   5.628   6.585   6.595
 6747SOL    HW221141   5.681   6.515   6.458
 6748SOL     OW21142   0.130   6.419   1.972
 6748SOL    HW121143   0.032   6.439   1.976
 6748SOL    HW221144   0.145   6.340   1.912
 6749SOL     OW21145   3.578   5.659   1.012
 6749SOL    HW121146   3.561   5.638   1.108
 6749SOL    HW221147   3.628   5.746   1.005
 6750SOL     OW21148   2.367   3.131   5.501
 6750SOL    HW121149   2.268   3.131   5.491
 6750SOL    HW221150   2.410   3.143   5.412
 6751SOL     OW21151   3.148   2.057   5.658
 6751SOL    HW121152   3.075   2.059   5.589
 6751SOL    HW221153   3.177   2.150   5.679
 6752SOL     OW21154   6.120   1.984   0.608
 6752SOL    HW121155   6.195   2.047   0.627
 6752SOL    HW221156   6.036   2.036   0.591
 6753SOL     OW21157   5.472   1.251   6.159
 6753SOL    HW121158   5.513   1.195   6.231
 6753SOL    HW221159   5.411   1.318   6.201
 6754SOL     OW21160   4.699   1.309   0.335
 6754SOL    HW121161   4.774   1.271   0.279
 6754SOL    HW221162   4.653   1.381   0.283
 6755SOL     OW21163   5.013   1.075   3.348
 6755SOL    HW121164   5.059   1.153   3.391
 6755SOL    HW221165   5.030   1.075   3.250
 6756SOL     OW21166   4.878   4.540   3.405
 6756SOL    HW121167   4.916   4.613   3.463
 6756SOL    HW221168   4.849   4.579   3.318
 6757SOL     OW21169   5.597   4.965   2.217
 6757SOL    HW121170   5.617   5.063   2.214
 6757SOL    HW221171   5.531   4.943   2.146
 6758SOL     OW21172   6.180   2.081   3.006
 6758SOL    HW121173   6.116   2.005   2.999
 6758SOL    HW221174   6.198   2.101   3.102
 6759SOL     OW21175   1.125   4.540   3.335
 6759SOL    HW121176   1.075   4.458   3.363
 6759SOL    HW221177   1.162   4.526   3.243
 6760SOL     OW21178   0.463   4.288   5.281
 6760SOL    HW121179   0.484   4.308   5.186
 6760SOL    HW221180   0.462   4.372   5.334
 6761SOL     OW21181   6.075   3.423   6.396
 6761SOL    HW121182   5.983   3.387   6.379
 6761SOL    HW221183   6.080   3.518   6.363
 6762SOL     OW21184   5.672   4.709   3.392
 6762SOL    HW121185   5.630   4.690   3.481
 6762SOL    HW221186   5.702   4.804   3.389
 6763SOL     OW21187   6.235   6.525   5.257
 6763SOL    HW121188   6.189   6.613   5.249
 6763SOL    HW221189   6.178   6.453   5.218
 6764SOL     OW21190   2.278   3.427   7.019
 6764SOL    HW121191   2.373   3.459   7.025
 6764SOL    HW221192   2.250   3.392   0.082
 6765SOL     OW21193   5.168   5.054   2.655
 6765SOL    HW121194   5.143   5.094   2.567
 6765SOL    HW221195   5.251   5.098   2.689
 6766SOL     OW21196   1.398   1.775   5.572
 6766SOL    HW121197   1.352   1.863   5.582
 6766SOL    HW221198   1.440   1.769   5.482
 6767SOL     OW21199   0.887   2.727   5.522
 6767SOL    HW121200   0.875   2.812   5.573
 6767SOL    HW221201   0.963   2.736   5.459
 6768SOL     OW21202   0.061   0.490   5.692
 6768SOL    HW121203   0.060   0.412   5.629
 6768SOL    HW221204   0.120   0.470   5.769
 6769SOL     OW21205   0.873   2.432   6.598
 6769SOL    HW121206   0.913   2.511   6.551
 6769SOL    HW221207   0.931   2.352   6.582
 6770SOL     OW21208   6.880   1.191   4.368
 6770SOL    HW121209   6.789   1.231   4.353
 6770SOL    HW221210   6.875   1.092   4.355
 6771SOL     OW21211   4.612   1.763   2.072
 6771SOL    HW121212   4.597   1.707   2.154
 6771SOL    HW221213   4.646   1.853   2.099
 6772SOL     OW21214   1.360   0.822   1.527
 6772SOL    HW121215   1.278   0.837   1.472
 6772SOL    HW221216   1.423   0.898   1.516
 6773SOL     OW21217   1.181   0.507   2.121
 6773SOL    HW121218   1.259   0.444   2.125
 6773SOL    HW221219   1.108   0.473   2.180
 6774SOL     OW21220   3.159   1.079   5.602
 6774SOL    HW121221   3.228   1.138   5.560
 6774SOL    HW221222   3.192   1.046   5.690
 6775SOL     OW21223   1.702   3.401   5.046
 6775SOL    HW121224   1.765   3.335   5.085
 6775SOL    HW221225   1.653   3.449   5.119
 6776SOL     OW21226   3.014   3.930   3.275
 6776SOL    HW121227   3.069   3.980   3.208
 6776SOL    HW221228   2.945   3.876   3.227
 6777SOL     OW21229   0.502   0.044   6.234
 6777SOL    HW121230   0.461   6.994   6.184
 6777SOL    HW221231   0.434   0.085   6.294
 6778SOL     OW21232   6.306   6.079   2.488
 6778SOL    HW121233   6.339   6.142   2.418
 6778SOL    HW221234   6.349   5.989   2.476
 6779SOL     OW21235   4.353   4.655   6.658
 6779SOL    HW121236   4.281   4.714   6.694
 6779SOL    HW221237   4.360   4.573   6.714
 6780SOL     OW21238   4.015   0.462   2.858
 6780SOL    HW121239   4.047   0.393   2.793
 6780SOL    HW221240   4.057   0.550   2.837
 6781SOL     OW21241   6.018   2.873   3.109
 6781SOL    HW121242   6.059   2.904   3.195
 6781SOL    HW221243   6.058   2.785   3.082
 6782SOL     OW21244   0.365   1.575   3.291
 6782SOL    HW121245   0.415   1.553   3.208
 6782SOL    HW221246   0.425   1.623   3.355
 6783SOL     OW21247   0.685   6.207   6.147
 6783SOL    HW121248   0.619   6.211   6.222
 6783SOL    HW221249   0.667   6.281   6.082
 6784SOL     OW21250   1.879   4.484   0.846
 6784SOL    HW121251   1.954   4.541   0.812
 6784SOL    HW221252   1.803   4.543   0.873
 6785SOL     OW21253   5.669   4.609   2.828
 6785SOL    HW121254   5.606   4.560   2.888
 6785SOL    HW221255   5.638   4.704   2.818
 6786SOL     OW21256   6.435   1.928   5.840
 6786SOL    HW121257   6.480   1.908   5.753
 6786SOL    HW221258   6.377   1.851   5.866
 6787SOL     OW21259   2.948   1.321   0.689
 6787SOL    HW121260   2.991   1.310   0.779
 6787SOL    HW221261   2.849   1.309   0.697
 6788SOL     OW21262   0.666   4.608   1.445
 6788SOL    HW121263   0.608   4.571   1.518
 6788SOL    HW221264   0.762   4.595   1.470
 6789SOL     OW21265   5.964   4.274   2.532
 6789SOL    HW121266   5.931   4.361   2.569
 6789SOL    HW221267   6.055   4.256   2.567
 6790SOL     OW21268   0.829   5.930   1.016
 6790SOL    HW121269   0.926   5.946   1.029
 6790SOL    HW221270   0.783   6.017   0.996
 6791SOL     OW21271   2.736   6.111   3.976
 6791SOL    HW121272   2.710   6.128   4.071
 6791SOL    HW221273   2.836   6.108   3.969
 6792SOL     OW21274   3.115   6.373   6.748
 6792SOL    HW121275   3.038   6.371   6.684
 6792SOL    HW221276   3.195   6.331   6.705
 6793SOL     OW21277   2.647   3.798   6.046
 6793SOL    HW121278   2.601   3.788   5.957
 6793SOL    HW221279   2.644   3.894   6.074
 6794SOL     OW21280   5.118   2.185   4.589
 6794SOL    HW121281   5.029   2.231   4.595
 6794SOL    HW221282   5.112   2.111   4.522
 6795SOL     OW21283   0.599   0.210   1.682
 6795SOL    HW121284   0.684   0.181   1.726
 6795SOL    HW221285   0.596   0.310   1.679
 6796SOL     OW21286   0.067   2.307   2.489
 6796SOL    HW121287   0.136   2.313   2.561
 6796SOL    HW221288   7.012   2.261   2.525
 6797SOL     OW21289   1.736   3.182   1.016
 6797SOL    HW121290   1.739   3.207   0.919
 6797SOL    HW221291   1.770   3.258   1.071
 6798SOL     OW21292   5.040   1.335   1.732
 6798SOL    HW121293   4.943   1.327   1.758
 6798SOL    HW221294   5.071   1.428   1.748
 6799SOL     OW21295   6.542   0.255   2.681
 6799SOL    HW121296   6.592   0.339   2.703
 6799SOL    HW221297   6.606   0.180   2.668
 6800SOL     OW21298   6.923   3.113   2.250
 6800SOL    HW121299   6.924   3.093   2.152
 6800SOL    HW221300   6.830   3.099   2.285
 6801SOL     OW21301   1.790   5.396   5.866
 6801SOL    HW121302   1.699   5.437   5.872
 6801SOL    HW221303   1.789   5.306   5.911
 6802SOL     OW21304   2.974   4.832   1.909
 6802SOL    HW121305   2.936   4.739   1.912
 6802SOL    HW221306   2.959   4.870   1.818
 6803SOL     OW21307   5.733   5.332   0.003
 6803SOL    HW121308   5.635   5.328   0.020
 6803SOL    HW221309   5.769   5.239   7.021
 6804SOL     OW21310   3.057   5.490   2.073
 6804SOL    HW121311   3.123   5.469   2.145
 6804SOL    HW221312   2.972   5.523   2.115
 6805SOL     OW21313   0.853   4.375   3.861
 6805SOL    HW121314   0.809   4.297   3.816
 6805SOL    HW221315   0.814   4.460   3.825
 6806SOL     OW21316   5.767   3.405   2.522
 6806SOL    HW121317   5.796   3.452   2.605
 6806SOL    HW221318   5.842   3.403   2.457
 6807SOL     OW21319   2.912   3.843   2.470
 6807SOL    HW121320   2.957   3.887   2.392
 6807SOL    HW221321   2.862   3.912   2.523
 6808SOL     OW21322   3.725   0.201   3.549
 6808SOL    HW121323   3.717   0.103   3.531
 6808SOL    HW221324   3.759   0.246   3.467
 6809SOL     OW21325   5.776   2.507   0.838
 6809SOL    HW121326   5.783   2.415   0.798
 6809SOL    HW221327   5.823   2.508   0.926
 6810SOL     OW21328   2.937   0.986   4.863
 6810SOL    HW121329   2.878   1.028   4.794
 6810SOL    HW221330   2.956   0.891   4.837
 6811SOL     OW21331   6.767   1.553   1.320
 6811SOL    HW121332   6.671   1.535   1.345
 6811SOL    HW221333   6.821   1.469   1.333
 6812SOL     OW21334   3.486   4.391   5.507
 6812SOL    HW121335   3.539   4.418   5.586
 6812SOL    HW221336   3.404   4.341   5.537
 6813SOL     OW21337   0.157   4.193   1.945
 6813SOL    HW121338   0.243   4.193   1.895
 6813SOL    HW221339   0.174   4.217   2.041
 6814SOL     OW21340   5.365   1.462   1.398
 6814SOL    HW121341   5.395   1.555   1.375
 6814SOL    HW221342   5.374   1.447   1.497
 6815SOL     OW21343   0.714   6.085   6.657
 6815SOL    HW121344   0.672   5.995   6.665
 6815SOL    HW221345   0.814   6.074   6.653
 6816SOL     OW21346   6.597   0.062   3.736
 6816SOL    HW121347   6.609   0.093   3.830
 6816SOL    HW221348   6.539   0.127   3.687
 6817SOL     OW21349   5.093   1.543   1.883
 6817SOL    HW121350   5.040   1.605   1.941
 6817SOL    HW221351   5.167   1.501   1.937
 6818SOL     OW21352   1.295   0.380   5.087
 6818SOL    HW121353   1.207   0.426   5.073
 6818SOL    HW221354   1.367   0.449   5.100
 6819SOL     OW21355   4.926   4.070   1.369
 6819SOL    HW121356   4.907   4.148   1.429
 6819SOL    HW221357   5.022   4.073   1.341
 6820SOL     OW21358   2.490   4.730   1.659
 6820SOL    HW121359   2.424   4.804   1.659
 6820SOL    HW221360   2.523   4.715   1.752
 6821SOL     OW21361   2.816   2.923   5.992
 6821SOL    HW121362   2.763   2.987   5.936
 6821SOL    HW221363   2.914   2.945   5.984
 6822SOL     OW21364   6.267   3.575   5.285
 6822SOL    HW121365   6.262   3.558   5.384
 6822SOL    HW221366   6.363   3.575   5.257
 6823SOL     OW21367   0.360   3.118   6.256
 6823SOL    HW121368   0.428   3.188   6.279
 6823SOL    HW221369   0.407   3.031   6.237
 6824SOL     OW21370   1.506   0.466   4.748
 6824SOL    HW121371   1.425   0.514   4.713
 6824SOL    HW221372   1.516   0.483   4.846
 6825SOL     OW21373   4.478   4.273   1.406
 6825SOL    HW121374   4.538   4.281   1.485
 6825SOL    HW221375   4.516   4.205   1.343
 6826SOL     OW21376   5.541   0.579   3.220
 6826SOL    HW121377   5.614   0.586   3.152
 6826SOL    HW221378   5.481   0.658   3.212
 6827SOL     OW21379   4.802   5.571   5.618
 6827SOL    HW121380   4.708   5.603   5.634
 6827SOL    HW221381   4.864   5.649   5.619
 6828SOL     OW21382   3.113   2.081   2.329
 6828SOL    HW121383   3.037   2.143   2.350
 6828SOL    HW221384   3.100   2.042   2.238
 6829SOL     OW21385   4.973   6.434   4.230
 6829SOL    HW121386   5.051   6.447   4.169
 6829SOL    HW221387   4.896   6.398   4.179
 6830SOL     OW21388   3.586   5.501   2.438
 6830SOL    HW121389   3.558   5.531   2.347
 6830SOL    HW221390   3.683   5.475   2.436
 6831SOL     OW21391   1.139   0.934   6.784
 6831SOL    HW121392   1.140   1.019   6.837
 6831SOL    HW221393   1.069   0.941   6.713
 6832SOL     OW21394   2.545   2.938   6.807
 6832SOL    HW121395   2.546   2.908   6.712
 6832SOL    HW221396   2.635   2.923   6.848
 6833SOL     OW21397   4.385   4.781   0.017
 6833SOL    HW121398   4.410   4.829   6.960
 6833SOL    HW221399   4.288   4.792   0.034
 6834SOL     OW21400   5.678   6.070   5.755
 6834SOL    HW121401   5.709   6.007   5.826
 6834SOL    HW221402   5.711   6.039   5.666
 6835SOL     OW21403   3.448   0.567   3.497
 6835SOL    HW121404   3.401   0.540   3.413
 6835SOL    HW221405   3.547   0.565   3.483
 6836SOL     OW21406   0.414   4.708   6.247
 6836SOL    HW121407   0.451   4.784   6.194
 6836SOL    HW221408   0.486   4.642   6.266
 6837SOL     OW21409   6.730   0.766   1.988
 6837SOL    HW121410   6.713   0.819   1.905
 6837SOL    HW221411   6.658   0.786   2.055
 6838SOL     OW21412   3.206   4.029   5.998
 6838SOL    HW121413   3.278   4.085   6.040
 6838SOL    HW221414   3.247   3.958   5.942
 6839SOL     OW21415   6.288   3.023   5.258
 6839SOL    HW121416   6.223   3.097   5.273
 6839SOL    HW221417   6.240   2.942   5.224
 6840SOL     OW21418   2.974   6.134   4.789
 6840SOL    HW121419   2.913   6.120   4.712
 6840SOL    HW221420   3.066   6.154   4.756
 6841SOL     OW21421   4.918   6.816   0.551
 6841SOL    HW121422   4.928   6.851   0.644
 6841SOL    HW221423   4.868   6.729   0.553
 6842SOL     OW21424   0.044   3.824   3.990
 6842SOL    HW121425   0.088   3.868   3.912
 6842SOL    HW221426   6.980   3.866   4.005
 6843SOL     OW21427   4.612   2.870   1.688
 6843SOL    HW121428   4.628   2.933   1.765
 6843SOL    HW221429   4.626   2.919   1.602
 6844SOL     OW21430   3.366   6.732   4.774
 6844SOL    HW121431   3.326   6.681   4.851
 6844SOL    HW221432   3.450   6.778   4.805
 6845SOL     OW21433   4.641   4.191   0.476
 6845SOL    HW121434   4.579   4.170   0.551
 6845SOL    HW221435   4.704   4.114   0.463
 6846SOL     OW21436   4.130   3.374   2.911
 6846SOL    HW121437   4.146   3.326   2.997
 6846SOL    HW221438   4.052   3.436   2.921
 6847SOL     OW21439   6.370   3.252   1.934
 6847SOL    HW121440   6.438   3.319   1.965
 6847SOL    HW221441   6.394   3.220   1.842
 6848SOL     OW21442   0.108   5.953   4.563
 6848SOL    HW121443   0.185   5.959   4.500
 6848SOL    HW221444   0.142   5.952   4.657
 6849SOL     OW21445   2.977   6.685   4.689
 6849SOL    HW121446   2.892   6.683   4.742
 6849SOL    HW221447   3.031   6.604   4.710
 6850SOL     OW21448   5.467   3.745   1.758
 6850SOL    HW121449   5.528   3.780   1.829
 6850SOL    HW221450   5.517   3.738   1.672
 6851SOL     OW21451   1.320   5.614   5.603
 6851SOL    HW121452   1.336   5.625   5.701
 6851SOL    HW221453   1.304   5.517   5.583
 6852SOL     OW21454   6.498   5.196   2.212
 6852SOL    HW121455   6.493   5.113   2.267
 6852SOL    HW221456   6.486   5.173   2.115
 6853SOL     OW21457   6.473   4.229   4.963
 6853SOL    HW121458   6.540   4.161   4.994
 6853SOL    HW221459   6.420   4.262   5.041
 6854SOL     OW21460   6.865   1.802   6.220
 6854SOL    HW121461   6.893   1.866   6.291
 6854SOL    HW221462   6.782   1.836   6.176
 6855SOL     OW21463   3.213   6.489   2.134
 6855SOL    HW121464   3.185   6.444   2.219
 6855SOL    HW221465   3.135   6.539   2.096
 6856SOL     OW21466   0.037   4.387   5.869
 6856SOL    HW121467   0.047   4.421   5.775
 6856SOL    HW221468   7.000   4.447   5.919
 6857SOL     OW21469   3.902   1.139   6.388
 6857SOL    HW121470   3.844   1.209   6.429
 6857SOL    HW221471   3.860   1.106   6.304
 6858SOL     OW21472   3.577   2.961   6.615
 6858SOL    HW121473   3.606   3.043   6.565
 6858SOL    HW221474   3.522   2.988   6.694
 6859SOL     OW21475   3.494   0.692   0.465
 6859SOL    HW121476   3.484   0.768   0.401
 6859SOL    HW221477   3.479   0.726   0.558
 6860SOL     OW21478   4.025   3.923   6.636
 6860SOL    HW121479   4.000   3.921   6.733
 6860SOL    HW221480   4.111   3.973   6.625
 6861SOL     OW21481   5.097   3.980   0.523
 6861SOL    HW121482   5.073   4.067   0.566
 6861SOL    HW221483   5.196   3.978   0.506
 6862SOL     OW21484   2.408   5.197   4.046
 6862SOL    HW121485   2.489   5.210   3.989
 6862SOL    HW221486   2.430   5.220   4.141
 6863SOL     OW21487   0.851   2.854   4.192
 6863SOL    HW121488   0.902   2.784   4.141
 6863SOL    HW221489   0.913   2.899   4.257
 6864SOL     OW21490   4.706   5.431   6.463
 6864SOL    HW121491   4.747   5.428   6.554
 6864SOL    HW221492   4.683   5.525   6.440
 6865SOL     OW21493   6.914   3.317   4.364
 6865SOL    HW121494   6.851   3.320   4.286
 6865SOL    HW221495   7.005   3.344   4.334
 6866SOL     OW21496   0.400   3.395   2.236
 6866SOL    HW121497   0.310   3.370   2.274
 6866SOL    HW221498   0.471   3.340   2.279
 6867SOL     OW21499   2.617   5.534   2.900
 6867SOL    HW121500   2.613   5.463   2.830
 6867SOL    HW221501   2.545   5.518   2.968
 6868SOL     OW21502   1.938   5.453   4.836
 6868SOL    HW121503   1.999   5.413   4.768
 6868SOL    HW221504   1.856   5.396   4.845
 6869SOL     OW21505   6.648   3.575   4.733
 6869SOL    HW121506   6.729   3.633   4.732
 6869SOL    HW221507   6.623   3.555   4.828
 6870SOL     OW21508   5.528   3.600   2.306
 6870SOL    HW121509   5.621   3.567   2.324
 6870SOL    HW221510   5.499   3.661   2.379
 6871SOL     OW21511   5.252   6.750   1.880
 6871SOL    HW121512   5.348   6.737   1.905
 6871SOL    HW221513   5.245   6.801   1.795
 6872SOL     OW21514   3.311   4.012   0.041
 6872SOL    HW121515   3.323   4.098   7.018
 6872SOL    HW221516   3.373   4.010   0.120
 6873SOL     OW21517   5.697   4.329   5.234
 6873SOL    HW121518   5.795   4.347   5.228
 6873SOL    HW221519   5.679   4.275   5.316
 6874SOL     OW21520   1.193   1.942   5.337
 6874SOL    HW121521   1.278   1.980   5.374
 6874SOL    HW221522   1.158   2.002   5.266
 6875SOL     OW21523   3.398   1.815   4.020
 6875SOL    HW121524   3.405   1.892   4.084
 6875SOL    HW221525   3.450   1.836   3.937
 6876SOL     OW21526   3.543   6.447   4.484
 6876SOL    HW121527   3.591   6.500   4.553
 6876SOL    HW221528   3.453   6.488   4.466
 6877SOL     OW21529   1.847   3.731   6.383
 6877SOL    HW121530   1.785   3.656   6.358
 6877SOL    HW221531   1.931   3.723   6.329
 6878SOL     OW21532   1.581   2.378   4.604
 6878SOL    HW121533   1.608   2.317   4.529
 6878SOL    HW221534   1.654   2.384   4.671
 6879SOL     OW21535   0.753   1.005   5.920
 6879SOL    HW121536   0.709   1.071   5.981
 6879SOL    HW221537   0.685   0.966   5.858
 6880SOL     OW21538   2.132   3.954   4.195
 6880SOL    HW121539   2.037   3.986   4.185
 6880SOL    HW221540   2.136   3.887   4.269
 6881SOL     OW21541   5.834   5.755   1.956
 6881SOL    HW121542   5.735   5.767   1.956
 6881SOL    HW221543   5.860   5.690   2.028
 6882SOL     OW21544   2.613   6.168   5.268
 6882SOL    HW121545   2.640   6.101   5.337
 6882SOL    HW221546   2.668   6.251   5.279
 6883SOL     OW21547   3.468   6.461   1.494
 6883SOL    HW121548   3.530   6.386   1.518
 6883SOL    HW221549   3.498   6.545   1.540
 6884SOL     OW21550   2.517   5.086   3.268
 6884SOL    HW121551   2.426   5.045   3.269
 6884SOL    HW221552   2.515   5.173   3.316
 6885SOL     OW21553   4.113   5.269   5.210
 6885SOL    HW121554   4.082   5.267   5.305
 6885SOL    HW221555   4.082   5.187   5.162
 6886SOL     OW21556   5.372   1.449   1.979
 6886SOL    HW121557   5.315   1.476   2.057
 6886SOL    HW221558   5.462   1.422   2.013
 6887SOL     OW21559   4.805   0.906   5.319
 6887SOL    HW121560   4.826   0.956   5.236
 6887SOL    HW221561   4.889   0.865   5.356
 6888SOL     OW21562   6.130   0.167   5.112
 6888SOL    HW121563   6.037   0.131   5.122
 6888SOL    HW221564   6.141   0.204   5.020
 6889SOL     OW21565   1.592   4.425   6.326
 6889SOL    HW121566   1.529   4.371   6.270
 6889SOL    HW221567   1.591   4.520   6.295
 6890SOL     OW21568   2.141   0.485   0.666
 6890SOL    HW121569   2.229   0.531   0.676
 6890SOL    HW221570   2.111   0.448   0.754
 6891SOL     OW21571   3.573   5.125   5.485
 6891SOL    HW121572   3.627   5.084   5.411
 6891SOL    HW221573   3.585   5.073   5.569
 6892SOL     OW21574   3.414   1.492   4.586
 6892SOL    HW121575   3.394   1.455   4.677
 6892SOL    HW221576   3.452   1.420   4.528
 6893SOL     OW21577   5.691   0.431   1.806
 6893SOL    HW121578   5.787   0.458   1.800
 6893SOL    HW221579   5.640   0.476   1.733
 6894SOL     OW21580   6.066   4.874   6.101
 6894SOL    HW121581   5.997   4.928   6.149
 6894SOL    HW221582   6.076   4.785   6.146
 6895SOL     OW21583   4.270   5.055   6.587
 6895SOL    HW121584   4.208   4.984   6.619
 6895SOL    HW221585   4.284   5.122   6.660
 6896SOL     OW21586   4.272   0.668   3.052
 6896SOL    HW121587   4.268   0.667   2.952
 6896SOL    HW221588   4.365   0.687   3.081
 6897SOL     OW21589   3.389   1.869   0.690
 6897SOL    HW121590   3.310   1.833   0.739
 6897SOL    HW221591   3.445   1.794   0.657
 6898SOL     OW21592   3.861   1.580   2.853
 6898SOL    HW121593   3.789   1.617   2.794
 6898SOL    HW221594   3.950   1.591   2.808
 6899SOL     OW21595   5.883   6.242   6.417
 6899SOL    HW121596   5.815   6.211   6.350
 6899SOL    HW221597   5.974   6.244   6.374
 6900SOL     OW21598   3.984   1.536   5.772
 6900SOL    HW121599   4.051   1.475   5.814
 6900SOL    HW221600   4.009   1.552   5.677
 6901SOL     OW21601   1.236   0.938   0.440
 6901SOL    HW121602   1.214   0.856   0.389
 6901SOL    HW221603   1.154   0.994   0.451
 6902SOL     OW21604   6.732   5.519   1.987
 6902SOL    HW121605   6.697   5.593   1.929
 6902SOL    HW221606   6.690   5.525   2.077
 6903SOL     OW21607   4.223   5.018   1.042
 6903SOL    HW121608   4.316   4.986   1.026
 6903SOL    HW221609   4.205   5.099   0.986
 6904SOL     OW21610   0.776   1.791   3.511
 6904SOL    HW121611   0.805   1.826   3.421
 6904SOL    HW221612   0.851   1.739   3.552
 6905SOL     OW21613   4.109   5.356   1.133
 6905SOL    HW121614   4.204   5.352   1.162
 6905SOL    HW221615   4.059   5.420   1.191
 6906SOL     OW21616   5.249   5.999   3.734
 6906SOL    HW121617   5.287   5.961   3.819
 6906SOL    HW221618   5.294   6.086   3.714
 6907SOL     OW21619   3.442   0.817   1.067
 6907SOL    HW121620   3.388   0.854   1.143
 6907SOL    HW221621   3.450   0.718   1.077
 6908SOL     OW21622   6.549   0.072   6.928
 6908SOL    HW121623   6.541   0.171   6.915
 6908SOL    HW221624   6.467   0.038   6.974
 6909SOL     OW21625   3.359   3.066   6.747
 6909SOL    HW121626   3.281   3.032   6.695
 6909SOL    HW221627   3.328   3.132   6.816
 6910SOL     OW21628   6.238   0.742   1.466
 6910SOL    HW121629   6.225   0.741   1.367
 6910SOL    HW221630   6.166   0.688   1.510
 6911SOL     OW21631   4.426   0.526   4.676
 6911SOL    HW121632   4.493   0.529   4.750
 6911SOL    HW221633   4.356   0.596   4.692
 6912SOL     OW21634   4.301   4.788   2.104
 6912SOL    HW121635   4.399   4.768   2.100
 6912SOL    HW221636   4.264   4.794   2.011
 6913SOL     OW21637   4.221   5.712   5.868
 6913SOL    HW121638   4.227   5.784   5.937
 6913SOL    HW221639   4.194   5.626   5.912
 6914SOL     OW21640   6.200   4.947   0.089
 6914SOL    HW121641   6.103   4.929   0.079
 6914SOL    HW221642   6.244   4.867   0.131
 6915SOL     OW21643   1.571   5.729   0.683
 6915SOL    HW121644   1.476   5.702   0.696
 6915SOL    HW221645   1.607   5.765   0.769
 6916SOL     OW21646   6.330   0.980   5.614
 6916SOL    HW121647   6.337   0.891   5.658
 6916SOL    HW221648   6.233   1.007   5.609
 6917SOL     OW21649   4.475   0.248   6.815
 6917SOL    HW121650   4.456   0.158   6.853
 6917SOL    HW221651   4.437   0.319   6.875
 6918SOL     OW21652   2.298   2.933   3.655
 6918SOL    HW121653   2.390   2.970   3.666
 6918SOL    HW221654   2.271   2.940   3.559
 6919SOL     OW21655   0.995   6.433   3.142
 6919SOL    HW121656   0.949   6.431   3.231
 6919SOL    HW221657   0.960   6.360   3.084
 6920SOL     OW21658   4.766   6.263   4.635
 6920SOL    HW121659   4.834   6.326   4.597
 6920SOL    HW221660   4.786   6.170   4.603
 6921SOL     OW21661   1.202   6.178   2.841
 6921SOL    HW121662   1.225   6.206   2.935
 6921SOL    HW221663   1.287   6.171   2.788
 6922SOL     OW21664   1.919   6.120   0.328
 6922SOL    HW121665   1.898   6.106   0.425
 6922SOL    HW221666   1.914   6.218   0.307
 6923SOL     OW21667   4.385   6.752   3.864
 6923SOL    HW121668   4.395   6.710   3.954
 6923SOL    HW221669   4.290   6.780   3.851
 6924SOL     OW21670   6.707   5.996   1.795
 6924SOL    HW121671   6.663   6.033   1.714
 6924SOL    HW221672   6.639   5.950   1.853
 6925SOL     OW21673   6.118   5.499   3.275
 6925SOL    HW121674   6.185   5.543   3.214
 6925SOL    HW221675   6.158   5.488   3.366
 6926SOL     OW21676   2.938   4.023   5.341
 6926SOL    HW121677   2.960   3.993   5.434
 6926SOL    HW221678   2.879   3.955   5.298
 6927SOL     OW21679   3.831   2.693   0.439
 6927SOL    HW121680   3.843   2.741   0.526
 6927SOL    HW221681   3.920   2.657   0.409
 6928SOL     OW21682   6.795   0.198   6.424
 6928SOL    HW121683   6.719   0.238   6.373
 6928SOL    HW221684   6.771   0.193   6.521
 6929SOL     OW21685   3.212   5.346   1.012
 6929SOL    HW121686   3.257   5.323   1.099
 6929SOL    HW221687   3.278   5.338   0.938
 6930SOL     OW21688   1.262   0.258   3.338
 6930SOL    HW121689   1.253   0.307   3.424
 6930SOL    HW221690   1.358   0.233   3.324
 6931SOL     OW21691   2.340   0.170   0.840
 6931SOL    HW121692   2.409   0.140   0.906
 6931SOL    HW221693   2.268   0.102   0.833
 6932SOL     OW21694   2.777   2.437   6.917
 6932SOL    HW121695   2.706   2.461   6.983
 6932SOL    HW221696   2.736   2.386   6.841
 6933SOL     OW21697   2.926   6.322   6.251
 6933SOL    HW121698   3.022   6.299   6.234
 6933SOL    HW221699   2.920   6.418   6.277
 6934SOL     OW21700   5.579   4.539   6.334
 6934SOL    HW121701   5.604   4.598   6.410
 6934SOL    HW221702   5.563   4.446   6.367
 6935SOL     OW21703   4.391   6.010   2.935
 6935SOL    HW121704   4.309   5.968   2.975
 6935SOL    HW221705   4.470   5.991   2.993
 6936SOL     OW21706   0.308   4.703   0.866
 6936SOL    HW121707   0.284   4.607   0.859
 6936SOL    HW221708   0.354   4.720   0.954
 6937SOL     OW21709   4.466   6.312   5.891
 6937SOL    HW121710   4.378   6.358   5.880
 6937SOL    HW221711   4.451   6.219   5.923
 6938SOL     OW21712   6.072   2.433   4.914
 6938SOL    HW121713   6.103   2.521   4.877
 6938SOL    HW221714   6.076   2.436   5.014
 6939SOL     OW21715   6.893   4.795   1.986
 6939SOL    HW121716   6.835   4.863   2.031
 6939SOL    HW221717   6.878   4.705   2.026
 6940SOL     OW21718   4.423   0.868   5.018
 6940SOL    HW121719   4.408   0.786   5.075
 6940SOL    HW221720   4.450   0.944   5.077
 6941SOL     OW21721   4.103   3.297   4.001
 6941SOL    HW121722   4.004   3.281   4.003
 6941SOL    HW221723   4.149   3.213   3.972
 6942SOL     OW21724   6.808   1.592   0.091
 6942SOL    HW121725   6.837   1.681   0.056
 6942SOL    HW221726   6.886   1.528   0.086
 6943SOL     OW21727   6.505   6.246   0.118
 6943SOL    HW121728   6.456   6.201   0.044
 6943SOL    HW221729   6.512   6.184   0.196
 6944SOL     OW21730   0.848   6.079   6.368
 6944SOL    HW121731   0.788   6.052   6.443
 6944SOL    HW221732   0.862   6.178   6.369
 6945SOL     OW21733   4.458   2.005   5.199
 6945SOL    HW121734   4.423   2.002   5.292
 6945SOL    HW221735   4.543   1.954   5.193
 6946SOL     OW21736   5.734   3.589   3.498
 6946SOL    HW121737   5.799   3.638   3.556
 6946SOL    HW221738   5.765   3.495   3.484
 6947SOL     OW21739   3.535   6.807   2.669
 6947SOL    HW121740   3.556   6.789   2.573
 6947SOL    HW221741   3.518   6.905   2.681
 6948SOL     OW21742   3.895   2.108   4.605
 6948SOL    HW121743   3.836   2.085   4.683
 6948SOL    HW221744   3.990   2.085   4.626
 6949SOL     OW21745   4.741   0.839   2.524
 6949SOL    HW121746   4.724   0.907   2.595
 6949SOL    HW221747   4.839   0.822   2.518
 6950SOL     OW21748   2.348   1.289   3.994
 6950SOL    HW121749   2.309   1.226   3.927
 6950SOL    HW221750   2.366   1.241   4.079
 6951SOL     OW21751   4.832   5.313   5.218
 6951SOL    HW121752   4.918   5.352   5.253
 6951SOL    HW221753   4.825   5.218   5.247
 6952SOL     OW21754   0.106   5.025   5.195
 6952SOL    HW121755   0.177   5.076   5.244
 6952SOL    HW221756   0.016   5.055   5.226
 6953SOL     OW21757   5.953   2.474   5.178
 6953SOL    HW121758   5.907   2.385   5.174
 6953SOL    HW221759   5.924   2.530   5.101
 6954SOL     OW21760   1.099   5.008   2.590
 6954SOL    HW121761   1.090   4.945   2.513
 6954SOL    HW221762   1.138   5.094   2.558
 6955SOL     OW21763   6.575   6.133   3.182
 6955SOL    HW121764   6.568   6.094   3.090
 6955SOL    HW221765   6.671   6.136   3.210
 6956SOL     OW21766   2.971   5.392   0.769
 6956SOL    HW121767   3.023   5.432   0.844
 6956SOL    HW221768   2.878   5.372   0.801
 6957SOL     OW21769   0.375   3.994   0.412
 6957SOL    HW121770   0.326   4.075   0.445
 6957SOL    HW221771   0.459   4.023   0.366
 6958SOL     OW21772   2.091   3.941   6.421
 6958SOL    HW121773   2.053   3.886   6.496
 6958SOL    HW221774   2.017   3.980   6.367
 6959SOL     OW21775   4.026   1.218   3.449
 6959SOL    HW121776   4.046   1.125   3.420
 6959SOL    HW221777   4.031   1.224   3.549
 6960SOL     OW21778   0.301   4.867   0.030
 6960SOL    HW121779   0.211   4.848   7.016
 6960SOL    HW221780   0.373   4.836   6.994
 6961SOL     OW21781   6.790   1.341   3.000
 6961SOL    HW121782   6.721   1.324   3.071
 6961SOL    HW221783   6.745   1.374   2.917
 6962SOL     OW21784   3.164   3.643   0.688
 6962SOL    HW121785   3.167   3.653   0.589
 6962SOL    HW221786   3.207   3.557   0.715
 6963SOL     OW21787   6.349   5.804   2.401
 6963SOL    HW121788   6.432   5.853   2.376
 6963SOL    HW221789   6.330   5.734   2.332
 6964SOL     OW21790   4.064   6.174   4.941
 6964SOL    HW121791   3.977   6.128   4.922
 6964SOL    HW221792   4.107   6.200   4.854
 6965SOL     OW21793   6.631   2.070   5.586
 6965SOL    HW121794   6.651   1.992   5.646
 6965SOL    HW221795   6.691   2.147   5.609
 6966SOL     OW21796   4.778   2.719   4.066
 6966SOL    HW121797   4.799   2.796   4.006
 6966SOL    HW221798   4.858   2.699   4.123
 6967SOL     OW21799   2.311   2.263   6.619
 6967SOL    HW121800   2.248   2.277   6.695
 6967SOL    HW221801   2.364   2.180   6.635
 6968SOL     OW21802   3.904   6.948   2.690
 6968SOL    HW121803   3.999   6.946   2.723
 6968SOL    HW221804   3.887   6.868   2.633
 6969SOL     OW21805   2.984   2.247   1.248
 6969SOL    HW121806   2.896   2.272   1.289
 6969SOL    HW221807   2.997   2.299   1.163
 6970SOL     OW21808   4.073   3.739   0.852
 6970SOL    HW121809   4.001   3.787   0.901
 6970SOL    HW221810   4.155   3.735   0.908
 6971SOL     OW21811   5.939   0.679   2.053
 6971SOL    HW121812   5.968   0.738   2.127
 6971SOL    HW221813   6.005   0.604   2.043
 6972SOL     OW21814   5.260   4.824   4.887
 6972SOL    HW121815   5.230   4.733   4.918
 6972SOL    HW221816   5.293   4.876   4.966
 6973SOL     OW21817   1.405   4.323   3.124
 6973SOL    HW121818   1.403   4.278   3.034
 6973SOL    HW221819   1.500   4.344   3.148
 6974SOL     OW21820   3.025   4.049   4.890
 6974SOL    HW121821   2.973   3.972   4.928
 6974SOL    HW221822   2.977   4.135   4.910
 6975SOL     OW21823   3.197   0.514   6.026
 6975SOL    HW121824   3.240   0.530   5.936
 6975SOL    HW221825   3.248   0.565   6.096
 6976SOL     OW21826   1.708   6.239   0.495
 6976SOL    HW121827   1.690   6.157   0.550
 6976SOL    HW221828   1.706   6.215   0.398
 6977SOL     OW21829   4.360   2.328   2.907
 6977SOL    HW121830   4.427   2.377   2.852
 6977SOL    HW221831   4.268   2.341   2.868
 6978SOL     OW21832   5.349   1.292   2.766
 6978SOL    HW121833   5.300   1.226   2.710
 6978SOL    HW221834   5.313   1.290   2.859
 6979SOL     OW21835   0.752   4.602   3.510
 6979SOL    HW121836   0.824   4.661   3.473
 6979SOL    HW221837   0.756   4.513   3.465
 6980SOL     OW21838   3.607   1.839   4.337
 6980SOL    HW121839   3.596   1.758   4.280
 6980SOL    HW221840   3.583   1.921   4.285
 6981SOL     OW21841   3.666   4.766   6.695
 6981SOL    HW121842   3.684   4.864   6.704
 6981SOL    HW221843   3.583   4.743   6.746
 6982SOL     OW21844   0.443   6.613   4.203
 6982SOL    HW121845   0.380   6.536   4.209
 6982SOL    HW221846   0.442   6.649   4.110
 6983SOL     OW21847   6.200   0.420   3.565
 6983SOL    HW121848   6.116   0.471   3.587
 6983SOL    HW221849   6.260   0.420   3.645
 6984SOL     OW21850   2.293   1.012   5.414
 6984SOL    HW121851   2.262   1.105   5.398
 6984SOL    HW221852   2.376   1.013   5.471
 6985SOL     OW21853   5.189   6.512   2.893
 6985SOL    HW121854   5.236   6.437   2.846
 6985SOL    HW221855   5.111   6.542   2.838
 6986SOL     OW21856   1.883   6.974   4.994
 6986SOL    HW121857   1.843   0.021   5.049
 6986SOL    HW221858   1.813   6.939   4.930
 6987SOL     OW21859   6.730   3.619   6.436
 6987SOL    HW121860   6.722   3.557   6.514
 6987SOL    HW221861   6.818   3.665   6.438
 6988SOL     OW21862   5.204   1.028   5.318
 6988SOL    HW121863   5.185   0.956   5.251
 6988SOL    HW221864   5.286   1.005   5.369
 6989SOL     OW21865   1.543   2.956   3.954
 6989SOL    HW121866   1.534   2.857   3.950
 6989SOL    HW221867   1.596   2.982   4.035
 6990SOL     OW21868   3.862   3.146   0.497
 6990SOL    HW121869   3.927   3.185   0.562
 6990SOL    HW221870   3.908   3.134   0.409
 6991SOL     OW21871   4.324   4.428   5.511
 6991SOL    HW121872   4.353   4.429   5.607
 6991SOL    HW221873   4.253   4.358   5.499
 6992SOL     OW21874   5.790   6.348   5.099
 6992SOL    HW121875   5.740   6.288   5.161
 6992SOL    HW221876   5.758   6.335   5.005
 6993SOL     OW21877   0.886   6.377   3.386
 6993SOL    HW121878   0.881   6.447   3.458
 6993SOL    HW221879   0.886   6.286   3.427
 6994SOL     OW21880   1.452   3.090   6.980
 6994SOL    HW121881   1.388   3.018   7.008
 6994SOL    HW221882   1.468   3.152   0.031
 6995SOL     OW21883   1.230   4.451   3.733
 6995SOL    HW121884   1.210   4.534   3.784
 6995SOL    HW221885   1.182   4.374   3.775
 6996SOL     OW21886   2.364   0.535   6.004
 6996SOL    HW121887   2.269   0.557   6.026
 6996SOL    HW221888   2.367   0.463   5.935
 6997SOL     OW21889   5.032   0.211   4.225
 6997SOL    HW121890   4.968   0.272   4.271
 6997SOL    HW221891   5.016   0.214   4.126
 6998SOL     OW21892   1.807   2.583   3.561
 6998SOL    HW121893   1.711   2.607   3.551
 6998SOL    HW221894   1.827   2.565   3.657
 6999SOL     OW21895   5.060   2.028   0.000
 6999SOL    HW121896   4.988   1.959   7.014
 6999SOL    HW221897   5.131   2.015   6.957
 7000SOL     OW21898   6.559   6.628   0.936
 7000SOL    HW121899   6.571   6.537   0.977
 7000SOL    HW221900   6.558   6.697   1.009
 7001SOL     OW21901   2.720   2.053   5.688
 7001SOL    HW121902   2.710   2.026   5.592
 7001SOL    HW221903   2.792   1.998   5.731
 7002SOL     OW21904   1.698   4.749   2.663
 7002SOL    HW121905   1.770   4.782   2.725
 7002SOL    HW221906   1.609   4.767   2.703
 7003SOL     OW21907   1.443   6.739   6.442
 7003SOL    HW121908   1.497   6.749   6.358
 7003SOL    HW221909   1.496   6.770   6.520
 7004SOL     OW21910   1.229   4.495   0.597
 7004SOL    HW121911   1.306   4.435   0.619
 7004SOL    HW221912   1.175   4.454   0.523
 7005SOL     OW21913   5.866   6.547   5.727
 7005SOL    HW121914   5.781   6.598   5.736
 7005SOL    HW221915   5.865   6.468   5.789
 7006SOL     OW21916   4.288   5.580   4.939
 7006SOL    HW121917   4.282   5.518   5.017
 7006SOL    HW221918   4.381   5.577   4.902
 7007SOL     OW21919   5.031   5.472   2.378
 7007SOL    HW121920   5.061   5.538   2.448
 7007SOL    HW221921   4.941   5.498   2.345
 7008SOL     OW21922   1.604   4.403   3.988
 7008SOL    HW121923   1.682   4.462   4.010
 7008SOL    HW221924   1.573   4.423   3.896
 7009SOL     OW21925   0.127   4.261   2.421
 7009SOL    HW121926   0.155   4.289   2.329
 7009SOL    HW221927   0.194   4.198   2.459
 7010SOL     OW21928   4.433   4.568   6.130
 7010SOL    HW121929   4.468   4.661   6.128
 7010SOL    HW221930   4.509   4.503   6.123
 7011SOL     OW21931   1.524   1.633   5.059
 7011SOL    HW121932   1.570   1.711   5.018
 7011SOL    HW221933   1.591   1.563   5.083
 7012SOL     OW21934   1.537   1.410   1.433
 7012SOL    HW121935   1.489   1.492   1.404
 7012SOL    HW221936   1.600   1.381   1.361
 7013SOL     OW21937   0.443   1.414   1.969
 7013SOL    HW121938   0.398   1.458   2.047
 7013SOL    HW221939   0.440   1.476   1.890
 7014SOL     OW21940   1.993   4.965   0.639
 7014SOL    HW121941   2.016   4.962   0.736
 7014SOL    HW221942   1.903   5.007   0.627
 7015SOL     OW21943   5.650   2.127   2.294
 7015SOL    HW121944   5.749   2.137   2.305
 7015SOL    HW221945   5.606   2.215   2.309
 7016SOL     OW21946   4.021   4.509   1.100
 7016SOL    HW121947   4.115   4.534   1.121
 7016SOL    HW221948   3.985   4.450   1.173
 7017SOL     OW21949   4.389   1.960   4.537
 7017SOL    HW121950   4.302   1.997   4.503
 7017SOL    HW221951   4.450   1.942   4.460
 7018SOL     OW21952   0.454   4.357   3.699
 7018SOL    HW121953   0.535   4.395   3.656
 7018SOL    HW221954   0.372   4.400   3.660
 7019SOL     OW21955   1.654   5.779   1.044
 7019SOL    HW121956   1.654   5.793   1.143
 7019SOL    HW221957   1.627   5.685   1.024
 7020SOL     OW21958   0.058   6.283   6.198
 7020SOL    HW121959   7.010   6.343   6.229
 7020SOL    HW221960   0.027   6.188   6.199
 7021SOL     OW21961   4.014   6.976   5.441
 7021SOL    HW121962   4.009   6.936   5.533
 7021SOL    HW221963   3.957   6.923   5.378
 7022SOL     OW21964   4.921   5.622   6.612
 7022SOL    HW121965   4.984   5.590   6.541
 7022SOL    HW221966   4.898   5.546   6.673
 7023SOL     OW21967   5.573   4.019   3.030
 7023SOL    HW121968   5.482   4.030   3.069
 7023SOL    HW221969   5.636   3.986   3.101
 7024SOL     OW21970   0.352   6.014   1.635
 7024SOL    HW121971   0.361   5.956   1.554
 7024SOL    HW221972   0.265   5.996   1.680
 7025SOL     OW21973   2.552   6.897   6.719
 7025SOL    HW121974   2.549   6.892   6.619
 7025SOL    HW221975   2.637   6.942   6.747
 7026SOL     OW21976   3.348   1.489   0.757
 7026SOL    HW121977   3.439   1.512   0.722
 7026SOL    HW221978   3.303   1.573   0.789
 7027SOL     OW21979   4.723   6.915   4.142
 7027SOL    HW121980   4.736   6.988   4.075
 7027SOL    HW221981   4.768   6.832   4.110
 7028SOL     OW21982   2.911   0.230   4.668
 7028SOL    HW121983   2.967   0.181   4.734
 7028SOL    HW221984   2.968   0.293   4.616
 7029SOL     OW21985   3.772   0.898   4.924
 7029SOL    HW121986   3.752   0.821   4.984
 7029SOL    HW221987   3.818   0.865   4.841
 7030SOL     OW21988   2.041   3.641   3.527
 7030SOL    HW121989   1.960   3.671   3.577
 7030SOL    HW221990   2.083   3.562   3.573
 7031SOL     OW21991   1.524   0.223   4.838
 7031SOL    HW121992   1.509   0.309   4.789
 7031SOL    HW221993   1.436   0.187   4.870
 7032SOL     OW21994   6.292   2.241   3.637
 7032SOL    HW121995   6.319   2.262   3.543
 7032SOL    HW221996   6.237   2.158   3.638
 7033SOL     OW21997   0.227   0.112   4.496
 7033SOL    HW121998   0.158   0.124   4.568
 7033SOL    HW221999   0.196   0.158   4.413
 7034SOL     OW22000   0.559   5.745   2.608
 7034SOL    HW122001   0.612   5.802   2.670
 7034SOL    HW222002   0.467   5.784   2.596
 7035SOL     OW22003   6.687   5.212   1.948
 7035SOL    HW122004   6.723   5.302   1.971
 7035SOL    HW222005   6.587   5.215   1.945
 7036SOL     OW22006   6.539   4.509   0.778
 7036SOL    HW122007   6.532   4.590   0.836
 7036SOL    HW222008   6.513   4.428   0.831
 7037SOL     OW22009   0.410   0.058   6.818
 7037SOL    HW122010   0.380   0.122   6.888
 7037SOL    HW222011   0.348   7.006   6.814
 7038SOL     OW22012   1.867   3.262   4.295
 7038SOL    HW122013   1.842   3.328   4.225
 7038SOL    HW222014   1.966   3.262   4.308
 7039SOL     OW22015   3.950   2.373   6.229
 7039SOL    HW122016   3.887   2.445   6.201
 7039SOL    HW222017   3.998   2.401   6.312
 7040SOL     OW22018   5.483   2.684   6.602
 7040SOL    HW122019   5.429   2.601   6.618
 7040SOL    HW222020   5.499   2.694   6.504
 7041SOL     OW22021   3.158   1.513   2.595
 7041SOL    HW122022   3.208   1.517   2.508
 7041SOL    HW222023   3.089   1.441   2.591
 7042SOL     OW22024   1.609   0.447   6.971
 7042SOL    HW122025   1.637   0.361   6.928
 7042SOL    HW222026   1.636   0.447   0.041
 7043SOL     OW22027   1.216   2.681   2.452
 7043SOL    HW122028   1.291   2.615   2.443
 7043SOL    HW222029   1.132   2.632   2.476
 7044SOL     OW22030   5.197   6.161   2.168
 7044SOL    HW122031   5.172   6.253   2.138
 7044SOL    HW222032   5.127   6.127   2.232
 7045SOL     OW22033   6.227   4.489   1.041
 7045SOL    HW122034   6.147   4.435   1.014
 7045SOL    HW222035   6.236   4.488   1.141
 7046SOL     OW22036   2.635   0.883   3.709
 7046SOL    HW122037   2.689   0.852   3.631
 7046SOL    HW222038   2.538   0.885   3.683
 7047SOL     OW22039   1.610   1.197   3.001
 7047SOL    HW122040   1.570   1.192   2.909
 7047SOL    HW222041   1.685   1.131   3.008
 7048SOL     OW22042   6.885   5.906   0.482
 7048SOL    HW122043   6.932   5.928   0.397
 7048SOL    HW222044   6.792   5.876   0.461
 7049SOL     OW22045   1.679   1.045   0.123
 7049SOL    HW122046   1.696   1.039   0.221
 7049SOL    HW222047   1.747   0.991   0.074
 7050SOL     OW22048   3.783   4.129   4.593
 7050SOL    HW122049   3.752   4.183   4.515
 7050SOL    HW222050   3.830   4.047   4.560
 7051SOL     OW22051   0.314   6.493   2.536
 7051SOL    HW122052   0.219   6.483   2.567
 7051SOL    HW222053   0.365   6.547   2.603
 7052SOL     OW22054   0.021   1.157   3.807
 7052SOL    HW122055   0.107   1.184   3.765
 7052SOL    HW222056   0.031   1.066   3.849
 7053SOL     OW22057   6.415   4.034   6.011
 7053SOL    HW122058   6.446   4.116   6.059
 7053SOL    HW222059   6.493   3.978   5.985
 7054SOL     OW22060   6.751   0.349   1.737
 7054SOL    HW122061   6.762   0.274   1.671
 7054SOL    HW222062   6.721   0.311   1.824
 7055SOL     OW22063   3.925   6.739   4.906
 7055SOL    HW122064   3.835   6.742   4.949
 7055SOL    HW222065   3.915   6.714   4.810
 7056SOL     OW22066   4.684   5.133   3.988
 7056SOL    HW122067   4.594   5.122   3.947
 7056SOL    HW222068   4.737   5.199   3.935
 7057SOL     OW22069   0.781   6.133   3.129
 7057SOL    HW122070   0.827   6.051   3.163
 7057SOL    HW222071   0.824   6.163   3.045
 7058SOL     OW22072   0.285   4.060   4.964
 7058SOL    HW122073   0.205   4.012   4.929
 7058SOL    HW222074   0.285   4.155   4.932
 7059SOL     OW22075   2.316   0.258   2.981
 7059SOL    HW122076   2.365   0.185   3.029
 7059SOL    HW222077   2.220   0.233   2.972
 7060SOL     OW22078   3.546   0.143   1.427
 7060SOL    HW122079   3.555   0.241   1.445
 7060SOL    HW222080   3.632   0.097   1.449
 7061SOL     OW22081   0.383   0.957   3.025
 7061SOL    HW122082   0.296   0.907   3.031
 7061SOL    HW222083   0.394   1.015   3.106
 7062SOL     OW22084   6.635   1.255   5.654
 7062SOL    HW122085   6.594   1.328   5.710
 7062SOL    HW222086   6.703   1.295   5.593
 7063SOL     OW22087   2.832   0.073   1.955
 7063SOL    HW122088   2.758   0.009   1.974
 7063SOL    HW222089   2.833   0.145   2.025
 7064SOL     OW22090   4.528   2.211   0.393
 7064SOL    HW122091   4.540   2.183   0.298
 7064SOL    HW222092   4.498   2.132   0.447
 7065SOL     OW22093   3.584   3.679   2.010
 7065SOL    HW122094   3.553   3.730   1.929
 7065SOL    HW222095   3.616   3.743   2.079
 7066SOL     OW22096   3.049   6.508   1.327
 7066SOL    HW122097   3.137   6.534   1.286
 7066SOL    HW222098   2.983   6.488   1.255
 7067SOL     OW22099   6.758   3.859   4.548
 7067SOL    HW122100   6.833   3.907   4.501
 7067SOL    HW222101   6.794   3.810   4.627
 7068SOL     OW22102   0.889   0.598   2.267
 7068SOL    HW122103   0.829   0.673   2.294
 7068SOL    HW222104   0.983   0.618   2.294
 7069SOL     OW22105   1.461   4.092   4.979
 7069SOL    HW122106   1.515   4.072   5.061
 7069SOL    HW222107   1.514   4.152   4.919
 7070SOL     OW22108   5.079   5.601   4.554
 7070SOL    HW122109   5.114   5.508   4.541
 7070SOL    HW222110   5.131   5.664   4.496
 7071SOL     OW22111   1.245   6.825   5.271
 7071SOL    HW122112   1.271   6.895   5.338
 7071SOL    HW222113   1.146   6.810   5.275
 7072SOL     OW22114   0.008   6.151   6.479
 7072SOL    HW122115   0.103   6.183   6.485
 7072SOL    HW222116   6.980   6.195   6.551
 7073SOL     OW22117   1.333   1.784   6.805
 7073SOL    HW122118   1.244   1.749   6.773
 7073SOL    HW222119   1.402   1.713   6.796
 7074SOL     OW22120   2.883   1.646   0.686
 7074SOL    HW122121   2.786   1.647   0.660
 7074SOL    HW222122   2.908   1.555   0.719
 7075SOL     OW22123   1.315   5.527   2.702
 7075SOL    HW122124   1.349   5.597   2.765
 7075SOL    HW222125   1.324   5.560   2.608
 7076SOL     OW22126   3.346   2.335   6.518
 7076SOL    HW122127   3.259   2.306   6.477
 7076SOL    HW222128   3.419   2.323   6.451
 7077SOL     OW22129   1.690   4.743   5.754
 7077SOL    HW122130   1.746   4.803   5.811
 7077SOL    HW222131   1.748   4.671   5.715
 7078SOL     OW22132   6.681   0.767   2.580
 7078SOL    HW122133   6.662   0.844   2.519
 7078SOL    HW222134   6.777   0.771   2.609
 7079SOL     OW22135   4.985   5.762   5.690
 7079SOL    HW122136   5.075   5.742   5.652
 7079SOL    HW222137   4.963   5.696   5.761
 7080SOL     OW22138   5.637   0.082   3.940
 7080SOL    HW122139   5.547   0.097   3.982
 7080SOL    HW222140   5.644   7.013   3.910
 7081SOL     OW22141   3.803   1.062   5.358
 7081SOL    HW122142   3.880   1.009   5.393
 7081SOL    HW222143   3.836   1.130   5.293
 7082SOL     OW22144   5.276   1.630   6.472
 7082SOL    HW122145   5.320   1.674   6.550
 7082SOL    HW222146   5.188   1.675   6.453
 7083SOL     OW22147   3.376   6.805   6.070
 7083SOL    HW122148   3.351   6.884   6.126
 7083SOL    HW222149   3.380   6.832   5.974
 7084SOL     OW22150   6.775   6.352   0.088
 7084SOL    HW122151   6.772   6.449   0.065
 7084SOL    HW222152   6.683   6.313   0.080
 7085SOL     OW22153   3.060   2.821   0.825
 7085SOL    HW122154   3.001   2.797   0.902
 7085SOL    HW222155   3.151   2.844   0.860
 7086SOL     OW22156   6.813   0.951   6.459
 7086SOL    HW122157   6.860   0.872   6.497
 7086SOL    HW222158   6.824   0.952   6.359
 7087SOL     OW22159   1.837   2.634   4.969
 7087SOL    HW122160   1.871   2.725   4.945
 7087SOL    HW222161   1.885   2.602   5.051
 7088SOL     OW22162   0.316   1.751   5.581
 7088SOL    HW122163   0.226   1.736   5.541
 7088SOL    HW222164   0.371   1.668   5.572
 7089SOL     OW22165   2.657   1.621   0.539
 7089SOL    HW122166   2.642   1.522   0.539
 7089SOL    HW222167   2.570   1.668   0.550
 7090SOL     OW22168   2.260   2.896   4.619
 7090SOL    HW122169   2.315   2.823   4.658
 7090SOL    HW222170   2.233   2.960   4.691
 7091SOL     OW22171   0.157   5.990   0.627
 7091SOL    HW122172   0.220   5.976   0.551
 7091SOL    HW222173   0.074   5.936   0.613
 7092SOL     OW22174   3.241   3.375   6.594
 7092SOL    HW122175   3.273   3.407   6.683
 7092SOL    HW222176   3.142   3.391   6.587
 7093SOL     OW22177   3.835   2.994   5.979
 7093SOL    HW122178   3.811   2.961   6.070
 7093SOL    HW222179   3.934   2.984   5.965
 7094SOL     OW22180   0.052   0.393   6.419
 7094SOL    HW122181   7.013   0.432   6.353
 7094SOL    HW222182   0.004   0.331   6.480
 7095SOL     OW22183   0.300   4.322   6.532
 7095SOL    HW122184   0.238   4.391   6.571
 7095SOL    HW222185   0.393   4.358   6.530
 7096SOL     OW22186   5.541   0.823   2.416
 7096SOL    HW122187   5.538   0.743   2.357
 7096SOL    HW222188   5.593   0.896   2.370
 7097SOL     OW22189   1.375   0.610   1.707
 7097SOL    HW122190   1.345   0.685   1.647
 7097SOL    HW222191   1.363   0.523   1.660
 7098SOL     OW22192   1.684   0.194   5.718
 7098SOL    HW122193   1.669   0.132   5.641
 7098SOL    HW222194   1.709   0.284   5.683
 7099SOL     OW22195   0.498   1.096   6.321
 7099SOL    HW122196   0.480   1.057   6.411
 7099SOL    HW222197   0.588   1.139   6.321
 7100SOL     OW22198   5.569   2.387   1.120
 7100SOL    HW122199   5.472   2.409   1.128
 7100SOL    HW222200   5.621   2.472   1.110
 7101SOL     OW22201   1.881   0.358   4.394
 7101SOL    HW122202   1.851   0.295   4.322
 7101SOL    HW222203   1.930   0.307   4.465
 7102SOL     OW22204   4.658   2.983   0.811
 7102SOL    HW122205   4.596   2.916   0.851
 7102SOL    HW222206   4.749   2.943   0.799
 7103SOL     OW22207   2.414   6.402   6.399
 7103SOL    HW122208   2.342   6.335   6.417
 7103SOL    HW222209   2.501   6.355   6.386
 7104SOL     OW22210   0.519   2.322   1.950
 7104SOL    HW122211   0.547   2.332   2.045
 7104SOL    HW222212   0.473   2.405   1.920
 7105SOL     OW22213   2.433   4.108   5.421
 7105SOL    HW122214   2.343   4.144   5.445
 7105SOL    HW222215   2.427   4.055   5.337
 7106SOL     OW22216   3.108   2.613   5.348
 7106SOL    HW122217   3.182   2.678   5.331
 7106SOL    HW222218   3.128   2.527   5.301
 7107SOL     OW22219   2.569   0.685   6.953
 7107SOL    HW122220   2.658   0.644   6.935
 7107SOL    HW222221   2.507   0.615   6.990
 7108SOL     OW22222   4.294   6.584   2.383
 7108SOL    HW122223   4.380   6.534   2.380
 7108SOL    HW222224   4.267   6.598   2.478
 7109SOL     OW22225   3.962   6.294   5.996
 7109SOL    HW122226   4.018   6.319   5.917
 7109SOL    HW222227   3.907   6.373   6.025
 7110SOL     OW22228   3.534   5.317   3.157
 7110SOL    HW122229   3.508   5.260   3.080
 7110SOL    HW222230   3.538   5.262   3.241
 7111SOL     OW22231   1.236   2.769   3.850
 7111SOL    HW122232   1.191   2.714   3.780
 7111SOL    HW222233   1.297   2.711   3.905
 7112SOL     OW22234   1.667   6.189   2.467
 7112SOL    HW122235   1.728   6.167   2.544
 7112SOL    HW222236   1.573   6.174   2.496
 7113SOL     OW22237   3.050   3.953   4.586
 7113SOL    HW122238   3.047   4.002   4.673
 7113SOL    HW222239   3.028   3.856   4.602
 7114SOL     OW22240   4.240   0.222   1.182
 7114SOL    HW122241   4.270   0.251   1.273
 7114SOL    HW222242   4.304   0.154   1.146
 7115SOL     OW22243   4.032   1.770   1.581
 7115SOL    HW122244   4.060   1.831   1.655
 7115SOL    HW222245   3.932   1.771   1.572
 7116SOL     OW22246   5.949   3.639   3.002
 7116SOL    HW122247   6.025   3.595   3.048
 7116SOL    HW222248   5.863   3.615   3.047
 7117SOL     OW22249   6.491   6.511   2.112
 7117SOL    HW122250   6.552   6.590   2.120
 7117SOL    HW222251   6.537   6.438   2.062
 7118SOL     OW22252   6.998   2.693   2.003
 7118SOL    HW122253   0.037   2.765   2.026
 7118SOL    HW222254   6.921   2.695   2.067
 7119SOL     OW22255   6.973   1.621   2.938
 7119SOL    HW122256   0.038   1.584   2.919
 7119SOL    HW222257   6.945   1.595   3.031
 7120SOL     OW22258   5.435   0.001   3.513
 7120SOL    HW122259   5.451   0.076   3.577
 7120SOL    HW222260   5.365   0.027   3.446
 7121SOL     OW22261   3.547   6.751   1.604
 7121SOL    HW122262   3.448   6.757   1.595
 7121SOL    HW222263   3.572   6.749   1.700
 7122SOL     OW22264   6.817   6.890   0.231
 7122SOL    HW122265   6.758   6.812   0.252
 7122SOL    HW222266   6.904   6.881   0.280
 7123SOL     OW22267   2.330   5.428   0.698
 7123SOL    HW122268   2.258   5.486   0.658
 7123SOL    HW222269   2.325   5.337   0.658
 7124SOL     OW22270   0.563   5.733   1.603
 7124SOL    HW122271   0.528   5.778   1.521
 7124SOL    HW222272   0.524   5.642   1.610
 7125SOL     OW22273   7.001   6.610   2.784
 7125SOL    HW122274   6.940   6.649   2.715
 7125SOL    HW222275   0.037   6.545   2.740
 7126SOL     OW22276   0.961   5.015   0.383
 7126SOL    HW122277   0.940   5.037   0.478
 7126SOL    HW222278   0.889   5.051   0.324
 7127SOL     OW22279   3.521   0.149   4.570
 7127SOL    HW122280   3.462   0.072   4.598
 7127SOL    HW222281   3.617   0.123   4.579
 7128SOL     OW22282   2.913   4.614   1.600
 7128SOL    HW122283   2.863   4.565   1.672
 7128SOL    HW222284   2.853   4.630   1.522
 7129SOL     OW22285   2.892   1.616   1.508
 7129SOL    HW122286   2.845   1.702   1.486
 7129SOL    HW222287   2.960   1.632   1.579
 7130SOL     OW22288   2.179   6.203   2.027
 7130SOL    HW122289   2.234   6.169   1.951
 7130SOL    HW222290   2.236   6.211   2.108
 7131SOL     OW22291   2.733   1.147   3.715
 7131SOL    HW122292   2.828   1.159   3.743
 7131SOL    HW222293   2.710   1.050   3.713
 7132SOL     OW22294   3.187   4.053   3.040
 7132SOL    HW122295   3.255   4.058   3.114
 7132SOL    HW222296   3.227   4.085   2.955
 7133SOL     OW22297   5.177   4.653   2.554
 7133SOL    HW122298   5.140   4.583   2.615
 7133SOL    HW222299   5.268   4.680   2.587
 7134SOL     OW22300   5.239   4.534   3.497
 7134SOL    HW122301   5.182   4.471   3.549
 7134SOL    HW222302   5.213   4.530   3.400
 7135SOL     OW22303   1.099   2.159   4.945
 7135SOL    HW122304   1.121   2.234   4.883
 7135SOL    HW222305   1.154   2.166   5.028
 7136SOL     OW22306   2.345   1.830   6.631
 7136SOL    HW122307   2.346   1.768   6.553
 7136SOL    HW222308   2.424   1.891   6.626
 7137SOL     OW22309   3.645   1.365   4.977
 7137SOL    HW122310   3.643   1.281   4.922
 7137SOL    HW222311   3.737   1.406   4.972
 7138SOL     OW22312   2.262   3.805   6.834
 7138SOL    HW122313   2.232   3.752   6.913
 7138SOL    HW222314   2.182   3.840   6.785
 7139SOL     OW22315   3.191   2.261   0.398
 7139SOL    HW122316   3.266   2.196   0.382
 7139SOL    HW222317   3.219   2.327   0.468
 7140SOL     OW22318   6.466   3.223   5.134
 7140SOL    HW122319   6.419   3.136   5.150
 7140SOL    HW222320   6.401   3.291   5.101
 7141SOL     OW22321   2.123   0.011   0.917
 7141SOL    HW122322   2.161   7.002   1.002
 7141SOL    HW222323   2.041   0.065   0.937
 7142SOL     OW22324   4.159   6.824   4.079
 7142SOL    HW122325   4.129   6.829   3.983
 7142SOL    HW222326   4.118   6.743   4.122
 7143SOL     OW22327   1.682   3.320   3.895
 7143SOL    HW122328   1.730   3.232   3.886
 7143SOL    HW222329   1.740   3.384   3.945
 7144SOL     OW22330   1.037   2.665   4.061
 7144SOL    HW122331   1.096   2.656   4.142
 7144SOL    HW222332   1.092   2.661   3.978
 7145SOL     OW22333   4.194   6.643   5.853
 7145SOL    HW122334   4.177   6.678   5.945
 7145SOL    HW222335   4.256   6.705   5.805
 7146SOL     OW22336   2.801   4.838   0.735
 7146SOL    HW122337   2.831   4.750   0.698
 7146SOL    HW222338   2.873   4.876   0.793
 7147SOL     OW22339   0.189   0.851   4.110
 7147SOL    HW122340   0.269   0.807   4.068
 7147SOL    HW222341   0.117   0.862   4.042
 7148SOL     OW22342   0.887   1.534   0.756
 7148SOL    HW122343   0.849   1.443   0.742
 7148SOL    HW222344   0.945   1.558   0.678
 7149SOL     OW22345   6.546   0.615   3.497
 7149SOL    HW122346   6.457   0.655   3.477
 7149SOL    HW222347   6.556   0.529   3.448
 7150SOL     OW22348   5.620   3.810   0.067
 7150SOL    HW122349   5.557   3.741   0.030
 7150SOL    HW222350   5.703   3.765   0.100
 7151SOL     OW22351   2.046   5.865   1.186
 7151SOL    HW122352   2.118   5.842   1.251
 7151SOL    HW222353   1.978   5.923   1.231
 7152SOL     OW22354   1.288   2.365   3.861
 7152SOL    HW122355   1.214   2.392   3.799
 7152SOL    HW222356   1.262   2.281   3.909
 7153SOL     OW22357   3.331   1.725   3.519
 7153SOL    HW122358   3.412   1.692   3.567
 7153SOL    HW222359   3.251   1.672   3.548
 7154SOL     OW22360   4.517   6.291   4.494
 7154SOL    HW122361   4.537   6.233   4.415
 7154SOL    HW222362   4.595   6.290   4.557
 7155SOL     OW22363   2.337   6.978   2.454
 7155SOL    HW122364   2.250   0.001   2.462
 7155SOL    HW222365   2.401   0.006   2.400
 7156SOL     OW22366   0.834   5.666   4.507
 7156SOL    HW122367   0.903   5.681   4.436
 7156SOL    HW222368   0.876   5.677   4.597
 7157SOL     OW22369   5.258   4.337   1.428
 7157SOL    HW122370   5.177   4.383   1.465
 7157SOL    HW222371   5.234   4.245   1.400
 7158SOL     OW22372   5.296   0.140   4.221
 7158SOL    HW122373   5.201   0.168   4.232
 7158SOL    HW222374   5.311   0.108   4.127
 7159SOL     OW22375   1.010   5.330   0.225
 7159SOL    HW122376   1.065   5.306   0.306
 7159SOL    HW222377   0.916   5.346   0.252
 7160SOL     OW22378   6.374   0.750   1.952
 7160SOL    HW122379   6.406   0.831   2.003
 7160SOL    HW222380   6.344   0.778   1.862
 7161SOL     OW22381   3.453   4.005   3.781
 7161SOL    HW122382   3.422   3.910   3.790
 7161SOL    HW222383   3.377   4.067   3.801
 7162SOL     OW22384   2.949   4.804   3.707
 7162SOL    HW122385   2.869   4.747   3.729
 7162SOL    HW222386   2.955   4.879   3.772
 7163SOL     OW22387   2.712   6.582   3.333
 7163SOL    HW122388   2.629   6.578   3.390
 7163SOL    HW222389   2.686   6.592   3.237
 7164SOL     OW22390   2.740   1.727   3.276
 7164SOL    HW122391   2.718   1.817   3.237
 7164SOL    HW222392   2.661   1.692   3.325
 7165SOL     OW22393   4.768   0.182   1.865
 7165SOL    HW122394   4.799   0.153   1.956
 7165SOL    HW222395   4.668   0.188   1.864
 7166SOL     OW22396   4.968   5.261   1.797
 7166SOL    HW122397   5.044   5.212   1.754
 7166SOL    HW222398   5.000   5.306   1.880
 7167SOL     OW22399   5.415   2.851   5.428
 7167SOL    HW122400   5.323   2.819   5.406
 7167SOL    HW222401   5.453   2.900   5.349
 7168SOL     OW22402   1.072   1.975   4.707
 7168SOL    HW122403   1.076   2.048   4.775
 7168SOL    HW222404   1.161   1.928   4.703
 7169SOL     OW22405   1.356   2.964   6.657
 7169SOL    HW122406   1.293   3.032   6.695
 7169SOL    HW222407   1.304   2.882   6.631
 7170SOL     OW22408   6.541   5.195   4.217
 7170SOL    HW122409   6.588   5.254   4.151
 7170SOL    HW222410   6.603   5.173   4.292
 7171SOL     OW22411   4.111   2.907   5.716
 7171SOL    HW122412   4.197   2.861   5.693
 7171SOL    HW222413   4.079   2.875   5.805
 7172SOL     OW22414   0.930   6.916   0.755
 7172SOL    HW122415   0.989   6.987   0.717
 7172SOL    HW222416   0.853   6.959   0.802
 7173SOL     OW22417   5.702   6.298   5.476
 7173SOL    HW122418   5.726   6.394   5.461
 7173SOL    HW222419   5.635   6.292   5.550
 7174SOL     OW22420   0.663   5.482   0.070
 7174SOL    HW122421   0.716   5.501   7.014
 7174SOL    HW222422   0.654   5.567   0.124
 7175SOL     OW22423   6.633   2.652   5.380
 7175SOL    HW122424   6.694   2.677   5.305
 7175SOL    HW222425   6.577   2.574   5.353
 7176SOL     OW22426   6.165   3.560   1.359
 7176SOL    HW122427   6.218   3.574   1.442
 7176SOL    HW222428   6.082   3.509   1.380
 7177SOL     OW22429   0.876   6.148   2.254
 7177SOL    HW122430   0.830   6.064   2.226
 7177SOL    HW222431   0.960   6.159   2.203
 7178SOL     OW22432   0.170   2.352   6.273
 7178SOL    HW122433   0.189   2.358   6.175
 7178SOL    HW222434   0.245   2.303   6.318
 7179SOL     OW22435   2.307   4.477   6.271
 7179SOL    HW122436   2.383   4.414   6.259
 7179SOL    HW222437   2.309   4.515   6.364
 7180SOL     OW22438   1.278   6.547   3.482
 7180SOL    HW122439   1.225   6.606   3.421
 7180SOL    HW222440   1.359   6.515   3.434
 7181SOL     OW22441   5.479   6.830   2.590
 7181SOL    HW122442   5.447   6.825   2.496
 7181SOL    HW222443   5.503   6.738   2.622
 7182SOL     OW22444   3.311   3.493   5.601
 7182SOL    HW122445   3.285   3.574   5.653
 7182SOL    HW222446   3.315   3.516   5.503
 7183SOL     OW22447   1.652   4.915   3.179
 7183SOL    HW122448   1.580   4.978   3.150
 7183SOL    HW222449   1.632   4.823   3.144
 7184SOL     OW22450   2.288   5.951   2.834
 7184SOL    HW122451   2.366   5.895   2.861
 7184SOL    HW222452   2.322   6.037   2.794
 7185SOL     OW22453   4.265   2.267   6.418
 7185SOL    HW122454   4.237   2.205   6.491
 7185SOL    HW222455   4.193   2.333   6.400
 7186SOL     OW22456   0.220   6.873   4.067
 7186SOL    HW122457   0.302   6.828   4.030
 7186SOL    HW222458   0.214   6.966   4.031
 7187SOL     OW22459   2.452   6.209   1.387
 7187SOL    HW122460   2.362   6.240   1.417
 7187SOL    HW222461   2.442   6.130   1.327
 7188SOL     OW22462   5.056   0.495   1.647
 7188SOL    HW122463   4.971   0.546   1.652
 7188SOL    HW222464   5.121   0.543   1.588
 7189SOL     OW22465   6.588   0.196   4.656
 7189SOL    HW122466   6.506   0.168   4.705
 7189SOL    HW222467   6.562   0.241   4.571
 7190SOL     OW22468   4.777   5.131   3.312
 7190SOL    HW122469   4.714   5.107   3.239
 7190SOL    HW222470   4.861   5.170   3.273
 7191SOL     OW22471   0.971   3.049   1.814
 7191SOL    HW122472   1.050   3.094   1.855
 7191SOL    HW222473   0.921   2.998   1.884
 7192SOL     OW22474   3.842   5.463   6.222
 7192SOL    HW122475   3.784   5.388   6.255
 7192SOL    HW222476   3.841   5.464   6.122
 7193SOL     OW22477   5.168   1.312   3.409
 7193SOL    HW122478   5.235   1.384   3.392
 7193SOL    HW222479   5.094   1.348   3.465
 7194SOL     OW22480   3.043   1.567   1.060
 7194SOL    HW122481   3.075   1.564   1.154
 7194SOL    HW222482   3.034   1.474   1.024
 7195SOL     OW22483   0.316   6.009   2.208
 7195SOL    HW122484   0.314   6.052   2.118
 7195SOL    HW222485   0.350   6.074   2.276
 7196SOL     OW22486   3.640   2.950   1.946
 7196SOL    HW122487   3.724   2.999   1.969
 7196SOL    HW222488   3.582   2.942   2.027
 7197SOL     OW22489   1.557   1.656   4.698
 7197SOL    HW122490   1.644   1.615   4.674
 7197SOL    HW222491   1.572   1.738   4.753
 7198SOL     OW22492   0.491   6.129   6.352
 7198SOL    HW122493   0.517   6.040   6.390
 7198SOL    HW222494   0.516   6.201   6.417
 7199SOL     OW22495   5.981   6.458   2.610
 7199SOL    HW122496   6.048   6.384   2.614
 7199SOL    HW222497   5.903   6.436   2.668
 7200SOL     OW22498   2.189   1.955   1.603
 7200SOL    HW122499   2.159   1.860   1.614
 7200SOL    HW222500   2.178   2.004   1.690
 7201SOL     OW22501   2.713   4.914   3.301
 7201SOL    HW122502   2.675   4.825   3.327
 7201SOL    HW222503   2.640   4.982   3.298
 7202SOL     OW22504   3.672   0.131   5.831
 7202SOL    HW122505   3.617   0.071   5.889
 7202SOL    HW222506   3.751   0.164   5.882
 7203SOL     OW22507   6.027   0.183   6.670
 7203SOL    HW122508   6.065   0.194   6.762
 7203SOL    HW222509   6.099   0.149   6.609
 7204SOL     OW22510   5.947   1.645   2.288
 7204SOL    HW122511   5.966   1.741   2.308
 7204SOL    HW222512   5.928   1.635   2.190
 7205SOL     OW22513   2.095   5.349   1.896
 7205SOL    HW122514   2.156   5.328   1.819
 7205SOL    HW222515   2.020   5.283   1.899
 7206SOL     OW22516   5.794   1.381   1.923
 7206SOL    HW122517   5.737   1.402   1.843
 7206SOL    HW222518   5.786   1.456   1.989
 7207SOL     OW22519   4.421   6.695   1.699
 7207SOL    HW122520   4.439   6.793   1.697
 7207SOL    HW222521   4.403   6.666   1.793
 7208SOL     OW22522   3.207   0.156   5.219
 7208SOL    HW122523   3.200   0.231   5.154
 7208SOL    HW222524   3.138   0.087   5.197
 7209SOL     OW22525   4.050   3.650   4.550
 7209SOL    HW122526   4.044   3.617   4.456
 7209SOL    HW222527   4.044   3.573   4.613
 7210SOL     OW22528   4.862   0.763   3.966
 7210SOL    HW122529   4.786   0.826   3.985
 7210SOL    HW222530   4.848   0.720   3.877
 7211SOL     OW22531   1.603   5.177   2.884
 7211SOL    HW122532   1.539   5.102   2.902
 7211SOL    HW222533   1.575   5.228   2.803
 7212SOL     OW22534   5.071   6.951   3.518
 7212SOL    HW122535   4.990   6.894   3.500
 7212SOL    HW222536   5.057   0.016   3.479
 7213SOL     OW22537   5.749   0.343   5.444
 7213SOL    HW122538   5.675   0.318   5.382
 7213SOL    HW222539   5.710   0.382   5.528
 7214SOL     OW22540   0.491   4.980   5.297
 7214SOL    HW122541   0.473   5.056   5.235
 7214SOL    HW222542   0.439   4.900   5.268
 7215SOL     OW22543   1.152   3.097   2.673
 7215SOL    HW122544   1.082   3.053   2.729
 7215SOL    HW222545   1.115   3.182   2.635
 7216SOL     OW22546   2.488   1.528   1.823
 7216SOL    HW122547   2.511   1.618   1.859
 7216SOL    HW222548   2.479   1.533   1.723
 7217SOL     OW22549   1.432   3.187   2.133
 7217SOL    HW122550   1.502   3.163   2.065
 7217SOL    HW222551   1.368   3.111   2.143
 7218SOL     OW22552   6.323   2.006   6.083
 7218SOL    HW122553   6.382   1.938   6.126
 7218SOL    HW222554   6.259   2.042   6.150
 7219SOL     OW22555   3.636   0.579   1.313
 7219SOL    HW122556   3.734   0.581   1.295
 7219SOL    HW222557   3.592   0.509   1.257
 7220SOL     OW22558   0.140   1.050   2.757
 7220SOL    HW122559   0.139   1.032   2.855
 7220SOL    HW222560   0.218   1.003   2.715
 7221SOL     OW22561   5.610   4.747   5.552
 7221SOL    HW122562   5.707   4.748   5.528
 7221SOL    HW222563   5.572   4.656   5.533
 7222SOL     OW22564   5.704   6.416   3.167
 7222SOL    HW122565   5.642   6.369   3.230
 7222SOL    HW222566   5.715   6.362   3.084
 7223SOL     OW22567   4.133   0.832   5.255
 7223SOL    HW122568   4.105   0.881   5.173
 7223SOL    HW222569   4.190   0.754   5.230
 7224SOL     OW22570   4.986   0.772   4.386
 7224SOL    HW122571   5.028   0.687   4.354
 7224SOL    HW222572   4.890   0.756   4.406
 7225SOL     OW22573   2.137   0.361   0.425
 7225SOL    HW122574   2.158   0.263   0.423
 7225SOL    HW222575   2.154   0.396   0.517
 7226SOL     OW22576   5.938   6.675   6.600
 7226SOL    HW122577   5.882   6.732   6.660
 7226SOL    HW222578   5.905   6.684   6.506
 7227SOL     OW22579   6.917   2.379   6.324
 7227SOL    HW122580   6.905   2.468   6.368
 7227SOL    HW222581   7.014   2.361   6.312
 7228SOL     OW22582   2.100   0.623   2.627
 7228SOL    HW122583   2.008   0.588   2.610
 7228SOL    HW222584   2.125   0.688   2.556
 7229SOL     OW22585   0.668   0.480   4.083
 7229SOL    HW122586   0.571   0.473   4.108
 7229SOL    HW222587   0.712   0.550   4.141
 7230SOL     OW22588   5.771   5.212   2.033
 7230SOL    HW122589   5.838   5.202   1.959
 7230SOL    HW222590   5.687   5.252   1.996
 7231SOL     OW22591   5.754   1.222   6.635
 7231SOL    HW122592   5.670   1.268   6.607
 7231SOL    HW222593   5.799   1.182   6.556
 7232SOL     OW22594   3.751   4.370   0.853
 7232SOL    HW122595   3.799   4.457   0.853
 7232SOL    HW222596   3.790   4.310   0.783
 7233SOL     OW22597   0.402   2.093   5.913
 7233SOL    HW122598   0.369   2.078   5.820
 7233SOL    HW222599   0.495   2.128   5.911
 7234SOL     OW22600   5.729   1.840   2.587
 7234SOL    HW122601   5.672   1.841   2.505
 7234SOL    HW222602   5.689   1.779   2.655
 7235SOL     OW22603   6.077   2.886   4.532
 7235SOL    HW122604   6.003   2.822   4.551
 7235SOL    HW222605   6.080   2.906   4.434
 7236SOL     OW22606   2.939   1.059   3.199
 7236SOL    HW122607   2.958   1.144   3.150
 7236SOL    HW222608   2.963   1.069   3.295
 7237SOL     OW22609   5.938   5.325   5.594
 7237SOL    HW122610   6.027   5.346   5.633
 7237SOL    HW222611   5.877   5.403   5.606
 7238SOL     OW22612   0.805   1.128   1.671
 7238SOL    HW122613   0.789   1.170   1.582
 7238SOL    HW222614   0.821   1.200   1.739
 7239SOL     OW22615   4.336   1.035   2.342
 7239SOL    HW122616   4.245   1.063   2.372
 7239SOL    HW222617   4.388   1.116   2.314
 7240SOL     OW22618   2.660   3.251   1.085
 7240SOL    HW122619   2.603   3.180   1.127
 7240SOL    HW222620   2.734   3.276   1.148
 7241SOL     OW22621   4.907   6.682   4.578
 7241SOL    HW122622   4.957   6.598   4.556
 7241SOL    HW222623   4.972   6.757   4.592
 7242SOL     OW22624   5.453   5.148   0.348
 7242SOL    HW122625   5.401   5.220   0.394
 7242SOL    HW222626   5.392   5.073   0.322
 7243SOL     OW22627   0.570   5.755   0.488
 7243SOL    HW122628   0.478   5.761   0.451
 7243SOL    HW222629   0.567   5.716   0.580
 7244SOL     OW22630   5.502   1.574   0.835
 7244SOL    HW122631   5.404   1.597   0.839
 7244SOL    HW222632   5.536   1.559   0.927
 7245SOL     OW22633   6.420   1.772   4.638
 7245SOL    HW122634   6.381   1.863   4.633
 7245SOL    HW222635   6.397   1.721   4.555
 7246SOL     OW22636   1.684   5.852   5.399
 7246SOL    HW122637   1.661   5.825   5.493
 7246SOL    HW222638   1.616   5.918   5.367
 7247SOL     OW22639   3.487   5.704   2.946
 7247SOL    HW122640   3.448   5.674   3.033
 7247SOL    HW222641   3.508   5.623   2.890
 7248SOL     OW22642   3.186   1.030   4.965
 7248SOL    HW122643   3.103   1.018   4.911
 7248SOL    HW222644   3.265   1.038   4.904
 7249SOL     OW22645   5.799   4.610   6.159
 7249SOL    HW122646   5.886   4.628   6.206
 7249SOL    HW222647   5.733   4.575   6.225
 7250SOL     OW22648   3.169   3.644   0.381
 7250SOL    HW122649   3.105   3.568   0.393
 7250SOL    HW222650   3.207   3.642   0.289
 7251SOL     OW22651   5.318   0.682   4.646
 7251SOL    HW122652   5.411   0.672   4.611
 7251SOL    HW222653   5.321   0.698   4.745
 7252SOL     OW22654   4.521   3.711   5.357
 7252SOL    HW122655   4.428   3.737   5.330
 7252SOL    HW222656   4.558   3.646   5.291
 7253SOL     OW22657   5.249   4.783   1.247
 7253SOL    HW122658   5.263   4.869   1.199
 7253SOL    HW222659   5.173   4.734   1.206
 7254SOL     OW22660   5.391   6.963   5.700
 7254SOL    HW122661   5.413   6.889   5.637
 7254SOL    HW222662   5.297   6.993   5.686
 7255SOL     OW22663   3.992   3.626   1.903
 7255SOL    HW122664   4.037   3.543   1.933
 7255SOL    HW222665   4.012   3.701   1.966
 7256SOL     OW22666   3.937   5.150   3.955
 7256SOL    HW122667   3.887   5.149   4.041
 7256SOL    HW222668   3.978   5.060   3.940
 7257SOL     OW22669   5.906   3.835   3.272
 7257SOL    HW122670   5.964   3.772   3.324
 7257SOL    HW222671   5.960   3.877   3.199
 7258SOL     OW22672   2.120   0.192   5.765
 7258SOL    HW122673   2.094   0.099   5.741
 7258SOL    HW222674   2.098   0.210   5.861
 7259SOL     OW22675   2.455   5.633   6.363
 7259SOL    HW122676   2.425   5.633   6.459
 7259SOL    HW222677   2.392   5.689   6.309
 7260SOL     OW22678   4.819   1.581   2.563
 7260SOL    HW122679   4.830   1.680   2.571
 7260SOL    HW222680   4.737   1.552   2.612
 7261SOL     OW22681   1.693   4.760   1.167
 7261SOL    HW122682   1.730   4.844   1.207
 7261SOL    HW222683   1.681   4.692   1.239
 7262SOL     OW22684   6.181   1.363   5.912
 7262SOL    HW122685   6.220   1.409   5.992
 7262SOL    HW222686   6.101   1.414   5.880
 7263SOL     OW22687   5.352   6.143   1.894
 7263SOL    HW122688   5.373   6.084   1.973
 7263SOL    HW222689   5.258   6.128   1.865
 7264SOL     OW22690   1.440   6.679   4.732
 7264SOL    HW122691   1.349   6.683   4.774
 7264SOL    HW222692   1.475   6.585   4.739
 7265SOL     OW22693   4.414   3.430   5.992
 7265SOL    HW122694   4.469   3.501   6.036
 7265SOL    HW222695   4.362   3.470   5.916
 7266SOL     OW22696   3.912   1.395   1.441
 7266SOL    HW122697   3.814   1.380   1.460
 7266SOL    HW222698   3.946   1.322   1.383
 7267SOL     OW22699   0.226   2.869   4.266
 7267SOL    HW122700   0.199   2.839   4.357
 7267SOL    HW222701   0.194   2.803   4.198
 7268SOL     OW22702   3.263   0.554   0.442
 7268SOL    HW122703   3.174   0.590   0.416
 7268SOL    HW222704   3.335   0.618   0.413
 7269SOL     OW22705   1.041   6.637   2.276
 7269SOL    HW122706   1.089   6.559   2.317
 7269SOL    HW222707   0.960   6.604   2.227
 7270SOL     OW22708   3.437   1.863   2.185
 7270SOL    HW122709   3.403   1.898   2.272
 7270SOL    HW222710   3.432   1.934   2.115
 7271SOL     OW22711   6.314   5.003   3.709
 7271SOL    HW122712   6.332   4.969   3.617
 7271SOL    HW222713   6.363   4.945   3.775
 7272SOL     OW22714   6.350   2.026   1.252
 7272SOL    HW122715   6.402   2.034   1.337
 7272SOL    HW222716   6.413   2.025   1.174
 7273SOL     OW22717   5.474   6.054   5.510
 7273SOL    HW122718   5.530   5.973   5.493
 7273SOL    HW222719   5.450   6.058   5.607
 7274SOL     OW22720   6.562   5.015   4.004
 7274SOL    HW122721   6.554   5.076   4.083
 7274SOL    HW222722   6.565   4.920   4.036
 7275SOL     OW22723   5.411   6.433   1.142
 7275SOL    HW122724   5.465   6.493   1.203
 7275SOL    HW222725   5.466   6.352   1.119
 7276SOL     OW22726   2.709   2.073   3.863
 7276SOL    HW122727   2.768   2.141   3.818
 7276SOL    HW222728   2.725   1.984   3.821
 7277SOL     OW22729   5.914   1.089   4.101
 7277SOL    HW122730   5.924   1.005   4.155
 7277SOL    HW222731   5.900   1.166   4.162
 7278SOL     OW22732   2.413   1.415   3.526
 7278SOL    HW122733   2.369   1.447   3.611
 7278SOL    HW222734   2.455   1.326   3.542
 7279SOL     OW22735   4.108   4.249   1.070
 7279SOL    HW122736   4.108   4.215   1.164
 7279SOL    HW222737   4.075   4.344   1.069
 7280SOL     OW22738   6.522   1.927   5.366
 7280SOL    HW122739   6.443   1.965   5.317
 7280SOL    HW222740   6.555   1.993   5.433
 7281SOL     OW22741   3.834   5.768   2.297
 7281SOL    HW122742   3.758   5.707   2.275
 7281SOL    HW222743   3.920   5.718   2.289
 7282SOL     OW22744   6.706   3.827   2.094
 7282SOL    HW122745   6.633   3.759   2.092
 7282SOL    HW222746   6.768   3.812   2.017
 7283SOL     OW22747   3.768   5.943   3.100
 7283SOL    HW122748   3.739   6.029   3.141
 7283SOL    HW222749   3.828   5.961   3.022
 7284SOL     OW22750   0.958   1.366   2.747
 7284SOL    HW122751   0.993   1.274   2.761
 7284SOL    HW222752   1.021   1.417   2.688
 7285SOL     OW22753   5.003   2.699   1.969
 7285SOL    HW122754   5.062   2.779   1.957
 7285SOL    HW222755   4.909   2.729   1.987
 7286SOL     OW22756   6.247   1.413   3.438
 7286SOL    HW122757   6.301   1.478   3.490
 7286SOL    HW222758   6.205   1.346   3.500
 7287SOL     OW22759   3.671   0.869   3.963
 7287SOL    HW122760   3.722   0.798   3.914
 7287SOL    HW222761   3.731   0.914   4.028
 7288SOL     OW22762   3.366   1.592   2.141
 7288SOL    HW122763   3.399   1.685   2.158
 7288SOL    HW222764   3.444   1.531   2.124
 7289SOL     OW22765   5.516   2.987   2.054
 7289SOL    HW122766   5.543   3.013   2.146
 7289SOL    HW222767   5.542   3.059   1.990
 7290SOL     OW22768   4.127   1.709   4.975
 7290SOL    HW122769   4.144   1.662   4.888
 7290SOL    HW222770   4.118   1.641   5.048
 7291SOL     OW22771   1.496   1.100   0.755
 7291SOL    HW122772   1.404   1.123   0.786
 7291SOL    HW222773   1.563   1.147   0.812
 7292SOL     OW22774   2.640   0.962   2.859
 7292SOL    HW122775   2.717   1.008   2.813
 7292SOL    HW222776   2.667   0.940   2.953
 7293SOL     OW22777   6.370   1.279   3.825
 7293SOL    HW122778   6.306   1.276   3.748
 7293SOL    HW222779   6.339   1.215   3.895
 7294SOL     OW22780   4.057   6.658   2.251
 7294SOL    HW122781   4.150   6.641   2.283
 7294SOL    HW222782   3.998   6.582   2.279
 7295SOL     OW22783   5.265   3.850   1.425
 7295SOL    HW122784   5.233   3.755   1.425
 7295SOL    HW222785   5.280   3.881   1.518
 7296SOL     OW22786   3.612   6.291   2.061
 7296SOL    HW122787   3.579   6.323   1.972
 7296SOL    HW222788   3.661   6.205   2.049
 7297SOL     OW22789   4.544   6.345   0.540
 7297SOL    HW122790   4.603   6.372   0.617
 7297SOL    HW222791   4.450   6.369   0.561
 7298SOL     OW22792   4.410   5.877   1.386
 7298SOL    HW122793   4.431   5.781   1.366
 7298SOL    HW222794   4.356   5.916   1.310
 7299SOL     OW22795   0.505   3.534   5.186
 7299SOL    HW122796   0.564   3.558   5.262
 7299SOL    HW222797   0.448   3.456   5.211
 7300SOL     OW22798   0.331   4.737   2.424
 7300SOL    HW122799   0.317   4.759   2.327
 7300SOL    HW222800   0.249   4.761   2.476
 7301SOL     OW22801   4.348   2.078   6.242
 7301SOL    HW122802   4.344   2.093   6.143
 7301SOL    HW222803   4.343   2.166   6.289
 7302SOL     OW22804   5.344   2.303   6.985
 7302SOL    HW122805   5.349   2.251   6.900
 7302SOL    HW222806   5.358   2.243   0.037
 7303SOL     OW22807   3.281   2.014   1.685
 7303SOL    HW122808   3.353   2.081   1.703
 7303SOL    HW222809   3.321   1.923   1.678
 7304SOL     OW22810   2.255   5.915   0.705
 7304SOL    HW122811   2.329   5.849   0.695
 7304SOL    HW222812   2.264   5.986   0.635
 7305SOL     OW22813   6.344   0.423   6.690
 7305SOL    HW122814   6.298   0.338   6.664
 7305SOL    HW222815   6.440   0.419   6.663
 7306SOL     OW22816   1.096   3.212   1.251
 7306SOL    HW122817   1.160   3.244   1.181
 7306SOL    HW222818   1.135   3.228   1.341
 7307SOL     OW22819   2.337   0.386   2.225
 7307SOL    HW122820   2.383   0.322   2.286
 7307SOL    HW222821   2.398   0.411   2.150
 7308SOL     OW22822   3.455   0.916   3.458
 7308SOL    HW122823   3.548   0.898   3.492
 7308SOL    HW222824   3.388   0.872   3.519
 7309SOL     OW22825   2.254   5.627   3.789
 7309SOL    HW122826   2.206   5.693   3.846
 7309SOL    HW222827   2.321   5.577   3.845
 7310SOL     OW22828   2.678   2.781   6.540
 7310SOL    HW122829   2.777   2.782   6.521
 7310SOL    HW222830   2.645   2.687   6.543
 7311SOL     OW22831   0.315   6.078   5.891
 7311SOL    HW122832   0.405   6.059   5.854
 7311SOL    HW222833   0.324   6.120   5.982
 7312SOL     OW22834   5.979   2.427   4.425
 7312SOL    HW122835   5.940   2.481   4.499
 7312SOL    HW222836   5.910   2.363   4.390
 7313SOL     OW22837   3.215   0.946   2.610
 7313SOL    HW122838   3.214   1.018   2.680
 7313SOL    HW222839   3.137   0.957   2.549
 7314SOL     OW22840   1.916   4.895   5.922
 7314SOL    HW122841   1.978   4.859   5.991
 7314SOL    HW222842   1.967   4.910   5.837
 7315SOL     OW22843   3.051   5.009   2.151
 7315SOL    HW122844   3.106   5.022   2.068
 7315SOL    HW222845   3.056   5.092   2.207
 7316SOL     OW22846   3.666   1.322   1.451
 7316SOL    HW122847   3.669   1.286   1.544
 7316SOL    HW222848   3.603   1.267   1.396
 7317SOL     OW22849   4.669   2.307   0.771
 7317SOL    HW122850   4.681   2.348   0.680
 7317SOL    HW222851   4.652   2.209   0.761
 7318SOL     OW22852   5.068   0.033   0.286
 7318SOL    HW122853   5.120   0.081   0.357
 7318SOL    HW222854   5.120   6.979   0.255
 7319SOL     OW22855   5.521   6.364   6.744
 7319SOL    HW122856   5.529   6.403   6.652
 7319SOL    HW222857   5.608   6.376   6.793
 7320SOL     OW22858   0.572   2.912   0.382
 7320SOL    HW122859   0.506   2.899   0.307
 7320SOL    HW222860   0.574   3.009   0.407
 7321SOL     OW22861   2.507   2.525   6.426
 7321SOL    HW122862   2.551   2.567   6.347
 7321SOL    HW222863   2.429   2.582   6.454
 7322SOL     OW22864   1.055   2.563   3.742
 7322SOL    HW122865   1.019   2.649   3.706
 7322SOL    HW222866   1.008   2.486   3.699
 7323SOL     OW22867   1.441   2.245   0.854
 7323SOL    HW122868   1.492   2.237   0.769
 7323SOL    HW222869   1.344   2.224   0.837
 7324SOL     OW22870   4.816   3.878   4.136
 7324SOL    HW122871   4.912   3.861   4.115
 7324SOL    HW222872   4.774   3.932   4.063
 7325SOL     OW22873   3.673   1.602   6.149
 7325SOL    HW122874   3.703   1.698   6.147
 7325SOL    HW222875   3.751   1.544   6.171
 7326SOL     OW22876   4.081   6.784   0.630
 7326SOL    HW122877   3.995   6.801   0.583
 7326SOL    HW222878   4.137   6.721   0.575
 7327SOL     OW22879   1.808   4.244   3.458
 7327SOL    HW122880   1.888   4.192   3.488
 7327SOL    HW222881   1.837   4.319   3.399
 7328SOL     OW22882   4.490   5.488   6.250
 7328SOL    HW122883   4.398   5.450   6.261
 7328SOL    HW222884   4.521   5.474   6.156
 7329SOL     OW22885   2.656   3.814   0.735
 7329SOL    HW122886   2.750   3.780   0.722
 7329SOL    HW222887   2.596   3.770   0.669
 7330SOL     OW22888   2.642   2.686   0.770
 7330SOL    HW122889   2.549   2.710   0.742
 7330SOL    HW222890   2.697   2.665   0.689
 7331SOL     OW22891   5.187   1.891   2.586
 7331SOL    HW122892   5.208   1.845   2.500
 7331SOL    HW222893   5.218   1.986   2.581
 7332SOL     OW22894   2.738   6.526   5.672
 7332SOL    HW122895   2.684   6.607   5.649
 7332SOL    HW222896   2.748   6.469   5.591
 7333SOL     OW22897   0.087   0.525   1.319
 7333SOL    HW122898   0.016   0.457   1.302
 7333SOL    HW222899   0.160   0.485   1.375
 7334SOL     OW22900   1.660   4.686   4.585
 7334SOL    HW122901   1.568   4.710   4.614
 7334SOL    HW222902   1.656   4.621   4.510
 7335SOL     OW22903   0.724   3.663   2.276
 7335SOL    HW122904   0.658   3.627   2.210
 7335SOL    HW222905   0.752   3.590   2.339
 7336SOL     OW22906   2.671   6.597   0.973
 7336SOL    HW122907   2.686   6.652   1.055
 7336SOL    HW222908   2.611   6.520   0.994
 7337SOL     OW22909   3.402   1.177   3.762
 7337SOL    HW122910   3.483   1.140   3.716
 7337SOL    HW222911   3.320   1.145   3.714
 7338SOL     OW22912   4.686   3.896   1.120
 7338SOL    HW122913   4.642   3.811   1.150
 7338SOL    HW222914   4.759   3.920   1.183
 7339SOL     OW22915   0.212   5.994   4.813
 7339SOL    HW122916   0.157   6.016   4.894
 7339SOL    HW222917   0.292   6.054   4.810
 7340SOL     OW22918   2.573   6.062   0.286
 7340SOL    HW122919   2.595   6.103   0.375
 7340SOL    HW222920   2.487   6.012   0.293
 7341SOL     OW22921   6.403   5.611   4.289
 7341SOL    HW122922   6.502   5.609   4.274
 7341SOL    HW222923   6.374   5.525   4.332
 7342SOL     OW22924   0.891   5.103   0.834
 7342SOL    HW122925   0.957   5.079   0.905
 7342SOL    HW222926   0.843   5.187   0.861
 7343SOL     OW22927   5.976   2.492   3.037
 7343SOL    HW122928   5.962   2.540   2.950
 7343SOL    HW222929   5.956   2.395   3.025
 7344SOL     OW22930   2.221   1.396   6.881
 7344SOL    HW122931   2.291   1.335   6.917
 7344SOL    HW222932   2.195   1.368   6.789
 7345SOL     OW22933   2.237   6.622   0.345
 7345SOL    HW122934   2.211   6.717   0.331
 7345SOL    HW222935   2.312   6.617   0.411
 7346SOL     OW22936   3.949   4.883   2.258
 7346SOL    HW122937   3.857   4.916   2.237
 7346SOL    HW222938   4.016   4.952   2.230
 7347SOL     OW22939   6.414   2.648   2.496
 7347SOL    HW122940   6.383   2.706   2.572
 7347SOL    HW222941   6.513   2.653   2.489
 7348SOL     OW22942   6.819   1.330   5.054
 7348SOL    HW122943   6.775   1.265   5.116
 7348SOL    HW222944   6.814   1.296   4.960
 7349SOL     OW22945   3.632   1.524   0.864
 7349SOL    HW122946   3.579   1.572   0.934
 7349SOL    HW222947   3.637   1.427   0.888
 7350SOL     OW22948   2.164   1.072   2.771
 7350SOL    HW122949   2.112   1.105   2.692
 7350SOL    HW222950   2.261   1.069   2.749
 7351SOL     OW22951   4.140   5.158   0.724
 7351SOL    HW122952   4.055   5.114   0.695
 7351SOL    HW222953   4.156   5.239   0.668
 7352SOL     OW22954   6.638   0.499   3.232
 7352SOL    HW122955   6.615   0.406   3.202
 7352SOL    HW222956   6.735   0.516   3.218
 7353SOL     OW22957   5.243   1.901   4.723
 7353SOL    HW122958   5.309   1.928   4.793
 7353SOL    HW222959   5.151   1.904   4.762
 7354SOL     OW22960   6.325   4.235   4.480
 7354SOL    HW122961   6.415   4.237   4.436
 7354SOL    HW222962   6.253   4.240   4.410
 7355SOL     OW22963   0.738   5.300   0.928
 7355SOL    HW122964   0.759   5.358   0.849
 7355SOL    HW222965   0.641   5.305   0.948
 7356SOL     OW22966   0.027   2.106   6.191
 7356SOL    HW122967   6.971   2.092   6.245
 7356SOL    HW222968   0.010   2.174   6.120
 7357SOL     OW22969   1.102   1.645   0.112
 7357SOL    HW122970   1.053   1.571   0.067
 7357SOL    HW222971   1.199   1.639   0.088
 7358SOL     OW22972   3.465   0.562   4.142
 7358SOL    HW122973   3.545   0.584   4.198
 7358SOL    HW222974   3.491   0.501   4.068
 7359SOL     OW22975   3.542   2.933   3.135
 7359SOL    HW122976   3.517   2.934   3.038
 7359SOL    HW222977   3.460   2.917   3.190
 7360SOL     OW22978   0.262   3.938   6.005
 7360SOL    HW122979   0.213   4.000   5.943
 7360SOL    HW222980   0.281   3.852   5.958
 7361SOL     OW22981   5.034   6.564   1.574
 7361SOL    HW122982   5.080   6.486   1.532
 7361SOL    HW222983   5.092   6.602   1.646
 7362SOL     OW22984   1.593   6.688   6.218
 7362SOL    HW122985   1.530   6.610   6.213
 7362SOL    HW222986   1.677   6.666   6.168
 7363SOL     OW22987   4.889   2.793   6.658
 7363SOL    HW122988   4.858   2.812   6.752
 7363SOL    HW222989   4.814   2.751   6.606
 7364SOL     OW22990   4.654   0.887   1.070
 7364SOL    HW122991   4.682   0.962   1.130
 7364SOL    HW222992   4.682   0.907   0.976
 7365SOL     OW22993   3.571   1.023   1.759
 7365SOL    HW122994   3.605   0.952   1.697
 7365SOL    HW222995   3.481   0.997   1.794
 7366SOL     OW22996   0.635   6.583   6.989
 7366SOL    HW122997   0.626   6.573   0.062
 7366SOL    HW222998   0.624   6.679   6.964
 7367SOL     OW22999   4.464   2.888   6.869
 7367SOL    HW123000   4.560   2.867   6.851
 7367SOL    HW223001   4.447   2.986   6.854
 7368SOL     OW23002   3.313   2.951   3.692
 7368SOL    HW123003   3.233   2.975   3.637
 7368SOL    HW223004   3.375   2.895   3.638
 7369SOL     OW23005   4.833   1.620   6.179
 7369SOL    HW123006   4.780   1.705   6.172
 7369SOL    HW223007   4.771   1.543   6.191
 7370SOL     OW23008   0.968   5.351   1.115
 7370SOL    HW123009   1.027   5.425   1.084
 7370SOL    HW223010   0.902   5.329   1.043
 7371SOL     OW23011   2.148   5.193   4.374
 7371SOL    HW123012   2.204   5.112   4.355
 7371SOL    HW223013   2.080   5.171   4.444
 7372SOL     OW23014   2.921   6.641   5.303
 7372SOL    HW123015   2.835   6.680   5.337
 7372SOL    HW223016   2.994   6.657   5.369
 7373SOL     OW23017   3.726   0.491   0.954
 7373SOL    HW123018   3.675   0.460   1.033
 7373SOL    HW223019   3.663   0.508   0.878
 7374SOL     OW23020   2.364   3.181   6.488
 7374SOL    HW123021   2.268   3.194   6.466
 7374SOL    HW223022   2.389   3.085   6.477
 7375SOL     OW23023   2.415   6.449   3.070
 7375SOL    HW123024   2.505   6.493   3.079
 7375SOL    HW223025   2.425   6.350   3.085
 7376SOL     OW23026   3.858   4.448   6.462
 7376SOL    HW123027   3.794   4.523   6.444
 7376SOL    HW223028   3.929   4.447   6.392
 7377SOL     OW23029   5.818   5.421   1.737
 7377SOL    HW123030   5.730   5.468   1.738
 7377SOL    HW223031   5.824   5.364   1.655
 7378SOL     OW23032   0.189   2.681   6.162
 7378SOL    HW123033   0.122   2.640   6.101
 7378SOL    HW223034   0.233   2.610   6.216
 7379SOL     OW23035   4.039   1.187   1.296
 7379SOL    HW123036   4.131   1.227   1.305
 7379SOL    HW223037   4.047   1.091   1.269
 7380SOL     OW23038   6.492   2.290   5.456
 7380SOL    HW123039   6.584   2.273   5.421
 7380SOL    HW223040   6.425   2.271   5.384
 7381SOL     OW23041   4.493   2.501   0.020
 7381SOL    HW123042   4.563   2.477   0.087
 7381SOL    HW223043   4.535   2.518   6.958
 7382SOL     OW23044   1.014   5.415   3.798
 7382SOL    HW123045   1.048   5.416   3.703
 7382SOL    HW223046   1.059   5.340   3.848
 7383SOL     OW23047   0.455   5.053   3.271
 7383SOL    HW123048   0.526   4.991   3.307
 7383SOL    HW223049   0.490   5.099   3.189
 7384SOL     OW23050   6.383   1.799   1.610
 7384SOL    HW123051   6.441   1.874   1.579
 7384SOL    HW223052   6.367   1.736   1.533
 7385SOL     OW23053   4.872   0.723   1.654
 7385SOL    HW123054   4.888   0.796   1.721
 7385SOL    HW223055   4.898   0.755   1.563
 7386SOL     OW23056   0.073   2.706   5.768
 7386SOL    HW123057   0.048   2.654   5.850
 7386SOL    HW223058   0.145   2.771   5.790
 7387SOL     OW23059   5.585   6.402   4.138
 7387SOL    HW123060   5.531   6.482   4.111
 7387SOL    HW223061   5.552   6.322   4.088
 7388SOL     OW23062   5.305   4.139   4.974
 7388SOL    HW123063   5.330   4.081   4.896
 7388SOL    HW223064   5.387   4.182   5.011
 7389SOL     OW23065   0.470   4.212   4.607
 7389SOL    HW123066   0.524   4.129   4.625
 7389SOL    HW223067   0.532   4.287   4.582
 7390SOL     OW23068   3.211   0.247   6.168
 7390SOL    HW123069   3.126   0.231   6.217
 7390SOL    HW223070   3.210   0.340   6.130
 7391SOL     OW23071   6.790   4.490   0.253
 7391SOL    HW123072   6.870   4.453   0.301
 7391SOL    HW223073   6.773   4.584   0.285
 7392SOL     OW23074   2.036   4.320   2.769
 7392SOL    HW123075   2.112   4.362   2.819
 7392SOL    HW223076   1.976   4.273   2.833
 7393SOL     OW23077   0.446   3.840   0.139
 7393SOL    HW123078   0.515   3.907   0.110
 7393SOL    HW223079   0.366   3.887   0.173
 7394SOL     OW23080   2.763   2.380   6.178
 7394SOL    HW123081   2.731   2.332   6.260
 7394SOL    HW223082   2.855   2.415   6.194
 7395SOL     OW23083   1.935   6.756   0.112
 7395SOL    HW123084   1.956   6.670   0.160
 7395SOL    HW223085   1.905   6.735   0.019
 7396SOL     OW23086   7.012   0.049   1.719
 7396SOL    HW123087   0.027   0.099   1.794
 7396SOL    HW223088   0.010   0.093   1.632
 7397SOL     OW23089   6.082   4.417   4.781
 7397SOL    HW123090   6.039   4.386   4.697
 7397SOL    HW223091   6.178   4.388   4.783
 7398SOL     OW23092   4.587   6.781   3.158
 7398SOL    HW123093   4.564   6.856   3.096
 7398SOL    HW223094   4.611   6.700   3.104
 7399SOL     OW23095   5.302   4.496   4.654
 7399SOL    HW123096   5.239   4.564   4.619
 7399SOL    HW223097   5.380   4.541   4.698
 7400SOL     OW23098   2.833   4.189   0.040
 7400SOL    HW123099   2.857   4.245   6.988
 7400SOL    HW223100   2.763   4.236   0.095
 7401SOL     OW23101   5.819   1.996   5.277
 7401SOL    HW123102   5.845   2.008   5.373
 7401SOL    HW223103   5.772   1.908   5.266
 7402SOL     OW23104   2.785   6.296   4.640
 7402SOL    HW123105   2.702   6.242   4.651
 7402SOL    HW223106   2.850   6.248   4.581
 7403SOL     OW23107   2.453   3.093   1.260
 7403SOL    HW123108   2.388   3.152   1.307
 7403SOL    HW223109   2.435   2.998   1.285
 7404SOL     OW23110   1.122   2.079   2.708
 7404SOL    HW123111   1.073   2.163   2.730
 7404SOL    HW223112   1.189   2.060   2.780
 7405SOL     OW23113   4.075   5.291   6.757
 7405SOL    HW123114   4.041   5.259   6.668
 7405SOL    HW223115   4.037   5.381   6.777
 7406SOL     OW23116   0.590   6.398   2.110
 7406SOL    HW123117   0.689   6.389   2.115
 7406SOL    HW223118   0.554   6.434   2.196
 7407SOL     OW23119   2.537   0.862   5.790
 7407SOL    HW123120   2.570   0.794   5.854
 7407SOL    HW223121   2.492   0.817   5.713
 7408SOL     OW23122   0.531   3.971   5.062
 7408SOL    HW123123   0.458   4.022   5.016
 7408SOL    HW223124   0.509   3.873   5.061
 7409SOL     OW23125   2.365   6.918   5.295
 7409SOL    HW123126   2.433   6.962   5.353
 7409SOL    HW223127   2.399   6.829   5.265
 7410SOL     OW23128   5.068   5.173   6.593
 7410SOL    HW123129   5.084   5.076   6.611
 7410SOL    HW223130   5.044   5.186   6.497
 7411SOL     OW23131   5.241   5.089   5.744
 7411SOL    HW123132   5.299   5.007   5.740
 7411SOL    HW223133   5.232   5.119   5.839
 7412SOL     OW23134   1.560   1.261   6.748
 7412SOL    HW123135   1.522   1.275   6.656
 7412SOL    HW223136   1.493   1.291   6.816
 7413SOL     OW23137   0.016   3.634   4.186
 7413SOL    HW123138   0.045   3.707   4.124
 7413SOL    HW223139   0.046   3.656   4.279
 7414SOL     OW23140   0.165   5.290   2.768
 7414SOL    HW123141   0.176   5.203   2.719
 7414SOL    HW223142   0.223   5.288   2.850
 7415SOL     OW23143   2.805   1.631   3.599
 7415SOL    HW123144   2.813   1.581   3.685
 7415SOL    HW223145   2.756   1.717   3.614
 7416SOL     OW23146   5.873   0.136   3.257
 7416SOL    HW123147   5.798   0.089   3.303
 7416SOL    HW223148   5.923   0.192   3.323
 7417SOL     OW23149   0.978   5.714   0.826
 7417SOL    HW123150   0.907   5.768   0.871
 7417SOL    HW223151   1.000   5.756   0.738
 7418SOL     OW23152   0.674   3.807   0.583
 7418SOL    HW123153   0.604   3.738   0.602
 7418SOL    HW223154   0.725   3.780   0.501
 7419SOL     OW23155   5.752   1.508   5.724
 7419SOL    HW123156   5.768   1.487   5.628
 7419SOL    HW223157   5.654   1.504   5.743
 7420SOL     OW23158   6.841   5.800   2.552
 7420SOL    HW123159   6.792   5.878   2.592
 7420SOL    HW223160   6.783   5.719   2.554
 7421SOL     OW23161   4.081   2.443   1.270
 7421SOL    HW123162   4.134   2.360   1.287
 7421SOL    HW223163   3.991   2.434   1.312
 7422SOL     OW23164   0.898   1.973   0.717
 7422SOL    HW123165   0.880   2.053   0.775
 7422SOL    HW223166   0.997   1.955   0.714
 7423SOL     OW23167   2.643   4.683   6.767
 7423SOL    HW123168   2.572   4.733   6.717
 7423SOL    HW223169   2.602   4.637   6.846
 7424SOL     OW23170   5.359   0.439   4.424
 7424SOL    HW123171   5.409   0.525   4.422
 7424SOL    HW223172   5.414   0.367   4.384
 7425SOL     OW23173   4.286   0.465   4.971
 7425SOL    HW123174   4.252   0.462   5.065
 7425SOL    HW223175   4.354   0.393   4.958
 7426SOL     OW23176   0.349   1.694   0.219
 7426SOL    HW123177   0.413   1.724   0.290
 7426SOL    HW223178   0.400   1.672   0.136
 7427SOL     OW23179   4.845   5.748   4.673
 7427SOL    HW123180   4.859   5.833   4.624
 7427SOL    HW223181   4.928   5.692   4.668
 7428SOL     OW23182   2.929   1.312   5.752
 7428SOL    HW123183   2.880   1.258   5.683
 7428SOL    HW223184   2.938   1.258   5.836
 7429SOL     OW23185   6.693   6.844   3.724
 7429SOL    HW123186   6.773   6.826   3.667
 7429SOL    HW223187   6.684   6.942   3.740
 7430SOL     OW23188   0.190   4.583   4.807
 7430SOL    HW123189   0.179   4.566   4.709
 7430SOL    HW223190   0.261   4.652   4.822
 7431SOL     OW23191   0.582   4.138   2.354
 7431SOL    HW123192   0.583   4.202   2.277
 7431SOL    HW223193   0.572   4.189   2.439
 7432SOL     OW23194   1.587   6.416   4.787
 7432SOL    HW123195   1.570   6.363   4.870
 7432SOL    HW223196   1.597   6.353   4.709
 7433SOL     OW23197   0.209   6.333   1.106
 7433SOL    HW123198   0.251   6.409   1.156
 7433SOL    HW223199   0.199   6.358   1.010
 7434SOL     OW23200   4.063   6.968   6.933
 7434SOL    HW123201   3.971   6.929   6.928
 7434SOL    HW223202   4.082   7.019   6.848
 7435SOL     OW23203   1.259   5.726   6.711
 7435SOL    HW123204   1.206   5.809   6.726
 7435SOL    HW223205   1.315   5.707   6.792
 7436SOL     OW23206   4.438   3.393   6.944
 7436SOL    HW123207   4.451   3.408   0.015
 7436SOL    HW223208   4.517   3.428   6.893
 7437SOL     OW23209   6.907   5.751   5.683
 7437SOL    HW123210   6.995   5.746   5.636
 7437SOL    HW223211   6.857   5.832   5.653
 7438SOL     OW23212   5.553   4.045   1.593
 7438SOL    HW123213   5.595   4.090   1.672
 7438SOL    HW223214   5.554   4.107   1.515
 7439SOL     OW23215   1.343   5.979   3.567
 7439SOL    HW123216   1.407   6.055   3.577
 7439SOL    HW223217   1.360   5.933   3.480
 7440SOL     OW23218   0.519   1.674   3.492
 7440SOL    HW123219   0.611   1.708   3.508
 7440SOL    HW223220   0.518   1.574   3.500
 7441SOL     OW23221   6.226   0.056   3.337
 7441SOL    HW123222   6.132   0.091   3.335
 7441SOL    HW223223   6.269   0.083   3.423
 7442SOL     OW23224   1.526   0.636   6.217
 7442SOL    HW123225   1.548   0.578   6.294
 7442SOL    HW223226   1.589   0.714   6.214
 7443SOL     OW23227   6.811   1.819   1.276
 7443SOL    HW123228   6.834   1.846   1.370
 7443SOL    HW223229   6.792   1.721   1.273
 7444SOL     OW23230   0.708   2.101   5.412
 7444SOL    HW123231   0.800   2.066   5.396
 7444SOL    HW223232   0.708   2.157   5.495
 7445SOL     OW23233   5.845   2.693   1.765
 7445SOL    HW123234   5.920   2.705   1.829
 7445SOL    HW223235   5.758   2.696   1.815
 7446SOL     OW23236   6.040   3.149   2.300
 7446SOL    HW123237   6.105   3.123   2.371
 7446SOL    HW223238   5.979   3.072   2.281
 7447SOL     OW23239   0.301   4.093   6.238
 7447SOL    HW123240   0.269   4.187   6.231
 7447SOL    HW223241   0.269   4.041   6.159
 7448SOL     OW23242   7.009   6.461   5.845
 7448SOL    HW123243   0.067   6.432   5.799
 7448SOL    HW223244   6.954   6.380   5.867
 7449SOL     OW23245   4.534   0.743   1.396
 7449SOL    HW123246   4.558   0.815   1.461
 7449SOL    HW223247   4.549   0.654   1.439
 7450SOL     OW23248   3.568   0.332   1.868
 7450SOL    HW123249   3.599   0.261   1.805
 7450SOL    HW223250   3.637   0.404   1.874
 7451SOL     OW23251   1.527   0.830   2.396
 7451SOL    HW123252   1.489   0.750   2.444
 7451SOL    HW223253   1.453   0.881   2.353
 7452SOL     OW23254   1.751   6.444   3.548
 7452SOL    HW123255   1.825   6.506   3.525
 7452SOL    HW223256   1.789   6.359   3.585
 7453SOL     OW23257   5.775   5.100   5.644
 7453SOL    HW123258   5.683   5.124   5.673
 7453SOL    HW223259   5.826   5.183   5.619
 7454SOL     OW23260   0.676   3.067   6.695
 7454SOL    HW123261   0.582   3.095   6.714
 7454SOL    HW223262   0.703   2.995   6.759
 7455SOL     OW23263   5.296   1.025   0.278
 7455SOL    HW123264   5.301   0.960   0.353
 7455SOL    HW223265   5.200   1.041   0.255
 7456SOL     OW23266   0.980   3.186   5.491
 7456SOL    HW123267   0.982   3.113   5.424
 7456SOL    HW223268   0.923   3.261   5.458
 7457SOL     OW23269   6.380   6.408   6.081
 7457SOL    HW123270   6.340   6.338   6.140
 7457SOL    HW223271   6.471   6.432   6.114
 7458SOL     OW23272   2.509   0.261   1.475
 7458SOL    HW123273   2.607   0.269   1.494
 7458SOL    HW223274   2.467   0.201   1.543
 7459SOL     OW23275   4.737   0.004   4.468
 7459SOL    HW123276   4.728   6.958   4.400
 7459SOL    HW223277   4.688   0.085   4.438
 7460SOL     OW23278   0.940   5.557   6.463
 7460SOL    HW123279   1.003   5.528   6.535
 7460SOL    HW223280   0.901   5.476   6.419
 7461SOL     OW23281   4.666   0.942   3.990
 7461SOL    HW123282   4.606   0.975   4.063
 7461SOL    HW223283   4.649   0.995   3.907
 7462SOL     OW23284   1.711   1.063   2.379
 7462SOL    HW123285   1.655   0.988   2.416
 7462SOL    HW223286   1.766   1.103   2.452
 7463SOL     OW23287   3.432   3.990   2.069
 7463SOL    HW123288   3.520   4.025   2.038
 7463SOL    HW223289   3.440   3.960   2.164
 7464SOL     OW23290   4.929   7.010   0.023
 7464SOL    HW123291   4.968   0.016   0.109
 7464SOL    HW223292   4.875   6.927   0.039
 7465SOL     OW23293   3.178   1.295   2.230
 7465SOL    HW123294   3.161   1.393   2.232
 7465SOL    HW223295   3.252   1.274   2.166
 7466SOL     OW23296   6.593   0.414   6.615
 7466SOL    HW123297   6.672   0.447   6.564
 7466SOL    HW223298   6.623   0.374   6.701
 7467SOL     OW23299   5.210   1.448   1.168
 7467SOL    HW123300   5.175   1.541   1.174
 7467SOL    HW223301   5.268   1.429   1.248
 7468SOL     OW23302   5.844   3.401   4.467
 7468SOL    HW123303   5.904   3.424   4.390
 7468SOL    HW223304   5.761   3.456   4.462
 7469SOL     OW23305   5.994   1.123   2.143
 7469SOL    HW123306   6.026   1.169   2.061
 7469SOL    HW223307   5.917   1.175   2.183
 7470SOL     OW23308   0.458   3.453   2.811
 7470SOL    HW123309   0.488   3.410   2.726
 7470SOL    HW223310   0.485   3.549   2.811
 7471SOL     OW23311   6.054   4.384   5.562
 7471SOL    HW123312   6.024   4.331   5.641
 7471SOL    HW223313   6.088   4.323   5.491
 7472SOL     OW23314   3.603   4.910   3.355
 7472SOL    HW123315   3.632   4.868   3.269
 7472SOL    HW223316   3.504   4.918   3.356
 7473SOL     OW23317   0.820   3.268   5.090
 7473SOL    HW123318   0.800   3.268   4.993
 7473SOL    HW223319   0.844   3.360   5.120
 7474SOL     OW23320   3.345   1.969   3.399
 7474SOL    HW123321   3.295   1.887   3.426
 7474SOL    HW223322   3.398   2.003   3.478
 7475SOL     OW23323   4.307   1.429   6.796
 7475SOL    HW123324   4.276   1.405   6.704
 7475SOL    HW223325   4.270   1.363   6.862
 7476SOL     OW23326   3.454   0.079   5.380
 7476SOL    HW123327   3.374   0.119   5.335
 7476SOL    HW223328   3.531   0.144   5.375
 7477SOL     OW23329   4.883   3.749   3.781
 7477SOL    HW123330   4.891   3.839   3.825
 7477SOL    HW223331   4.809   3.752   3.714
 7478SOL     OW23332   1.554   4.624   1.378
 7478SOL    HW123333   1.462   4.657   1.356
 7478SOL    HW223334   1.563   4.528   1.351
 7479SOL     OW23335   4.329   0.593   5.900
 7479SOL    HW123336   4.402   0.526   5.913
 7479SOL    HW223337   4.347   0.673   5.958
 7480SOL     OW23338   5.993   5.159   0.666
 7480SOL    HW123339   5.900   5.195   0.662
 7480SOL    HW223340   6.041   5.196   0.745
 7481SOL     OW23341   6.343   5.903   0.839
 7481SOL    HW123342   6.265   5.867   0.789
 7481SOL    HW223343   6.400   5.959   0.778
 7482SOL     OW23344   5.142   0.318   3.711
 7482SOL    HW123345   5.239   0.294   3.715
 7482SOL    HW223346   5.118   0.343   3.617
 7483SOL     OW23347   3.329   0.024   6.219
 7483SOL    HW123348   3.327   0.006   6.317
 7483SOL    HW223349   3.272   0.104   6.199
 7484SOL     OW23350   3.287   0.511   2.395
 7484SOL    HW123351   3.328   0.600   2.375
 7484SOL    HW223352   3.236   0.516   2.481
 7485SOL     OW23353   0.985   6.777   5.256
 7485SOL    HW123354   0.915   6.765   5.185
 7485SOL    HW223355   0.959   6.725   5.338
 7486SOL     OW23356   1.528   0.954   4.844
 7486SOL    HW123357   1.478   0.919   4.764
 7486SOL    HW223358   1.625   0.934   4.834
 7487SOL     OW23359   4.206   5.469   3.102
 7487SOL    HW123360   4.150   5.418   3.036
 7487SOL    HW223361   4.214   5.564   3.072
 7488SOL     OW23362   3.504   0.609   5.375
 7488SOL    HW123363   3.524   0.704   5.353
 7488SOL    HW223364   3.450   0.568   5.301
 7489SOL     OW23365   6.297   3.674   3.127
 7489SOL    HW123366   6.242   3.626   3.195
 7489SOL    HW223367   6.382   3.705   3.168
 7490SOL     OW23368   5.601   1.665   2.809
 7490SOL    HW123369   5.666   1.589   2.816
 7490SOL    HW223370   5.516   1.640   2.855
 7491SOL     OW23371   0.165   6.456   6.890
 7491SOL    HW123372   0.099   6.531   6.887
 7491SOL    HW223373   0.249   6.484   6.844
 7492SOL     OW23374   2.167   2.466   3.838
 7492SOL    HW123375   2.177   2.530   3.762
 7492SOL    HW223376   2.256   2.454   3.883
 7493SOL     OW23377   5.359   4.788   6.912
 7493SOL    HW123378   5.294   4.722   6.873
 7493SOL    HW223379   5.437   4.740   6.951
 7494SOL     OW23380   4.904   1.646   1.539
 7494SOL    HW123381   4.992   1.674   1.500
 7494SOL    HW223382   4.848   1.727   1.557
 7495SOL     OW23383   0.984   1.707   2.479
 7495SOL    HW123384   1.012   1.776   2.412
 7495SOL    HW223385   0.900   1.663   2.447
 7496SOL     OW23386   0.835   4.412   5.755
 7496SOL    HW123387   0.752   4.437   5.706
 7496SOL    HW223388   0.910   4.401   5.690
 7497SOL     OW23389   2.300   4.768   2.409
 7497SOL    HW123390   2.396   4.781   2.386
 7497SOL    HW223391   2.244   4.837   2.364
 7498SOL     OW23392   5.051   1.382   4.224
 7498SOL    HW123393   5.008   1.468   4.198
 7498SOL    HW223394   4.986   1.325   4.274
 7499SOL     OW23395   4.274   5.370   3.702
 7499SOL    HW123396   4.255   5.301   3.633
 7499SOL    HW223397   4.248   5.460   3.667
 7500SOL     OW23398   4.770   4.100   1.778
 7500SOL    HW123399   4.792   4.036   1.851
 7500SOL    HW223400   4.675   4.087   1.750
 7501SOL     OW23401   0.352   4.636   3.908
 7501SOL    HW123402   0.377   4.689   3.990
 7501SOL    HW223403   0.402   4.672   3.829
 7502SOL     OW23404   1.834   2.393   4.777
 7502SOL    HW123405   1.833   2.459   4.852
 7502SOL    HW223406   1.908   2.328   4.791
 7503SOL     OW23407   1.876   2.475   7.009
 7503SOL    HW123408   1.889   2.415   6.929
 7503SOL    HW223409   1.779   2.484   0.002
 7504SOL     OW23410   3.988   5.719   3.399
 7504SOL    HW123411   3.994   5.619   3.400
 7504SOL    HW223412   3.901   5.748   3.439
 7505SOL     OW23413   1.714   2.102   3.989
 7505SOL    HW123414   1.637   2.126   4.049
 7505SOL    HW223415   1.781   2.050   4.041
 7506SOL     OW23416   3.554   1.637   3.632
 7506SOL    HW123417   3.629   1.702   3.640
 7506SOL    HW223418   3.591   1.544   3.632
 7507SOL     OW23419   1.828   6.540   5.699
 7507SOL    HW123420   1.758   6.475   5.728
 7507SOL    HW223421   1.904   6.490   5.657
 7508SOL     OW23422   4.854   5.596   4.404
 7508SOL    HW123423   4.776   5.540   4.431
 7508SOL    HW223424   4.929   5.583   4.469
 7509SOL     OW23425   4.173   3.616   6.010
 7509SOL    HW123426   4.238   3.690   6.000
 7509SOL    HW223427   4.114   3.611   5.929
 7510SOL     OW23428   3.034   3.705   4.709
 7510SOL    HW123429   3.019   3.670   4.801
 7510SOL    HW223430   3.004   3.637   4.642
 7511SOL     OW23431   1.434   0.441   2.316
 7511SOL    HW123432   1.406   0.427   2.221
 7511SOL    HW223433   1.379   0.381   2.376
 7512SOL     OW23434   2.523   2.853   1.740
 7512SOL    HW123435   2.606   2.810   1.705
 7512SOL    HW223436   2.513   2.944   1.698
 7513SOL     OW23437   0.989   3.546   6.740
 7513SOL    HW123438   1.057   3.496   6.686
 7513SOL    HW223439   0.953   3.487   6.811
 7514SOL     OW23440   2.952   5.776   3.113
 7514SOL    HW123441   2.951   5.803   3.017
 7514SOL    HW223442   2.859   5.754   3.143
 7515SOL     OW23443   0.203   5.031   2.694
 7515SOL    HW123444   0.232   4.991   2.782
 7515SOL    HW223445   0.284   5.047   2.638
 7516SOL     OW23446   1.522   1.531   2.535
 7516SOL    HW123447   1.570   1.612   2.502
 7516SOL    HW223448   1.506   1.539   2.633
 7517SOL     OW23449   0.398   5.080   1.494
 7517SOL    HW123450   0.472   5.079   1.427
 7517SOL    HW223451   0.313   5.050   1.452
 7518SOL     OW23452   5.365   4.922   3.295
 7518SOL    HW123453   5.448   4.976   3.281
 7518SOL    HW223454   5.387   4.825   3.284
 7519SOL     OW23455   1.298   6.694   4.395
 7519SOL    HW123456   1.316   6.639   4.314
 7519SOL    HW223457   1.269   6.635   4.470
 7520SOL     OW23458   2.596   6.898   4.216
 7520SOL    HW123459   2.598   6.810   4.263
 7520SOL    HW223460   2.544   6.964   4.271
 7521SOL     OW23461   4.944   3.912   5.868
 7521SOL    HW123462   4.942   3.977   5.945
 7521SOL    HW223463   4.905   3.956   5.787
 7522SOL     OW23464   1.818   0.510   2.568
 7522SOL    HW123465   1.723   0.478   2.568
 7522SOL    HW223466   1.870   0.462   2.498
 7523SOL     OW23467   6.035   0.521   6.854
 7523SOL    HW123468   6.063   0.557   6.765
 7523SOL    HW223469   5.990   0.433   6.842
 7524SOL     OW23470   6.193   0.828   4.215
 7524SOL    HW123471   6.205   0.771   4.297
 7524SOL    HW223472   6.207   0.771   4.134
 7525SOL     OW23473   1.149   6.143   0.388
 7525SOL    HW123474   1.232   6.190   0.416
 7525SOL    HW223475   1.173   6.065   0.330
 7526SOL     OW23476   3.807   2.911   4.917
 7526SOL    HW123477   3.905   2.895   4.928
 7526SOL    HW223478   3.790   2.955   4.828
 7527SOL     OW23479   5.102   5.269   2.040
 7527SOL    HW123480   5.015   5.235   2.076
 7527SOL    HW223481   5.174   5.255   2.109
 7528SOL     OW23482   5.792   2.927   6.244
 7528SOL    HW123483   5.747   3.010   6.277
 7528SOL    HW223484   5.749   2.897   6.159
 7529SOL     OW23485   2.992   0.293   5.071
 7529SOL    HW123486   3.023   0.322   4.981
 7529SOL    HW223487   3.038   0.349   5.141
 7530SOL     OW23488   6.523   2.927   3.185
 7530SOL    HW123489   6.445   2.905   3.243
 7530SOL    HW223490   6.556   2.845   3.140
 7531SOL     OW23491   2.637   2.006   4.107
 7531SOL    HW123492   2.578   1.926   4.114
 7531SOL    HW223493   2.637   2.040   4.013
 7532SOL     OW23494   4.944   4.517   2.241
 7532SOL    HW123495   4.934   4.419   2.220
 7532SOL    HW223496   4.914   4.534   2.334
 7533SOL     OW23497   3.334   0.214   4.774
 7533SOL    HW123498   3.377   0.203   4.685
 7533SOL    HW223499   3.240   0.180   4.770
 7534SOL     OW23500   5.346   6.882   4.062
 7534SOL    HW123501   5.310   6.913   3.975
 7534SOL    HW223502   5.275   6.889   4.132
 7535SOL     OW23503   3.771   4.648   0.269
 7535SOL    HW123504   3.674   4.628   0.278
 7535SOL    HW223505   3.822   4.563   0.260
 7536SOL     OW23506   3.634   6.206   4.407
 7536SOL    HW123507   3.614   6.302   4.427
 7536SOL    HW223508   3.703   6.172   4.471
 7537SOL     OW23509   2.126   4.431   5.414
 7537SOL    HW123510   2.218   4.470   5.419
 7537SOL    HW223511   2.079   4.466   5.332
 7538SOL     OW23512   3.325   2.922   3.305
 7538SOL    HW123513   3.386   2.980   3.359
 7538SOL    HW223514   3.246   2.895   3.360
 7539SOL     OW23515   1.816   2.555   4.399
 7539SOL    HW123516   1.749   2.492   4.359
 7539SOL    HW223517   1.793   2.571   4.495
 7540SOL     OW23518   1.955   1.157   0.304
 7540SOL    HW123519   2.014   1.087   0.263
 7540SOL    HW223520   1.937   1.229   0.236
 7541SOL     OW23521   6.775   2.073   5.155
 7541SOL    HW123522   6.779   2.114   5.065
 7541SOL    HW223523   6.751   1.976   5.146
 7542SOL     OW23524   1.887   0.865   6.429
 7542SOL    HW123525   1.907   0.791   6.494
 7542SOL    HW223526   1.846   0.942   6.478
 7543SOL     OW23527   3.762   3.255   6.973
 7543SOL    HW123528   3.704   3.286   6.897
 7543SOL    HW223529   3.846   3.215   6.936
 7544SOL     OW23530   1.473   2.110   2.813
 7544SOL    HW123531   1.389   2.073   2.853
 7544SOL    HW223532   1.467   2.210   2.811
 7545SOL     OW23533   5.651   6.996   3.341
 7545SOL    HW123534   5.580   7.021   3.407
 7545SOL    HW223535   5.618   7.011   3.248
 7546SOL     OW23536   4.829   6.698   6.460
 7546SOL    HW123537   4.893   6.766   6.425
 7546SOL    HW223538   4.784   6.652   6.383
 7547SOL     OW23539   3.056   6.843   0.560
 7547SOL    HW123540   3.005   6.862   0.477
 7547SOL    HW223541   3.092   6.928   0.598
 7548SOL     OW23542   1.210   2.945   1.047
 7548SOL    HW123543   1.225   2.950   0.948
 7548SOL    HW223544   1.274   3.006   1.094
 7549SOL     OW23545   6.257   2.155   2.004
 7549SOL    HW123546   6.158   2.137   2.009
 7549SOL    HW223547   6.286   2.151   1.908
 7550SOL     OW23548   1.119   5.048   1.565
 7550SOL    HW123549   1.032   5.080   1.527
 7550SOL    HW223550   1.105   5.022   1.661
 7551SOL     OW23551   4.452   4.260   6.518
 7551SOL    HW123552   4.515   4.319   6.468
 7551SOL    HW223553   4.383   4.223   6.455
 7552SOL     OW23554   3.176   5.478   4.044
 7552SOL    HW123555   3.271   5.445   4.045
 7552SOL    HW223556   3.149   5.504   4.136
 7553SOL     OW23557   4.767   4.179   6.112
 7553SOL    HW123558   4.695   4.119   6.076
 7553SOL    HW223559   4.795   4.148   6.202
 7554SOL     OW23560   6.497   0.907   0.923
 7554SOL    HW123561   6.438   0.828   0.942
 7554SOL    HW223562   6.557   0.886   0.846
 7555SOL     OW23563   1.591   5.842   5.982
 7555SOL    HW123564   1.563   5.854   6.078
 7555SOL    HW223565   1.652   5.917   5.956
 7556SOL     OW23566   0.039   3.511   3.555
 7556SOL    HW123567   6.994   3.580   3.543
 7556SOL    HW223568   0.022   3.461   3.640
 7557SOL     OW23569   4.024   3.387   0.256
 7557SOL    HW123570   4.023   3.287   0.259
 7557SOL    HW223571   3.985   3.418   0.169
 7558SOL     OW23572   1.186   2.774   3.512
 7558SOL    HW123573   1.104   2.772   3.569
 7558SOL    HW223574   1.249   2.842   3.548
 7559SOL     OW23575   1.346   4.698   0.505
 7559SOL    HW123576   1.315   4.625   0.566
 7559SOL    HW223577   1.266   4.740   0.461
 7560SOL     OW23578   4.707   0.022   5.466
 7560SOL    HW123579   4.760   0.004   5.382
 7560SOL    HW223580   4.648   0.101   5.452
 7561SOL     OW23581   0.451   3.591   0.249
 7561SOL    HW123582   0.443   3.674   0.193
 7561SOL    HW223583   0.530   3.538   0.219
 7562SOL     OW23584   5.051   6.496   5.129
 7562SOL    HW123585   5.010   6.530   5.044
 7562SOL    HW223586   5.001   6.415   5.160
 7563SOL     OW23587   2.444   1.094   2.713
 7563SOL    HW123588   2.490   1.034   2.778
 7563SOL    HW223589   2.467   1.066   2.620
 7564SOL     OW23590   5.100   6.681   4.074
 7564SOL    HW123591   5.169   6.703   4.005
 7564SOL    HW223592   5.101   6.752   4.145
 7565SOL     OW23593   4.714   4.440   0.070
 7565SOL    HW123594   4.752   4.383   0.143
 7565SOL    HW223595   4.665   4.517   0.110
 7566SOL     OW23596   2.383   5.481   5.408
 7566SOL    HW123597   2.457   5.500   5.473
 7566SOL    HW223598   2.320   5.559   5.405
 7567SOL     OW23599   2.456   3.036   7.024
 7567SOL    HW123600   2.484   2.985   6.942
 7567SOL    HW223601   2.538   3.070   0.044
 7568SOL     OW23602   4.521   4.710   3.150
 7568SOL    HW123603   4.559   4.792   3.108
 7568SOL    HW223604   4.432   4.732   3.190
 7569SOL     OW23605   3.982   0.295   1.100
 7569SOL    HW123606   3.998   0.324   1.006
 7569SOL    HW223607   4.069   0.268   1.142
 7570SOL     OW23608   5.858   5.153   4.669
 7570SOL    HW123609   5.918   5.204   4.607
 7570SOL    HW223610   5.837   5.064   4.629
 7571SOL     OW23611   5.524   4.235   1.912
 7571SOL    HW123612   5.513   4.179   1.995
 7571SOL    HW223613   5.434   4.249   1.869
 7572SOL     OW23614   1.066   1.320   3.957
 7572SOL    HW123615   1.051   1.400   4.015
 7572SOL    HW223616   1.011   1.244   3.990
 7573SOL     OW23617   3.108   5.402   5.410
 7573SOL    HW123618   3.207   5.405   5.401
 7573SOL    HW223619   3.066   5.463   5.343
 7574SOL     OW23620   5.032   6.011   2.372
 7574SOL    HW123621   5.033   6.010   2.472
 7574SOL    HW223622   5.107   5.955   2.338
 7575SOL     OW23623   5.110   2.657   4.797
 7575SOL    HW123624   5.047   2.581   4.790
 7575SOL    HW223625   5.087   2.713   4.877
 7576SOL     OW23626   6.461   3.165   1.696
 7576SOL    HW123627   6.455   3.255   1.653
 7576SOL    HW223628   6.488   3.097   1.627
 7577SOL     OW23629   4.460   0.282   4.936
 7577SOL    HW123630   4.502   0.302   4.847
 7577SOL    HW223631   4.433   0.186   4.938
 7578SOL     OW23632   2.487   5.259   4.550
 7578SOL    HW123633   2.471   5.274   4.648
 7578SOL    HW223634   2.507   5.163   4.533
 7579SOL     OW23635   4.241   2.353   3.779
 7579SOL    HW123636   4.180   2.274   3.785
 7579SOL    HW223637   4.213   2.421   3.847
 7580SOL     OW23638   2.132   3.379   2.401
 7580SOL    HW123639   2.129   3.377   2.500
 7580SOL    HW223640   2.162   3.289   2.367
 7581SOL     OW23641   5.708   0.802   1.345
 7581SOL    HW123642   5.710   0.814   1.445
 7581SOL    HW223643   5.653   0.875   1.304
 7582SOL     OW23644   3.212   1.706   0.866
 7582SOL    HW123645   3.214   1.798   0.905
 7582SOL    HW223646   3.124   1.663   0.885
 7583SOL     OW23647   6.663   3.583   2.786
 7583SOL    HW123648   6.673   3.506   2.848
 7583SOL    HW223649   6.753   3.616   2.757
 7584SOL     OW23650   2.058   1.493   1.347
 7584SOL    HW123651   2.076   1.576   1.295
 7584SOL    HW223652   1.964   1.496   1.383
 7585SOL     OW23653   2.117   5.411   6.633
 7585SOL    HW123654   2.198   5.381   6.581
 7585SOL    HW223655   2.146   5.441   6.724
 7586SOL     OW23656   2.232   1.097   1.976
 7586SOL    HW123657   2.133   1.110   1.977
 7586SOL    HW223658   2.278   1.186   1.969
 7587SOL     OW23659   1.849   0.946   5.939
 7587SOL    HW123660   1.926   0.882   5.933
 7587SOL    HW223661   1.795   0.941   5.855
 7588SOL     OW23662   0.940   4.274   1.490
 7588SOL    HW123663   0.939   4.177   1.516
 7588SOL    HW223664   1.015   4.321   1.537
 7589SOL     OW23665   5.904   6.151   0.031
 7589SOL    HW123666   5.947   6.221   0.088
 7589SOL    HW223667   5.805   6.166   0.027
 7590SOL     OW23668   1.796   0.794   7.019
 7590SOL    HW123669   1.713   0.771   6.968
 7590SOL    HW223670   1.862   0.719   7.010
 7591SOL     OW23671   6.533   5.086   0.109
 7591SOL    HW123672   6.467   5.021   0.073
 7591SOL    HW223673   6.558   5.152   0.038
 7592SOL     OW23674   5.479   5.736   6.441
 7592SOL    HW123675   5.560   5.709   6.494
 7592SOL    HW223676   5.461   5.669   6.369
 7593SOL     OW23677   6.147   3.244   0.122
 7593SOL    HW123678   6.097   3.167   0.082
 7593SOL    HW223679   6.085   3.322   0.131
 7594SOL     OW23680   0.921   5.947   3.280
 7594SOL    HW123681   0.982   5.869   3.271
 7594SOL    HW223682   0.957   6.010   3.349
 7595SOL     OW23683   6.663   1.867   6.931
 7595SOL    HW123684   6.691   1.799   6.863
 7595SOL    HW223685   6.573   1.843   6.968
 7596SOL     OW23686   4.929   4.550   1.870
 7596SOL    HW123687   4.928   4.600   1.957
 7596SOL    HW223688   4.883   4.462   1.882
 7597SOL     OW23689   2.643   6.030   1.899
 7597SOL    HW123690   2.613   6.008   1.806
 7597SOL    HW223691   2.733   5.989   1.915
 7598SOL     OW23692   6.694   0.497   2.681
 7598SOL    HW123693   6.701   0.562   2.604
 7598SOL    HW223694   6.729   0.541   2.764
 7599SOL     OW23695   6.667   2.490   2.541
 7599SOL    HW123696   6.763   2.470   2.523
 7599SOL    HW223697   6.609   2.431   2.485
 7600SOL     OW23698   2.227   1.805   1.957
 7600SOL    HW123699   2.178   1.726   1.920
 7600SOL    HW223700   2.170   1.850   2.026
 7601SOL     OW23701   1.391   6.943   5.072
 7601SOL    HW123702   1.362   0.013   5.072
 7601SOL    HW223703   1.346   6.894   5.147
 7602SOL     OW23704   2.199   3.211   5.219
 7602SOL    HW123705   2.281   3.166   5.184
 7602SOL    HW223706   2.132   3.143   5.247
 7603SOL     OW23707   0.725   1.041   1.985
 7603SOL    HW123708   0.675   0.955   1.989
 7603SOL    HW223709   0.789   1.046   2.062
 7604SOL     OW23710   5.269   6.302   6.936
 7604SOL    HW123711   5.364   6.330   6.922
 7604SOL    HW223712   5.262   6.245   7.018
 7605SOL     OW23713   5.758   4.056   5.716
 7605SOL    HW123714   5.663   4.082   5.734
 7605SOL    HW223715   5.767   3.957   5.722
 7606SOL     OW23716   6.547   1.853   3.103
 7606SOL    HW123717   6.505   1.810   3.023
 7606SOL    HW223718   6.476   1.886   3.165
 7607SOL     OW23719   5.396   6.867   6.746
 7607SOL    HW123720   5.305   6.865   6.704
 7607SOL    HW223721   5.404   6.947   6.805
 7608SOL     OW23722   4.004   3.109   3.299
 7608SOL    HW123723   4.031   3.123   3.204
 7608SOL    HW223724   3.906   3.090   3.304
 7609SOL     OW23725   1.698   3.097   4.740
 7609SOL    HW123726   1.634   3.124   4.668
 7609SOL    HW223727   1.738   3.008   4.717
 7610SOL     OW23728   5.417   0.954   1.526
 7610SOL    HW123729   5.476   0.925   1.451
 7610SOL    HW223730   5.458   1.033   1.572
 7611SOL     OW23731   1.868   1.734   1.082
 7611SOL    HW123732   1.840   1.827   1.055
 7611SOL    HW223733   1.786   1.679   1.098
 7612SOL     OW23734   4.305   1.422   2.605
 7612SOL    HW123735   4.318   1.341   2.662
 7612SOL    HW223736   4.209   1.427   2.576
 7613SOL     OW23737   5.206   1.049   2.631
 7613SOL    HW123738   5.188   1.029   2.535
 7613SOL    HW223739   5.293   1.008   2.658
 7614SOL     OW23740   3.840   1.076   0.297
 7614SOL    HW123741   3.794   1.165   0.289
 7614SOL    HW223742   3.936   1.086   0.272
 7615SOL     OW23743   4.222   4.451   5.974
 7615SOL    HW123744   4.267   4.487   5.892
 7615SOL    HW223745   4.273   4.481   6.055
 7616SOL     OW23746   6.882   4.799   3.794
 7616SOL    HW123747   6.914   4.708   3.822
 7616SOL    HW223748   6.899   4.811   3.696
 7617SOL     OW23749   3.154   6.037   2.489
 7617SOL    HW123750   3.082   6.093   2.531
 7617SOL    HW223751   3.132   5.940   2.501
 7618SOL     OW23752   1.723   2.597   0.748
 7618SOL    HW123753   1.805   2.627   0.798
 7618SOL    HW223754   1.645   2.596   0.810
 7619SOL     OW23755   6.050   3.555   5.994
 7619SOL    HW123756   6.146   3.527   6.002
 7619SOL    HW223757   5.992   3.487   6.038
 7620SOL     OW23758   3.097   6.373   1.899
 7620SOL    HW123759   3.057   6.289   1.936
 7620SOL    HW223760   3.163   6.410   1.964
 7621SOL     OW23761   2.659   2.003   1.213
 7621SOL    HW123762   2.633   1.986   1.118
 7621SOL    HW223763   2.626   1.929   1.271
 7622SOL     OW23764   4.963   1.887   0.956
 7622SOL    HW123765   4.998   1.824   0.886
 7622SOL    HW223766   4.907   1.836   1.022
 7623SOL     OW23767   5.408   0.536   5.730
 7623SOL    HW123768   5.361   0.613   5.773
 7623SOL    HW223769   5.375   0.450   5.769
 7624SOL     OW23770   6.822   0.582   4.057
 7624SOL    HW123771   6.724   0.587   4.077
 7624SOL    HW223772   6.857   0.492   4.084
 7625SOL     OW23773   4.305   6.451   0.658
 7625SOL    HW123774   4.251   6.423   0.737
 7625SOL    HW223775   4.243   6.479   0.584
 7626SOL     OW23776   2.437   4.450   4.622
 7626SOL    HW123777   2.514   4.513   4.610
 7626SOL    HW223778   2.420   4.401   4.537
 7627SOL     OW23779   6.905   1.878   0.269
 7627SOL    HW123780   6.926   1.969   0.305
 7627SOL    HW223781   6.864   1.887   0.178
 7628SOL     OW23782   4.084   2.007   1.021
 7628SOL    HW123783   3.999   2.060   1.013
 7628SOL    HW223784   4.068   1.913   0.991
 7629SOL     OW23785   6.357   4.995   3.169
 7629SOL    HW123786   6.425   4.983   3.096
 7629SOL    HW223787   6.287   5.059   3.138
 7630SOL     OW23788   0.043   1.182   2.094
 7630SOL    HW123789   0.128   1.221   2.059
 7630SOL    HW223790   6.997   1.251   2.093
 7631SOL     OW23791   1.426   2.150   3.287
 7631SOL    HW123792   1.441   2.156   3.386
 7631SOL    HW223793   1.329   2.138   3.269
 7632SOL     OW23794   4.333   2.002   6.526
 7632SOL    HW123795   4.304   2.017   6.432
 7632SOL    HW223796   4.264   2.038   6.588
 7633SOL     OW23797   5.699   4.619   6.866
 7633SOL    HW123798   5.686   4.653   6.960
 7633SOL    HW223799   5.794   4.589   6.855
 7634SOL     OW23800   1.402   1.865   1.714
 7634SOL    HW123801   1.319   1.918   1.730
 7634SOL    HW223802   1.430   1.822   1.800
 7635SOL     OW23803   3.086   4.951   6.095
 7635SOL    HW123804   3.180   4.947   6.063
 7635SOL    HW223805   3.050   5.044   6.082
 7636SOL     OW23806   1.975   0.663   3.439
 7636SOL    HW123807   1.965   0.762   3.453
 7636SOL    HW223808   1.913   0.614   3.500
 7637SOL     OW23809   2.473   5.898   4.000
 7637SOL    HW123810   2.427   5.977   4.041
 7637SOL    HW223811   2.445   5.890   3.904
 7638SOL     OW23812   4.303   4.460   1.798
 7638SOL    HW123813   4.392   4.416   1.813
 7638SOL    HW223814   4.239   4.432   1.870
 7639SOL     OW23815   0.458   2.219   4.625
 7639SOL    HW123816   0.502   2.308   4.609
 7639SOL    HW223817   0.387   2.229   4.694
 7640SOL     OW23818   2.014   3.243   6.188
 7640SOL    HW123819   1.970   3.327   6.157
 7640SOL    HW223820   2.017   3.242   6.288
 7641SOL     OW23821   6.333   2.876   3.529
 7641SOL    HW123822   6.313   2.813   3.454
 7641SOL    HW223823   6.431   2.874   3.548
 7642SOL     OW23824   2.518   1.623   3.060
 7642SOL    HW123825   2.550   1.704   3.012
 7642SOL    HW223826   2.502   1.645   3.156
 7643SOL     OW23827   5.247   3.491   3.501
 7643SOL    HW123828   5.243   3.469   3.598
 7643SOL    HW223829   5.158   3.526   3.471
 7644SOL     OW23830   6.681   3.632   3.830
 7644SOL    HW123831   6.586   3.653   3.806
 7644SOL    HW223832   6.736   3.714   3.825
 7645SOL     OW23833   4.473   3.164   6.795
 7645SOL    HW123834   4.416   3.139   6.717
 7645SOL    HW223835   4.427   3.235   6.848
 7646SOL     OW23836   1.063   1.766   1.401
 7646SOL    HW123837   0.990   1.776   1.468
 7646SOL    HW223838   1.089   1.670   1.394
 7647SOL     OW23839   2.094   5.162   1.129
 7647SOL    HW123840   2.101   5.166   1.229
 7647SOL    HW223841   2.180   5.128   1.092
 7648SOL     OW23842   3.941   0.551   3.382
 7648SOL    HW123843   3.983   0.618   3.322
 7648SOL    HW223844   3.984   0.555   3.472
 7649SOL     OW23845   3.028   1.594   1.744
 7649SOL    HW123846   3.114   1.568   1.788
 7649SOL    HW223847   2.974   1.650   1.807
 7650SOL     OW23848   5.675   4.945   1.878
 7650SOL    HW123849   5.737   4.992   1.815
 7650SOL    HW223850   5.727   4.887   1.939
 7651SOL     OW23851   3.879   1.920   6.029
 7651SOL    HW123852   3.910   1.889   6.119
 7651SOL    HW223853   3.906   1.853   5.960
 7652SOL     OW23854   0.822   3.258   2.770
 7652SOL    HW123855   0.784   3.267   2.862
 7652SOL    HW223856   0.921   3.268   2.774
 7653SOL     OW23857   3.845   2.311   1.376
 7653SOL    HW123858   3.864   2.216   1.352
 7653SOL    HW223859   3.802   2.315   1.466
 7654SOL     OW23860   4.895   3.373   4.414
 7654SOL    HW123861   4.877   3.457   4.364
 7654SOL    HW223862   4.900   3.392   4.512
 7655SOL     OW23863   4.412   6.494   5.169
 7655SOL    HW123864   4.469   6.575   5.159
 7655SOL    HW223865   4.460   6.415   5.132
 7656SOL     OW23866   1.389   6.076   4.627
 7656SOL    HW123867   1.458   6.144   4.605
 7656SOL    HW223868   1.426   6.011   4.694
 7657SOL     OW23869   4.576   1.662   4.464
 7657SOL    HW123870   4.498   1.621   4.416
 7657SOL    HW223871   4.566   1.644   4.562
 7658SOL     OW23872   3.551   0.689   6.615
 7658SOL    HW123873   3.629   0.651   6.565
 7658SOL    HW223874   3.469   0.635   6.596
 7659SOL     OW23875   5.598   0.015   0.144
 7659SOL    HW123876   5.590   6.967   0.210
 7659SOL    HW223877   5.545   0.093   0.175
 7660SOL     OW23878   6.270   4.696   4.220
 7660SOL    HW123879   6.347   4.647   4.260
 7660SOL    HW223880   6.276   4.692   4.120
 7661SOL     OW23881   5.326   3.064   3.774
 7661SOL    HW123882   5.406   3.120   3.793
 7661SOL    HW223883   5.271   3.107   3.702
 7662SOL     OW23884   6.913   5.855   2.301
 7662SOL    HW123885   6.881   5.844   2.396
 7662SOL    HW223886   6.943   5.767   2.265
 7663SOL     OW23887   6.692   5.493   6.889
 7663SOL    HW123888   6.742   5.491   6.975
 7663SOL    HW223889   6.737   5.555   6.825
 7664SOL     OW23890   2.818   5.521   4.790
 7664SOL    HW123891   2.872   5.502   4.708
 7664SOL    HW223892   2.744   5.585   4.768
 7665SOL     OW23893   2.363   6.305   4.554
 7665SOL    HW123894   2.373   6.205   4.550
 7665SOL    HW223895   2.378   6.336   4.648
 7666SOL     OW23896   1.714   1.266   0.894
 7666SOL    HW123897   1.766   1.207   0.955
 7666SOL    HW223898   1.769   1.288   0.814
 7667SOL     OW23899   4.983   5.848   6.839
 7667SOL    HW123900   5.005   5.769   6.782
 7667SOL    HW223901   4.918   5.821   6.910
 7668SOL     OW23902   2.483   4.166   1.687
 7668SOL    HW123903   2.435   4.193   1.771
 7668SOL    HW223904   2.570   4.214   1.682
 7669SOL     OW23905   4.415   6.256   4.755
 7669SOL    HW123906   4.437   6.280   4.660
 7669SOL    HW223907   4.455   6.325   4.816
 7670SOL     OW23908   1.735   4.958   0.857
 7670SOL    HW123909   1.708   5.005   0.773
 7670SOL    HW223910   1.709   5.014   0.936
 7671SOL     OW23911   5.474   2.468   4.451
 7671SOL    HW123912   5.417   2.389   4.430
 7671SOL    HW223913   5.499   2.465   4.548
 7672SOL     OW23914   5.926   6.853   2.557
 7672SOL    HW123915   5.855   6.908   2.602
 7672SOL    HW223916   5.889   6.763   2.534
 7673SOL     OW23917   0.153   3.855   0.134
 7673SOL    HW123918   0.124   3.807   0.217
 7673SOL    HW223919   0.107   3.815   0.055
 7674SOL     OW23920   6.823   1.256   4.785
 7674SOL    HW123921   6.883   1.323   4.741
 7674SOL    HW223922   6.805   1.181   4.722
 7675SOL     OW23923   4.827   6.866   3.279
 7675SOL    HW123924   4.737   6.855   3.237
 7675SOL    HW223925   4.877   6.780   3.273
 7676SOL     OW23926   1.238   6.884   0.938
 7676SOL    HW123927   1.246   6.838   1.027
 7676SOL    HW223928   1.185   6.826   0.876
 7677SOL     OW23929   1.748   2.430   2.747
 7677SOL    HW123930   1.731   2.522   2.782
 7677SOL    HW223931   1.843   2.424   2.717
 7678SOL     OW23932   5.846   6.676   6.327
 7678SOL    HW123933   5.820   6.702   6.234
 7678SOL    HW223934   5.916   6.605   6.323
 7679SOL     OW23935   1.433   5.047   5.438
 7679SOL    HW123936   1.349   5.000   5.464
 7679SOL    HW223937   1.509   4.983   5.441
 7680SOL     OW23938   4.421   1.811   6.685
 7680SOL    HW123939   4.409   1.886   6.620
 7680SOL    HW223940   4.370   1.832   6.769
 7681SOL     OW23941   2.661   2.303   6.435
 7681SOL    HW123942   2.598   2.373   6.471
 7681SOL    HW223943   2.686   2.240   6.509
 7682SOL     OW23944   2.758   0.146   1.123
 7682SOL    HW123945   2.746   0.240   1.155
 7682SOL    HW223946   2.841   0.141   1.067
 7683SOL     OW23947   6.181   1.449   3.045
 7683SOL    HW123948   6.095   1.407   3.072
 7683SOL    HW223949   6.199   1.528   3.104
 7684SOL     OW23950   4.190   1.840   5.880
 7684SOL    HW123951   4.119   1.844   5.809
 7684SOL    HW223952   4.161   1.776   5.951
 7685SOL     OW23953   3.688   3.695   0.917
 7685SOL    HW123954   3.744   3.612   0.922
 7685SOL    HW223955   3.718   3.750   0.839
 7686SOL     OW23956   3.256   0.640   3.923
 7686SOL    HW123957   3.162   0.672   3.930
 7686SOL    HW223958   3.314   0.692   3.985
 7687SOL     OW23959   4.881   5.079   5.812
 7687SOL    HW123960   4.867   5.171   5.774
 7687SOL    HW223961   4.978   5.064   5.830
 7688SOL     OW23962   7.021   0.194   3.789
 7688SOL    HW123963   6.993   0.249   3.710
 7688SOL    HW223964   6.959   0.116   3.799
 7689SOL     OW23965   4.208   0.132   4.632
 7689SOL    HW123966   4.301   0.112   4.664
 7689SOL    HW223967   4.193   0.086   4.544
 7690SOL     OW23968   0.254   5.700   3.274
 7690SOL    HW123969   0.241   5.601   3.264
 7690SOL    HW223970   0.279   5.720   3.369
 7691SOL     OW23971   5.667   4.203   5.467
 7691SOL    HW123972   5.609   4.129   5.433
 7691SOL    HW223973   5.737   4.166   5.528
 7692SOL     OW23974   2.066   6.253   1.180
 7692SOL    HW123975   2.012   6.177   1.217
 7692SOL    HW223976   2.008   6.333   1.170
 7693SOL     OW23977   5.508   0.652   0.313
 7693SOL    HW123978   5.456   0.627   0.395
 7693SOL    HW223979   5.452   0.711   0.255
 7694SOL     OW23980   6.560   4.701   3.848
 7694SOL    HW123981   6.617   4.718   3.928
 7694SOL    HW223982   6.606   4.735   3.766
 7695SOL     OW23983   3.756   0.511   6.548
 7695SOL    HW123984   3.773   0.466   6.636
 7695SOL    HW223985   3.720   0.444   6.483
 7696SOL     OW23986   0.329   3.803   5.415
 7696SOL    HW123987   0.272   3.802   5.497
 7696SOL    HW223988   0.311   3.885   5.362
 7697SOL     OW23989   3.985   1.961   1.868
 7697SOL    HW123990   4.065   1.925   1.916
 7697SOL    HW223991   3.911   1.974   1.933
 7698SOL     OW23992   0.414   3.436   5.811
 7698SOL    HW123993   0.373   3.520   5.847
 7698SOL    HW223994   0.399   3.361   5.875
 7699SOL     OW23995   2.348   4.335   0.152
 7699SOL    HW123996   2.423   4.315   0.215
 7699SOL    HW223997   2.345   4.433   0.133
 7700SOL     OW23998   5.816   6.954   5.601
 7700SOL    HW123999   5.855   7.024   5.540
 7700SOL    HW224000   5.885   6.885   5.622
 7701SOL     OW24001   6.042   2.050   5.138
 7701SOL    HW124002   5.947   2.049   5.168
 7701SOL    HW224003   6.051   2.111   5.059
 7702SOL     OW24004   2.795   6.154   6.013
 7702SOL    HW124005   2.749   6.124   5.929
 7702SOL    HW224006   2.875   6.210   5.990
 7703SOL     OW24007   0.442   1.714   6.070
 7703SOL    HW124008   0.431   1.789   6.004
 7703SOL    HW224009   0.411   1.744   6.160
 7704SOL     OW24010   3.670   4.778   0.592
 7704SOL    HW124011   3.670   4.681   0.616
 7704SOL    HW224012   3.709   4.831   0.667
 7705SOL     OW24013   3.712   4.917   5.687
 7705SOL    HW124014   3.752   4.838   5.640
 7705SOL    HW224015   3.614   4.902   5.699
 7706SOL     OW24016   6.254   0.712   4.725
 7706SOL    HW124017   6.206   0.665   4.800
 7706SOL    HW224018   6.236   0.810   4.731
 7707SOL     OW24019   0.083   5.083   5.983
 7707SOL    HW124020   0.075   5.150   6.056
 7707SOL    HW224021   0.157   5.019   6.004
 7708SOL     OW24022   5.267   7.005   4.464
 7708SOL    HW124023   5.276   0.017   4.372
 7708SOL    HW224024   5.170   6.988   4.484
 7709SOL     OW24025   3.654   1.985   1.818
 7709SOL    HW124026   3.594   1.925   1.870
 7709SOL    HW224027   3.666   2.071   1.867
 7710SOL     OW24028   2.511   2.037   6.704
 7710SOL    HW124029   2.611   2.031   6.704
 7710SOL    HW224030   2.480   2.086   6.786
 7711SOL     OW24031   5.088   6.825   6.162
 7711SOL    HW124032   5.168   6.848   6.107
 7711SOL    HW224033   5.020   6.778   6.105
 7712SOL     OW24034   5.263   5.025   1.101
 7712SOL    HW124035   5.204   5.065   1.171
 7712SOL    HW224036   5.280   5.092   1.029
 7713SOL     OW24037   1.159   4.753   6.967
 7713SOL    HW124038   1.083   4.804   7.007
 7713SOL    HW224039   1.166   4.663   7.010
 7714SOL     OW24040   5.392   4.106   4.415
 7714SOL    HW124041   5.331   4.163   4.470
 7714SOL    HW224042   5.355   4.096   4.323
 7715SOL     OW24043   4.721   2.118   1.312
 7715SOL    HW124044   4.694   2.148   1.403
 7715SOL    HW224045   4.641   2.115   1.252
 7716SOL     OW24046   4.654   2.730   3.280
 7716SOL    HW124047   4.699   2.740   3.191
 7716SOL    HW224048   4.698   2.791   3.346
 7717SOL     OW24049   3.326   0.509   6.538
 7717SOL    HW124050   3.277   0.424   6.521
 7717SOL    HW224051   3.358   0.548   6.452
 7718SOL     OW24052   3.088   5.984   3.747
 7718SOL    HW124053   3.008   5.952   3.698
 7718SOL    HW224054   3.140   6.047   3.690
 7719SOL     OW24055   6.108   2.383   5.529
 7719SOL    HW124056   6.052   2.434   5.595
 7719SOL    HW224057   6.203   2.412   5.538
 7720SOL     OW24058   5.541   6.060   1.706
 7720SOL    HW124059   5.511   6.033   1.615
 7720SOL    HW224060   5.461   6.069   1.766
 7721SOL     OW24061   1.321   4.545   2.786
 7721SOL    HW124062   1.268   4.499   2.857
 7721SOL    HW224063   1.351   4.478   2.718
 7722SOL     OW24064   1.053   6.213   4.185
 7722SOL    HW124065   1.064   6.310   4.205
 7722SOL    HW224066   0.965   6.198   4.138
 7723SOL     OW24067   6.529   3.275   0.524
 7723SOL    HW124068   6.529   3.375   0.529
 7723SOL    HW224069   6.448   3.239   0.570
 7724SOL     OW24070   1.782   5.589   0.534
 7724SOL    HW124071   1.866   5.613   0.583
 7724SOL    HW224072   1.712   5.658   0.553
 7725SOL     OW24073   5.108   3.672   4.471
 7725SOL    HW124074   5.136   3.597   4.531
 7725SOL    HW224075   5.089   3.753   4.527
 7726SOL     OW24076   5.823   4.322   3.685
 7726SOL    HW124077   5.801   4.344   3.590
 7726SOL    HW224078   5.846   4.225   3.693
 7727SOL     OW24079   6.601   2.822   2.139
 7727SOL    HW124080   6.685   2.786   2.181
 7727SOL    HW224081   6.523   2.766   2.167
 7728SOL     OW24082   2.323   2.141   2.817
 7728SOL    HW124083   2.246   2.203   2.807
 7728SOL    HW224084   2.323   2.075   2.741
 7729SOL     OW24085   5.513   2.592   1.339
 7729SOL    HW124086   5.577   2.574   1.264
 7729SOL    HW224087   5.564   2.610   1.423
 7730SOL     OW24088   5.089   0.096   1.832
 7730SOL    HW124089   5.178   0.096   1.786
 7730SOL    HW224090   5.018   0.121   1.766
 7731SOL     OW24091   6.698   0.917   5.046
 7731SOL    HW124092   6.740   0.841   5.096
 7731SOL    HW224093   6.680   0.992   5.110
 7732SOL     OW24094   4.665   4.761   0.483
 7732SOL    HW124095   4.568   4.756   0.506
 7732SOL    HW224096   4.718   4.708   0.550
 7733SOL     OW24097   3.386   6.769   0.688
 7733SOL    HW124098   3.397   6.746   0.784
 7733SOL    HW224099   3.383   6.869   0.678
 7734SOL     OW24100   1.638   1.849   3.136
 7734SOL    HW124101   1.673   1.815   3.049
 7734SOL    HW224102   1.684   1.935   3.159
 7735SOL     OW24103   5.037   3.722   0.576
 7735SOL    HW124104   5.073   3.812   0.554
 7735SOL    HW224105   4.942   3.730   0.605
 7736SOL     OW24106   5.620   4.787   6.090
 7736SOL    HW124107   5.664   4.868   6.050
 7736SOL    HW224108   5.690   4.721   6.117
 7737SOL     OW24109   4.921   2.121   0.798
 7737SOL    HW124110   4.933   2.043   0.860
 7737SOL    HW224111   4.836   2.169   0.821
 7738SOL     OW24112   2.561   4.550   6.997
 7738SOL    HW124113   2.659   4.541   7.016
 7738SOL    HW224114   2.514   4.581   0.054
 7739SOL     OW24115   6.147   3.323   2.107
 7739SOL    HW124116   6.100   3.244   2.145
 7739SOL    HW224117   6.231   3.293   2.061
 7740SOL     OW24118   0.906   6.770   3.743
 7740SOL    HW124119   0.935   6.802   3.652
 7740SOL    HW224120   0.847   6.839   3.785
 7741SOL     OW24121   3.012   5.573   4.573
 7741SOL    HW124122   3.057   5.659   4.596
 7741SOL    HW224123   3.056   5.498   4.624
 7742SOL     OW24124   6.447   0.526   4.273
 7742SOL    HW124125   6.402   0.525   4.184
 7742SOL    HW224126   6.405   0.597   4.330
 7743SOL     OW24127   4.855   2.948   2.921
 7743SOL    HW124128   4.837   2.923   2.826
 7743SOL    HW224129   4.857   3.048   2.930
 7744SOL     OW24130   0.073   6.876   4.613
 7744SOL    HW124131   0.096   6.953   4.673
 7744SOL    HW224132   0.152   6.853   4.556
 7745SOL     OW24133   5.123   3.321   5.514
 7745SOL    HW124134   5.035   3.288   5.479
 7745SOL    HW224135   5.191   3.319   5.441
 7746SOL     OW24136   1.711   0.727   0.439
 7746SOL    HW124137   1.783   0.745   0.372
 7746SOL    HW224138   1.630   0.691   0.392
 7747SOL     OW24139   5.528   5.020   1.492
 7747SOL    HW124140   5.595   4.994   1.422
 7747SOL    HW224141   5.453   4.954   1.491
 7748SOL     OW24142   2.976   3.452   6.621
 7748SOL    HW124143   2.977   3.547   6.589
 7748SOL    HW224144   2.882   3.419   6.624
 7749SOL     OW24145   5.362   3.711   6.439
 7749SOL    HW124146   5.351   3.687   6.535
 7749SOL    HW224147   5.391   3.631   6.387
 7750SOL     OW24148   6.135   5.048   2.941
 7750SOL    HW124149   6.110   4.953   2.963
 7750SOL    HW224150   6.122   5.105   3.022
 7751SOL     OW24151   0.466   2.520   1.575
 7751SOL    HW124152   0.439   2.550   1.483
 7751SOL    HW224153   0.466   2.420   1.578
 7752SOL     OW24154   4.189   1.502   3.444
 7752SOL    HW124155   4.175   1.431   3.513
 7752SOL    HW224156   4.154   1.470   3.356
 7753SOL     OW24157   3.219   1.786   5.101
 7753SOL    HW124158   3.156   1.715   5.132
 7753SOL    HW224159   3.195   1.873   5.142
 7754SOL     OW24160   5.594   5.523   2.127
 7754SOL    HW124161   5.594   5.621   2.107
 7754SOL    HW224162   5.655   5.505   2.204
 7755SOL     OW24163   0.442   5.004   4.543
 7755SOL    HW124164   0.461   4.974   4.636
 7755SOL    HW224165   0.363   5.065   4.543
 7756SOL     OW24166   2.607   4.978   2.533
 7756SOL    HW124167   2.623   5.015   2.442
 7756SOL    HW224168   2.691   4.980   2.586
 7757SOL     OW24169   0.168   4.777   1.848
 7757SOL    HW124170   0.249   4.817   1.804
 7757SOL    HW224171   0.088   4.832   1.828
 7758SOL     OW24172   1.089   2.573   4.643
 7758SOL    HW124173   1.156   2.551   4.572
 7758SOL    HW224174   1.000   2.590   4.601
 7759SOL     OW24175   3.318   1.578   1.095
 7759SOL    HW124176   3.325   1.482   1.068
 7759SOL    HW224177   3.282   1.631   1.019
 7760SOL     OW24178   4.957   3.351   0.177
 7760SOL    HW124179   4.863   3.316   0.174
 7760SOL    HW224180   5.021   3.274   0.174
 7761SOL     OW24181   4.589   5.101   3.109
 7761SOL    HW124182   4.581   5.199   3.091
 7761SOL    HW224183   4.624   5.054   3.028
 7762SOL     OW24184   5.628   1.442   1.683
 7762SOL    HW124185   5.642   1.464   1.587
 7762SOL    HW224186   5.531   1.431   1.702
 7763SOL     OW24187   2.444   0.362   4.233
 7763SOL    HW124188   2.538   0.397   4.226
 7763SOL    HW224189   2.445   0.274   4.280
 7764SOL     OW24190   2.930   4.427   5.617
 7764SOL    HW124191   2.971   4.468   5.535
 7764SOL    HW224192   2.855   4.366   5.590
 7765SOL     OW24193   5.430   3.677   4.357
 7765SOL    HW124194   5.401   3.608   4.423
 7765SOL    HW224195   5.529   3.670   4.343
 7766SOL     OW24196   6.809   3.435   6.673
 7766SOL    HW124197   6.846   3.380   6.597
 7766SOL    HW224198   6.882   3.450   6.740
 7767SOL     OW24199   4.290   0.393   3.771
 7767SOL    HW124200   4.313   0.381   3.868
 7767SOL    HW224201   4.372   0.417   3.719
 7768SOL     OW24202   3.746   5.672   4.000
 7768SOL    HW124203   3.739   5.597   4.066
 7768SOL    HW224204   3.665   5.671   3.941
 7769SOL     OW24205   3.552   2.945   6.117
 7769SOL    HW124206   3.496   2.916   6.195
 7769SOL    HW224207   3.512   3.027   6.076
 7770SOL     OW24208   1.386   3.768   4.335
 7770SOL    HW124209   1.289   3.787   4.347
 7770SOL    HW224210   1.438   3.809   4.411
 7771SOL     OW24211   1.902   4.095   6.323
 7771SOL    HW124212   1.893   4.072   6.226
 7771SOL    HW224213   1.962   4.174   6.332
 7772SOL     OW24214   5.433   6.032   2.141
 7772SOL    HW124215   5.491   6.113   2.140
 7772SOL    HW224216   5.338   6.059   2.157
 7773SOL     OW24217   2.102   6.612   6.592
 7773SOL    HW124218   2.016   6.562   6.605
 7773SOL    HW224219   2.176   6.564   6.638
 7774SOL     OW24220   5.279   1.576   2.631
 7774SOL    HW124221   5.296   1.481   2.656
 7774SOL    HW224222   5.283   1.634   2.713
 7775SOL     OW24223   2.972   1.983   1.244
 7775SOL    HW124224   3.001   2.078   1.235
 7775SOL    HW224225   2.881   1.972   1.203
 7776SOL     OW24226   2.766   1.140   4.703
 7776SOL    HW124227   2.784   1.232   4.738
 7776SOL    HW224228   2.741   1.145   4.606
 7777SOL     OW24229   6.235   5.876   3.225
 7777SOL    HW124230   6.262   5.848   3.133
 7777SOL    HW224231   6.231   5.797   3.285
 7778SOL     OW24232   0.500   4.568   2.611
 7778SOL    HW124233   0.531   4.646   2.665
 7778SOL    HW224234   0.441   4.600   2.537
 7779SOL     OW24235   4.064   6.362   2.105
 7779SOL    HW124236   4.001   6.394   2.176
 7779SOL    HW224237   4.073   6.433   2.035
 7780SOL     OW24238   6.036   5.936   4.714
 7780SOL    HW124239   6.108   5.991   4.755
 7780SOL    HW224240   5.977   5.898   4.785
 7781SOL     OW24241   1.761   3.271   0.749
 7781SOL    HW124242   1.854   3.243   0.725
 7781SOL    HW224243   1.704   3.268   0.668
 7782SOL     OW24244   5.481   3.396   4.487
 7782SOL    HW124245   5.523   3.309   4.511
 7782SOL    HW224246   5.381   3.385   4.485
 7783SOL     OW24247   2.177   6.312   4.234
 7783SOL    HW124248   2.087   6.302   4.277
 7783SOL    HW224249   2.230   6.381   4.282
 7784SOL     OW24250   1.692   1.863   1.652
 7784SOL    HW124251   1.594   1.859   1.634
 7784SOL    HW224252   1.729   1.949   1.615
 7785SOL     OW24253   0.105   6.091   3.168
 7785SOL    HW124254   0.175   6.135   3.224
 7785SOL    HW224255   0.148   6.018   3.114
 7786SOL     OW24256   4.529   1.059   6.053
 7786SOL    HW124257   4.587   1.036   5.975
 7786SOL    HW224258   4.548   0.997   6.129
 7787SOL     OW24259   2.334   2.335   1.655
 7787SOL    HW124260   2.395   2.274   1.707
 7787SOL    HW224261   2.239   2.316   1.680
 7788SOL     OW24262   0.639   3.854   1.664
 7788SOL    HW124263   0.618   3.757   1.652
 7788SOL    HW224264   0.570   3.896   1.722
 7789SOL     OW24265   3.705   1.099   6.198
 7789SOL    HW124266   3.629   1.151   6.160
 7789SOL    HW224267   3.706   1.007   6.158
 7790SOL     OW24268   4.170   5.364   2.572
 7790SOL    HW124269   4.255   5.411   2.598
 7790SOL    HW224270   4.094   5.406   2.622
 7791SOL     OW24271   2.898   5.561   2.477
 7791SOL    HW124272   2.804   5.587   2.456
 7791SOL    HW224273   2.923   5.481   2.422
 7792SOL     OW24274   1.329   1.431   3.162
 7792SOL    HW124275   1.285   1.498   3.103
 7792SOL    HW224276   1.427   1.449   3.165
 7793SOL     OW24277   5.328   1.276   0.751
 7793SOL    HW124278   5.272   1.265   0.833
 7793SOL    HW224279   5.370   1.367   0.752
 7794SOL     OW24280   0.961   0.056   3.622
 7794SOL    HW124281   1.044   0.106   3.646
 7794SOL    HW224282   0.950   0.056   3.523
 7795SOL     OW24283   3.531   4.529   1.007
 7795SOL    HW124284   3.434   4.551   1.015
 7795SOL    HW224285   3.563   4.550   0.914
 7796SOL     OW24286   3.236   1.835   0.314
 7796SOL    HW124287   3.309   1.776   0.280
 7796SOL    HW224288   3.175   1.781   0.372
 7797SOL     OW24289   1.299   5.537   3.103
 7797SOL    HW124290   1.335   5.444   3.114
 7797SOL    HW224291   1.351   5.600   3.161
 7798SOL     OW24292   2.000   3.148   0.692
 7798SOL    HW124293   2.090   3.190   0.700
 7798SOL    HW224294   1.998   3.087   0.613
 7799SOL     OW24295   3.563   6.004   3.642
 7799SOL    HW124296   3.490   6.017   3.575
 7799SOL    HW224297   3.539   5.930   3.705
 7800SOL     OW24298   1.832   0.671   2.297
 7800SOL    HW124299   1.881   0.754   2.271
 7800SOL    HW224300   1.734   0.691   2.304
 7801SOL     OW24301   0.872   2.252   0.948
 7801SOL    HW124302   0.879   2.218   1.042
 7801SOL    HW224303   0.776   2.268   0.925
 7802SOL     OW24304   6.554   4.095   3.963
 7802SOL    HW124305   6.563   4.116   4.061
 7802SOL    HW224306   6.466   4.049   3.947
 7803SOL     OW24307   2.968   2.795   5.728
 7803SOL    HW124308   2.890   2.850   5.698
 7803SOL    HW224309   2.938   2.731   5.799
 7804SOL     OW24310   3.447   1.661   5.474
 7804SOL    HW124311   3.455   1.567   5.507
 7804SOL    HW224312   3.371   1.706   5.520
 7805SOL     OW24313   5.380   2.934   6.694
 7805SOL    HW124314   5.440   2.858   6.721
 7805SOL    HW224315   5.294   2.928   6.744
 7806SOL     OW24316   6.407   1.557   5.707
 7806SOL    HW124317   6.395   1.489   5.634
 7806SOL    HW224318   6.471   1.521   5.775
 7807SOL     OW24319   2.557   5.554   5.583
 7807SOL    HW124320   2.547   5.537   5.682
 7807SOL    HW224321   2.642   5.513   5.551
 7808SOL     OW24322   6.471   3.798   3.579
 7808SOL    HW124323   6.422   3.787   3.665
 7808SOL    HW224324   6.456   3.717   3.522
 7809SOL     OW24325   4.912   6.425   2.011
 7809SOL    HW124326   4.876   6.381   2.093
 7809SOL    HW224327   4.866   6.388   1.930
 7810SOL     OW24328   2.518   6.699   5.595
 7810SOL    HW124329   2.473   6.788   5.603
 7810SOL    HW224330   2.484   6.638   5.666
 7811SOL     OW24331   1.010   5.965   2.430
 7811SOL    HW124332   0.969   6.023   2.360
 7811SOL    HW224333   0.971   5.987   2.519
 7812SOL     OW24334   2.805   0.974   5.536
 7812SOL    HW124335   2.864   0.928   5.602
 7812SOL    HW224336   2.856   1.047   5.490
 7813SOL     OW24337   5.240   0.771   1.357
 7813SOL    HW124338   5.205   0.688   1.399
 7813SOL    HW224339   5.279   0.831   1.427
 7814SOL     OW24340   5.582   2.826   2.630
 7814SOL    HW124341   5.671   2.871   2.633
 7814SOL    HW224342   5.510   2.894   2.642
 7815SOL     OW24343   4.878   5.648   4.044
 7815SOL    HW124344   4.959   5.592   4.029
 7815SOL    HW224345   4.797   5.599   4.012
 7816SOL     OW24346   0.653   1.268   5.015
 7816SOL    HW124347   0.740   1.301   4.979
 7816SOL    HW224348   0.650   1.279   5.114
 7817SOL     OW24349   4.261   1.960   6.895
 7817SOL    HW124350   4.167   1.928   6.909
 7817SOL    HW224351   4.308   1.966   6.983
 7818SOL     OW24352   5.764   1.114   2.967
 7818SOL    HW124353   5.747   1.105   2.869
 7818SOL    HW224354   5.782   1.024   3.006
 7819SOL     OW24355   1.584   3.545   5.249
 7819SOL    HW124356   1.504   3.595   5.282
 7819SOL    HW224357   1.630   3.502   5.327
 7820SOL     OW24358   1.458   1.194   5.217
 7820SOL    HW124359   1.544   1.185   5.167
 7820SOL    HW224360   1.395   1.123   5.188
 7821SOL     OW24361   3.813   6.170   6.342
 7821SOL    HW124362   3.834   6.077   6.373
 7821SOL    HW224363   3.722   6.173   6.302
 7822SOL     OW24364   0.224   1.571   4.920
 7822SOL    HW124365   0.197   1.579   5.016
 7822SOL    HW224366   0.303   1.631   4.903
 7823SOL     OW24367   2.622   3.353   5.564
 7823SOL    HW124368   2.593   3.362   5.468
 7823SOL    HW224369   2.615   3.442   5.609
 7824SOL     OW24370   5.301   4.008   3.092
 7824SOL    HW124371   5.293   3.918   3.048
 7824SOL    HW224372   5.307   3.995   3.191
 7825SOL     OW24373   3.467   3.569   2.855
 7825SOL    HW124374   3.393   3.592   2.793
 7825SOL    HW224375   3.554   3.570   2.806
 7826SOL     OW24376   6.643   0.051   0.363
 7826SOL    HW124377   6.687   0.078   0.448
 7826SOL    HW224378   6.702   7.013   0.313
 7827SOL     OW24379   4.282   3.260   0.270
 7827SOL    HW124380   4.202   3.311   0.299
 7827SOL    HW224381   4.253   3.172   0.230
 7828SOL     OW24382   0.790   5.723   1.277
 7828SOL    HW124383   0.844   5.729   1.361
 7828SOL    HW224384   0.815   5.799   1.216
 7829SOL     OW24385   3.625   4.117   3.410
 7829SOL    HW124386   3.655   4.113   3.505
 7829SOL    HW224387   3.698   4.156   3.354
 7830SOL     OW24388   6.110   3.717   6.790
 7830SOL    HW124389   6.076   3.797   6.740
 7830SOL    HW224390   6.072   3.634   6.749
 7831SOL     OW24391   1.532   2.770   0.284
 7831SOL    HW124392   1.620   2.780   0.237
 7831SOL    HW224393   1.505   2.674   0.282
 7832SOL     OW24394   3.267   3.205   5.632
 7832SOL    HW124395   3.259   3.295   5.589
 7832SOL    HW224396   3.246   3.134   5.565
 7833SOL     OW24397   0.205   6.637   1.419
 7833SOL    HW124398   0.297   6.603   1.400
 7833SOL    HW224399   0.150   6.631   1.335
 7834SOL     OW24400   6.725   0.610   1.463
 7834SOL    HW124401   6.673   0.535   1.421
 7834SOL    HW224402   6.796   0.571   1.522
 7835SOL     OW24403   2.505   2.362   4.432
 7835SOL    HW124404   2.493   2.319   4.522
 7835SOL    HW224405   2.450   2.446   4.429
 7836SOL     OW24406   1.949   0.785   0.263
 7836SOL    HW124407   1.979   0.812   0.172
 7836SOL    HW224408   2.029   0.773   0.322
 7837SOL     OW24409   4.964   6.703   1.926
 7837SOL    HW124410   5.054   6.720   1.887
 7837SOL    HW224411   4.947   6.604   1.929
 7838SOL     OW24412   4.076   6.558   4.127
 7838SOL    HW124413   4.011   6.596   4.061
 7838SOL    HW224414   4.121   6.478   4.086
 7839SOL     OW24415   0.087   4.638   3.314
 7839SOL    HW124416   0.065   4.643   3.411
 7839SOL    HW224417   0.033   4.706   3.264
 7840SOL     OW24418   5.100   3.326   5.785
 7840SOL    HW124419   5.098   3.358   5.690
 7840SOL    HW224420   5.020   3.362   5.834
 7841SOL     OW24421   1.044   1.958   6.539
 7841SOL    HW124422   0.945   1.946   6.537
 7841SOL    HW224423   1.086   1.879   6.585
 7842SOL     OW24424   3.347   0.243   1.987
 7842SOL    HW124425   3.365   0.240   2.086
 7842SOL    HW224426   3.425   0.286   1.941
 7843SOL     OW24427   0.399   3.038   2.072
 7843SOL    HW124428   0.428   2.969   2.006
 7843SOL    HW224429   0.411   3.129   2.033
 7844SOL     OW24430   3.843   1.288   4.319
 7844SOL    HW124431   3.762   1.262   4.266
 7844SOL    HW224432   3.871   1.381   4.294
 7845SOL     OW24433   1.476   1.117   3.914
 7845SOL    HW124434   1.491   1.205   3.960
 7845SOL    HW224435   1.470   1.132   3.816
 7846SOL     OW24436   4.364   6.678   1.958
 7846SOL    HW124437   4.416   6.712   2.037
 7846SOL    HW224438   4.268   6.702   1.969
 7847SOL     OW24439   0.278   0.174   7.011
 7847SOL    HW124440   0.182   0.180   6.984
 7847SOL    HW224441   0.285   0.133   0.075
 7848SOL     OW24442   3.921   4.584   0.858
 7848SOL    HW124443   3.949   4.590   0.954
 7848SOL    HW224444   3.994   4.616   0.799
 7849SOL     OW24445   5.131   3.933   4.597
 7849SOL    HW124446   5.095   3.941   4.690
 7849SOL    HW224447   5.226   3.902   4.601
 7850SOL     OW24448   0.927   2.122   4.195
 7850SOL    HW124449   0.936   2.152   4.100
 7850SOL    HW224450   0.832   2.095   4.212
 7851SOL     OW24451   5.036   6.668   0.912
 7851SOL    HW124452   4.977   6.592   0.938
 7851SOL    HW224453   5.131   6.638   0.913
 7852SOL     OW24454   2.530   6.816   0.370
 7852SOL    HW124455   2.611   6.763   0.395
 7852SOL    HW224456   2.536   6.907   0.411
 7853SOL     OW24457   1.727   2.780   0.105
 7853SOL    HW124458   1.794   2.807   0.037
 7853SOL    HW224459   1.690   2.690   0.083
 7854SOL     OW24460   3.376   4.137   3.264
 7854SOL    HW124461   3.446   4.151   3.334
 7854SOL    HW224462   3.286   4.156   3.304
 7855SOL     OW24463   4.180   0.110   5.085
 7855SOL    HW124464   4.202   0.148   5.175
 7855SOL    HW224465   4.259   0.060   5.049
 7856SOL     OW24466   3.227   3.749   6.644
 7856SOL    HW124467   3.273   3.693   6.574
 7856SOL    HW224468   3.293   3.772   6.716
 7857SOL     OW24469   0.844   2.808   5.066
 7857SOL    HW124470   0.904   2.882   5.036
 7857SOL    HW224471   0.778   2.787   4.993
 7858SOL     OW24472   5.653   3.840   3.241
 7858SOL    HW124473   5.617   3.769   3.302
 7858SOL    HW224474   5.753   3.838   3.244
 7859SOL     OW24475   0.704   6.300   0.146
 7859SOL    HW124476   0.634   6.252   0.094
 7859SOL    HW224477   0.762   6.232   0.193
 7860SOL     OW24478   4.653   6.604   1.830
 7860SOL    HW124479   4.644   6.686   1.886
 7860SOL    HW224480   4.595   6.612   1.749
 7861SOL     OW24481   5.277   3.416   0.739
 7861SOL    HW124482   5.350   3.355   0.707
 7861SOL    HW224483   5.193   3.396   0.690
 7862SOL     OW24484   2.621   4.424   1.732
 7862SOL    HW124485   2.710   4.435   1.777
 7862SOL    HW224486   2.549   4.455   1.794
 7863SOL     OW24487   5.240   5.833   2.288
 7863SOL    HW124488   5.229   5.762   2.218
 7863SOL    HW224489   5.336   5.858   2.295
 7864SOL     OW24490   1.167   5.936   4.211
 7864SOL    HW124491   1.175   5.908   4.307
 7864SOL    HW224492   1.108   6.016   4.205
 7865SOL     OW24493   3.444   0.892   2.981
 7865SOL    HW124494   3.364   0.940   3.017
 7865SOL    HW224495   3.459   0.809   3.034
 7866SOL     OW24496   2.059   2.249   4.833
 7866SOL    HW124497   2.108   2.300   4.904
 7866SOL    HW224498   2.116   2.241   4.752
 7867SOL     OW24499   5.382   4.059   2.078
 7867SOL    HW124500   5.370   4.148   2.121
 7867SOL    HW224501   5.298   4.006   2.087
 7868SOL     OW24502   5.519   0.272   0.721
 7868SOL    HW124503   5.566   0.342   0.775
 7868SOL    HW224504   5.424   0.298   0.707
 7869SOL     OW24505   6.521   1.665   4.326
 7869SOL    HW124506   6.611   1.621   4.324
 7869SOL    HW224507   6.493   1.688   4.233
 7870SOL     OW24508   6.586   6.587   3.077
 7870SOL    HW124509   6.681   6.571   3.050
 7870SOL    HW224510   6.584   6.659   3.146
 7871SOL     OW24511   5.497   3.363   3.683
 7871SOL    HW124512   5.564   3.434   3.662
 7871SOL    HW224513   5.415   3.405   3.723
 7872SOL     OW24514   6.441   3.516   4.178
 7872SOL    HW124515   6.529   3.545   4.141
 7872SOL    HW224516   6.429   3.556   4.270
 7873SOL     OW24517   6.989   5.555   4.646
 7873SOL    HW124518   0.059   5.560   4.673
 7873SOL    HW224519   6.983   5.525   4.551
 7874SOL     OW24520   6.164   1.327   0.889
 7874SOL    HW124521   6.257   1.340   0.855
 7874SOL    HW224522   6.111   1.278   0.821
 7875SOL     OW24523   4.480   3.169   0.771
 7875SOL    HW124524   4.556   3.103   0.772
 7875SOL    HW224525   4.453   3.187   0.677
 7876SOL     OW24526   0.413   0.505   4.970
 7876SOL    HW124527   0.504   0.534   4.942
 7876SOL    HW224528   0.360   0.478   4.889
 7877SOL     OW24529   6.221   2.613   2.761
 7877SOL    HW124530   6.246   2.539   2.698
 7877SOL    HW224531   6.301   2.668   2.781
 7878SOL     OW24532   4.503   3.931   1.686
 7878SOL    HW124533   4.416   3.882   1.692
 7878SOL    HW224534   4.493   4.022   1.727
 7879SOL     OW24535   5.753   1.043   4.411
 7879SOL    HW124536   5.840   1.004   4.381
 7879SOL    HW224537   5.694   1.060   4.332
 7880SOL     OW24538   1.324   6.664   6.021
 7880SOL    HW124539   1.332   6.565   6.008
 7880SOL    HW224540   1.290   6.683   6.113
 7881SOL     OW24541   0.711   4.886   3.673
 7881SOL    HW124542   0.750   4.978   3.677
 7881SOL    HW224543   0.783   4.819   3.656
 7882SOL     OW24544   1.803   4.436   1.640
 7882SOL    HW124545   1.707   4.453   1.660
 7882SOL    HW224546   1.857   4.517   1.663
 7883SOL     OW24547   3.654   2.031   3.353
 7883SOL    HW124548   3.621   1.937   3.344
 7883SOL    HW224549   3.611   2.073   3.433
 7884SOL     OW24550   0.518   3.395   4.549
 7884SOL    HW124551   0.539   3.450   4.630
 7884SOL    HW224552   0.488   3.455   4.475
 7885SOL     OW24553   5.790   4.938   2.657
 7885SOL    HW124554   5.693   4.953   2.639
 7885SOL    HW224555   5.828   5.019   2.702
 7886SOL     OW24556   4.864   3.785   2.451
 7886SOL    HW124557   4.765   3.803   2.451
 7886SOL    HW224558   4.880   3.687   2.446
 7887SOL     OW24559   1.245   3.114   1.851
 7887SOL    HW124560   1.330   3.104   1.801
 7887SOL    HW224561   1.259   3.088   1.947
 7888SOL     OW24562   6.293   0.977   4.732
 7888SOL    HW124563   6.311   1.067   4.694
 7888SOL    HW224564   6.345   0.965   4.816
 7889SOL     OW24565   5.761   5.257   0.528
 7889SOL    HW124566   5.661   5.257   0.529
 7889SOL    HW224567   5.794   5.305   0.447
 7890SOL     OW24568   2.187   3.083   3.908
 7890SOL    HW124569   2.236   3.027   3.841
 7890SOL    HW224570   2.216   3.057   4.000
 7891SOL     OW24571   6.328   2.022   4.687
 7891SOL    HW124572   6.244   1.968   4.694
 7891SOL    HW224573   6.317   2.108   4.738
 7892SOL     OW24574   0.916   1.875   5.030
 7892SOL    HW124575   0.841   1.883   5.096
 7892SOL    HW224576   0.974   1.956   5.036
 7893SOL     OW24577   5.895   0.302   0.214
 7893SOL    HW124578   5.877   0.362   0.291
 7893SOL    HW224579   5.841   0.333   0.135
 7894SOL     OW24580   2.827   0.604   6.989
 7894SOL    HW124581   2.884   0.524   6.965
 7894SOL    HW224582   2.870   0.687   6.953
 7895SOL     OW24583   6.407   6.025   3.364
 7895SOL    HW124584   6.335   5.976   3.316
 7895SOL    HW224585   6.461   6.079   3.299
 7896SOL     OW24586   2.651   2.047   0.904
 7896SOL    HW124587   2.733   1.993   0.887
 7896SOL    HW224588   2.609   2.072   0.816
 7897SOL     OW24589   3.420   2.877   0.653
 7897SOL    HW124590   3.354   2.865   0.578
 7897SOL    HW224591   3.490   2.943   0.624
 7898SOL     OW24592   5.390   6.882   3.081
 7898SOL    HW124593   5.319   6.903   3.148
 7898SOL    HW224594   5.384   6.785   3.055
 7899SOL     OW24595   5.932   4.079   4.168
 7899SOL    HW124596   5.978   4.043   4.086
 7899SOL    HW224597   5.859   4.141   4.140
 7900SOL     OW24598   0.370   3.784   0.727
 7900SOL    HW124599   0.302   3.854   0.747
 7900SOL    HW224600   0.369   3.763   0.629
 7901SOL     OW24601   0.556   2.104   0.222
 7901SOL    HW124602   0.461   2.073   0.216
 7901SOL    HW224603   0.570   2.153   0.307
 7902SOL     OW24604   2.027   6.727   1.999
 7902SOL    HW124605   2.060   6.653   1.941
 7902SOL    HW224606   1.975   6.689   2.075
 7903SOL     OW24607   2.387   2.242   5.170
 7903SOL    HW124608   2.362   2.163   5.115
 7903SOL    HW224609   2.372   2.222   5.267
 7904SOL     OW24610   4.308   2.338   3.305
 7904SOL    HW124611   4.261   2.283   3.236
 7904SOL    HW224612   4.378   2.394   3.261
 7905SOL     OW24613   5.289   2.152   1.505
 7905SOL    HW124614   5.236   2.221   1.554
 7905SOL    HW224615   5.258   2.148   1.410
 7906SOL     OW24616   1.401   4.570   0.066
 7906SOL    HW124617   1.432   4.486   0.022
 7906SOL    HW224618   1.416   4.648   0.004
 7907SOL     OW24619   5.826   6.190   2.700
 7907SOL    HW124620   5.763   6.197   2.623
 7907SOL    HW224621   5.905   6.135   2.673
 7908SOL     OW24622   1.745   0.157   6.314
 7908SOL    HW124623   1.736   0.201   6.224
 7908SOL    HW224624   1.798   0.073   6.304
 7909SOL     OW24625   6.188   4.046   2.027
 7909SOL    HW124626   6.089   4.054   2.017
 7909SOL    HW224627   6.226   4.134   2.056
 7910SOL     OW24628   1.198   4.104   6.262
 7910SOL    HW124629   1.125   4.049   6.221
 7910SOL    HW224630   1.246   4.050   6.332
 7911SOL     OW24631   6.742   4.376   6.033
 7911SOL    HW124632   6.793   4.458   6.010
 7911SOL    HW224633   6.805   4.305   6.066
 7912SOL     OW24634   5.943   5.870   1.075
 7912SOL    HW124635   6.007   5.827   1.138
 7912SOL    HW224636   5.874   5.804   1.046
 7913SOL     OW24637   1.182   5.048   0.102
 7913SOL    HW124638   1.098   5.031   0.050
 7913SOL    HW224639   1.163   5.039   0.200
 7914SOL     OW24640   0.777   0.126   5.057
 7914SOL    HW124641   0.696   0.183   5.067
 7914SOL    HW224642   0.837   0.164   4.987
 7915SOL     OW24643   3.186   5.104   2.679
 7915SOL    HW124644   3.144   5.056   2.756
 7915SOL    HW224645   3.116   5.159   2.633
 7916SOL     OW24646   1.410   0.502   4.342
 7916SOL    HW124647   1.441   0.407   4.348
 7916SOL    HW224648   1.334   0.509   4.278
 7917SOL     OW24649   4.510   1.869   1.820
 7917SOL    HW124650   4.515   1.813   1.903
 7917SOL    HW224651   4.534   1.964   1.843
 7918SOL     OW24652   2.590   2.453   3.735
 7918SOL    HW124653   2.550   2.495   3.654
 7918SOL    HW224654   2.548   2.492   3.817
 7919SOL     OW24655   1.625   6.138   5.215
 7919SOL    HW124656   1.710   6.140   5.267
 7919SOL    HW224657   1.557   6.195   5.261
 7920SOL     OW24658   5.373   0.701   1.132
 7920SOL    HW124659   5.297   0.667   1.076
 7920SOL    HW224660   5.337   0.736   1.218
 7921SOL     OW24661   5.317   2.720   0.747
 7921SOL    HW124662   5.415   2.701   0.748
 7921SOL    HW224663   5.302   2.818   0.760
 7922SOL     OW24664   2.865   0.260   2.178
 7922SOL    HW124665   2.821   0.218   2.257
 7922SOL    HW224666   2.845   0.358   2.177
 7923SOL     OW24667   4.474   1.618   6.876
 7923SOL    HW124668   4.407   1.547   6.854
 7923SOL    HW224669   4.480   1.683   6.800
 7924SOL     OW24670   6.128   5.942   0.027
 7924SOL    HW124671   6.083   5.888   6.982
 7924SOL    HW224672   6.071   6.022   0.048
 7925SOL     OW24673   1.993   5.185   6.768
 7925SOL    HW124674   1.942   5.108   6.728
 7925SOL    HW224675   2.029   5.243   6.695
 7926SOL     OW24676   5.282   5.959   6.851
 7926SOL    HW124677   5.194   5.941   6.807
 7926SOL    HW224678   5.295   5.895   6.926
 7927SOL     OW24679   4.423   0.304   2.666
 7927SOL    HW124680   4.495   0.372   2.674
 7927SOL    HW224681   4.341   0.336   2.714
 7928SOL     OW24682   5.937   2.252   2.878
 7928SOL    HW124683   5.937   2.287   2.785
 7928SOL    HW224684   5.991   2.168   2.882
 7929SOL     OW24685   4.505   4.165   5.830
 7929SOL    HW124686   4.443   4.123   5.896
 7929SOL    HW224687   4.521   4.103   5.753
 7930SOL     OW24688   4.126   6.735   6.097
 7930SOL    HW124689   4.170   6.684   6.171
 7930SOL    HW224690   4.130   6.833   6.116
 7931SOL     OW24691   3.751   1.757   1.649
 7931SOL    HW124692   3.728   1.838   1.703
 7931SOL    HW224693   3.761   1.678   1.709
 7932SOL     OW24694   1.453   3.750   1.361
 7932SOL    HW124695   1.473   3.839   1.320
 7932SOL    HW224696   1.486   3.748   1.455
 7933SOL     OW24697   1.162   1.913   6.972
 7933SOL    HW124698   1.244   1.899   6.917
 7933SOL    HW224699   1.176   1.872   0.036
 7934SOL     OW24700   0.946   5.208   0.589
 7934SOL    HW124701   0.981   5.296   0.617
 7934SOL    HW224702   0.929   5.151   0.670
 7935SOL     OW24703   6.007   2.659   3.349
 7935SOL    HW124704   5.918   2.614   3.361
 7935SOL    HW224705   6.079   2.590   3.343
 7936SOL     OW24706   3.028   5.662   3.879
 7936SOL    HW124707   3.093   5.600   3.922
 7936SOL    HW224708   3.074   5.747   3.856
 7937SOL     OW24709   4.024   0.764   0.760
 7937SOL    HW124710   4.062   0.782   0.669
 7937SOL    HW224711   3.970   0.680   0.758
 7938SOL     OW24712   3.274   6.939   3.474
 7938SOL    HW124713   3.338   6.870   3.508
 7938SOL    HW224714   3.225   6.980   3.550
 7939SOL     OW24715   0.719   1.077   2.787
 7939SOL    HW124716   0.719   1.153   2.722
 7939SOL    HW224717   0.764   0.998   2.746
 7940SOL     OW24718   5.906   1.352   4.198
 7940SOL    HW124719   5.818   1.388   4.166
 7940SOL    HW224720   5.911   1.359   4.297
 7941SOL     OW24721   3.508   0.166   1.146
 7941SOL    HW124722   3.527   0.084   1.091
 7941SOL    HW224723   3.533   0.149   1.241
 7942SOL     OW24724   1.594   4.673   0.605
 7942SOL    HW124725   1.504   4.661   0.564
 7942SOL    HW224726   1.600   4.620   0.690
 7943SOL     OW24727   1.555   6.158   5.915
 7943SOL    HW124728   1.462   6.121   5.914
 7943SOL    HW224729   1.560   6.238   5.856
 7944SOL     OW24730   0.727   2.448   1.408
 7944SOL    HW124731   0.714   2.542   1.438
 7944SOL    HW224732   0.787   2.401   1.472
 7945SOL     OW24733   5.997   4.130   3.161
 7945SOL    HW124734   5.940   4.200   3.118
 7945SOL    HW224735   5.991   4.045   3.109
 7946SOL     OW24736   3.901   1.100   6.851
 7946SOL    HW124737   3.886   1.081   6.754
 7946SOL    HW224738   3.847   1.037   6.907
 7947SOL     OW24739   6.913   4.007   6.518
 7947SOL    HW124740   6.912   3.980   6.422
 7947SOL    HW224741   6.887   3.929   6.575
 7948SOL     OW24742   1.868   5.405   2.764
 7948SOL    HW124743   1.902   5.327   2.711
 7948SOL    HW224744   1.872   5.383   2.862
 7949SOL     OW24745   2.978   6.076   5.752
 7949SOL    HW124746   3.021   5.985   5.754
 7949SOL    HW224747   2.879   6.066   5.762
 7950SOL     OW24748   6.184   4.635   5.272
 7950SOL    HW124749   6.186   4.731   5.302
 7950SOL    HW224750   6.222   4.628   5.180
 7951SOL     OW24751   4.540   6.496   2.454
 7951SOL    HW124752   4.626   6.547   2.452
 7951SOL    HW224753   4.557   6.401   2.429
 7952SOL     OW24754   6.300   3.979   5.287
 7952SOL    HW124755   6.323   3.882   5.292
 7952SOL    HW224756   6.260   3.999   5.198
 7953SOL     OW24757   1.473   6.608   0.514
 7953SOL    HW124758   1.553   6.621   0.572
 7953SOL    HW224759   1.470   6.678   0.443
 7954SOL     OW24760   3.876   3.945   6.864
 7954SOL    HW124761   3.863   3.846   6.871
 7954SOL    HW224762   3.803   3.992   6.914
 7955SOL     OW24763   1.404   1.567   6.659
 7955SOL    HW124764   1.446   1.600   6.574
 7955SOL    HW224765   1.305   1.558   6.646
 7956SOL     OW24766   7.008   6.008   0.281
 7956SOL    HW124767   7.008   6.101   0.243
 7956SOL    HW224768   0.072   5.987   0.319
 7957SOL     OW24769   5.115   1.355   6.180
 7957SOL    HW124770   5.080   1.262   6.183
 7957SOL    HW224771   5.115   1.388   6.086
 7958SOL     OW24772   5.194   2.502   0.094
 7958SOL    HW124773   5.247   2.567   0.149
 7958SOL    HW224774   5.256   2.441   0.045
 7959SOL     OW24775   5.526   2.344   0.283
 7959SOL    HW124776   5.582   2.378   0.359
 7959SOL    HW224777   5.432   2.329   0.316
 7960SOL     OW24778   0.896   1.153   5.371
 7960SOL    HW124779   0.902   1.216   5.294
 7960SOL    HW224780   0.974   1.167   5.432
 7961SOL     OW24781   6.385   6.752   6.916
 7961SOL    HW124782   6.377   6.652   6.917
 7961SOL    HW224783   6.322   6.789   6.848
 7962SOL     OW24784   6.195   0.158   5.389
 7962SOL    HW124785   6.185   0.146   5.290
 7962SOL    HW224786   6.262   0.229   5.407
 7963SOL     OW24787   6.797   6.537   3.404
 7963SOL    HW124788   6.788   6.635   3.385
 7963SOL    HW224789   6.712   6.491   3.376
 7964SOL     OW24790   6.032   4.213   1.733
 7964SOL    HW124791   5.982   4.157   1.800
 7964SOL    HW224792   5.971   4.234   1.656
 7965SOL     OW24793   4.782   2.341   6.294
 7965SOL    HW124794   4.796   2.242   6.281
 7965SOL    HW224795   4.870   2.388   6.290
 7966SOL     OW24796   5.073   3.887   4.864
 7966SOL    HW124797   5.050   3.933   4.949
 7966SOL    HW224798   5.021   3.802   4.856
 7967SOL     OW24799   1.310   4.509   0.297
 7967SOL    HW124800   1.341   4.524   0.204
 7967SOL    HW224801   1.292   4.598   0.340
 7968SOL     OW24802   0.896   3.232   4.826
 7968SOL    HW124803   0.844   3.234   4.741
 7968SOL    HW224804   0.964   3.306   4.825
 7969SOL     OW24805   3.542   5.523   6.463
 7969SOL    HW124806   3.450   5.559   6.478
 7969SOL    HW224807   3.609   5.581   6.510
 7970SOL     OW24808   6.271   2.878   4.290
 7970SOL    HW124809   6.177   2.902   4.264
 7970SOL    HW224810   6.307   2.809   4.227
 7971SOL     OW24811   2.574   1.444   6.617
 7971SOL    HW124812   2.606   1.367   6.673
 7971SOL    HW224813   2.571   1.416   6.521
 7972SOL     OW24814   3.113   4.018   4.144
 7972SOL    HW124815   3.202   3.971   4.142
 7972SOL    HW224816   3.040   3.951   4.159
 7973SOL     OW24817   5.613   4.536   2.162
 7973SOL    HW124818   5.677   4.481   2.215
 7973SOL    HW224819   5.525   4.541   2.210
 7974SOL     OW24820   0.209   2.568   5.304
 7974SOL    HW124821   0.292   2.619   5.329
 7974SOL    HW224822   0.227   2.514   5.221
 7975SOL     OW24823   5.619   0.544   1.134
 7975SOL    HW124824   5.674   0.605   1.192
 7975SOL    HW224825   5.524   0.574   1.135
 7976SOL     OW24826   0.437   0.399   0.748
 7976SOL    HW124827   0.496   0.466   0.702
 7976SOL    HW224828   0.447   0.310   0.704
 7977SOL     OW24829   5.648   5.902   3.652
 7977SOL    HW124830   5.645   5.802   3.646
 7977SOL    HW224831   5.686   5.930   3.740
 7978SOL     OW24832   0.431   4.348   1.310
 7978SOL    HW124833   0.367   4.301   1.372
 7978SOL    HW224834   0.382   4.417   1.258
 7979SOL     OW24835   2.173   2.281   4.570
 7979SOL    HW124836   2.169   2.195   4.519
 7979SOL    HW224837   2.167   2.358   4.505
 7980SOL     OW24838   3.904   5.871   1.018
 7980SOL    HW124839   3.988   5.902   0.973
 7980SOL    HW224840   3.828   5.931   0.991
 7981SOL     OW24841   1.174   3.538   3.751
 7981SOL    HW124842   1.199   3.508   3.659
 7981SOL    HW224843   1.221   3.480   3.819
 7982SOL     OW24844   6.937   0.950   5.594
 7982SOL    HW124845   6.881   0.995   5.664
 7982SOL    HW224846   0.002   0.991   5.593
 7983SOL     OW24847   4.329   1.291   1.654
 7983SOL    HW124848   4.340   1.211   1.712
 7983SOL    HW224849   4.335   1.374   1.709
 7984SOL     OW24850   0.106   2.587   2.940
 7984SOL    HW124851   0.144   2.644   3.013
 7984SOL    HW224852   0.147   2.496   2.945
 7985SOL     OW24853   3.289   2.807   5.274
 7985SOL    HW124854   3.296   2.815   5.175
 7985SOL    HW224855   3.376   2.836   5.316
 7986SOL     OW24856   4.067   1.017   4.581
 7986SOL    HW124857   4.028   0.928   4.603
 7986SOL    HW224858   4.124   1.049   4.656
 7987SOL     OW24859   0.698   3.342   6.803
 7987SOL    HW124860   0.723   3.248   6.779
 7987SOL    HW224861   0.616   3.340   6.861
 7988SOL     OW24862   0.000   1.471   1.688
 7988SOL    HW124863   0.017   1.493   1.592
 7988SOL    HW224864   0.020   1.374   1.705
 7989SOL     OW24865   0.077   4.100   1.042
 7989SOL    HW124866   0.024   4.179   1.074
 7989SOL    HW224867   0.024   4.016   1.056
 7990SOL     OW24868   4.961   5.505   5.396
 7990SOL    HW124869   5.051   5.486   5.434
 7990SOL    HW224870   4.897   5.523   5.471
 7991SOL     OW24871   5.742   0.788   4.615
 7991SOL    HW124872   5.756   0.868   4.557
 7991SOL    HW224873   5.814   0.720   4.596
 7992SOL     OW24874   2.288   6.737   7.020
 7992SOL    HW124875   2.259   6.644   0.020
 7992SOL    HW224876   2.245   6.761   6.933
 7993SOL     OW24877   6.185   5.570   0.818
 7993SOL    HW124878   6.255   5.526   0.762
 7993SOL    HW224879   6.222   5.588   0.909
 7994SOL     OW24880   6.671   0.154   4.006
 7994SOL    HW124881   6.648   0.247   4.036
 7994SOL    HW224882   6.670   0.093   4.085
 7995SOL     OW24883   0.922   5.473   1.354
 7995SOL    HW124884   0.929   5.573   1.348
 7995SOL    HW224885   0.955   5.432   1.269
 7996SOL     OW24886   2.941   0.017   3.397
 7996SOL    HW124887   2.891   0.066   3.325
 7996SOL    HW224888   3.017   6.993   3.357
 7997SOL     OW24889   1.886   1.961   5.655
 7997SOL    HW124890   1.970   1.918   5.624
 7997SOL    HW224891   1.904   2.055   5.683
 7998SOL     OW24892   2.668   0.972   0.448
 7998SOL    HW124893   2.576   1.011   0.447
 7998SOL    HW224894   2.735   1.045   0.462
 7999SOL     OW24895   0.945   0.308   3.822
 7999SOL    HW124896   1.040   0.308   3.791
 7999SOL    HW224897   0.893   0.239   3.771
 8000SOL     OW24898   3.921   5.570   0.919
 8000SOL    HW124899   3.956   5.643   0.977
 8000SOL    HW224900   3.930   5.596   0.823
 8001SOL     OW24901   4.282   4.585   1.162
 8001SOL    HW124902   4.350   4.657   1.146
 8001SOL    HW224903   4.292   4.550   1.255
 8002SOL     OW24904   1.072   6.862   4.368
 8002SOL    HW124905   1.164   6.823   4.364
 8002SOL    HW224906   1.078   6.957   4.399
 8003SOL     OW24907   2.566   5.303   2.414
 8003SOL    HW124908   2.643   5.279   2.472
 8003SOL    HW224909   2.588   5.282   2.319
 8004SOL     OW24910   1.142   3.325   4.136
 8004SOL    HW124911   1.193   3.239   4.125
 8004SOL    HW224912   1.177   3.375   4.215
 8005SOL     OW24913   2.317   0.830   2.788
 8005SOL    HW124914   2.341   0.788   2.700
 8005SOL    HW224915   2.260   0.910   2.772
 8006SOL     OW24916   3.959   5.041   5.650
 8006SOL    HW124917   3.863   5.015   5.641
 8006SOL    HW224918   4.003   4.987   5.721
 8007SOL     OW24919   0.141   0.498   0.829
 8007SOL    HW124920   0.209   0.439   0.784
 8007SOL    HW224921   0.117   0.573   0.768
 8008SOL     OW24922   4.849   4.928   6.964
 8008SOL    HW124923   4.861   5.023   6.936
 8008SOL    HW224924   4.834   4.871   6.884
 8009SOL     OW24925   6.062   1.024   0.493
 8009SOL    HW124926   5.985   0.982   0.542
 8009SOL    HW224927   6.030   1.058   0.404
 8010SOL     OW24928   2.786   0.402   5.507
 8010SOL    HW124929   2.826   0.487   5.472
 8010SOL    HW224930   2.855   0.351   5.559
 8011SOL     OW24931   3.921   2.092   3.293
 8011SOL    HW124932   3.925   2.091   3.193
 8011SOL    HW224933   3.827   2.078   3.322
 8012SOL     OW24934   6.140   1.105   4.284
 8012SOL    HW124935   6.144   1.104   4.384
 8012SOL    HW224936   6.123   1.013   4.250
 8013SOL     OW24937   3.539   1.141   3.027
 8013SOL    HW124938   3.497   1.163   3.115
 8013SOL    HW224939   3.517   1.046   3.002
 8014SOL     OW24940   2.255   2.373   2.605
 8014SOL    HW124941   2.240   2.429   2.686
 8014SOL    HW224942   2.341   2.399   2.562
 8015SOL     OW24943   3.657   0.585   4.934
 8015SOL    HW124944   3.624   0.622   5.021
 8015SOL    HW224945   3.580   0.562   4.876
 8016SOL     OW24946   3.533   2.508   5.409
 8016SOL    HW124947   3.623   2.510   5.365
 8016SOL    HW224948   3.482   2.429   5.376
 8017SOL     OW24949   6.567   6.346   1.297
 8017SOL    HW124950   6.594   6.250   1.300
 8017SOL    HW224951   6.476   6.353   1.256
 8018SOL     OW24952   4.027   3.109   0.253
 8018SOL    HW124953   4.001   3.057   0.171
 8018SOL    HW224954   4.072   3.049   0.318
 8019SOL     OW24955   2.399   3.259   0.221
 8019SOL    HW124956   2.373   3.163   0.233
 8019SOL    HW224957   2.486   3.264   0.171
 8020SOL     OW24958   0.600   0.571   5.661
 8020SOL    HW124959   0.688   0.592   5.618
 8020SOL    HW224960   0.527   0.615   5.609
 8021SOL     OW24961   1.241   3.015   0.792
 8021SOL    HW124962   1.212   3.085   0.857
 8021SOL    HW224963   1.244   3.054   0.700
 8022SOL     OW24964   4.304   0.552   1.660
 8022SOL    HW124965   4.262   0.549   1.751
 8022SOL    HW224966   4.319   0.647   1.633
 8023SOL     OW24967   4.750   6.185   1.433
 8023SOL    HW124968   4.724   6.223   1.522
 8023SOL    HW224969   4.707   6.238   1.360
 8024SOL     OW24970   2.537   1.137   0.197
 8024SOL    HW124971   2.537   1.217   0.256
 8024SOL    HW224972   2.474   1.068   0.233
 8025SOL     OW24973   1.094   5.722   1.700
 8025SOL    HW124974   1.117   5.818   1.686
 8025SOL    HW224975   1.043   5.712   1.786
 8026SOL     OW24976   0.656   5.746   6.535
 8026SOL    HW124977   0.736   5.699   6.496
 8026SOL    HW224978   0.638   5.710   6.627
 8027SOL     OW24979   3.642   0.076   6.584
 8027SOL    HW124980   3.574   0.030   6.642
 8027SOL    HW224981   3.708   0.123   6.642
 8028SOL     OW24982   4.071   5.518   5.434
 8028SOL    HW124983   4.124   5.576   5.495
 8028SOL    HW224984   4.067   5.425   5.472
 8029SOL     OW24985   0.868   0.361   1.287
 8029SOL    HW124986   0.863   0.262   1.295
 8029SOL    HW224987   0.837   0.389   1.196
 8030SOL     OW24988   0.571   4.568   1.206
 8030SOL    HW124989   0.533   4.476   1.216
 8030SOL    HW224990   0.620   4.593   1.290
 8031SOL     OW24991   7.012   0.153   2.977
 8031SOL    HW124992   6.973   0.071   3.020
 8031SOL    HW224993   6.939   0.218   2.957
 8032SOL     OW24994   0.225   2.807   1.018
 8032SOL    HW124995   0.304   2.868   1.015
 8032SOL    HW224996   0.168   2.822   0.938
 8033SOL     OW24997   4.297   4.019   1.421
 8033SOL    HW124998   4.359   4.090   1.388
 8033SOL    HW224999   4.279   4.034   1.519
 8034SOL     OW25000   6.899   6.919   5.913
 8034SOL    HW125001   6.872   6.942   5.820
 8034SOL    HW225002   6.990   6.877   5.911
 8035SOL     OW25003   6.069   0.532   3.294
 8035SOL    HW125004   6.155   0.546   3.244
 8035SOL    HW225005   6.066   0.594   3.372
 8036SOL     OW25006   4.993   2.639   4.288
 8036SOL    HW125007   5.040   2.607   4.205
 8036SOL    HW225008   5.061   2.664   4.357
 8037SOL     OW25009   2.494   1.047   6.001
 8037SOL    HW125010   2.520   0.974   5.938
 8037SOL    HW225011   2.576   1.078   6.051
 8038SOL     OW25012   6.801   5.434   2.337
 8038SOL    HW125013   6.862   5.499   2.291
 8038SOL    HW225014   6.708   5.443   2.299
 8039SOL     OW25015   1.338   2.707   5.373
 8039SOL    HW125016   1.388   2.659   5.301
 8039SOL    HW225017   1.386   2.792   5.395
 8040SOL     OW25018   1.213   5.845   6.040
 8040SOL    HW125019   1.292   5.857   6.101
 8040SOL    HW225020   1.131   5.882   6.083
 8041SOL     OW25021   3.266   1.402   2.983
 8041SOL    HW125022   3.359   1.441   2.988
 8041SOL    HW225023   3.202   1.473   2.954
 8042SOL     OW25024   4.095   4.091   5.787
 8042SOL    HW125025   4.156   4.012   5.781
 8042SOL    HW225026   4.101   4.131   5.878
 8043SOL     OW25027   5.515   5.461   6.735
 8043SOL    HW125028   5.444   5.493   6.798
 8043SOL    HW225029   5.593   5.523   6.739
 8044SOL     OW25030   2.114   3.018   1.331
 8044SOL    HW125031   2.033   2.975   1.371
 8044SOL    HW225032   2.185   2.949   1.318
 8045SOL     OW25033   6.851   2.931   4.247
 8045SOL    HW125034   6.848   2.995   4.323
 8045SOL    HW225035   6.793   2.852   4.267
 8046SOL     OW25036   6.846   4.380   1.705
 8046SOL    HW125037   6.797   4.463   1.732
 8046SOL    HW225038   6.908   4.401   1.629
 8047SOL     OW25039   3.034   6.248   0.008
 8047SOL    HW125040   3.014   6.313   6.961
 8047SOL    HW225041   3.043   6.156   6.996
 8048SOL     OW25042   3.555   2.073   5.775
 8048SOL    HW125043   3.497   2.087   5.695
 8048SOL    HW225044   3.498   2.065   5.857
 8049SOL     OW25045   1.848   1.502   0.326
 8049SOL    HW125046   1.786   1.426   0.348
 8049SOL    HW225047   1.863   1.504   0.227
 8050SOL     OW25048   0.719   4.542   5.976
 8050SOL    HW125049   0.752   4.504   5.890
 8050SOL    HW225050   0.779   4.616   6.005
 8051SOL     OW25051   4.180   6.972   3.240
 8051SOL    HW125052   4.192   0.045   3.230
 8051SOL    HW225053   4.160   6.932   3.151
 8052SOL     OW25054   3.218   1.821   2.638
 8052SOL    HW125055   3.285   1.830   2.711
 8052SOL    HW225056   3.225   1.729   2.598
 8053SOL     OW25057   1.558   2.565   6.661
 8053SOL    HW125058   1.560   2.502   6.738
 8053SOL    HW225059   1.574   2.658   6.694
 8054SOL     OW25060   5.022   3.509   5.146
 8054SOL    HW125061   4.946   3.546   5.092
 8054SOL    HW225062   5.107   3.553   5.118
 8055SOL     OW25063   6.572   0.349   6.892
 8055SOL    HW125064   6.624   0.429   6.922
 8055SOL    HW225065   6.475   0.371   6.890
 8056SOL     OW25066   2.374   0.910   3.605
 8056SOL    HW125067   2.355   0.958   3.520
 8056SOL    HW225068   2.341   0.816   3.598
 8057SOL     OW25069   2.813   2.067   1.970
 8057SOL    HW125070   2.808   2.166   1.987
 8057SOL    HW225071   2.825   2.052   1.872
 8058SOL     OW25072   3.923   6.273   1.850
 8058SOL    HW125073   3.967   6.242   1.934
 8058SOL    HW225074   3.952   6.214   1.774
 8059SOL     OW25075   2.620   2.723   5.818
 8059SOL    HW125076   2.701   2.697   5.871
 8059SOL    HW225077   2.642   2.799   5.757
 8060SOL     OW25078   6.344   0.907   5.948
 8060SOL    HW125079   6.260   0.957   5.925
 8060SOL    HW225080   6.418   0.971   5.964
 8061SOL     OW25081   6.933   0.790   2.675
 8061SOL    HW125082   6.921   0.732   2.756
 8061SOL    HW225083   7.008   0.855   2.692
 8062SOL     OW25084   4.436   5.461   5.516
 8062SOL    HW125085   4.421   5.365   5.542
 8062SOL    HW225086   4.474   5.464   5.423
 8063SOL     OW25087   2.837   4.981   3.079
 8063SOL    HW125088   2.796   4.951   3.165
 8063SOL    HW225089   2.788   5.061   3.046
 8064SOL     OW25090   6.530   1.827   0.737
 8064SOL    HW125091   6.585   1.851   0.817
 8064SOL    HW225092   6.530   1.903   0.672
 8065SOL     OW25093   4.121   6.286   6.336
 8065SOL    HW125094   4.127   6.228   6.417
 8065SOL    HW225095   4.039   6.262   6.284
 8066SOL     OW25096   0.373   6.957   6.025
 8066SOL    HW125097   0.334   0.003   5.967
 8066SOL    HW225098   0.438   6.904   5.971
 8067SOL     OW25099   5.852   1.405   3.549
 8067SOL    HW125100   5.827   1.472   3.480
 8067SOL    HW225101   5.839   1.444   3.640
 8068SOL     OW25102   6.045   3.379   1.565
 8068SOL    HW125103   5.956   3.334   1.572
 8068SOL    HW225104   6.069   3.420   1.654
 8069SOL     OW25105   1.522   3.630   2.638
 8069SOL    HW125106   1.541   3.535   2.661
 8069SOL    HW225107   1.508   3.683   2.722
 8070SOL     OW25108   4.802   4.719   1.230
 8070SOL    HW125109   4.816   4.739   1.327
 8070SOL    HW225110   4.877   4.661   1.197
 8071SOL     OW25111   2.330   6.854   6.199
 8071SOL    HW125112   2.311   6.803   6.115
 8071SOL    HW225113   2.387   6.799   6.260
 8072SOL     OW25114   2.294   2.014   5.019
 8072SOL    HW125115   2.195   2.017   5.031
 8072SOL    HW225116   2.331   1.936   5.071
 8073SOL     OW25117   4.774   0.284   6.729
 8073SOL    HW125118   4.768   0.367   6.786
 8073SOL    HW225119   4.684   0.242   6.721
 8074SOL     OW25120   0.292   0.453   0.052
 8074SOL    HW125121   0.193   0.460   0.059
 8074SOL    HW225122   0.317   0.363   0.016
 8075SOL     OW25123   6.833   0.000   1.079
 8075SOL    HW125124   6.860   6.970   1.001
 8075SOL    HW225125   6.901   0.072   1.094
 8076SOL     OW25126   0.225   5.956   0.372
 8076SOL    HW125127   0.258   5.861   0.372
 8076SOL    HW225128   0.294   6.015   0.330
 8077SOL     OW25129   5.252   4.763   0.892
 8077SOL    HW125130   5.189   4.831   0.929
 8077SOL    HW225131   5.338   4.765   0.944
 8078SOL     OW25132   7.011   1.059   1.267
 8078SOL    HW125133   0.024   1.075   1.176
 8078SOL    HW225134   0.017   0.971   1.302
 8079SOL     OW25135   0.984   1.025   6.553
 8079SOL    HW125136   0.992   1.122   6.574
 8079SOL    HW225137   1.005   1.010   6.456
 8080SOL     OW25138   0.917   3.101   3.452
 8080SOL    HW125139   0.880   3.189   3.421
 8080SOL    HW225140   0.909   3.094   3.551
 8081SOL     OW25141   6.133   6.802   5.227
 8081SOL    HW125142   6.055   6.833   5.173
 8081SOL    HW225143   6.218   6.834   5.184
 8082SOL     OW25144   3.618   1.952   3.845
 8082SOL    HW125145   3.536   2.002   3.816
 8082SOL    HW225146   3.641   1.976   3.939
 8083SOL     OW25147   6.112   1.842   4.635
 8083SOL    HW125148   6.015   1.821   4.619
 8083SOL    HW225149   6.154   1.767   4.686
 8084SOL     OW25150   3.919   0.997   5.916
 8084SOL    HW125151   3.965   0.962   5.997
 8084SOL    HW225152   3.976   1.065   5.871
 8085SOL     OW25153   1.905   6.029   4.418
 8085SOL    HW125154   1.808   6.042   4.396
 8085SOL    HW225155   1.947   6.117   4.439
 8086SOL     OW25156   6.946   1.436   2.418
 8086SOL    HW125157   6.909   1.468   2.331
 8086SOL    HW225158   6.964   1.338   2.413
 8087SOL     OW25159   6.835   0.669   6.561
 8087SOL    HW125160   6.858   0.588   6.615
 8087SOL    HW225161   6.803   0.641   6.470
 8088SOL     OW25162   0.043   0.573   5.128
 8088SOL    HW125163   0.129   0.577   5.178
 8088SOL    HW225164   0.059   0.532   5.038
 8089SOL     OW25165   6.357   1.605   6.526
 8089SOL    HW125166   6.349   1.507   6.512
 8089SOL    HW225167   6.379   1.625   6.621
 8090SOL     OW25168   4.335   2.365   5.312
 8090SOL    HW125169   4.430   2.336   5.319
 8090SOL    HW225170   4.308   2.367   5.216
 8091SOL     OW25171   1.077   4.227   3.862
 8091SOL    HW125172   1.049   4.157   3.927
 8091SOL    HW225173   1.004   4.294   3.851
 8092SOL     OW25174   4.843   0.493   6.104
 8092SOL    HW125175   4.864   0.582   6.146
 8092SOL    HW225176   4.891   0.485   6.017
 8093SOL     OW25177   3.470   5.977   3.183
 8093SOL    HW125178   3.548   5.976   3.120
 8093SOL    HW225179   3.411   5.899   3.162
 8094SOL     OW25180   1.889   3.776   4.079
 8094SOL    HW125181   1.876   3.867   4.117
 8094SOL    HW225182   1.975   3.773   4.027
 8095SOL     OW25183   1.361   4.921   5.157
 8095SOL    HW125184   1.373   4.931   5.255
 8095SOL    HW225185   1.364   5.011   5.113
 8096SOL     OW25186   0.706   5.328   0.424
 8096SOL    HW125187   0.627   5.267   0.434
 8096SOL    HW225188   0.787   5.284   0.462
 8097SOL     OW25189   4.893   6.233   0.188
 8097SOL    HW125190   4.972   6.172   0.199
 8097SOL    HW225191   4.871   6.242   0.091
 8098SOL     OW25192   2.354   5.501   5.149
 8098SOL    HW125193   2.330   5.597   5.133
 8098SOL    HW225194   2.381   5.489   5.245
 8099SOL     OW25195   1.879   4.006   2.341
 8099SOL    HW125196   1.965   4.037   2.301
 8099SOL    HW225197   1.896   3.972   2.434
 8100SOL     OW25198   6.770   0.137   6.685
 8100SOL    HW125199   6.672   0.134   6.705
 8100SOL    HW225200   6.817   0.063   6.734
 8101SOL     OW25201   3.048   5.562   1.035
 8101SOL    HW125202   3.041   5.587   1.131
 8101SOL    HW225203   3.133   5.513   1.019
 8102SOL     OW25204   0.773   3.784   4.542
 8102SOL    HW125205   0.812   3.732   4.618
 8102SOL    HW225206   0.826   3.768   4.459
 8103SOL     OW25207   3.350   0.778   1.641
 8103SOL    HW125208   3.399   0.773   1.554
 8103SOL    HW225209   3.351   0.689   1.686
 8104SOL     OW25210   2.010   5.380   0.297
 8104SOL    HW125211   2.074   5.316   0.254
 8104SOL    HW225212   1.936   5.401   0.234
 8105SOL     OW25213   0.181   6.866   3.525
 8105SOL    HW125214   0.110   6.936   3.521
 8105SOL    HW225215   0.192   6.824   3.434
 8106SOL     OW25216   2.038   0.215   6.063
 8106SOL    HW125217   2.089   0.287   6.111
 8106SOL    HW225218   1.944   0.246   6.048
 8107SOL     OW25219   1.371   6.234   6.321
 8107SOL    HW125220   1.436   6.161   6.342
 8107SOL    HW225221   1.420   6.313   6.285
 8108SOL     OW25222   1.128   1.365   6.890
 8108SOL    HW125223   1.039   1.406   6.870
 8108SOL    HW225224   1.117   1.287   6.950
 8109SOL     OW25225   6.296   2.906   1.794
 8109SOL    HW125226   6.289   2.825   1.852
 8109SOL    HW225227   6.209   2.956   1.796
 8110SOL     OW25228   3.497   5.107   1.133
 8110SOL    HW125229   3.581   5.149   1.168
 8110SOL    HW225230   3.518   5.017   1.097
 8111SOL     OW25231   6.594   1.243   2.451
 8111SOL    HW125232   6.626   1.337   2.448
 8111SOL    HW225233   6.535   1.225   2.372
 8112SOL     OW25234   1.920   4.866   6.439
 8112SOL    HW125235   1.997   4.803   6.447
 8112SOL    HW225236   1.844   4.821   6.393
 8113SOL     OW25237   5.523   3.886   5.847
 8113SOL    HW125238   5.464   3.946   5.793
 8113SOL    HW225239   5.495   3.889   5.943
 8114SOL     OW25240   1.423   4.002   2.509
 8114SOL    HW125241   1.465   3.933   2.450
 8114SOL    HW225242   1.467   4.090   2.495
 8115SOL     OW25243   2.848   1.663   5.807
 8115SOL    HW125244   2.840   1.756   5.842
 8115SOL    HW225245   2.826   1.598   5.880
 8116SOL     OW25246   3.643   3.151   1.291
 8116SOL    HW125247   3.614   3.144   1.386
 8116SOL    HW225248   3.563   3.160   1.231
 8117SOL     OW25249   2.642   6.633   4.298
 8117SOL    HW125250   2.560   6.588   4.334
 8117SOL    HW225251   2.676   6.581   4.220
 8118SOL     OW25252   6.609   3.034   0.185
 8118SOL    HW125253   6.615   3.055   0.087
 8118SOL    HW225254   6.515   3.007   0.207
 8119SOL     OW25255   6.014   6.342   0.200
 8119SOL    HW125256   6.113   6.330   0.206
 8119SOL    HW225257   5.993   6.440   0.200
 8120SOL     OW25258   1.899   6.990   2.107
 8120SOL    HW125259   1.904   6.892   2.089
 8120SOL    HW225260   1.845   0.008   2.035
 8121SOL     OW25261   1.009   3.154   2.344
 8121SOL    HW125262   1.033   3.060   2.321
 8121SOL    HW225263   0.911   3.161   2.361
 8122SOL     OW25264   0.214   5.315   1.554
 8122SOL    HW125265   0.260   5.239   1.507
 8122SOL    HW225266   0.233   5.310   1.652
 8123SOL     OW25267   6.940   1.890   6.706
 8123SOL    HW125268   7.003   1.897   6.783
 8123SOL    HW225269   6.991   1.866   6.623
 8124SOL     OW25270   5.437   5.745   4.985
 8124SOL    HW125271   5.367   5.694   5.035
 8124SOL    HW225272   5.521   5.690   4.981
 8125SOL     OW25273   2.181   5.302   3.076
 8125SOL    HW125274   2.256   5.361   3.048
 8125SOL    HW225275   2.099   5.325   3.024
 8126SOL     OW25276   3.827   5.167   4.583
 8126SOL    HW125277   3.796   5.215   4.664
 8126SOL    HW225278   3.773   5.084   4.570
 8127SOL     OW25279   4.111   2.108   6.643
 8127SOL    HW125280   4.023   2.067   6.618
 8127SOL    HW225281   4.104   2.146   6.736
 8128SOL     OW25282   3.288   2.893   1.474
 8128SOL    HW125283   3.197   2.863   1.446
 8128SOL    HW225284   3.289   2.912   1.572
 8129SOL     OW25285   1.030   2.496   2.500
 8129SOL    HW125286   0.971   2.522   2.424
 8129SOL    HW225287   0.975   2.453   2.572
 8130SOL     OW25288   0.591   5.698   6.800
 8130SOL    HW125289   0.615   5.742   6.887
 8130SOL    HW225290   0.546   5.611   6.818
 8131SOL     OW25291   1.693   3.360   6.598
 8131SOL    HW125292   1.778   3.352   6.650
 8131SOL    HW225293   1.640   3.275   6.607
 8132SOL     OW25294   0.563   0.826   5.090
 8132SOL    HW125295   0.584   0.755   5.022
 8132SOL    HW225296   0.578   0.790   5.182
 8133SOL     OW25297   3.218   4.971   0.987
 8133SOL    HW125298   3.121   4.993   0.995
 8133SOL    HW225299   3.260   5.031   0.919
 8134SOL     OW25300   5.661   1.457   6.146
 8134SOL    HW125301   5.748   1.426   6.110
 8134SOL    HW225302   5.608   1.378   6.178
 8135SOL     OW25303   2.446   6.699   1.964
 8135SOL    HW125304   2.396   6.613   1.967
 8135SOL    HW225305   2.525   6.694   2.025
 8136SOL     OW25306   4.882   4.269   2.159
 8136SOL    HW125307   4.829   4.245   2.078
 8136SOL    HW225308   4.878   4.193   2.225
 8137SOL     OW25309   4.262   1.397   5.611
 8137SOL    HW125310   4.265   1.384   5.710
 8137SOL    HW225311   4.331   1.339   5.568
 8138SOL     OW25312   5.190   0.845   2.374
 8138SOL    HW125313   5.098   0.815   2.350
 8138SOL    HW225314   5.244   0.766   2.402
 8139SOL     OW25315   0.088   2.117   3.326
 8139SOL    HW125316   0.117   2.089   3.418
 8139SOL    HW225317   7.017   2.099   3.315
 8140SOL     OW25318   4.447   1.533   3.919
 8140SOL    HW125319   4.431   1.625   3.955
 8140SOL    HW225320   4.489   1.540   3.828
 8141SOL     OW25321   5.158   4.653   4.503
 8141SOL    HW125322   5.138   4.732   4.447
 8141SOL    HW225323   5.075   4.599   4.515
 8142SOL     OW25324   0.316   6.020   6.792
 8142SOL    HW125325   0.387   6.089   6.779
 8142SOL    HW225326   0.226   6.062   6.782
 8143SOL     OW25327   6.512   3.082   5.918
 8143SOL    HW125328   6.525   3.172   5.877
 8143SOL    HW225329   6.452   3.027   5.860
 8144SOL     OW25330   5.176   0.236   6.738
 8144SOL    HW125331   5.119   0.158   6.764
 8144SOL    HW225332   5.176   0.303   6.812
 8145SOL     OW25333   5.446   6.119   2.905
 8145SOL    HW125334   5.420   6.205   2.861
 8145SOL    HW225335   5.501   6.139   2.987
 8146SOL     OW25336   3.600   1.130   4.514
 8146SOL    HW125337   3.690   1.168   4.536
 8146SOL    HW225338   3.585   1.046   4.567
 8147SOL     OW25339   4.974   0.318   3.097
 8147SOL    HW125340   5.037   0.320   3.020
 8147SOL    HW225341   4.950   0.223   3.119
 8148SOL     OW25342   5.433   4.360   3.238
 8148SOL    HW125343   5.472   4.308   3.314
 8148SOL    HW225344   5.335   4.376   3.255
 8149SOL     OW25345   4.036   4.806   3.530
 8149SOL    HW125346   4.057   4.791   3.434
 8149SOL    HW225347   3.943   4.843   3.538
 8150SOL     OW25348   0.650   5.338   1.409
 8150SOL    HW125349   0.648   5.239   1.400
 8150SOL    HW225350   0.741   5.372   1.384
 8151SOL     OW25351   0.843   1.408   4.907
 8151SOL    HW125352   0.911   1.481   4.919
 8151SOL    HW225353   0.828   1.392   4.810
 8152SOL     OW25354   1.564   0.471   2.773
 8152SOL    HW125355   1.514   0.536   2.831
 8152SOL    HW225356   1.648   0.442   2.820
 8153SOL     OW25357   1.663   6.673   0.145
 8153SOL    HW125358   1.759   6.702   0.137
 8153SOL    HW225359   1.636   6.679   0.241
 8154SOL     OW25360   2.513   6.702   3.734
 8154SOL    HW125361   2.486   6.652   3.817
 8154SOL    HW225362   2.542   6.636   3.664
 8155SOL     OW25363   3.625   3.345   4.003
 8155SOL    HW125364   3.585   3.271   4.056
 8155SOL    HW225365   3.577   3.353   3.915
 8156SOL     OW25366   6.834   0.718   5.165
 8156SOL    HW125367   6.800   0.717   5.259
 8156SOL    HW225368   6.887   0.635   5.148
 8157SOL     OW25369   6.300   2.496   6.811
 8157SOL    HW125370   6.219   2.442   6.789
 8157SOL    HW225371   6.381   2.453   6.771
 8158SOL     OW25372   2.017   5.242   2.606
 8158SOL    HW125373   2.051   5.180   2.677
 8158SOL    HW225374   2.094   5.274   2.550
 8159SOL     OW25375   1.159   4.957   1.868
 8159SOL    HW125376   1.086   4.920   1.925
 8159SOL    HW225377   1.212   4.881   1.829
 8160SOL     OW25378   4.661   2.153   1.797
 8160SOL    HW125379   4.689   2.148   1.701
 8160SOL    HW225380   4.676   2.245   1.832
 8161SOL     OW25381   4.230   1.991   1.229
 8161SOL    HW125382   4.270   2.074   1.267
 8161SOL    HW225383   4.192   2.011   1.138
 8162SOL     OW25384   6.583   0.857   1.528
 8162SOL    HW125385   6.495   0.855   1.480
 8162SOL    HW225386   6.638   0.778   1.502
 8163SOL     OW25387   1.997   3.397   4.587
 8163SOL    HW125388   2.040   3.471   4.639
 8163SOL    HW225389   1.928   3.353   4.644
 8164SOL     OW25390   4.857   2.024   2.377
 8164SOL    HW125391   4.864   2.123   2.380
 8164SOL    HW225392   4.880   1.986   2.466
 8165SOL     OW25393   2.327   5.055   1.044
 8165SOL    HW125394   2.383   5.009   1.113
 8165SOL    HW225395   2.318   4.997   0.964
 8166SOL     OW25396   3.677   6.781   1.101
 8166SOL    HW125397   3.664   6.801   1.198
 8166SOL    HW225398   3.666   6.682   1.085
 8167SOL     OW25399   5.015   3.022   4.046
 8167SOL    HW125400   4.983   3.087   3.978
 8167SOL    HW225401   5.065   2.948   4.001
 8168SOL     OW25402   3.659   1.842   2.770
 8168SOL    HW125403   3.647   1.883   2.680
 8168SOL    HW225404   3.569   1.824   2.810
 8169SOL     OW25405   5.292   4.225   5.591
 8169SOL    HW125406   5.304   4.126   5.586
 8169SOL    HW225407   5.210   4.251   5.538
 8170SOL     OW25408   1.330   4.628   4.138
 8170SOL    HW125409   1.378   4.547   4.171
 8170SOL    HW225410   1.271   4.602   4.061
 8171SOL     OW25411   1.522   1.501   5.668
 8171SOL    HW125412   1.560   1.593   5.673
 8171SOL    HW225413   1.551   1.458   5.582
 8172SOL     OW25414   0.034   6.470   1.655
 8172SOL    HW125415   0.043   6.569   1.659
 8172SOL    HW225416   0.109   6.432   1.600
 8173SOL     OW25417   5.880   2.690   6.349
 8173SOL    HW125418   5.883   2.628   6.270
 8173SOL    HW225419   5.850   2.780   6.319
 8174SOL     OW25420   5.462   0.119   2.206
 8174SOL    HW125421   5.381   0.125   2.149
 8174SOL    HW225422   5.539   0.162   2.159
 8175SOL     OW25423   1.509   3.206   5.179
 8175SOL    HW125424   1.568   3.260   5.239
 8175SOL    HW225425   1.560   3.128   5.143
 8176SOL     OW25426   4.040   5.156   2.991
 8176SOL    HW125427   4.024   5.251   3.017
 8176SOL    HW225428   4.063   5.102   3.072
 8177SOL     OW25429   0.843   0.187   5.911
 8177SOL    HW125430   0.748   0.169   5.937
 8177SOL    HW225431   0.898   0.202   5.993
 8178SOL     OW25432   1.838   6.701   6.070
 8178SOL    HW125433   1.835   6.601   6.063
 8178SOL    HW225434   1.905   6.736   6.004
 8179SOL     OW25435   3.468   0.620   0.097
 8179SOL    HW125436   3.456   0.681   0.174
 8179SOL    HW225437   3.402   0.545   0.102
 8180SOL     OW25438   4.644   5.017   5.513
 8180SOL    HW125439   4.671   4.974   5.599
 8180SOL    HW225440   4.726   5.040   5.460
 8181SOL     OW25441   2.552   2.105   2.463
 8181SOL    HW125442   2.549   2.144   2.371
 8181SOL    HW225443   2.501   2.165   2.525
 8182SOL     OW25444   5.029   2.427   6.208
 8182SOL    HW125445   5.003   2.398   6.116
 8182SOL    HW225446   5.085   2.510   6.201
 8183SOL     OW25447   2.010   2.811   4.067
 8183SOL    HW125448   1.971   2.785   4.155
 8183SOL    HW225449   2.036   2.729   4.016
 8184SOL     OW25450   5.808   5.921   5.536
 8184SOL    HW125451   5.780   5.984   5.463
 8184SOL    HW225452   5.858   5.844   5.496
 8185SOL     OW25453   1.855   1.715   2.558
 8185SOL    HW125454   1.782   1.721   2.626
 8185SOL    HW225455   1.826   1.653   2.485
 8186SOL     OW25456   3.935   4.528   6.193
 8186SOL    HW125457   4.035   4.528   6.194
 8186SOL    HW225458   3.903   4.573   6.110
 8187SOL     OW25459   2.035   0.989   6.236
 8187SOL    HW125460   2.118   0.936   6.219
 8187SOL    HW225461   1.975   0.938   6.298
 8188SOL     OW25462   5.463   3.062   2.727
 8188SOL    HW125463   5.468   3.128   2.652
 8188SOL    HW225464   5.551   3.058   2.774
 8189SOL     OW25465   6.771   4.879   2.743
 8189SOL    HW125466   6.761   4.916   2.650
 8189SOL    HW225467   6.725   4.790   2.748
 8190SOL     OW25468   5.295   3.400   2.455
 8190SOL    HW125469   5.258   3.493   2.458
 8190SOL    HW225470   5.359   3.392   2.379
 8191SOL     OW25471   0.383   5.491   2.068
 8191SOL    HW125472   0.364   5.555   2.142
 8191SOL    HW225473   0.420   5.540   1.989
 8192SOL     OW25474   1.470   3.277   0.557
 8192SOL    HW125475   1.432   3.364   0.589
 8192SOL    HW225476   1.405   3.203   0.573
 8193SOL     OW25477   3.708   0.146   5.545
 8193SOL    HW125478   3.631   0.210   5.540
 8193SOL    HW225479   3.729   0.127   5.641
 8194SOL     OW25480   1.835   0.337   1.278
 8194SOL    HW125481   1.928   0.363   1.304
 8194SOL    HW225482   1.800   0.269   1.343
 8195SOL     OW25483   5.447   0.639   0.820
 8195SOL    HW125484   5.448   0.739   0.814
 8195SOL    HW225485   5.414   0.611   0.910
 8196SOL     OW25486   1.967   0.388   6.873
 8196SOL    HW125487   1.935   0.394   6.779
 8196SOL    HW225488   2.010   0.299   6.889
 8197SOL     OW25489   0.715   6.878   1.031
 8197SOL    HW125490   0.672   6.968   1.030
 8197SOL    HW225491   0.709   6.840   1.123
 8198SOL     OW25492   3.650   0.062   2.668
 8198SOL    HW125493   3.639   0.146   2.720
 8198SOL    HW225494   3.739   0.022   2.688
 8199SOL     OW25495   5.432   4.567   0.198
 8199SOL    HW125496   5.383   4.553   0.284
 8199SOL    HW225497   5.462   4.479   0.161
 8200SOL     OW25498   4.425   3.095   1.517
 8200SOL    HW125499   4.371   3.087   1.434
 8200SOL    HW225500   4.522   3.084   1.496
 8201SOL     OW25501   6.294   0.702   4.431
 8201SOL    HW125502   6.271   0.680   4.525
 8201SOL    HW225503   6.363   0.774   4.429
 8202SOL     OW25504   1.847   4.049   4.192
 8202SOL    HW125505   1.865   4.137   4.149
 8202SOL    HW225506   1.807   4.063   4.282
 8203SOL     OW25507   5.900   4.017   0.300
 8203SOL    HW125508   5.874   3.921   0.308
 8203SOL    HW225509   5.852   4.071   0.369
 8204SOL     OW25510   3.585   0.549   0.745
 8204SOL    HW125511   3.615   0.644   0.742
 8204SOL    HW225512   3.485   0.546   0.743
 8205SOL     OW25513   5.618   5.971   2.752
 8205SOL    HW125514   5.563   6.018   2.821
 8205SOL    HW225515   5.702   6.022   2.736
 8206SOL     OW25516   3.857   1.573   4.326
 8206SOL    HW125517   3.815   1.610   4.409
 8206SOL    HW225518   3.946   1.616   4.311
 8207SOL     OW25519   3.109   5.583   6.874
 8207SOL    HW125520   3.108   5.635   6.788
 8207SOL    HW225521   3.200   5.546   6.889
 8208SOL     OW25522   1.438   5.697   6.893
 8208SOL    HW125523   1.463   5.606   6.862
 8208SOL    HW225524   1.468   5.711   6.987
 8209SOL     OW25525   1.180   6.116   5.349
 8209SOL    HW125526   1.240   6.169   5.290
 8209SOL    HW225527   1.123   6.177   5.403
 8210SOL     OW25528   2.600   1.915   0.213
 8210SOL    HW125529   2.510   1.871   0.213
 8210SOL    HW225530   2.629   1.929   0.308
 8211SOL     OW25531   3.135   3.555   4.269
 8211SOL    HW125532   3.182   3.616   4.333
 8211SOL    HW225533   3.199   3.484   4.239
 8212SOL     OW25534   3.687   5.797   0.512
 8212SOL    HW125535   3.778   5.795   0.471
 8212SOL    HW225536   3.627   5.856   0.457
 8213SOL     OW25537   4.604   4.353   1.647
 8213SOL    HW125538   4.539   4.314   1.711
 8213SOL    HW225539   4.633   4.443   1.680
 8214SOL     OW25540   4.419   5.347   3.185
 8214SOL    HW125541   4.326   5.379   3.165
 8214SOL    HW225542   4.484   5.392   3.123
 8215SOL     OW25543   2.065   6.194   6.672
 8215SOL    HW125544   2.030   6.265   6.733
 8215SOL    HW225545   2.049   6.104   6.713
 8216SOL     OW25546   5.727   5.866   1.598
 8216SOL    HW125547   5.675   5.924   1.661
 8216SOL    HW225548   5.784   5.924   1.540
 8217SOL     OW25549   3.133   6.394   4.425
 8217SOL    HW125550   3.138   6.403   4.326
 8217SOL    HW225551   3.198   6.458   4.467
 8218SOL     OW25552   2.629   6.226   4.998
 8218SOL    HW125553   2.623   6.210   5.096
 8218SOL    HW225554   2.718   6.267   4.976
 8219SOL     OW25555   4.019   3.032   2.151
 8219SOL    HW125556   4.070   2.960   2.104
 8219SOL    HW225557   3.956   3.076   2.087
 8220SOL     OW25558   3.286   3.943   5.191
 8220SOL    HW125559   3.230   4.024   5.205
 8220SOL    HW225560   3.228   3.862   5.188
 8221SOL     OW25561   6.383   3.731   3.834
 8221SOL    HW125562   6.386   3.789   3.915
 8221SOL    HW225563   6.378   3.635   3.862
 8222SOL     OW25564   6.237   2.422   0.093
 8222SOL    HW125565   6.155   2.418   0.036
 8222SOL    HW225566   6.315   2.390   0.040
 8223SOL     OW25567   2.214   6.497   5.667
 8223SOL    HW125568   2.211   6.448   5.754
 8223SOL    HW225569   2.270   6.447   5.602
 8224SOL     OW25570   4.788   1.241   6.780
 8224SOL    HW125571   4.885   1.246   6.802
 8224SOL    HW225572   4.735   1.280   6.855
 8225SOL     OW25573   5.870   2.888   0.236
 8225SOL    HW125574   5.792   2.885   0.174
 8225SOL    HW225575   5.880   2.800   0.282
 8226SOL     OW25576   3.926   0.659   6.918
 8226SOL    HW125577   3.989   0.608   6.860
 8226SOL    HW225578   3.874   0.595   6.975
 8227SOL     OW25579   4.512   2.475   3.152
 8227SOL    HW125580   4.514   2.574   3.161
 8227SOL    HW225581   4.474   2.450   3.063
 8228SOL     OW25582   3.057   6.991   5.092
 8228SOL    HW125583   2.963   7.023   5.106
 8228SOL    HW225584   3.056   6.893   5.072
 8229SOL     OW25585   4.459   4.840   1.280
 8229SOL    HW125586   4.486   4.784   1.358
 8229SOL    HW225587   4.463   4.937   1.306
 8230SOL     OW25588   6.406   0.765   5.723
 8230SOL    HW125589   6.412   0.820   5.806
 8230SOL    HW225590   6.478   0.696   5.722
 8231SOL     OW25591   2.889   1.239   2.116
 8231SOL    HW125592   2.845   1.329   2.115
 8231SOL    HW225593   2.984   1.249   2.147
 8232SOL     OW25594   3.721   6.159   3.338
 8232SOL    HW125595   3.819   6.157   3.356
 8232SOL    HW225596   3.671   6.179   3.422
 8233SOL     OW25597   1.683   1.463   6.484
 8233SOL    HW125598   1.708   1.546   6.434
 8233SOL    HW225599   1.731   1.461   6.571
 8234SOL     OW25600   0.939   2.991   0.538
 8234SOL    HW125601   0.918   2.907   0.489
 8234SOL    HW225602   0.874   3.062   0.511
 8235SOL     OW25603   1.055   1.030   1.638
 8235SOL    HW125604   1.094   1.062   1.724
 8235SOL    HW225605   0.957   1.051   1.636
 8236SOL     OW25606   0.436   0.577   1.848
 8236SOL    HW125607   0.518   0.532   1.885
 8236SOL    HW225608   0.375   0.601   1.923
 8237SOL     OW25609   3.903   4.742   5.257
 8237SOL    HW125610   3.932   4.647   5.268
 8237SOL    HW225611   3.803   4.746   5.255
 8238SOL     OW25612   0.451   5.233   0.917
 8238SOL    HW125613   0.430   5.305   0.983
 8238SOL    HW225614   0.377   5.165   0.918
 8239SOL     OW25615   3.059   1.537   5.678
 8239SOL    HW125616   3.019   1.613   5.729
 8239SOL    HW225617   3.007   1.453   5.695
 8240SOL     OW25618   3.554   3.126   4.890
 8240SOL    HW125619   3.557   3.032   4.856
 8240SOL    HW225620   3.590   3.188   4.819
 8241SOL     OW25621   1.487   3.293   5.919
 8241SOL    HW125622   1.449   3.367   5.862
 8241SOL    HW225623   1.421   3.218   5.924
 8242SOL     OW25624   0.417   3.017   2.332
 8242SOL    HW125625   0.326   3.025   2.373
 8242SOL    HW225626   0.410   3.026   2.232
 8243SOL     OW25627   1.200   6.132   3.788
 8243SOL    HW125628   1.235   6.080   3.710
 8243SOL    HW225629   1.228   6.087   3.873
 8244SOL     OW25630   6.912   1.053   3.047
 8244SOL    HW125631   6.848   1.088   2.979
 8244SOL    HW225632   6.861   1.014   3.124
 8245SOL     OW25633   5.143   2.952   3.030
 8245SOL    HW125634   5.236   2.956   2.994
 8245SOL    HW225635   5.079   2.935   2.955
 8246SOL     OW25636   1.723   4.810   6.888
 8246SOL    HW125637   1.669   4.780   6.809
 8246SOL    HW225638   1.661   4.842   6.960
 8247SOL     OW25639   3.193   5.380   3.496
 8247SOL    HW125640   3.290   5.380   3.518
 8247SOL    HW225641   3.140   5.377   3.581
 8248SOL     OW25642   6.835   4.810   3.431
 8248SOL    HW125643   6.823   4.805   3.332
 8248SOL    HW225644   6.746   4.818   3.475
 8249SOL     OW25645   3.520   1.063   6.836
 8249SOL    HW125646   3.504   1.051   6.738
 8249SOL    HW225647   3.567   0.983   6.873
 8250SOL     OW25648   1.301   2.184   6.738
 8250SOL    HW125649   1.203   2.173   6.726
 8250SOL    HW225650   1.333   2.262   6.683
 8251SOL     OW25651   0.921   2.258   5.565
 8251SOL    HW125652   0.879   2.334   5.515
 8251SOL    HW225653   1.018   2.251   5.539
 8252SOL     OW25654   1.072   2.240   6.517
 8252SOL    HW125655   1.065   2.141   6.529
 8252SOL    HW225656   1.050   2.264   6.422
 8253SOL     OW25657   5.646   4.985   6.284
 8253SOL    HW125658   5.610   4.946   6.199
 8253SOL    HW225659   5.740   5.015   6.270
 8254SOL     OW25660   6.690   5.630   0.176
 8254SOL    HW125661   6.755   5.555   0.178
 8254SOL    HW225662   6.614   5.607   0.115
 8255SOL     OW25663   1.352   0.452   5.780
 8255SOL    HW125664   1.427   0.505   5.740
 8255SOL    HW225665   1.306   0.400   5.707
 8256SOL     OW25666   1.621   6.214   4.606
 8256SOL    HW125667   1.697   6.170   4.654
 8256SOL    HW225668   1.632   6.201   4.508
 8257SOL     OW25669   4.786   4.027   3.461
 8257SOL    HW125670   4.884   4.032   3.442
 8257SOL    HW225671   4.770   4.054   3.556
 8258SOL     OW25672   0.537   2.598   3.840
 8258SOL    HW125673   0.541   2.623   3.937
 8258SOL    HW225674   0.595   2.518   3.825
 8259SOL     OW25675   5.777   1.928   4.379
 8259SOL    HW125676   5.708   1.906   4.447
 8259SOL    HW225677   5.733   1.946   4.291
 8260SOL     OW25678   4.956   2.828   0.481
 8260SOL    HW125679   4.995   2.918   0.500
 8260SOL    HW225680   4.859   2.837   0.459
 8261SOL     OW25681   5.975   1.715   2.628
 8261SOL    HW125682   5.901   1.780   2.611
 8261SOL    HW225683   5.936   1.624   2.642
 8262SOL     OW25684   5.179   3.904   2.070
 8262SOL    HW125685   5.115   3.978   2.049
 8262SOL    HW225686   5.173   3.834   1.998
 8263SOL     OW25687   6.645   1.922   6.069
 8263SOL    HW125688   6.683   1.977   5.994
 8263SOL    HW225689   6.591   1.847   6.031
 8264SOL     OW25690   2.751   0.904   2.242
 8264SOL    HW125691   2.747   0.984   2.302
 8264SOL    HW225692   2.821   0.918   2.172
 8265SOL     OW25693   4.602   5.300   0.716
 8265SOL    HW125694   4.624   5.209   0.681
 8265SOL    HW225695   4.659   5.320   0.796
 8266SOL     OW25696   3.700   1.172   3.373
 8266SOL    HW125697   3.668   1.174   3.468
 8266SOL    HW225698   3.622   1.164   3.312
 8267SOL     OW25699   1.877   2.495   3.810
 8267SOL    HW125700   1.835   2.406   3.829
 8267SOL    HW225701   1.976   2.483   3.801
 8268SOL     OW25702   3.348   4.972   0.318
 8268SOL    HW125703   3.428   5.030   0.299
 8268SOL    HW225704   3.371   4.906   0.390
 8269SOL     OW25705   6.313   1.987   5.179
 8269SOL    HW125706   6.226   1.990   5.130
 8269SOL    HW225707   6.387   2.014   5.117
 8270SOL     OW25708   4.381   5.100   0.568
 8270SOL    HW125709   4.301   5.118   0.624
 8270SOL    HW225710   4.354   5.086   0.473
 8271SOL     OW25711   3.143   6.613   6.006
 8271SOL    HW125712   3.134   6.651   5.914
 8271SOL    HW225713   3.131   6.686   6.074
 8272SOL     OW25714   0.669   0.445   1.894
 8272SOL    HW125715   0.756   0.470   1.852
 8272SOL    HW225716   0.684   0.426   1.991
 8273SOL     OW25717   3.679   6.937   6.363
 8273SOL    HW125718   3.664   7.005   6.435
 8273SOL    HW225719   3.777   6.928   6.347
 8274SOL     OW25720   5.374   6.650   5.634
 8274SOL    HW125721   5.312   6.591   5.687
 8274SOL    HW225722   5.429   6.594   5.572
 8275SOL     OW25723   5.063   1.140   5.550
 8275SOL    HW125724   4.967   1.164   5.538
 8275SOL    HW225725   5.103   1.118   5.461
 8276SOL     OW25726   5.839   2.517   0.154
 8276SOL    HW125727   5.748   2.482   0.135
 8276SOL    HW225728   5.906   2.466   0.100
 8277SOL     OW25729   1.122   5.988   1.057
 8277SOL    HW125730   1.190   5.916   1.041
 8277SOL    HW225731   1.111   6.042   0.973
 8278SOL     OW25732   1.821   0.330   0.809
 8278SOL    HW125733   1.904   0.342   0.865
 8278SOL    HW225734   1.809   0.410   0.751
 8279SOL     OW25735   4.550   5.831   5.682
 8279SOL    HW125736   4.487   5.825   5.605
 8279SOL    HW225737   4.595   5.920   5.682
 8280SOL     OW25738   5.257   4.188   6.815
 8280SOL    HW125739   5.205   4.198   6.900
 8280SOL    HW225740   5.199   4.146   6.745
 8281SOL     OW25741   2.741   5.929   6.203
 8281SOL    HW125742   2.758   6.000   6.135
 8281SOL    HW225743   2.730   5.841   6.156
 8282SOL     OW25744   3.503   2.709   1.570
 8282SOL    HW125745   3.460   2.785   1.521
 8282SOL    HW225746   3.591   2.688   1.528
 8283SOL     OW25747   0.345   0.260   3.409
 8283SOL    HW125748   0.400   0.200   3.468
 8283SOL    HW225749   0.361   0.237   3.313
 8284SOL     OW25750   4.874   1.870   1.901
 8284SOL    HW125751   4.860   1.938   1.973
 8284SOL    HW225752   4.820   1.894   1.821
 8285SOL     OW25753   0.782   4.584   0.484
 8285SOL    HW125754   0.863   4.629   0.446
 8285SOL    HW225755   0.775   4.492   0.446
 8286SOL     OW25756   6.497   2.059   6.736
 8286SOL    HW125757   6.595   2.040   6.729
 8286SOL    HW225758   6.471   2.059   6.833
 8287SOL     OW25759   1.249   1.179   3.204
 8287SOL    HW125760   1.289   1.269   3.185
 8287SOL    HW225761   1.261   1.156   3.300
 8288SOL     OW25762   2.039   0.422   2.388
 8288SOL    HW125763   2.023   0.388   2.295
 8288SOL    HW225764   2.127   0.390   2.421
 8289SOL     OW25765   5.705   0.328   6.962
 8289SOL    HW125766   5.726   0.230   6.957
 8289SOL    HW225767   5.657   0.356   6.878
 8290SOL     OW25768   4.749   2.750   1.990
 8290SOL    HW125769   4.730   2.848   1.994
 8290SOL    HW225770   4.687   2.706   1.925
 8291SOL     OW25771   4.852   6.074   6.667
 8291SOL    HW125772   4.826   5.991   6.618
 8291SOL    HW225773   4.949   6.070   6.690
 8292SOL     OW25774   0.295   2.821   5.840
 8292SOL    HW125775   0.363   2.864   5.781
 8292SOL    HW225776   0.338   2.751   5.896
 8293SOL     OW25777   2.909   5.340   3.953
 8293SOL    HW125778   2.833   5.405   3.961
 8293SOL    HW225779   2.976   5.358   4.025
 8294SOL     OW25780   6.021   3.860   5.372
 8294SOL    HW125781   5.965   3.930   5.326
 8294SOL    HW225782   6.065   3.899   5.452
 8295SOL     OW25783   4.616   5.008   2.823
 8295SOL    HW125784   4.529   5.048   2.797
 8295SOL    HW225785   4.691   5.062   2.785
 8296SOL     OW25786   4.066   0.610   2.374
 8296SOL    HW125787   4.130   0.677   2.412
 8296SOL    HW225788   4.045   0.635   2.279
 8297SOL     OW25789   5.570   4.539   1.874
 8297SOL    HW125790   5.606   4.519   1.965
 8297SOL    HW225791   5.615   4.480   1.806
 8298SOL     OW25792   6.382   6.619   0.489
 8298SOL    HW125793   6.340   6.629   0.399
 8298SOL    HW225794   6.399   6.709   0.528
 8299SOL     OW25795   1.418   3.365   6.913
 8299SOL    HW125796   1.336   3.397   6.864
 8299SOL    HW225797   1.432   3.268   6.895
 8300SOL     OW25798   6.008   4.983   4.356
 8300SOL    HW125799   5.954   5.067   4.352
 8300SOL    HW225800   5.960   4.910   4.307
 8301SOL     OW25801   6.568   5.896   0.217
 8301SOL    HW125802   6.471   5.919   0.211
 8301SOL    HW225803   6.578   5.797   0.210
 8302SOL     OW25804   4.110   6.477   5.022
 8302SOL    HW125805   4.162   6.392   5.019
 8302SOL    HW225806   4.057   6.487   4.937
 8303SOL     OW25807   1.158   4.660   3.897
 8303SOL    HW125808   1.225   4.733   3.901
 8303SOL    HW225809   1.066   4.697   3.911
 8304SOL     OW25810   6.252   2.747   3.750
 8304SOL    HW125811   6.302   2.662   3.737
 8304SOL    HW225812   6.265   2.806   3.670
 8305SOL     OW25813   4.554   0.083   5.801
 8305SOL    HW125814   4.488   0.113   5.870
 8305SOL    HW225815   4.510   0.082   5.711
 8306SOL     OW25816   6.392   0.415   3.775
 8306SOL    HW125817   6.486   0.390   3.752
 8306SOL    HW225818   6.392   0.477   3.854
 8307SOL     OW25819   1.316   3.733   3.581
 8307SOL    HW125820   1.340   3.706   3.675
 8307SOL    HW225821   1.218   3.750   3.576
 8308SOL     OW25822   1.175   5.256   0.416
 8308SOL    HW125823   1.131   5.177   0.460
 8308SOL    HW225824   1.266   5.231   0.385
 8309SOL     OW25825   6.400   5.331   3.450
 8309SOL    HW125826   6.443   5.411   3.407
 8309SOL    HW225827   6.322   5.361   3.504
 8310SOL     OW25828   2.642   6.668   3.078
 8310SOL    HW125829   2.588   6.751   3.067
 8310SOL    HW225830   2.739   6.689   3.064
 8311SOL     OW25831   4.712   6.052   2.542
 8311SOL    HW125832   4.747   6.146   2.541
 8311SOL    HW225833   4.722   6.012   2.451
 8312SOL     OW25834   6.196   1.749   1.012
 8312SOL    HW125835   6.254   1.695   0.951
 8312SOL    HW225836   6.251   1.818   1.059
 8313SOL     OW25837   5.598   2.464   6.450
 8313SOL    HW125838   5.686   2.512   6.453
 8313SOL    HW225839   5.544   2.500   6.374
 8314SOL     OW25840   4.332   5.832   4.077
 8314SOL    HW125841   4.307   5.771   4.002
 8314SOL    HW225842   4.430   5.850   4.074
 8315SOL     OW25843   3.125   2.807   6.241
 8315SOL    HW125844   3.139   2.711   6.217
 8315SOL    HW225845   3.088   2.856   6.161
 8316SOL     OW25846   1.679   1.968   5.463
 8316SOL    HW125847   1.652   1.882   5.420
 8316SOL    HW225848   1.737   1.949   5.542
 8317SOL     OW25849   1.190   2.150   4.114
 8317SOL    HW125850   1.118   2.134   4.181
 8317SOL    HW225851   1.189   2.077   4.046
 8318SOL     OW25852   4.507   6.794   6.069
 8318SOL    HW125853   4.501   6.695   6.075
 8318SOL    HW225854   4.475   6.824   5.980
 8319SOL     OW25855   2.308   5.681   6.620
 8319SOL    HW125856   2.223   5.721   6.653
 8319SOL    HW225857   2.328   5.597   6.670
 8320SOL     OW25858   3.839   3.841   5.408
 8320SOL    HW125859   3.759   3.861   5.352
 8320SOL    HW225860   3.840   3.901   5.488
 8321SOL     OW25861   0.491   0.135   0.698
 8321SOL    HW125862   0.569   0.154   0.759
 8321SOL    HW225863   0.506   0.048   0.652
 8322SOL     OW25864   0.959   0.353   0.443
 8322SOL    HW125865   0.988   0.400   0.360
 8322SOL    HW225866   1.039   0.335   0.501
 8323SOL     OW25867   5.352   4.448   6.580
 8323SOL    HW125868   5.336   4.357   6.543
 8323SOL    HW225869   5.443   4.452   6.622
 8324SOL     OW25870   5.908   6.390   6.668
 8324SOL    HW125871   5.947   6.472   6.628
 8324SOL    HW225872   5.878   6.328   6.596
 8325SOL     OW25873   1.656   6.591   5.082
 8325SOL    HW125874   1.615   6.663   5.137
 8325SOL    HW225875   1.586   6.524   5.057
 8326SOL     OW25876   2.035   2.663   6.857
 8326SOL    HW125877   2.010   2.646   6.761
 8326SOL    HW225878   1.987   2.598   6.915
 8327SOL     OW25879   0.509   6.470   5.194
 8327SOL    HW125880   0.482   6.565   5.178
 8327SOL    HW225881   0.520   6.423   5.107
 8328SOL     OW25882   1.391   6.342   0.427
 8328SOL    HW125883   1.483   6.304   0.420
 8328SOL    HW225884   1.394   6.441   0.412
 8329SOL     OW25885   1.812   2.603   5.328
 8329SOL    HW125886   1.739   2.535   5.323
 8329SOL    HW225887   1.898   2.562   5.298
 8330SOL     OW25888   2.784   6.705   0.413
 8330SOL    HW125889   2.876   6.702   0.451
 8330SOL    HW225890   2.768   6.625   0.355
 8331SOL     OW25891   2.596   2.445   5.986
 8331SOL    HW125892   2.639   2.415   6.071
 8331SOL    HW225893   2.663   2.441   5.912
 8332SOL     OW25894   5.902   4.197   1.468
 8332SOL    HW125895   5.957   4.232   1.392
 8332SOL    HW225896   5.905   4.097   1.467
 8333SOL     OW25897   2.375   4.241   6.809
 8333SOL    HW125898   2.421   4.188   6.880
 8333SOL    HW225899   2.320   4.180   6.752
 8334SOL     OW25900   3.408   2.306   5.301
 8334SOL    HW125901   3.327   2.344   5.258
 8334SOL    HW225902   3.446   2.234   5.243
 8335SOL     OW25903   5.268   4.548   5.475
 8335SOL    HW125904   5.334   4.532   5.401
 8335SOL    HW225905   5.302   4.505   5.559
 8336SOL     OW25906   1.290   2.956   3.670
 8336SOL    HW125907   1.246   3.045   3.668
 8336SOL    HW225908   1.262   2.906   3.752
 8337SOL     OW25909   6.540   0.849   4.245
 8337SOL    HW125910   6.480   0.845   4.165
 8337SOL    HW225911   6.502   0.913   4.311
 8338SOL     OW25912   2.621   6.157   1.047
 8338SOL    HW125913   2.646   6.187   1.139
 8338SOL    HW225914   2.648   6.062   1.033
 8339SOL     OW25915   6.027   0.397   1.751
 8339SOL    HW125916   6.032   0.470   1.820
 8339SOL    HW225917   6.085   0.421   1.673
 8340SOL     OW25918   5.888   2.375   6.404
 8340SOL    HW125919   5.857   2.296   6.350
 8340SOL    HW225920   5.985   2.363   6.428
 8341SOL     OW25921   3.988   1.040   0.947
 8341SOL    HW125922   4.001   1.048   1.045
 8341SOL    HW225923   3.991   0.943   0.920
 8342SOL     OW25924   3.773   0.440   0.416
 8342SOL    HW125925   3.692   0.400   0.459
 8342SOL    HW225926   3.842   0.369   0.403
 8343SOL     OW25927   5.862   4.947   3.076
 8343SOL    HW125928   5.906   4.862   3.104
 8343SOL    HW225929   5.862   4.955   2.977
 8344SOL     OW25930   2.007   5.183   5.478
 8344SOL    HW125931   1.988   5.098   5.527
 8344SOL    HW225932   1.949   5.256   5.513
 8345SOL     OW25933   6.135   0.689   3.902
 8345SOL    HW125934   6.056   0.746   3.925
 8345SOL    HW225935   6.174   0.719   3.815
 8346SOL     OW25936   5.293   3.884   4.262
 8346SOL    HW125937   5.195   3.884   4.247
 8346SOL    HW225938   5.321   3.797   4.304
 8347SOL     OW25939   1.535   1.324   5.892
 8347SOL    HW125940   1.623   1.286   5.922
 8347SOL    HW225941   1.551   1.398   5.827
 8348SOL     OW25942   2.830   5.623   2.162
 8348SOL    HW125943   2.742   5.655   2.126
 8348SOL    HW225944   2.874   5.698   2.211
 8349SOL     OW25945   5.143   5.821   1.391
 8349SOL    HW125946   5.098   5.751   1.446
 8349SOL    HW225947   5.078   5.859   1.326
 8350SOL     OW25948   1.236   0.068   0.087
 8350SOL    HW125949   1.266   0.150   0.136
 8350SOL    HW225950   1.298   7.019   0.106
 8351SOL     OW25951   0.473   2.476   3.150
 8351SOL    HW125952   0.546   2.485   3.217
 8351SOL    HW225953   0.408   2.407   3.181
 8352SOL     OW25954   2.278   6.433   0.114
 8352SOL    HW125955   2.374   6.408   0.123
 8352SOL    HW225956   2.249   6.487   0.193
 8353SOL     OW25957   0.675   6.502   2.484
 8353SOL    HW125958   0.615   6.552   2.421
 8353SOL    HW225959   0.755   6.468   2.435
 8354SOL     OW25960   3.907   1.708   3.438
 8354SOL    HW125961   3.990   1.726   3.492
 8354SOL    HW225962   3.880   1.612   3.450
 8355SOL     OW25963   3.323   5.061   6.241
 8355SOL    HW125964   3.289   5.107   6.159
 8355SOL    HW225965   3.364   4.974   6.216
 8356SOL     OW25966   2.915   4.570   1.204
 8356SOL    HW125967   2.886   4.500   1.270
 8356SOL    HW225968   2.834   4.609   1.161
 8357SOL     OW25969   4.378   7.019   4.971
 8357SOL    HW125970   4.322   6.954   4.920
 8357SOL    HW225971   4.463   6.974   5.001
 8358SOL     OW25972   0.643   0.649   5.312
 8358SOL    HW125973   0.558   0.658   5.363
 8358SOL    HW225974   0.720   0.661   5.375
 8359SOL     OW25975   4.493   2.104   5.768
 8359SOL    HW125976   4.411   2.125   5.821
 8359SOL    HW225977   4.573   2.145   5.813
 8360SOL     OW25978   4.227   6.945   1.340
 8360SOL    HW125979   4.254   6.850   1.352
 8360SOL    HW225980   4.180   6.956   1.253
 8361SOL     OW25981   4.632   1.379   6.965
 8361SOL    HW125982   4.577   1.446   6.916
 8361SOL    HW225983   4.573   1.324   7.025
 8362SOL     OW25984   6.728   3.741   1.307
 8362SOL    HW125985   6.698   3.688   1.386
 8362SOL    HW225986   6.663   3.728   1.232
 8363SOL     OW25987   1.861   2.519   1.170
 8363SOL    HW125988   1.911   2.605   1.164
 8363SOL    HW225989   1.785   2.529   1.233
 8364SOL     OW25990   0.683   2.027   4.218
 8364SOL    HW125991   0.646   2.100   4.160
 8364SOL    HW225992   0.624   2.016   4.298
 8365SOL     OW25993   1.606   1.802   1.341
 8365SOL    HW125994   1.527   1.833   1.288
 8365SOL    HW225995   1.683   1.863   1.325
 8366SOL     OW25996   5.530   5.357   1.898
 8366SOL    HW125997   5.434   5.377   1.878
 8366SOL    HW225998   5.556   5.401   1.983
 8367SOL     OW25999   1.949   4.398   3.217
 8367SOL    HW126000   2.044   4.426   3.234
 8367SOL    HW226001   1.891   4.479   3.207
 8368SOL     OW26002   6.154   5.062   5.646
 8368SOL    HW126003   6.132   5.051   5.743
 8368SOL    HW226004   6.072   5.045   5.591
 8369SOL     OW26005   1.496   6.986   0.332
 8369SOL    HW126006   1.563   6.924   0.372
 8369SOL    HW226007   1.480   6.960   0.237
 8370SOL     OW26008   2.561   3.288   0.570
 8370SOL    HW126009   2.608   3.243   0.494
 8370SOL    HW226010   2.596   3.252   0.657
 8371SOL     OW26011   2.766   3.797   6.375
 8371SOL    HW126012   2.786   3.864   6.304
 8371SOL    HW226013   2.682   3.823   6.423
 8372SOL     OW26014   1.264   6.124   1.260
 8372SOL    HW126015   1.351   6.076   1.272
 8372SOL    HW226016   1.207   6.074   1.196
 8373SOL     OW26017   6.704   0.973   3.965
 8373SOL    HW126018   6.680   1.070   3.972
 8373SOL    HW226019   6.671   0.925   4.047
 8374SOL     OW26020   0.493   0.987   3.857
 8374SOL    HW126021   0.463   1.054   3.925
 8374SOL    HW226022   0.591   0.969   3.869
 8375SOL     OW26023   1.417   1.995   5.026
 8375SOL    HW126024   1.392   2.091   5.018
 8375SOL    HW226025   1.385   1.945   4.946
 8376SOL     OW26026   1.214   2.107   3.658
 8376SOL    HW126027   1.230   2.010   3.680
 8376SOL    HW226028   1.117   2.128   3.671
 8377SOL     OW26029   4.190   5.570   6.980
 8377SOL    HW126030   4.171   5.636   6.908
 8377SOL    HW226031   4.119   5.576   0.025
 8378SOL     OW26032   4.826   5.984   4.536
 8378SOL    HW126033   4.733   5.963   4.503
 8378SOL    HW226034   4.882   6.015   4.459
 8379SOL     OW26035   6.208   2.176   1.732
 8379SOL    HW126036   6.216   2.273   1.705
 8379SOL    HW226037   6.151   2.128   1.665
 8380SOL     OW26038   0.778   6.119   1.491
 8380SOL    HW126039   0.717   6.162   1.424
 8380SOL    HW226040   0.856   6.078   1.444
 8381SOL     OW26041   0.829   1.972   2.664
 8381SOL    HW126042   0.925   1.999   2.665
 8381SOL    HW226043   0.775   2.039   2.715
 8382SOL     OW26044   0.841   0.196   1.826
 8382SOL    HW126045   0.851   0.265   1.897
 8382SOL    HW226046   0.928   0.147   1.815
 8383SOL     OW26047   2.746   6.811   5.867
 8383SOL    HW126048   2.767   6.737   5.932
 8383SOL    HW226049   2.742   6.898   5.916
 8384SOL     OW26050   0.500   3.713   2.781
 8384SOL    HW126051   0.582   3.754   2.741
 8384SOL    HW226052   0.419   3.755   2.741
 8385SOL     OW26053   4.152   2.123   1.998
 8385SOL    HW126054   4.249   2.139   1.979
 8385SOL    HW226055   4.098   2.150   1.919
 8386SOL     OW26056   2.344   5.863   1.883
 8386SOL    HW126057   2.302   5.863   1.974
 8386SOL    HW226058   2.416   5.793   1.880
 8387SOL     OW26059   0.622   1.247   3.762
 8387SOL    HW126060   0.608   1.149   3.746
 8387SOL    HW226061   0.611   1.267   3.859
 8388SOL     OW26062   3.707   5.230   1.266
 8388SOL    HW126063   3.695   5.250   1.363
 8388SOL    HW226064   3.751   5.308   1.221
 8389SOL     OW26065   0.641   2.689   4.162
 8389SOL    HW126066   0.698   2.607   4.154
 8389SOL    HW226067   0.699   2.770   4.156
 8390SOL     OW26068   2.846   0.419   6.060
 8390SOL    HW126069   2.909   0.343   6.046
 8390SOL    HW226070   2.777   0.419   5.988
 8391SOL     OW26071   5.562   6.088   0.935
 8391SOL    HW126072   5.514   6.001   0.929
 8391SOL    HW226073   5.501   6.162   0.907
 8392SOL     OW26074   5.071   6.027   0.071
 8392SOL    HW126075   5.091   5.940   0.025
 8392SOL    HW226076   5.154   6.082   0.074
 8393SOL     OW26077   0.420   4.871   2.975
 8393SOL    HW126078   0.379   4.782   2.991
 8393SOL    HW226079   0.452   4.876   2.880
 8394SOL     OW26080   1.223   1.580   2.964
 8394SOL    HW126081   1.151   1.614   2.905
 8394SOL    HW226082   1.281   1.656   2.994
 8395SOL     OW26083   0.512   6.320   5.674
 8395SOL    HW126084   0.441   6.302   5.607
 8395SOL    HW226085   0.538   6.234   5.719
 8396SOL     OW26086   4.362   2.468   1.717
 8396SOL    HW126087   4.268   2.500   1.730
 8396SOL    HW226088   4.391   2.489   1.624
 8397SOL     OW26089   2.294   5.244   3.785
 8397SOL    HW126090   2.322   5.205   3.873
 8397SOL    HW226091   2.197   5.225   3.770
 8398SOL     OW26092   5.768   1.503   0.139
 8398SOL    HW126093   5.796   1.519   0.045
 8398SOL    HW226094   5.669   1.486   0.142
 8399SOL     OW26095   5.695   5.911   6.662
 8399SOL    HW126096   5.622   5.976   6.685
 8399SOL    HW226097   5.744   5.943   6.581
 8400SOL     OW26098   6.377   6.917   3.888
 8400SOL    HW126099   6.422   6.988   3.833
 8400SOL    HW226100   6.316   6.961   3.954
 8401SOL     OW26101   2.980   4.349   5.897
 8401SOL    HW126102   2.922   4.346   5.815
 8401SOL    HW226103   3.069   4.387   5.873
 8402SOL     OW26104   4.655   0.627   5.778
 8402SOL    HW126105   4.746   0.592   5.757
 8402SOL    HW226106   4.614   0.571   5.851
 8403SOL     OW26107   0.801   2.484   4.800
 8403SOL    HW126108   0.833   2.391   4.819
 8403SOL    HW226109   0.710   2.481   4.759
 8404SOL     OW26110   4.519   4.895   5.079
 8404SOL    HW126111   4.457   4.861   5.009
 8404SOL    HW226112   4.536   4.993   5.064
 8405SOL     OW26113   1.581   2.633   4.836
 8405SOL    HW126114   1.538   2.723   4.829
 8405SOL    HW226115   1.668   2.641   4.885
 8406SOL     OW26116   5.790   3.568   0.997
 8406SOL    HW126117   5.693   3.582   0.977
 8406SOL    HW226118   5.806   3.472   1.020
 8407SOL     OW26119   5.256   3.799   2.935
 8407SOL    HW126120   5.218   3.722   2.883
 8407SOL    HW226121   5.281   3.872   2.872
 8408SOL     OW26122   4.605   4.515   4.434
 8408SOL    HW126123   4.549   4.506   4.352
 8408SOL    HW226124   4.671   4.440   4.440
 8409SOL     OW26125   0.590   1.697   3.780
 8409SOL    HW126126   0.524   1.697   3.705
 8409SOL    HW226127   0.611   1.791   3.806
 8410SOL     OW26128   2.477   6.132   2.663
 8410SOL    HW126129   2.554   6.160   2.720
 8410SOL    HW226130   2.510   6.109   2.571
 8411SOL     OW26131   1.673   3.004   3.413
 8411SOL    HW126132   1.665   3.017   3.512
 8411SOL    HW226133   1.613   3.069   3.367
 8412SOL     OW26134   5.873   2.941   2.576
 8412SOL    HW126135   5.882   3.023   2.633
 8412SOL    HW226136   5.951   2.881   2.591
 8413SOL     OW26137   2.754   4.888   1.294
 8413SOL    HW126138   2.737   4.824   1.369
 8413SOL    HW226139   2.842   4.933   1.309
 8414SOL     OW26140   5.956   6.893   3.144
 8414SOL    HW126141   5.943   6.986   3.178
 8414SOL    HW226142   5.867   6.847   3.138
 8415SOL     OW26143   6.308   3.814   2.112
 8415SOL    HW126144   6.286   3.899   2.064
 8415SOL    HW226145   6.344   3.836   2.203
 8416SOL     OW26146   4.668   4.337   2.402
 8416SOL    HW126147   4.595   4.377   2.458
 8416SOL    HW226148   4.679   4.391   2.319
 8417SOL     OW26149   2.363   5.953   6.565
 8417SOL    HW126150   2.359   5.856   6.587
 8417SOL    HW226151   2.405   5.965   6.475
 8418SOL     OW26152   5.904   5.382   2.649
 8418SOL    HW126153   5.956   5.355   2.568
 8418SOL    HW226154   5.897   5.304   2.711
 8419SOL     OW26155   5.020   0.259   3.951
 8419SOL    HW126156   5.058   0.283   3.862
 8419SOL    HW226157   4.922   0.280   3.952
 8420SOL     OW26158   3.712   1.911   5.631
 8420SOL    HW126159   3.689   1.883   5.538
 8420SOL    HW226160   3.639   1.967   5.668
 8421SOL     OW26161   0.610   0.072   1.084
 8421SOL    HW126162   0.611   0.163   1.041
 8421SOL    HW226163   0.669   0.074   1.165
 8422SOL     OW26164   4.221   0.295   1.496
 8422SOL    HW126165   4.250   0.378   1.544
 8422SOL    HW226166   4.302   0.242   1.471
 8423SOL     OW26167   1.886   3.452   1.730
 8423SOL    HW126168   1.878   3.364   1.776
 8423SOL    HW226169   1.855   3.443   1.636
 8424SOL     OW26170   2.628   2.356   2.077
 8424SOL    HW126171   2.589   2.402   1.998
 8424SOL    HW226172   2.727   2.372   2.079
 8425SOL     OW26173   6.609   4.595   6.124
 8425SOL    HW126174   6.651   4.509   6.095
 8425SOL    HW226175   6.624   4.608   6.221
 8426SOL     OW26176   3.757   3.853   2.802
 8426SOL    HW126177   3.827   3.880   2.868
 8426SOL    HW226178   3.690   3.926   2.792
 8427SOL     OW26179   1.995   2.604   6.597
 8427SOL    HW126180   1.984   2.605   6.498
 8427SOL    HW226181   1.957   2.519   6.634
 8428SOL     OW26182   6.167   4.435   1.821
 8428SOL    HW126183   6.192   4.495   1.745
 8428SOL    HW226184   6.123   4.352   1.787
 8429SOL     OW26185   2.262   6.811   2.975
 8429SOL    HW126186   2.358   6.841   2.974
 8429SOL    HW226187   2.222   6.829   3.064
 8430SOL     OW26188   5.326   4.019   2.743
 8430SOL    HW126189   5.383   4.100   2.732
 8430SOL    HW226190   5.270   4.006   2.661
 8431SOL     OW26191   2.803   3.541   1.892
 8431SOL    HW126192   2.867   3.468   1.866
 8431SOL    HW226193   2.728   3.544   1.826
 8432SOL     OW26194   4.795   6.507   6.908
 8432SOL    HW126195   4.860   6.443   6.949
 8432SOL    HW226196   4.742   6.460   6.838
 8433SOL     OW26197   0.842   1.619   3.951
 8433SOL    HW126198   0.818   1.619   3.854
 8433SOL    HW226199   0.884   1.707   3.974
 8434SOL     OW26200   5.644   5.902   6.106
 8434SOL    HW126201   5.663   5.820   6.161
 8434SOL    HW226202   5.638   5.982   6.166
 8435SOL     OW26203   5.108   2.517   1.806
 8435SOL    HW126204   5.091   2.546   1.900
 8435SOL    HW226205   5.044   2.563   1.744
 8436SOL     OW26206   3.044   4.284   1.729
 8436SOL    HW126207   3.010   4.195   1.760
 8436SOL    HW226208   2.985   4.357   1.762
 8437SOL     OW26209   0.040   1.612   0.894
 8437SOL    HW126210   6.989   1.550   0.906
 8437SOL    HW226211   0.019   1.700   0.938
 8438SOL     OW26212   1.850   6.450   1.077
 8438SOL    HW126213   1.924   6.493   1.024
 8438SOL    HW226214   1.810   6.376   1.023
 8439SOL     OW26215   6.561   0.529   2.198
 8439SOL    HW126216   6.542   0.498   2.104
 8439SOL    HW226217   6.558   0.628   2.201
 8440SOL     OW26218   6.929   2.191   4.366
 8440SOL    HW126219   6.907   2.282   4.401
 8440SOL    HW226220   6.939   2.194   4.267
 8441SOL     OW26221   4.111   5.597   2.271
 8441SOL    HW126222   4.164   5.608   2.355
 8441SOL    HW226223   4.160   5.640   2.195
 8442SOL     OW26224   2.037   3.122   0.123
 8442SOL    HW126225   2.122   3.072   0.137
 8442SOL    HW226226   1.964   3.057   0.098
 8443SOL     OW26227   1.056   2.087   2.061
 8443SOL    HW126228   0.971   2.105   2.011
 8443SOL    HW226229   1.057   2.141   2.145
 8444SOL     OW26230   4.966   1.389   2.801
 8444SOL    HW126231   4.968   1.436   2.889
 8444SOL    HW226232   4.958   1.456   2.727
 8445SOL     OW26233   4.387   5.496   1.706
 8445SOL    HW126234   4.401   5.511   1.804
 8445SOL    HW226235   4.460   5.541   1.655
 8446SOL     OW26236   6.621   3.917   2.785
 8446SOL    HW126237   6.715   3.923   2.817
 8446SOL    HW226238   6.581   3.830   2.815
 8447SOL     OW26239   4.690   3.073   1.486
 8447SOL    HW126240   4.727   3.086   1.394
 8447SOL    HW226241   4.737   3.135   1.550
 8448SOL     OW26242   1.764   3.341   5.930
 8448SOL    HW126243   1.814   3.259   5.902
 8448SOL    HW226244   1.666   3.323   5.930
 8449SOL     OW26245   1.064   1.548   4.456
 8449SOL    HW126246   1.129   1.488   4.502
 8449SOL    HW226247   1.011   1.598   4.524
 8450SOL     OW26248   2.238   5.240   1.627
 8450SOL    HW126249   2.253   5.201   1.536
 8450SOL    HW226250   2.314   5.301   1.650
 8451SOL     OW26251   4.115   2.652   0.440
 8451SOL    HW126252   4.203   2.665   0.394
 8451SOL    HW226253   4.117   2.568   0.494
 8452SOL     OW26254   0.272   5.641   1.737
 8452SOL    HW126255   0.309   5.711   1.798
 8452SOL    HW226256   0.222   5.684   1.662
 8453SOL     OW26257   6.814   5.363   5.359
 8453SOL    HW126258   6.733   5.372   5.417
 8453SOL    HW226259   6.792   5.309   5.278
 8454SOL     OW26260   2.030   6.458   4.680
 8454SOL    HW126261   2.113   6.508   4.703
 8454SOL    HW226262   1.949   6.512   4.705
 8455SOL     OW26263   5.950   2.688   0.710
 8455SOL    HW126264   5.887   2.629   0.760
 8455SOL    HW226265   6.012   2.632   0.655
 8456SOL     OW26266   5.505   5.535   3.286
 8456SOL    HW126267   5.521   5.546   3.384
 8456SOL    HW226268   5.588   5.559   3.235
 8457SOL     OW26269   6.503   5.968   6.474
 8457SOL    HW126270   6.526   6.021   6.392
 8457SOL    HW226271   6.577   5.978   6.541
 8458SOL     OW26272   1.458   2.112   1.096
 8458SOL    HW126273   1.477   2.162   1.012
 8458SOL    HW226274   1.488   2.167   1.174
 8459SOL     OW26275   2.808   5.698   2.753
 8459SOL    HW126276   2.726   5.683   2.808
 8459SOL    HW226277   2.851   5.610   2.732
 8460SOL     OW26278   4.006   1.355   0.559
 8460SOL    HW126279   3.955   1.316   0.636
 8460SOL    HW226280   3.949   1.420   0.510
 8461SOL     OW26281   4.983   4.298   3.180
 8461SOL    HW126282   4.887   4.298   3.209
 8461SOL    HW226283   4.997   4.225   3.113
 8462SOL     OW26284   2.502   4.465   0.585
 8462SOL    HW126285   2.404   4.448   0.578
 8462SOL    HW226286   2.520   4.561   0.566
 8463SOL     OW26287   6.588   0.572   0.279
 8463SOL    HW126288   6.583   0.634   0.358
 8463SOL    HW226289   6.681   0.574   0.242
 8464SOL     OW26290   6.781   3.779   6.761
 8464SOL    HW126291   6.836   3.813   6.837
 8464SOL    HW226292   6.813   3.688   6.735
 8465SOL     OW26293   4.651   3.392   0.776
 8465SOL    HW126294   4.586   3.319   0.757
 8465SOL    HW226295   4.699   3.373   0.862
 8466SOL     OW26296   0.620   1.200   5.390
 8466SOL    HW126297   0.627   1.292   5.429
 8466SOL    HW226298   0.710   1.157   5.390
 8467SOL     OW26299   3.465   1.668   0.250
 8467SOL    HW126300   3.552   1.717   0.257
 8467SOL    HW226301   3.464   1.611   0.168
 8468SOL     OW26302   5.711   3.386   6.614
 8468SOL    HW126303   5.767   3.458   6.572
 8468SOL    HW226304   5.726   3.300   6.565
 8469SOL     OW26305   3.786   3.492   5.156
 8469SOL    HW126306   3.806   3.474   5.252
 8469SOL    HW226307   3.780   3.406   5.106
 8470SOL     OW26308   1.693   5.079   1.766
 8470SOL    HW126309   1.617   5.036   1.814
 8470SOL    HW226310   1.768   5.012   1.757
 8471SOL     OW26311   4.237   1.352   4.020
 8471SOL    HW126312   4.316   1.411   4.007
 8471SOL    HW226313   4.263   1.257   4.002
 8472SOL     OW26314   6.095   1.805   6.408
 8472SOL    HW126315   6.110   1.851   6.496
 8472SOL    HW226316   6.012   1.750   6.413
 8473SOL     OW26317   5.314   4.727   6.532
 8473SOL    HW126318   5.317   4.638   6.578
 8473SOL    HW226319   5.284   4.714   6.438
 8474SOL     OW26320   3.212   4.086   4.398
 8474SOL    HW126321   3.160   4.106   4.315
 8474SOL    HW226322   3.150   4.053   4.469
 8475SOL     OW26323   6.674   2.124   3.101
 8475SOL    HW126324   6.642   2.033   3.123
 8475SOL    HW226325   6.731   2.160   3.176
 8476SOL     OW26326   5.903   1.124   1.563
 8476SOL    HW126327   5.923   1.111   1.660
 8476SOL    HW226328   5.985   1.157   1.516
 8477SOL     OW26329   5.650   0.209   2.013
 8477SOL    HW126330   5.669   0.262   1.931
 8477SOL    HW226331   5.704   0.125   2.011
 8478SOL     OW26332   0.187   0.236   5.058
 8478SOL    HW126333   0.216   0.272   5.146
 8478SOL    HW226334   0.192   0.136   5.059
 8479SOL     OW26335   0.530   3.166   0.489
 8479SOL    HW126336   0.457   3.105   0.519
 8479SOL    HW226337   0.490   3.251   0.454
 8480SOL     OW26338   4.041   3.852   0.583
 8480SOL    HW126339   4.075   3.845   0.677
 8480SOL    HW226340   4.015   3.762   0.549
 8481SOL     OW26341   4.073   2.214   3.487
 8481SOL    HW126342   4.130   2.282   3.440
 8481SOL    HW226343   4.022   2.162   3.419
 8482SOL     OW26344   4.232   1.150   6.872
 8482SOL    HW126345   4.208   1.053   6.877
 8482SOL    HW226346   4.243   1.186   6.965
 8483SOL     OW26347   3.969   5.143   3.459
 8483SOL    HW126348   3.973   5.213   3.530
 8483SOL    HW226349   3.888   5.086   3.472
 8484SOL     OW26350   5.968   5.930   5.212
 8484SOL    HW126351   5.916   5.890   5.137
 8484SOL    HW226352   5.920   6.011   5.247
 8485SOL     OW26353   3.762   1.452   0.026
 8485SOL    HW126354   3.721   1.363   0.003
 8485SOL    HW226355   3.793   1.451   0.121
 8486SOL     OW26356   5.995   2.343   4.044
 8486SOL    HW126357   5.972   2.277   4.116
 8486SOL    HW226358   6.090   2.329   4.016
 8487SOL     OW26359   6.663   2.284   6.200
 8487SOL    HW126360   6.759   2.307   6.215
 8487SOL    HW226361   6.633   2.220   6.271
 8488SOL     OW26362   4.396   5.240   2.139
 8488SOL    HW126363   4.490   5.259   2.170
 8488SOL    HW226364   4.399   5.193   2.051
 8489SOL     OW26365   6.387   2.316   2.189
 8489SOL    HW126366   6.352   2.262   2.112
 8489SOL    HW226367   6.317   2.382   2.217
 8490SOL     OW26368   3.043   0.090   0.024
 8490SOL    HW126369   2.955   0.043   0.028
 8490SOL    HW226370   3.106   0.038   6.993
 8491SOL     OW26371   2.904   5.952   1.938
 8491SOL    HW126372   2.859   5.874   1.893
 8491SOL    HW226373   2.958   6.002   1.870
 8492SOL     OW26374   6.368   6.102   4.576
 8492SOL    HW126375   6.335   6.026   4.520
 8492SOL    HW226376   6.453   6.138   4.538
 8493SOL     OW26377   5.018   0.970   6.052
 8493SOL    HW126378   5.044   1.030   5.977
 8493SOL    HW226379   4.986   1.024   6.130
 8494SOL     OW26380   6.601   3.323   2.102
 8494SOL    HW126381   6.612   3.253   2.172
 8494SOL    HW226382   6.686   3.330   2.049
 8495SOL     OW26383   5.959   5.020   6.295
 8495SOL    HW126384   6.019   5.099   6.285
 8495SOL    HW226385   5.999   4.956   6.361
 8496SOL     OW26386   5.429   2.409   3.036
 8496SOL    HW126387   5.346   2.358   3.012
 8496SOL    HW226388   5.492   2.348   3.086
 8497SOL     OW26389   6.382   0.323   2.887
 8497SOL    HW126390   6.327   0.402   2.859
 8497SOL    HW226391   6.435   0.290   2.808
 8498SOL     OW26392   4.805   0.015   3.910
 8498SOL    HW126393   4.750   0.068   3.845
 8498SOL    HW226394   4.896   7.026   3.871
 8499SOL     OW26395   5.935   0.143   5.444
 8499SOL    HW126396   5.882   0.228   5.445
 8499SOL    HW226397   6.031   0.164   5.423
 8500SOL     OW26398   1.216   0.511   6.650
 8500SOL    HW126399   1.238   0.446   6.577
 8500SOL    HW226400   1.122   0.543   6.638
 8501SOL     OW26401   2.204   1.244   6.351
 8501SOL    HW126402   2.106   1.239   6.371
 8501SOL    HW226403   2.219   1.237   6.253
 8502SOL     OW26404   6.980   3.827   6.954
 8502SOL    HW126405   6.914   3.822   0.003
 8502SOL    HW226406   7.011   3.922   6.943
 8503SOL     OW26407   5.077   1.863   5.788
 8503SOL    HW126408   5.106   1.948   5.834
 8503SOL    HW226409   5.091   1.786   5.850
 8504SOL     OW26410   1.314   0.293   2.521
 8504SOL    HW126411   1.338   0.229   2.594
 8504SOL    HW226412   1.217   0.317   2.528
 8505SOL     OW26413   5.362   2.819   2.440
 8505SOL    HW126414   5.267   2.849   2.447
 8505SOL    HW226415   5.366   2.726   2.403
 8506SOL     OW26416   1.202   0.147   6.310
 8506SOL    HW126417   1.281   0.177   6.256
 8506SOL    HW226418   1.183   0.051   6.290
 8507SOL     OW26419   2.966   5.867   5.516
 8507SOL    HW126420   2.956   5.778   5.473
 8507SOL    HW226421   3.043   5.866   5.579
 8508SOL     OW26422   2.609   1.248   6.835
 8508SOL    HW126423   2.536   1.271   6.900
 8508SOL    HW226424   2.573   1.185   6.766
 8509SOL     OW26425   5.599   1.834   2.356
 8509SOL    HW126426   5.598   1.908   2.289
 8509SOL    HW226427   5.506   1.801   2.370
 8510SOL     OW26428   0.338   1.194   4.623
 8510SOL    HW126429   0.387   1.179   4.709
 8510SOL    HW226430   0.400   1.238   4.557
 8511SOL     OW26431   6.075   1.908   3.232
 8511SOL    HW126432   5.990   1.960   3.233
 8511SOL    HW226433   6.055   1.811   3.220
 8512SOL     OW26434   2.461   6.414   5.519
 8512SOL    HW126435   2.518   6.493   5.541
 8512SOL    HW226436   2.446   6.360   5.602
 8513SOL     OW26437   5.496   6.088   6.757
 8513SOL    HW126438   5.499   6.188   6.748
 8513SOL    HW226439   5.408   6.061   6.797
 8514SOL     OW26440   3.798   5.901   3.552
 8514SOL    HW126441   3.739   5.962   3.603
 8514SOL    HW226442   3.759   5.883   3.461
 8515SOL     OW26443   5.937   2.544   1.354
 8515SOL    HW126444   5.920   2.470   1.420
 8515SOL    HW226445   5.942   2.631   1.403
 8516SOL     OW26446   0.020   2.003   2.194
 8516SOL    HW126447   0.012   1.974   2.099
 8516SOL    HW226448   0.034   2.101   2.199
 8517SOL     OW26449   1.185   3.975   0.129
 8517SOL    HW126450   1.156   3.883   0.106
 8517SOL    HW226451   1.133   4.041   0.075
 8518SOL     OW26452   3.159   5.781   0.910
 8518SOL    HW126453   3.123   5.801   0.819
 8518SOL    HW226454   3.112   5.701   0.947
 8519SOL     OW26455   2.604   5.776   3.470
 8519SOL    HW126456   2.547   5.699   3.498
 8519SOL    HW226457   2.659   5.807   3.548
 8520SOL     OW26458   3.330   6.853   0.168
 8520SOL    HW126459   3.336   6.755   0.183
 8520SOL    HW226460   3.268   6.871   0.091
 8521SOL     OW26461   1.736   0.622   1.389
 8521SOL    HW126462   1.752   0.523   1.392
 8521SOL    HW226463   1.823   0.669   1.372
 8522SOL     OW26464   2.218   6.651   4.130
 8522SOL    HW126465   2.293   6.608   4.080
 8522SOL    HW226466   2.224   6.626   4.227
 8523SOL     OW26467   1.205   6.592   6.654
 8523SOL    HW126468   1.201   6.579   6.555
 8523SOL    HW226469   1.113   6.606   6.690
 8524SOL     OW26470   1.090   1.673   6.724
 8524SOL    HW126471   1.041   1.663   6.637
 8524SOL    HW226472   1.025   1.683   6.799
 8525SOL     OW26473   5.438   3.936   4.024
 8525SOL    HW126474   5.391   3.893   4.101
 8525SOL    HW226475   5.469   3.865   3.960
 8526SOL     OW26476   2.092   3.586   2.215
 8526SOL    HW126477   2.154   3.569   2.138
 8526SOL    HW226478   2.104   3.514   2.284
 8527SOL     OW26479   4.370   0.810   3.870
 8527SOL    HW126480   4.426   0.861   3.804
 8527SOL    HW226481   4.420   0.799   3.956
 8528SOL     OW26482   5.949   2.148   0.003
 8528SOL    HW126483   5.928   2.117   0.095
 8528SOL    HW226484   5.994   2.075   6.978
 8529SOL     OW26485   6.879   5.388   6.110
 8529SOL    HW126486   6.823   5.352   6.185
 8529SOL    HW226487   6.975   5.365   6.127
 8530SOL     OW26488   2.092   4.676   6.438
 8530SOL    HW126489   2.147   4.664   6.520
 8530SOL    HW226490   2.037   4.594   6.422
 8531SOL     OW26491   3.927   4.803   1.976
 8531SOL    HW126492   3.845   4.746   1.962
 8531SOL    HW226493   3.962   4.788   2.068
 8532SOL     OW26494   1.319   3.743   0.939
 8532SOL    HW126495   1.249   3.813   0.959
 8532SOL    HW226496   1.382   3.779   0.870
 8533SOL     OW26497   4.544   6.448   5.549
 8533SOL    HW126498   4.467   6.420   5.491
 8533SOL    HW226499   4.511   6.513   5.618
 8534SOL     OW26500   1.948   2.833   2.028
 8534SOL    HW126501   1.914   2.742   2.049
 8534SOL    HW226502   1.895   2.871   1.952
 8535SOL     OW26503   6.852   3.560   5.009
 8535SOL    HW126504   6.758   3.526   5.005
 8535SOL    HW226505   6.909   3.494   5.058
 8536SOL     OW26506   6.091   1.717   5.505
 8536SOL    HW126507   6.129   1.687   5.417
 8536SOL    HW226508   6.152   1.785   5.545
 8537SOL     OW26509   5.040   6.304   3.013
 8537SOL    HW126510   5.049   6.336   3.108
 8537SOL    HW226511   5.078   6.373   2.951
 8538SOL     OW26512   5.189   0.833   5.606
 8538SOL    HW126513   5.175   0.932   5.606
 8538SOL    HW226514   5.211   0.802   5.699
 8539SOL     OW26515   0.407   3.432   3.094
 8539SOL    HW126516   0.432   3.418   2.998
 8539SOL    HW226517   0.413   3.530   3.116
 8540SOL     OW26518   3.840   6.856   6.701
 8540SOL    HW126519   3.899   6.922   6.748
 8540SOL    HW226520   3.745   6.873   6.727
 8541SOL     OW26521   3.200   6.322   5.214
 8541SOL    HW126522   3.138   6.292   5.286
 8541SOL    HW226523   3.276   6.374   5.254
 8542SOL     OW26524   0.972   5.312   5.528
 8542SOL    HW126525   0.928   5.222   5.521
 8542SOL    HW226526   0.993   5.332   5.624
 8543SOL     OW26527   2.898   2.754   5.454
 8543SOL    HW126528   2.976   2.706   5.412
 8543SOL    HW226529   2.898   2.737   5.553
 8544SOL     OW26530   5.445   4.485   5.269
 8544SOL    HW126531   5.470   4.577   5.238
 8544SOL    HW226532   5.523   4.424   5.255
 8545SOL     OW26533   1.855   6.909   6.235
 8545SOL    HW126534   1.917   6.878   6.308
 8545SOL    HW226535   1.848   6.838   6.165
 8546SOL     OW26536   4.546   1.520   3.671
 8546SOL    HW126537   4.590   1.445   3.623
 8546SOL    HW226538   4.486   1.570   3.608
 8547SOL     OW26539   5.527   6.332   6.023
 8547SOL    HW126540   5.429   6.308   6.024
 8547SOL    HW226541   5.559   6.338   5.928
 8548SOL     OW26542   0.960   4.713   4.724
 8548SOL    HW126543   0.863   4.704   4.703
 8548SOL    HW226544   1.007   4.627   4.707
 8549SOL     OW26545   1.672   0.313   4.108
 8549SOL    HW126546   1.681   0.222   4.066
 8549SOL    HW226547   1.611   0.307   4.187
 8550SOL     OW26548   6.883   4.923   5.879
 8550SOL    HW126549   6.811   4.919   5.948
 8550SOL    HW226550   6.966   4.962   5.919
 8551SOL     OW26551   3.888   0.553   4.796
 8551SOL    HW126552   3.802   0.548   4.846
 8551SOL    HW226553   3.952   0.486   4.834
 8552SOL     OW26554   3.241   1.546   1.912
 8552SOL    HW126555   3.273   1.564   2.005
 8552SOL    HW226556   3.301   1.479   1.869
 8553SOL     OW26557   4.768   3.716   0.670
 8553SOL    HW126558   4.684   3.664   0.653
 8553SOL    HW226559   4.746   3.801   0.716
 8554SOL     OW26560   1.617   0.622   6.773
 8554SOL    HW126561   1.595   0.574   6.858
 8554SOL    HW226562   1.532   0.657   6.732
 8555SOL     OW26563   3.981   1.900   3.747
 8555SOL    HW126564   4.023   1.840   3.679
 8555SOL    HW226565   3.965   1.848   3.831
 8556SOL     OW26566   0.692   5.495   5.751
 8556SOL    HW126567   0.789   5.515   5.734
 8556SOL    HW226568   0.664   5.416   5.696
 8557SOL     OW26569   6.625   0.638   6.305
 8557SOL    HW126570   6.595   0.728   6.274
 8557SOL    HW226571   6.549   0.573   6.295
 8558SOL     OW26572   2.954   5.752   4.151
 8558SOL    HW126573   2.928   5.689   4.224
 8558SOL    HW226574   3.005   5.702   4.081
 8559SOL     OW26575   1.629   3.885   2.339
 8559SOL    HW126576   1.647   3.793   2.375
 8559SOL    HW226577   1.716   3.934   2.329
 8560SOL     OW26578   3.479   4.195   1.238
 8560SOL    HW126579   3.388   4.234   1.249
 8560SOL    HW226580   3.478   4.099   1.264
 8561SOL     OW26581   3.565   0.344   2.744
 8561SOL    HW126582   3.534   0.401   2.667
 8561SOL    HW226583   3.523   0.376   2.828
 8562SOL     OW26584   5.671   2.536   6.828
 8562SOL    HW126585   5.740   2.578   6.769
 8562SOL    HW226586   5.713   2.514   6.916
 8563SOL     OW26587   2.617   5.063   2.920
 8563SOL    HW126588   2.541   5.054   2.984
 8563SOL    HW226589   2.619   5.156   2.883
 8564SOL     OW26590   4.024   6.453   0.830
 8564SOL    HW126591   3.992   6.377   0.886
 8564SOL    HW226592   3.977   6.451   0.741
 8565SOL     OW26593   1.305   4.719   1.292
 8565SOL    HW126594   1.267   4.742   1.202
 8565SOL    HW226595   1.235   4.730   1.362
 8566SOL     OW26596   3.217   0.278   2.794
 8566SOL    HW126597   3.278   0.222   2.850
 8566SOL    HW226598   3.148   0.321   2.852
 8567SOL     OW26599   1.575   2.471   2.308
 8567SOL    HW126600   1.663   2.489   2.350
 8567SOL    HW226601   1.577   2.383   2.261
 8568SOL     OW26602   6.073   0.876   6.060
 8568SOL    HW126603   6.042   0.785   6.085
 8568SOL    HW226604   6.052   0.893   5.964
 8569SOL     OW26605   4.892   2.316   0.588
 8569SOL    HW126606   4.922   2.265   0.507
 8569SOL    HW226607   4.903   2.258   0.669
 8570SOL     OW26608   2.278   1.991   2.611
 8570SOL    HW126609   2.209   1.918   2.612
 8570SOL    HW226610   2.353   1.965   2.551
 8571SOL     OW26611   1.469   0.684   3.041
 8571SOL    HW126612   1.567   0.677   3.021
 8571SOL    HW226613   1.436   0.774   3.013
 8572SOL     OW26614   2.742   4.116   5.988
 8572SOL    HW126615   2.643   4.132   5.980
 8572SOL    HW226616   2.785   4.136   5.900
 8573SOL     OW26617   2.655   6.249   6.323
 8573SOL    HW126618   2.586   6.192   6.277
 8573SOL    HW226619   2.738   6.251   6.268
 8574SOL     OW26620   4.761   1.099   5.515
 8574SOL    HW126621   4.708   1.054   5.587
 8574SOL    HW226622   4.752   1.046   5.430
 8575SOL     OW26623   3.365   6.100   3.905
 8575SOL    HW126624   3.290   6.036   3.919
 8575SOL    HW226625   3.427   6.097   3.983
 8576SOL     OW26626   1.812   4.668   3.670
 8576SOL    HW126627   1.762   4.753   3.655
 8576SOL    HW226628   1.902   4.688   3.708
 8577SOL     OW26629   1.465   0.784   0.571
 8577SOL    HW126630   1.560   0.813   0.582
 8577SOL    HW226631   1.409   0.862   0.545
 8578SOL     OW26632   1.532   6.993   6.162
 8578SOL    HW126633   1.542   0.046   6.223
 8578SOL    HW226634   1.582   6.915   6.200
 8579SOL     OW26635   3.133   6.608   2.443
 8579SOL    HW126636   3.036   6.606   2.417
 8579SOL    HW226637   3.173   6.694   2.413
 8580SOL     OW26638   1.764   0.463   2.105
 8580SOL    HW126639   1.740   0.539   2.044
 8580SOL    HW226640   1.813   0.498   2.184
 8581SOL     OW26641   3.746   4.318   1.443
 8581SOL    HW126642   3.664   4.284   1.398
 8581SOL    HW226643   3.726   4.340   1.538
 8582SOL     OW26644   4.379   5.231   5.626
 8582SOL    HW126645   4.336   5.141   5.629
 8582SOL    HW226646   4.461   5.231   5.683
 8583SOL     OW26647   3.401   6.540   2.762
 8583SOL    HW126648   3.406   6.467   2.694
 8583SOL    HW226649   3.444   6.622   2.726
 8584SOL     OW26650   6.249   1.368   4.491
 8584SOL    HW126651   6.299   1.352   4.405
 8584SOL    HW226652   6.217   1.462   4.494
 8585SOL     OW26653   5.146   2.636   2.843
 8585SOL    HW126654   5.229   2.626   2.788
 8585SOL    HW226655   5.125   2.734   2.854
 8586SOL     OW26656   6.151   5.790   5.702
 8586SOL    HW126657   6.157   5.715   5.635
 8586SOL    HW226658   6.121   5.753   5.790
 8587SOL     OW26659   6.947   1.325   6.637
 8587SOL    HW126660   6.989   1.413   6.660
 8587SOL    HW226661   6.997   1.251   6.682
 8588SOL     OW26662   2.090   0.869   5.151
 8588SOL    HW126663   2.029   0.825   5.084
 8588SOL    HW226664   2.052   0.857   5.243
 8589SOL     OW26665   5.612   2.815   6.856
 8589SOL    HW126666   5.618   2.724   6.814
 8589SOL    HW226667   5.703   2.855   6.862
 8590SOL     OW26668   0.659   1.395   4.051
 8590SOL    HW126669   0.735   1.447   4.013
 8590SOL    HW226670   0.572   1.432   4.018
 8591SOL     OW26671   0.193   4.310   5.395
 8591SOL    HW126672   0.205   4.214   5.367
 8591SOL    HW226673   0.120   4.351   5.341
 8592SOL     OW26674   0.155   1.684   4.088
 8592SOL    HW126675   0.227   1.745   4.054
 8592SOL    HW226676   0.108   1.642   4.010
 8593SOL     OW26677   5.855   1.148   6.907
 8593SOL    HW126678   5.814   1.178   6.821
 8593SOL    HW226679   5.951   1.124   6.892
 8594SOL     OW26680   5.937   3.934   6.155
 8594SOL    HW126681   6.007   3.977   6.099
 8594SOL    HW226682   5.971   3.920   6.247
 8595SOL     OW26683   5.560   6.308   3.388
 8595SOL    HW126684   5.622   6.265   3.453
 8595SOL    HW226685   5.468   6.272   3.402
 8596SOL     OW26686   0.773   1.879   4.635
 8596SOL    HW126687   0.750   1.797   4.583
 8596SOL    HW226688   0.871   1.880   4.654
 8597SOL     OW26689   6.070   2.972   6.285
 8597SOL    HW126690   6.110   3.049   6.235
 8597SOL    HW226691   5.972   2.987   6.295
 8598SOL     OW26692   6.646   0.448   4.943
 8598SOL    HW126693   6.678   0.537   4.911
 8598SOL    HW226694   6.698   0.375   4.898
 8599SOL     OW26695   6.416   3.733   4.704
 8599SOL    HW126696   6.341   3.679   4.743
 8599SOL    HW226697   6.503   3.693   4.731
 8600SOL     OW26698   4.449   2.559   1.430
 8600SOL    HW126699   4.430   2.534   1.335
 8600SOL    HW226700   4.494   2.648   1.433
 8601SOL     OW26701   6.623   5.815   3.386
 8601SOL    HW126702   6.558   5.888   3.365
 8601SOL    HW226703   6.716   5.852   3.388
 8602SOL     OW26704   1.963   6.621   5.391
 8602SOL    HW126705   1.871   6.660   5.391
 8602SOL    HW226706   2.028   6.689   5.425
 8603SOL     OW26707   0.252   0.500   6.571
 8603SOL    HW126708   0.309   0.421   6.594
 8603SOL    HW226709   0.175   0.470   6.514
 8604SOL     OW26710   2.184   5.117   6.140
 8604SOL    HW126711   2.114   5.116   6.211
 8604SOL    HW226712   2.227   5.027   6.135
 8605SOL     OW26713   0.302   5.288   4.095
 8605SOL    HW126714   0.215   5.286   4.045
 8605SOL    HW226715   0.378   5.280   4.029
 8606SOL     OW26716   1.587   1.307   0.178
 8606SOL    HW126717   1.594   1.211   0.150
 8606SOL    HW226718   1.531   1.313   0.261
 8607SOL     OW26719   2.363   3.634   1.002
 8607SOL    HW126720   2.325   3.543   0.984
 8607SOL    HW226721   2.458   3.624   1.033
 8608SOL     OW26722   1.868   5.841   2.794
 8608SOL    HW126723   1.926   5.921   2.804
 8608SOL    HW226724   1.871   5.809   2.699
 8609SOL     OW26725   4.860   1.951   4.378
 8609SOL    HW126726   4.825   2.025   4.320
 8609SOL    HW226727   4.959   1.958   4.386
 8610SOL     OW26728   0.469   5.888   3.433
 8610SOL    HW126729   0.553   5.934   3.459
 8610SOL    HW226730   0.461   5.885   3.334
 8611SOL     OW26731   1.982   1.566   4.952
 8611SOL    HW126732   2.063   1.571   5.011
 8611SOL    HW226733   2.011   1.557   4.857
 8612SOL     OW26734   3.210   2.950   4.316
 8612SOL    HW126735   3.223   2.954   4.217
 8612SOL    HW226736   3.299   2.939   4.361
 8613SOL     OW26737   3.802   3.006   2.969
 8613SOL    HW126738   3.719   2.964   3.004
 8613SOL    HW226739   3.778   3.073   2.899
 8614SOL     OW26740   0.632   2.452   3.381
 8614SOL    HW126741   0.727   2.420   3.387
 8614SOL    HW226742   0.623   2.540   3.426
 8615SOL     OW26743   3.332   2.261   5.563
 8615SOL    HW126744   3.381   2.174   5.560
 8615SOL    HW226745   3.333   2.303   5.472
 8616SOL     OW26746   5.638   3.996   4.349
 8616SOL    HW126747   5.545   3.985   4.314
 8616SOL    HW226748   5.662   4.093   4.350
 8617SOL     OW26749   1.849   6.873   2.847
 8617SOL    HW126750   1.780   6.881   2.775
 8617SOL    HW226751   1.929   6.826   2.811
 8618SOL     OW26752   5.785   4.042   0.989
 8618SOL    HW126753   5.694   4.064   1.025
 8618SOL    HW226754   5.780   4.033   0.890
 8619SOL     OW26755   5.637   5.752   0.510
 8619SOL    HW126756   5.602   5.825   0.450
 8619SOL    HW226757   5.724   5.781   0.549
 8620SOL     OW26758   2.183   6.938   4.318
 8620SOL    HW126759   2.156   0.007   4.333
 8620SOL    HW226760   2.260   6.915   4.378
 8621SOL     OW26761   5.737   3.403   1.587
 8621SOL    HW126762   5.785   3.475   1.636
 8621SOL    HW226763   5.698   3.440   1.503
 8622SOL     OW26764   0.314   5.376   2.487
 8622SOL    HW126765   0.246   5.420   2.546
 8622SOL    HW226766   0.273   5.358   2.397
 8623SOL     OW26767   2.196   2.544   4.114
 8623SOL    HW126768   2.157   2.509   4.028
 8623SOL    HW226769   2.296   2.547   4.106
 8624SOL     OW26770   3.441   3.811   4.899
 8624SOL    HW126771   3.444   3.721   4.943
 8624SOL    HW226772   3.346   3.843   4.895
 8625SOL     OW26773   4.053   3.133   5.599
 8625SOL    HW126774   4.071   3.042   5.636
 8625SOL    HW226775   4.086   3.138   5.505
 8626SOL     OW26776   4.293   2.182   1.579
 8626SOL    HW126777   4.278   2.205   1.675
 8626SOL    HW226778   4.309   2.083   1.570
 8627SOL     OW26779   1.843   1.153   2.600
 8627SOL    HW126780   1.810   1.168   2.693
 8627SOL    HW226781   1.935   1.191   2.590
 8628SOL     OW26782   0.953   6.741   0.967
 8628SOL    HW126783   0.882   6.794   1.012
 8628SOL    HW226784   0.957   6.765   0.870
 8629SOL     OW26785   0.475   6.582   4.742
 8629SOL    HW126786   0.571   6.607   4.752
 8629SOL    HW226787   0.468   6.484   4.722
 8630SOL     OW26788   5.062   2.387   2.646
 8630SOL    HW126789   4.972   2.347   2.664
 8630SOL    HW226790   5.079   2.459   2.713
 8631SOL     OW26791   2.429   6.079   6.304
 8631SOL    HW126792   2.406   6.012   6.234
 8631SOL    HW226793   2.345   6.116   6.343
 8632SOL     OW26794   5.695   5.850   4.149
 8632SOL    HW126795   5.787   5.854   4.189
 8632SOL    HW226796   5.628   5.835   4.222
 8633SOL     OW26797   5.840   3.492   5.032
 8633SOL    HW126798   5.911   3.556   5.062
 8633SOL    HW226799   5.813   3.513   4.938
 8634SOL     OW26800   5.071   4.242   7.005
 8634SOL    HW126801   5.052   4.335   6.974
 8634SOL    HW226802   4.987   4.188   7.004
 8635SOL     OW26803   5.132   2.460   6.685
 8635SOL    HW126804   5.230   2.444   6.670
 8635SOL    HW226805   5.096   2.519   6.613
 8636SOL     OW26806   4.443   6.349   1.747
 8636SOL    HW126807   4.477   6.427   1.801
 8636SOL    HW226808   4.349   6.367   1.718
 8637SOL     OW26809   1.888   1.935   6.187
 8637SOL    HW126810   1.943   1.881   6.123
 8637SOL    HW226811   1.923   2.028   6.191
 8638SOL     OW26812   4.842   2.919   3.848
 8638SOL    HW126813   4.899   2.904   3.767
 8638SOL    HW226814   4.874   3.001   3.897
 8639SOL     OW26815   3.321   3.739   6.952
 8639SOL    HW126816   3.402   3.695   6.990
 8639SOL    HW226817   3.316   3.833   6.984
 8640SOL     OW26818   3.519   2.673   0.836
 8640SOL    HW126819   3.451   2.622   0.889
 8640SOL    HW226820   3.475   2.750   0.790
 8641SOL     OW26821   3.925   4.924   2.586
 8641SOL    HW126822   3.932   4.957   2.491
 8641SOL    HW226823   3.980   4.984   2.645
 8642SOL     OW26824   1.352   5.783   2.793
 8642SOL    HW126825   1.325   5.835   2.712
 8642SOL    HW226826   1.292   5.808   2.869
 8643SOL     OW26827   3.930   6.898   1.247
 8643SOL    HW126828   4.008   6.896   1.185
 8643SOL    HW226829   3.868   6.972   1.222
 8644SOL     OW26830   6.372   2.322   6.073
 8644SOL    HW126831   6.390   2.420   6.087
 8644SOL    HW226832   6.279   2.301   6.101
 8645SOL     OW26833   6.309   5.848   2.952
 8645SOL    HW126834   6.377   5.869   2.882
 8645SOL    HW226835   6.217   5.865   2.916
 8646SOL     OW26836   6.729   2.315   5.299
 8646SOL    HW126837   6.815   2.345   5.339
 8646SOL    HW226838   6.740   2.222   5.262
 8647SOL     OW26839   1.969   5.553   1.743
 8647SOL    HW126840   1.951   5.506   1.657
 8647SOL    HW226841   1.993   5.485   1.813
 8648SOL     OW26842   5.277   5.529   0.308
 8648SOL    HW126843   5.289   5.464   0.383
 8648SOL    HW226844   5.298   5.621   0.340
 8649SOL     OW26845   5.181   1.230   0.981
 8649SOL    HW126846   5.233   1.155   1.021
 8649SOL    HW226847   5.203   1.315   1.029
 8650SOL     OW26848   2.111   0.356   5.517
 8650SOL    HW126849   2.083   0.293   5.589
 8650SOL    HW226850   2.072   0.325   5.430
 8651SOL     OW26851   3.897   2.532   1.656
 8651SOL    HW126852   3.814   2.553   1.707
 8651SOL    HW226853   3.944   2.454   1.698
 8652SOL     OW26854   0.725   2.835   3.452
 8652SOL    HW126855   0.788   2.845   3.375
 8652SOL    HW226856   0.675   2.921   3.465
 8653SOL     OW26857   5.888   1.582   6.400
 8653SOL    HW126858   5.931   1.524   6.331
 8653SOL    HW226859   5.801   1.618   6.365
 8654SOL     OW26860   0.530   4.257   2.948
 8654SOL    HW126861   0.454   4.286   3.007
 8654SOL    HW226862   0.524   4.158   2.934
 8655SOL     OW26863   0.846   0.275   4.828
 8655SOL    HW126864   0.890   0.331   4.898
 8655SOL    HW226865   0.830   0.330   4.746
 8656SOL     OW26866   5.406   6.861   1.258
 8656SOL    HW126867   5.416   6.858   1.159
 8656SOL    HW226868   5.464   6.790   1.299
 8657SOL     OW26869   3.287   2.145   3.181
 8657SOL    HW126870   3.315   2.096   3.263
 8657SOL    HW226871   3.355   2.216   3.160
 8658SOL     OW26872   6.040   4.788   1.833
 8658SOL    HW126873   5.967   4.726   1.803
 8658SOL    HW226874   6.127   4.758   1.794
 8659SOL     OW26875   3.600   0.912   2.408
 8659SOL    HW126876   3.609   0.866   2.496
 8659SOL    HW226877   3.533   0.986   2.415
 8660SOL     OW26878   0.420   4.820   1.724
 8660SOL    HW126879   0.503   4.770   1.747
 8660SOL    HW226880   0.439   4.918   1.720
 8661SOL     OW26881   0.021   3.600   2.186
 8661SOL    HW126882   0.024   3.609   2.086
 8661SOL    HW226883   0.044   3.506   2.211
 8662SOL     OW26884   1.404   2.669   2.939
 8662SOL    HW126885   1.312   2.631   2.947
 8662SOL    HW226886   1.467   2.617   2.996
 8663SOL     OW26887   3.643   4.905   2.605
 8663SOL    HW126888   3.615   4.809   2.602
 8663SOL    HW226889   3.742   4.912   2.596
 8664SOL     OW26890   3.967   6.183   3.520
 8664SOL    HW126891   3.974   6.281   3.502
 8664SOL    HW226892   3.980   6.166   3.618
 8665SOL     OW26893   4.703   3.744   6.621
 8665SOL    HW126894   4.642   3.821   6.644
 8665SOL    HW226895   4.798   3.771   6.636
 8666SOL     OW26896   4.429   0.041   2.779
 8666SOL    HW126897   4.329   0.039   2.780
 8666SOL    HW226898   4.461   0.105   2.710
 8667SOL     OW26899   5.231   2.156   2.594
 8667SOL    HW126900   5.322   2.189   2.619
 8667SOL    HW226901   5.174   2.233   2.568
 8668SOL     OW26902   4.892   2.513   4.743
 8668SOL    HW126903   4.817   2.525   4.809
 8668SOL    HW226904   4.872   2.435   4.683
 8669SOL     OW26905   6.420   6.420   5.819
 8669SOL    HW126906   6.339   6.389   5.769
 8669SOL    HW226907   6.410   6.399   5.916
 8670SOL     OW26908   6.514   4.930   5.476
 8670SOL    HW126909   6.507   4.858   5.407
 8670SOL    HW226910   6.606   4.969   5.474
 8671SOL     OW26911   6.795   3.314   2.873
 8671SOL    HW126912   6.880   3.269   2.845
 8671SOL    HW226913   6.722   3.246   2.880
 8672SOL     OW26914   0.153   1.557   2.487
 8672SOL    HW126915   0.062   1.515   2.486
 8672SOL    HW226916   0.152   1.638   2.428
 8673SOL     OW26917   1.218   1.784   0.953
 8673SOL    HW126918   1.147   1.819   1.014
 8673SOL    HW226919   1.205   1.821   0.861
 8674SOL     OW26920   6.882   3.917   2.904
 8674SOL    HW126921   6.929   4.002   2.876
 8674SOL    HW226922   6.937   3.870   2.973
 8675SOL     OW26923   4.333   2.277   4.915
 8675SOL    HW126924   4.415   2.264   4.971
 8675SOL    HW226925   4.259   2.311   4.972
 8676SOL     OW26926   5.230   2.168   1.228
 8676SOL    HW126927   5.291   2.121   1.164
 8676SOL    HW226928   5.135   2.142   1.208
 8677SOL     OW26929   2.194   0.058   6.235
 8677SOL    HW126930   2.137   0.078   6.155
 8677SOL    HW226931   2.248   7.002   6.217
 8678SOL     OW26932   2.522   2.591   0.427
 8678SOL    HW126933   2.426   2.580   0.452
 8678SOL    HW226934   2.542   2.688   0.413
 8679SOL     OW26935   0.973   1.679   6.488
 8679SOL    HW126936   0.905   1.650   6.421
 8679SOL    HW226937   1.060   1.634   6.468
 8680SOL     OW26938   6.875   0.585   0.520
 8680SOL    HW126939   6.878   0.682   0.499
 8680SOL    HW226940   6.962   0.542   0.495
 8681SOL     OW26941   4.864   5.120   1.124
 8681SOL    HW126942   4.884   5.101   1.220
 8681SOL    HW226943   4.845   5.034   1.076
 8682SOL     OW26944   2.358   0.862   2.362
 8682SOL    HW126945   2.404   0.824   2.442
 8682SOL    HW226946   2.281   0.803   2.336
 8683SOL     OW26947   2.299   4.655   4.354
 8683SOL    HW126948   2.328   4.565   4.322
 8683SOL    HW226949   2.242   4.645   4.435
 8684SOL     OW26950   2.497   4.451   3.292
 8684SOL    HW126951   2.409   4.411   3.317
 8684SOL    HW226952   2.500   4.468   3.194
 8685SOL     OW26953   5.018   3.065   4.468
 8685SOL    HW126954   4.953   3.087   4.396
 8685SOL    HW226955   4.984   3.100   4.555
 8686SOL     OW26956   1.351   5.428   3.409
 8686SOL    HW126957   1.339   5.461   3.502
 8686SOL    HW226958   1.343   5.328   3.408
 8687SOL     OW26959   5.742   4.881   4.912
 8687SOL    HW126960   5.760   4.889   4.814
 8687SOL    HW226961   5.715   4.787   4.933
 8688SOL     OW26962   1.212   3.760   5.318
 8688SOL    HW126963   1.139   3.767   5.386
 8688SOL    HW226964   1.299   3.785   5.360
 8689SOL     OW26965   4.049   3.258   0.661
 8689SOL    HW126966   4.112   3.336   0.667
 8689SOL    HW226967   4.092   3.178   0.702
 8690SOL     OW26968   1.583   1.771   2.359
 8690SOL    HW126969   1.653   1.707   2.327
 8690SOL    HW226970   1.608   1.864   2.333
 8691SOL     OW26971   3.409   2.686   5.785
 8691SOL    HW126972   3.491   2.675   5.728
 8691SOL    HW226973   3.352   2.760   5.747
 8692SOL     OW26974   4.861   3.148   4.261
 8692SOL    HW126975   4.885   3.231   4.313
 8692SOL    HW226976   4.922   3.140   4.182
 8693SOL     OW26977   6.220   6.915   5.480
 8693SOL    HW126978   6.198   6.876   5.391
 8693SOL    HW226979   6.205   7.014   5.478
 8694SOL     OW26980   5.217   3.001   5.647
 8694SOL    HW126981   5.261   2.929   5.701
 8694SOL    HW226982   5.250   2.995   5.552
 8695SOL     OW26983   3.387   5.323   1.223
 8695SOL    HW126984   3.436   5.253   1.172
 8695SOL    HW226985   3.349   5.283   1.306
 8696SOL     OW26986   2.699   5.738   5.872
 8696SOL    HW126987   2.764   5.717   5.945
 8696SOL    HW226988   2.621   5.676   5.878
 8697SOL     OW26989   1.061   4.097   5.354
 8697SOL    HW126990   1.157   4.115   5.335
 8697SOL    HW226991   1.004   4.156   5.296
 8698SOL     OW26992   4.545   5.116   6.662
 8698SOL    HW126993   4.474   5.065   6.711
 8698SOL    HW226994   4.620   5.055   6.638
 8699SOL     OW26995   1.865   2.332   0.379
 8699SOL    HW126996   1.809   2.398   0.429
 8699SOL    HW226997   1.808   2.254   0.351
 8700SOL     OW26998   0.800   1.360   4.618
 8700SOL    HW126999   0.712   1.333   4.578
 8700SOL    HW227000   0.864   1.283   4.612
 8701SOL     OW27001   1.174   2.781   6.557
 8701SOL    HW127002   1.084   2.744   6.534
 8701SOL    HW227003   1.214   2.823   6.476
 8702SOL     OW27004   5.714   4.450   1.158
 8702SOL    HW127005   5.710   4.453   1.058
 8702SOL    HW227006   5.641   4.508   1.196
 8703SOL     OW27007   2.984   6.020   1.256
 8703SOL    HW127008   2.915   5.953   1.284
 8703SOL    HW227009   2.994   6.090   1.328
 8704SOL     OW27010   0.189   1.270   4.964
 8704SOL    HW127011   0.134   1.353   4.969
 8704SOL    HW227012   0.141   1.195   5.010
 8705SOL     OW27013   3.842   2.158   6.828
 8705SOL    HW127014   3.781   2.190   6.901
 8705SOL    HW227015   3.936   2.186   6.848
 8706SOL     OW27016   4.633   2.517   6.776
 8706SOL    HW127017   4.717   2.475   6.810
 8706SOL    HW227018   4.607   2.474   6.689
 8707SOL     OW27019   2.186   0.710   4.189
 8707SOL    HW127020   2.240   0.648   4.246
 8707SOL    HW227021   2.089   0.701   4.214
 8708SOL     OW27022   6.172   2.326   0.823
 8708SOL    HW127023   6.098   2.264   0.849
 8708SOL    HW227024   6.196   2.384   0.901
 8709SOL     OW27025   6.196   6.579   4.583
 8709SOL    HW127026   6.246   6.563   4.668
 8709SOL    HW227027   6.208   6.674   4.555
 8710SOL     OW27028   1.911   1.795   3.402
 8710SOL    HW127029   2.000   1.836   3.423
 8710SOL    HW227030   1.913   1.698   3.424
 8711SOL     OW27031   1.607   1.294   1.659
 8711SOL    HW127032   1.566   1.203   1.665
 8711SOL    HW227033   1.592   1.331   1.568
 8712SOL     OW27034   1.232   4.560   4.431
 8712SOL    HW127035   1.287   4.506   4.367
 8712SOL    HW227036   1.292   4.623   4.481
 8713SOL     OW27037   0.426   3.240   1.617
 8713SOL    HW127038   0.477   3.317   1.580
 8713SOL    HW227039   0.483   3.193   1.686
 8714SOL     OW27040   6.019   4.214   6.657
 8714SOL    HW127041   6.061   4.288   6.605
 8714SOL    HW227042   6.053   4.215   6.751
 8715SOL     OW27043   1.993   4.634   1.733
 8715SOL    HW127044   2.043   4.606   1.651
 8715SOL    HW227045   2.054   4.628   1.812
 8716SOL     OW27046   6.844   0.479   2.099
 8716SOL    HW127047   6.794   0.544   2.157
 8716SOL    HW227048   6.778   0.419   2.052
 8717SOL     OW27049   3.064   2.856   0.366
 8717SOL    HW127050   3.163   2.860   0.377
 8717SOL    HW227051   3.023   2.943   0.392
 8718SOL     OW27052   2.794   5.482   6.506
 8718SOL    HW127053   2.777   5.482   6.408
 8718SOL    HW227054   2.753   5.401   6.547
 8719SOL     OW27055   3.411   1.373   4.873
 8719SOL    HW127056   3.488   1.382   4.937
 8719SOL    HW227057   3.347   1.448   4.888
 8720SOL     OW27058   1.246   5.619   4.741
 8720SOL    HW127059   1.267   5.558   4.817
 8720SOL    HW227060   1.286   5.583   4.657
 8721SOL     OW27061   0.554   6.939   0.580
 8721SOL    HW127062   0.506   6.877   0.517
 8721SOL    HW227063   0.603   6.885   0.649
 8722SOL     OW27064   3.022   0.933   0.752
 8722SOL    HW127065   2.938   0.975   0.787
 8722SOL    HW227066   3.094   0.940   0.821
 8723SOL     OW27067   4.470   0.136   1.910
 8723SOL    HW127068   4.472   0.062   1.843
 8723SOL    HW227069   4.377   0.170   1.920
 8724SOL     OW27070   3.626   1.453   5.232
 8724SOL    HW127071   3.611   1.433   5.135
 8724SOL    HW227072   3.644   1.367   5.281
 8725SOL     OW27073   6.826   0.419   2.989
 8725SOL    HW127074   6.739   0.371   2.999
 8725SOL    HW227075   6.857   0.451   3.078
 8726SOL     OW27076   6.149   0.988   1.000
 8726SOL    HW127077   6.198   1.031   0.924
 8726SOL    HW227078   6.213   0.970   1.074
 8727SOL     OW27079   5.551   6.196   0.250
 8727SOL    HW127080   5.606   6.254   0.310
 8727SOL    HW227081   5.600   6.180   0.165
 8728SOL     OW27082   6.395   0.107   4.808
 8728SOL    HW127083   6.411   0.086   4.905
 8728SOL    HW227084   6.347   0.030   4.765
 8729SOL     OW27085   5.581   5.694   5.923
 8729SOL    HW127086   5.572   5.785   5.962
 8729SOL    HW227087   5.618   5.700   5.831
 8730SOL     OW27088   4.235   4.742   1.550
 8730SOL    HW127089   4.248   4.667   1.485
 8730SOL    HW227090   4.169   4.807   1.513
 8731SOL     OW27091   6.788   1.535   4.067
 8731SOL    HW127092   6.804   1.563   4.161
 8731SOL    HW227093   6.874   1.542   4.015
 8732SOL     OW27094   4.968   6.412   5.873
 8732SOL    HW127095   4.981   6.385   5.969
 8732SOL    HW227096   4.873   6.394   5.847
 8733SOL     OW27097   6.495   4.940   2.351
 8733SOL    HW127098   6.414   4.960   2.407
 8733SOL    HW227099   6.471   4.873   2.281
 8734SOL     OW27100   1.073   4.529   0.848
 8734SOL    HW127101   1.146   4.501   0.786
 8734SOL    HW227102   1.105   4.604   0.906
 8735SOL     OW27103   1.286   3.145   5.347
 8735SOL    HW127104   1.339   3.172   5.267
 8735SOL    HW227105   1.197   3.110   5.319
 8736SOL     OW27106   1.391   5.876   3.328
 8736SOL    HW127107   1.465   5.812   3.307
 8736SOL    HW227108   1.421   5.969   3.312
 8737SOL     OW27109   0.606   5.811   0.048
 8737SOL    HW127110   0.512   5.831   0.075
 8737SOL    HW227111   0.669   5.851   0.115
 8738SOL     OW27112   1.667   2.831   2.609
 8738SOL    HW127113   1.597   2.845   2.539
 8738SOL    HW227114   1.753   2.869   2.577
 8739SOL     OW27115   5.906   4.945   4.062
 8739SOL    HW127116   5.830   4.984   4.113
 8739SOL    HW227117   5.965   5.018   4.028
 8740SOL     OW27118   3.380   1.577   3.858
 8740SOL    HW127119   3.409   1.642   3.928
 8740SOL    HW227120   3.426   1.599   3.772
 8741SOL     OW27121   1.083   1.684   2.738
 8741SOL    HW127122   1.152   1.618   2.709
 8741SOL    HW227123   1.034   1.718   2.658
 8742SOL     OW27124   2.735   2.551   1.749
 8742SOL    HW127125   2.792   2.522   1.826
 8742SOL    HW227126   2.792   2.562   1.668
 8743SOL     OW27127   0.703   3.021   0.980
 8743SOL    HW127128   0.778   3.038   1.044
 8743SOL    HW227129   0.699   3.095   0.913
 8744SOL     OW27130   3.694   4.262   5.874
 8744SOL    HW127131   3.724   4.265   5.969
 8744SOL    HW227132   3.736   4.184   5.828
 8745SOL     OW27133   5.960   1.488   6.133
 8745SOL    HW127134   5.947   1.389   6.143
 8745SOL    HW227135   6.056   1.510   6.150
 8746SOL     OW27136   4.115   4.847   5.115
 8746SOL    HW127137   4.045   4.800   5.170
 8746SOL    HW227138   4.074   4.927   5.071
 8747SOL     OW27139   1.280   0.503   2.880
 8747SOL    HW127140   1.193   0.532   2.841
 8747SOL    HW227141   1.298   0.557   2.963
 8748SOL     OW27142   5.499   1.675   4.649
 8748SOL    HW127143   5.548   1.622   4.581
 8748SOL    HW227144   5.473   1.616   4.726
 8749SOL     OW27145   2.805   1.090   4.077
 8749SOL    HW127146   2.829   1.140   3.994
 8749SOL    HW227147   2.867   1.117   4.151
 8750SOL     OW27148   3.878   3.736   1.331
 8750SOL    HW127149   3.821   3.678   1.389
 8750SOL    HW227150   3.848   3.729   1.236
 8751SOL     OW27151   2.778   0.018   0.232
 8751SOL    HW127152   2.862   6.991   0.247
 8751SOL    HW227153   2.705   7.008   0.290
 8752SOL     OW27154   6.817   2.906   5.690
 8752SOL    HW127155   6.788   2.990   5.736
 8752SOL    HW227156   6.862   2.846   5.757
 8753SOL     OW27157   2.056   2.020   0.640
 8753SOL    HW127158   1.956   2.017   0.630
 8753SOL    HW227159   2.097   1.946   0.587
 8754SOL     OW27160   0.923   5.880   6.599
 8754SOL    HW127161   1.007   5.890   6.653
 8754SOL    HW227162   0.945   5.845   6.508
 8755SOL     OW27163   0.679   2.723   1.478
 8755SOL    HW127164   0.618   2.741   1.555
 8755SOL    HW227165   0.761   2.779   1.487
 8756SOL     OW27166   1.335   1.631   2.152
 8756SOL    HW127167   1.331   1.659   2.247
 8756SOL    HW227168   1.323   1.531   2.146
 8757SOL     OW27169   5.630   6.648   5.783
 8757SOL    HW127170   5.571   6.722   5.750
 8757SOL    HW227171   5.603   6.562   5.740
 8758SOL     OW27172   3.864   5.701   5.675
 8758SOL    HW127173   3.885   5.736   5.583
 8758SOL    HW227174   3.911   5.756   5.743
 8759SOL     OW27175   6.068   1.306   1.946
 8759SOL    HW127176   6.099   1.358   1.867
 8759SOL    HW227177   5.970   1.319   1.959
 8760SOL     OW27178   2.574   2.501   4.182
 8760SOL    HW127179   2.553   2.453   4.268
 8760SOL    HW227180   2.661   2.467   4.145
 8761SOL     OW27181   4.769   1.885   3.081
 8761SOL    HW127182   4.775   1.951   3.156
 8761SOL    HW227183   4.672   1.867   3.061
 8762SOL     OW27184   3.874   5.716   2.924
 8762SOL    HW127185   3.788   5.767   2.915
 8762SOL    HW227186   3.882   5.681   3.018
 8763SOL     OW27187   0.237   1.069   5.952
 8763SOL    HW127188   0.229   1.084   6.050
 8763SOL    HW227189   0.229   0.971   5.933
 8764SOL     OW27190   3.643   4.999   6.051
 8764SOL    HW127191   3.663   4.909   6.091
 8764SOL    HW227192   3.547   5.002   6.023
 8765SOL     OW27193   4.078   7.023   3.563
 8765SOL    HW127194   4.164   7.005   3.514
 8765SOL    HW227195   4.045   0.089   3.539
 8766SOL     OW27196   5.462   6.768   5.027
 8766SOL    HW127197   5.406   6.702   5.077
 8766SOL    HW227198   5.418   6.857   5.029
 8767SOL     OW27199   1.812   1.657   3.639
 8767SOL    HW127200   1.741   1.661   3.570
 8767SOL    HW227201   1.887   1.598   3.607
 8768SOL     OW27202   0.140   1.873   0.204
 8768SOL    HW127203   0.056   1.851   0.253
 8768SOL    HW227204   0.201   1.794   0.205
 8769SOL     OW27205   6.255   0.155   6.151
 8769SOL    HW127206   6.325   0.136   6.219
 8769SOL    HW227207   6.207   0.071   6.127
 8770SOL     OW27208   4.969   2.143   0.408
 8770SOL    HW127209   4.916   2.094   0.340
 8770SOL    HW227210   5.062   2.160   0.373
 8771SOL     OW27211   0.728   2.905   6.303
 8771SOL    HW127212   0.739   2.989   6.356
 8771SOL    HW227213   0.718   2.828   6.365
 8772SOL     OW27214   0.208   0.085   3.953
 8772SOL    HW127215   0.306   0.100   3.940
 8772SOL    HW227216   0.158   0.124   3.875
 8773SOL     OW27217   0.219   1.474   3.821
 8773SOL    HW127218   0.296   1.494   3.881
 8773SOL    HW227219   0.237   1.513   3.731
 8774SOL     OW27220   1.380   1.670   0.038
 8774SOL    HW127221   1.448   1.723   0.088
 8774SOL    HW227222   1.381   1.697   6.967
 8775SOL     OW27223   5.234   2.500   3.390
 8775SOL    HW127224   5.139   2.530   3.386
 8775SOL    HW227225   5.294   2.577   3.366
 8776SOL     OW27226   4.523   2.749   0.938
 8776SOL    HW127227   4.465   2.687   0.991
 8776SOL    HW227228   4.614   2.709   0.927
 8777SOL     OW27229   6.606   2.229   3.719
 8777SOL    HW127230   6.677   2.179   3.669
 8777SOL    HW227231   6.567   2.171   3.790
 8778SOL     OW27232   3.185   4.047   6.686
 8778SOL    HW127233   3.173   3.949   6.668
 8778SOL    HW227234   3.096   4.089   6.703
 8779SOL     OW27235   3.740   5.043   2.915
 8779SOL    HW127236   3.826   5.094   2.906
 8779SOL    HW227237   3.690   5.048   2.829
 8780SOL     OW27238   0.741   3.744   3.892
 8780SOL    HW127239   0.683   3.678   3.940
 8780SOL    HW227240   0.837   3.727   3.915
 8781SOL     OW27241   2.146   0.857   0.989
 8781SOL    HW127242   2.172   0.934   1.048
 8781SOL    HW227243   2.180   0.873   0.896
 8782SOL     OW27244   5.880   2.531   1.076
 8782SOL    HW127245   5.970   2.567   1.052
 8782SOL    HW227246   5.877   2.508   1.173
 8783SOL     OW27247   4.837   4.060   4.736
 8783SOL    HW127248   4.814   4.000   4.660
 8783SOL    HW227249   4.797   4.151   4.720
 8784SOL     OW27250   4.266   0.699   0.005
 8784SOL    HW127251   4.323   0.685   6.951
 8784SOL    HW227252   4.176   0.734   7.003
 8785SOL     OW27253   0.034   5.321   5.486
 8785SOL    HW127254   6.972   5.338   5.441
 8785SOL    HW227255   0.018   5.282   5.576
 8786SOL     OW27256   5.702   1.873   2.945
 8786SOL    HW127257   5.672   1.788   2.901
 8786SOL    HW227258   5.625   1.937   2.949
 8787SOL     OW27259   3.468   6.023   1.432
 8787SOL    HW127260   3.408   6.102   1.439
 8787SOL    HW227261   3.534   6.025   1.507
 8788SOL     OW27262   0.314   6.378   4.159
 8788SOL    HW127263   0.224   6.423   4.167
 8788SOL    HW227264   0.304   6.280   4.179
 8789SOL     OW27265   1.260   2.360   5.825
 8789SOL    HW127266   1.300   2.278   5.784
 8789SOL    HW227267   1.227   2.339   5.917
 8790SOL     OW27268   4.460   3.103   5.433
 8790SOL    HW127269   4.414   3.018   5.460
 8790SOL    HW227270   4.400   3.156   5.374
 8791SOL     OW27271   3.909   6.573   4.351
 8791SOL    HW127272   3.961   6.561   4.267
 8791SOL    HW227273   3.819   6.612   4.330
 8792SOL     OW27274   5.268   5.453   1.852
 8792SOL    HW127275   5.185   5.498   1.886
 8792SOL    HW227276   5.260   5.437   1.754
 8793SOL     OW27277   6.645   6.263   5.228
 8793SOL    HW127278   6.664   6.323   5.306
 8793SOL    HW227279   6.670   6.311   5.143
 8794SOL     OW27280   0.340   1.655   2.680
 8794SOL    HW127281   0.271   1.660   2.607
 8794SOL    HW227282   0.297   1.676   2.768
 8795SOL     OW27283   1.108   6.509   0.027
 8795SOL    HW127284   1.056   6.450   0.089
 8795SOL    HW227285   1.046   6.574   7.009
 8796SOL     OW27286   5.869   3.762   4.766
 8796SOL    HW127287   5.781   3.745   4.811
 8796SOL    HW227288   5.853   3.814   4.682
 8797SOL     OW27289   4.851   6.608   3.973
 8797SOL    HW127290   4.936   6.653   3.999
 8797SOL    HW227291   4.843   6.520   4.021
 8798SOL     OW27292   2.826   6.325   5.511
 8798SOL    HW127293   2.825   6.330   5.411
 8798SOL    HW227294   2.794   6.234   5.540
 8799SOL     OW27295   1.450   5.964   1.694
 8799SOL    HW127296   1.423   5.868   1.692
 8799SOL    HW227297   1.549   5.971   1.704
 8800SOL     OW27298   6.348   5.885   4.413
 8800SOL    HW127299   6.358   5.795   4.455
 8800SOL    HW227300   6.349   5.876   4.313
 8801SOL     OW27301   5.770   3.564   5.592
 8801SOL    HW127302   5.729   3.476   5.619
 8801SOL    HW227303   5.821   3.553   5.507
 8802SOL     OW27304   1.684   5.752   6.419
 8802SOL    HW127305   1.630   5.694   6.359
 8802SOL    HW227306   1.768   5.704   6.445
 8803SOL     OW27307   5.588   6.344   5.767
 8803SOL    HW127308   5.503   6.318   5.720
 8803SOL    HW227309   5.642   6.262   5.784
 8804SOL     OW27310   1.258   6.306   2.171
 8804SOL    HW127311   1.180   6.277   2.116
 8804SOL    HW227312   1.314   6.371   2.119
 8805SOL     OW27313   5.165   4.828   3.118
 8805SOL    HW127314   5.239   4.891   3.140
 8805SOL    HW227315   5.088   4.844   3.180
 8806SOL     OW27316   0.942   0.474   1.851
 8806SOL    HW127317   1.000   0.530   1.911
 8806SOL    HW227318   0.926   0.524   1.766
 8807SOL     OW27319   5.210   3.105   0.912
 8807SOL    HW127320   5.276   3.179   0.924
 8807SOL    HW227321   5.125   3.142   0.875
 8808SOL     OW27322   1.904   2.354   6.751
 8808SOL    HW127323   1.993   2.321   6.783
 8808SOL    HW227324   1.882   2.311   6.664
 8809SOL     OW27325   6.865   3.585   3.174
 8809SOL    HW127326   6.892   3.540   3.089
 8809SOL    HW227327   6.946   3.614   3.224
 8810SOL     OW27328   0.401   1.763   5.229
 8810SOL    HW127329   0.373   1.821   5.152
 8810SOL    HW227330   0.357   1.673   5.220
 8811SOL     OW27331   4.318   4.602   2.713
 8811SOL    HW127332   4.303   4.689   2.665
 8811SOL    HW227333   4.404   4.561   2.681
 8812SOL     OW27334   5.044   1.254   6.831
 8812SOL    HW127335   5.104   1.182   6.865
 8812SOL    HW227336   5.098   1.324   6.785
 8813SOL     OW27337   2.111   3.341   2.671
 8813SOL    HW127338   2.153   3.255   2.645
 8813SOL    HW227339   2.032   3.324   2.731
 8814SOL     OW27340   5.049   6.750   5.308
 8814SOL    HW127341   5.075   6.776   5.401
 8814SOL    HW227342   5.071   6.654   5.293
 8815SOL     OW27343   5.478   0.899   0.917
 8815SOL    HW127344   5.463   0.846   1.000
 8815SOL    HW227345   5.568   0.943   0.921
 8816SOL     OW27346   0.861   6.839   4.177
 8816SOL    HW127347   0.920   6.865   4.253
 8816SOL    HW227348   0.804   6.761   4.204
 8817SOL     OW27349   0.991   2.726   2.972
 8817SOL    HW127350   1.046   2.782   3.033
 8817SOL    HW227351   1.038   2.639   2.955
 8818SOL     OW27352   0.531   6.701   5.652
 8818SOL    HW127353   0.606   6.658   5.701
 8818SOL    HW227354   0.559   6.722   5.558
 8819SOL     OW27355   4.554   5.722   6.390
 8819SOL    HW127356   4.525   5.647   6.331
 8819SOL    HW227357   4.485   5.738   6.461
 8820SOL     OW27358   4.569   0.243   5.423
 8820SOL    HW127359   4.532   0.315   5.481
 8820SOL    HW227360   4.584   0.279   5.331
 8821SOL     OW27361   0.689   4.508   6.250
 8821SOL    HW127362   0.634   4.425   6.257
 8821SOL    HW227363   0.672   4.552   6.162
 8822SOL     OW27364   5.919   0.157   4.833
 8822SOL    HW127365   6.007   0.188   4.795
 8822SOL    HW227366   5.900   0.207   4.918
 8823SOL     OW27367   4.018   1.861   2.632
 8823SOL    HW127368   3.996   1.933   2.699
 8823SOL    HW227369   4.044   1.904   2.546
 8824SOL     OW27370   1.738   6.731   3.396
 8824SOL    HW127371   1.675   6.686   3.333
 8824SOL    HW227372   1.788   6.803   3.347
 8825SOL     OW27373   0.165   0.282   0.564
 8825SOL    HW127374   0.265   0.276   0.552
 8825SOL    HW227375   0.133   0.371   0.532
 8826SOL     OW27376   6.973   4.525   0.690
 8826SOL    HW127377   6.917   4.501   0.612
 8826SOL    HW227378   0.009   4.599   0.665
 8827SOL     OW27379   4.268   6.629   3.583
 8827SOL    HW127380   4.348   6.682   3.554
 8827SOL    HW227381   4.285   6.532   3.568
 8828SOL     OW27382   4.589   2.430   6.507
 8828SOL    HW127383   4.545   2.347   6.541
 8828SOL    HW227384   4.649   2.407   6.429
 8829SOL     OW27385   0.105   0.913   3.015
 8829SOL    HW127386   0.031   0.980   3.023
 8829SOL    HW227387   0.067   0.821   3.020
 8830SOL     OW27388   3.135   0.281   3.712
 8830SOL    HW127389   3.193   0.358   3.739
 8830SOL    HW227390   3.039   0.305   3.728
 8831SOL     OW27391   6.997   3.149   2.760
 8831SOL    HW127392   6.969   3.061   2.800
 8831SOL    HW227393   0.057   3.179   2.801
 8832SOL     OW27394   5.600   0.564   6.157
 8832SOL    HW127395   5.538   0.516   6.219
 8832SOL    HW227396   5.548   0.620   6.094
 8833SOL     OW27397   5.307   2.429   1.151
 8833SOL    HW127398   5.330   2.486   1.230
 8833SOL    HW227399   5.281   2.338   1.183
 8834SOL     OW27400   5.665   3.969   6.261
 8834SOL    HW127401   5.626   4.014   6.342
 8834SOL    HW227402   5.763   3.955   6.275
 8835SOL     OW27403   0.078   1.060   5.090
 8835SOL    HW127404   0.140   0.981   5.086
 8835SOL    HW227405   0.032   1.061   5.179
 8836SOL     OW27406   4.384   1.638   1.457
 8836SOL    HW127407   4.469   1.590   1.478
 8836SOL    HW227408   4.306   1.577   1.471
 8837SOL     OW27409   4.678   6.121   0.484
 8837SOL    HW127410   4.631   6.208   0.469
 8837SOL    HW227411   4.625   6.064   0.547
 8838SOL     OW27412   1.875   3.254   3.538
 8838SOL    HW127413   1.923   3.180   3.585
 8838SOL    HW227414   1.781   3.226   3.518
 8839SOL     OW27415   5.144   5.418   1.368
 8839SOL    HW127416   5.224   5.428   1.427
 8839SOL    HW227417   5.119   5.321   1.362
 8840SOL     OW27418   6.356   1.130   0.829
 8840SOL    HW127419   6.319   1.073   0.756
 8840SOL    HW227420   6.440   1.089   0.864
 8841SOL     OW27421   3.161   1.455   0.538
 8841SOL    HW127422   3.243   1.450   0.595
 8841SOL    HW227423   3.082   1.422   0.589
 8842SOL     OW27424   3.285   3.331   4.196
 8842SOL    HW127425   3.371   3.292   4.164
 8842SOL    HW227426   3.209   3.275   4.162
 8843SOL     OW27427   2.778   5.474   5.245
 8843SOL    HW127428   2.849   5.544   5.252
 8843SOL    HW227429   2.762   5.433   5.335
 8844SOL     OW27430   3.560   2.409   5.989
 8844SOL    HW127431   3.549   2.493   6.043
 8844SOL    HW227432   3.491   2.407   5.917
 8845SOL     OW27433   1.117   3.409   1.921
 8845SOL    HW127434   1.182   3.404   1.845
 8845SOL    HW227435   1.151   3.354   1.997
 8846SOL     OW27436   5.941   4.658   4.634
 8846SOL    HW127437   5.870   4.680   4.567
 8846SOL    HW227438   5.898   4.620   4.716
 8847SOL     OW27439   0.954   2.140   3.693
 8847SOL    HW127440   0.882   2.109   3.631
 8847SOL    HW227441   0.929   2.115   3.787
 8848SOL     OW27442   5.900   1.808   0.767
 8848SOL    HW127443   5.963   1.882   0.743
 8848SOL    HW227444   5.908   1.734   0.700
 8849SOL     OW27445   3.497   5.139   4.533
 8849SOL    HW127446   3.419   5.093   4.492
 8849SOL    HW227447   3.529   5.085   4.612
 8850SOL     OW27448   2.504   1.512   1.531
 8850SOL    HW127449   2.585   1.532   1.476
 8850SOL    HW227450   2.426   1.565   1.497
 8851SOL     OW27451   6.938   5.152   2.582
 8851SOL    HW127452   6.902   5.245   2.590
 8851SOL    HW227453   6.955   5.130   2.486
 8852SOL     OW27454   5.033   2.313   4.295
 8852SOL    HW127455   5.081   2.350   4.374
 8852SOL    HW227456   4.985   2.387   4.248
 8853SOL     OW27457   4.848   1.933   5.659
 8853SOL    HW127458   4.928   1.912   5.715
 8853SOL    HW227459   4.826   1.854   5.602
 8854SOL     OW27460   1.722   1.088   6.515
 8854SOL    HW127461   1.632   1.112   6.479
 8854SOL    HW227462   1.714   1.062   6.611
 8855SOL     OW27463   6.558   5.086   6.443
 8855SOL    HW127464   6.492   5.071   6.516
 8855SOL    HW227465   6.638   5.028   6.458
 8856SOL     OW27466   5.028   0.760   5.387
 8856SOL    HW127467   5.049   0.665   5.363
 8856SOL    HW227468   5.104   0.800   5.438
 8857SOL     OW27469   0.562   3.170   4.917
 8857SOL    HW127470   0.600   3.096   4.862
 8857SOL    HW227471   0.462   3.169   4.910
 8858SOL     OW27472   6.892   3.760   5.454
 8858SOL    HW127473   6.937   3.849   5.443
 8858SOL    HW227474   6.881   3.739   5.551
 8859SOL     OW27475   3.182   5.971   5.182
 8859SOL    HW127476   3.240   6.025   5.121
 8859SOL    HW227477   3.141   6.031   5.251
 8860SOL     OW27478   1.437   1.837   1.093
 8860SOL    HW127479   1.462   1.933   1.095
 8860SOL    HW227480   1.355   1.824   1.037
 8861SOL     OW27481   2.290   2.810   1.286
 8861SOL    HW127482   2.244   2.729   1.323
 8861SOL    HW227483   2.333   2.787   1.199
 8862SOL     OW27484   6.480   2.086   4.970
 8862SOL    HW127485   6.415   2.129   4.908
 8862SOL    HW227486   6.573   2.116   4.947
 8863SOL     OW27487   1.169   5.646   5.146
 8863SOL    HW127488   1.149   5.707   5.222
 8863SOL    HW227489   1.266   5.653   5.122
 8864SOL     OW27490   1.365   3.962   6.431
 8864SOL    HW127491   1.453   3.958   6.383
 8864SOL    HW227492   1.331   3.869   6.446
 8865SOL     OW27493   2.185   2.202   5.632
 8865SOL    HW127494   2.156   2.147   5.555
 8865SOL    HW227495   2.274   2.170   5.665
 8866SOL     OW27496   4.751   6.874   5.946
 8866SOL    HW127497   4.674   6.871   6.010
 8866SOL    HW227498   4.716   6.867   5.852
 8867SOL     OW27499   6.609   1.269   4.001
 8867SOL    HW127500   6.523   1.278   3.950
 8867SOL    HW227501   6.637   1.358   4.036
 8868SOL     OW27502   4.764   3.251   0.996
 8868SOL    HW127503   4.780   3.289   1.087
 8868SOL    HW227504   4.693   3.181   1.002
 8869SOL     OW27505   4.584   2.629   3.854
 8869SOL    HW127506   4.650   2.665   3.921
 8869SOL    HW227507   4.597   2.675   3.766
 8870SOL     OW27508   4.660   1.237   2.067
 8870SOL    HW127509   4.573   1.248   2.115
 8870SOL    HW227510   4.676   1.140   2.049
 8871SOL     OW27511   1.132   2.854   4.350
 8871SOL    HW127512   1.150   2.758   4.328
 8871SOL    HW227513   1.181   2.913   4.286
 8872SOL     OW27514   1.841   3.009   2.845
 8872SOL    HW127515   1.820   2.938   2.777
 8872SOL    HW227516   1.908   2.973   2.911
 8873SOL     OW27517   6.810   5.919   4.889
 8873SOL    HW127518   6.817   6.017   4.909
 8873SOL    HW227519   6.740   5.877   4.948
 8874SOL     OW27520   0.912   1.478   7.014
 8874SOL    HW127521   0.876   1.532   6.938
 8874SOL    HW227522   0.855   1.396   0.000
 8875SOL     OW27523   1.996   1.123   4.141
 8875SOL    HW127524   2.089   1.085   4.138
 8875SOL    HW227525   1.999   1.220   4.117
 8876SOL     OW27526   2.606   0.765   4.749
 8876SOL    HW127527   2.696   0.764   4.793
 8876SOL    HW227528   2.569   0.858   4.751
 8877SOL     OW27529   3.078   6.429   4.716
 8877SOL    HW127530   3.128   6.426   4.630
 8877SOL    HW227531   2.980   6.417   4.698
 8878SOL     OW27532   5.620   4.448   5.556
 8878SOL    HW127533   5.713   4.484   5.561
 8878SOL    HW227534   5.622   4.357   5.515
 8879SOL     OW27535   4.483   5.565   4.623
 8879SOL    HW127536   4.430   5.640   4.582
 8879SOL    HW227537   4.547   5.528   4.556
 8880SOL     OW27538   6.931   6.001   5.472
 8880SOL    HW127539   7.019   5.956   5.453
 8880SOL    HW227540   6.932   6.094   5.436
 8881SOL     OW27541   6.960   0.516   1.665
 8881SOL    HW127542   0.003   0.468   1.611
 8881SOL    HW227543   6.912   0.450   1.723
 8882SOL     OW27544   5.450   2.412   6.681
 8882SOL    HW127545   5.493   2.418   6.770
 8882SOL    HW227546   5.519   2.420   6.609
 8883SOL     OW27547   0.176   1.385   5.387
 8883SOL    HW127548   0.258   1.328   5.376
 8883SOL    HW227549   0.096   1.326   5.392
 8884SOL     OW27550   6.654   1.144   5.213
 8884SOL    HW127551   6.569   1.182   5.178
 8884SOL    HW227552   6.636   1.094   5.298
 8885SOL     OW27553   5.304   3.486   1.644
 8885SOL    HW127554   5.222   3.539   1.624
 8885SOL    HW227555   5.364   3.539   1.704
 8886SOL     OW27556   2.966   5.930   6.377
 8886SOL    HW127557   3.002   5.856   6.321
 8886SOL    HW227558   2.884   5.968   6.333
 8887SOL     OW27559   1.903   0.116   1.051
 8887SOL    HW127560   1.840   0.109   1.129
 8887SOL    HW227561   1.861   0.172   0.980
 8888SOL     OW27562   3.506   2.068   3.601
 8888SOL    HW127563   3.591   2.046   3.649
 8888SOL    HW227564   3.435   2.094   3.667
 8889SOL     OW27565   3.598   0.183   4.892
 8889SOL    HW127566   3.647   0.270   4.893
 8889SOL    HW227567   3.506   0.197   4.856
 8890SOL     OW27568   0.676   4.167   3.766
 8890SOL    HW127569   0.599   4.223   3.798
 8890SOL    HW227570   0.642   4.076   3.741
 8891SOL     OW27571   2.439   1.834   6.133
 8891SOL    HW127572   2.380   1.912   6.154
 8891SOL    HW227573   2.522   1.840   6.189
 8892SOL     OW27574   1.204   6.846   2.766
 8892SOL    HW127575   1.159   6.765   2.728
 8892SOL    HW227576   1.304   6.833   2.762
 8893SOL     OW27577   0.121   0.953   1.002
 8893SOL    HW127578   0.216   0.983   1.017
 8893SOL    HW227579   0.107   0.865   1.047
 8894SOL     OW27580   4.110   2.785   6.505
 8894SOL    HW127581   4.088   2.874   6.547
 8894SOL    HW227582   4.175   2.736   6.563
 8895SOL     OW27583   1.746   0.971   2.117
 8895SOL    HW127584   1.661   0.949   2.068
 8895SOL    HW227585   1.725   0.988   2.213
 8896SOL     OW27586   2.230   4.047   4.551
 8896SOL    HW127587   2.284   4.089   4.478
 8896SOL    HW227588   2.143   4.095   4.561
 8897SOL     OW27589   1.187   2.251   1.413
 8897SOL    HW127590   1.186   2.151   1.419
 8897SOL    HW227591   1.100   2.282   1.375
 8898SOL     OW27592   6.836   2.948   4.750
 8898SOL    HW127593   6.906   2.980   4.687
 8898SOL    HW227594   6.796   3.026   4.798
 8899SOL     OW27595   3.160   4.638   0.632
 8899SOL    HW127596   3.156   4.540   0.610
 8899SOL    HW227597   3.101   4.689   0.568
 8900SOL     OW27598   6.488   1.635   3.342
 8900SOL    HW127599   6.565   1.573   3.325
 8900SOL    HW227600   6.508   1.725   3.302
 8901SOL     OW27601   1.971   0.024   1.718
 8901SOL    HW127602   2.052   0.078   1.738
 8901SOL    HW227603   1.996   6.971   1.662
 8902SOL     OW27604   3.347   5.747   5.285
 8902SOL    HW127605   3.353   5.703   5.196
 8902SOL    HW227606   3.279   5.820   5.282
 8903SOL     OW27607   0.956   1.152   3.666
 8903SOL    HW127608   0.936   1.236   3.615
 8903SOL    HW227609   0.910   1.156   3.755
 8904SOL     OW27610   1.506   5.630   3.282
 8904SOL    HW127611   1.441   5.556   3.299
 8904SOL    HW227612   1.594   5.607   3.323
 8905SOL     OW27613   2.122   4.126   5.125
 8905SOL    HW127614   2.029   4.097   5.102
 8905SOL    HW227615   2.186   4.053   5.101
 8906SOL     OW27616   1.512   5.044   4.609
 8906SOL    HW127617   1.560   4.978   4.551
 8906SOL    HW227618   1.446   5.096   4.554
 8907SOL     OW27619   3.908   2.798   5.573
 8907SOL    HW127620   3.968   2.841   5.640
 8907SOL    HW227621   3.818   2.841   5.577
 8908SOL     OW27622   0.260   2.742   2.141
 8908SOL    HW127623   0.227   2.798   2.065
 8908SOL    HW227624   0.327   2.794   2.194
 8909SOL     OW27625   2.167   0.036   5.173
 8909SOL    HW127626   2.219   7.019   5.247
 8909SOL    HW227627   2.127   6.991   5.115
 8910SOL     OW27628   4.048   3.049   6.578
 8910SOL    HW127629   3.983   3.062   6.504
 8910SOL    HW227630   4.004   3.070   6.666
 8911SOL     OW27631   4.918   2.557   3.767
 8911SOL    HW127632   4.869   2.627   3.714
 8911SOL    HW227633   4.985   2.511   3.709
 8912SOL     OW27634   5.637   1.813   6.517
 8912SOL    HW127635   5.702   1.820   6.442
 8912SOL    HW227636   5.543   1.821   6.482
 8913SOL     OW27637   4.666   4.201   0.888
 8913SOL    HW127638   4.596   4.272   0.898
 8913SOL    HW227639   4.729   4.206   0.965
 8914SOL     OW27640   4.744   1.652   3.392
 8914SOL    HW127641   4.816   1.698   3.445
 8914SOL    HW227642   4.655   1.693   3.415
 8915SOL     OW27643   1.155   5.356   1.738
 8915SOL    HW127644   1.131   5.361   1.835
 8915SOL    HW227645   1.074   5.377   1.683
 8916SOL     OW27646   6.125   3.595   2.107
 8916SOL    HW127647   6.202   3.656   2.125
 8916SOL    HW227648   6.155   3.500   2.113
 8917SOL     OW27649   5.375   5.526   5.920
 8917SOL    HW127650   5.411   5.602   5.866
 8917SOL    HW227651   5.450   5.478   5.965
 8918SOL     OW27652   5.056   4.227   6.135
 8918SOL    HW127653   5.081   4.169   6.212
 8918SOL    HW227654   4.960   4.255   6.143
 8919SOL     OW27655   2.340   3.760   1.390
 8919SOL    HW127656   2.250   3.739   1.353
 8919SOL    HW227657   2.402   3.783   1.315
 8920SOL     OW27658   6.415   5.034   5.698
 8920SOL    HW127659   6.326   5.019   5.653
 8920SOL    HW227660   6.488   5.007   5.635
 8921SOL     OW27661   1.053   5.467   3.425
 8921SOL    HW127662   1.148   5.461   3.394
 8921SOL    HW227663   0.992   5.477   3.345
 8922SOL     OW27664   6.455   4.169   0.135
 8922SOL    HW127665   6.450   4.127   0.045
 8922SOL    HW227666   6.551   4.178   0.163
 8923SOL     OW27667   1.977   4.188   4.552
 8923SOL    HW127668   1.909   4.183   4.626
 8923SOL    HW227669   1.976   4.279   4.512
 8924SOL     OW27670   2.987   5.642   5.002
 8924SOL    HW127671   2.947   5.618   4.914
 8924SOL    HW227672   3.004   5.741   5.006
 8925SOL     OW27673   5.226   6.219   1.607
 8925SOL    HW127674   5.263   6.127   1.603
 8925SOL    HW227675   5.201   6.249   1.515
 8926SOL     OW27676   4.916   1.223   0.195
 8926SOL    HW127677   4.881   1.145   0.143
 8926SOL    HW227678   4.997   1.260   0.150
 8927SOL     OW27679   2.289   1.490   4.497
 8927SOL    HW127680   2.255   1.583   4.483
 8927SOL    HW227681   2.389   1.490   4.493
 8928SOL     OW27682   0.828   0.266   4.046
 8928SOL    HW127683   0.756   0.331   4.071
 8928SOL    HW227684   0.861   0.286   3.954
 8929SOL     OW27685   5.097   4.370   4.384
 8929SOL    HW127686   5.161   4.422   4.327
 8929SOL    HW227687   5.142   4.289   4.419
 8930SOL     OW27688   1.338   5.170   5.060
 8930SOL    HW127689   1.374   5.158   4.968
 8930SOL    HW227690   1.277   5.249   5.062
 8931SOL     OW27691   5.233   1.155   1.602
 8931SOL    HW127692   5.178   1.162   1.519
 8931SOL    HW227693   5.198   1.218   1.671
 8932SOL     OW27694   6.593   0.611   7.014
 8932SOL    HW127695   6.665   0.600   0.057
 8932SOL    HW227696   6.515   0.660   0.029
 8933SOL     OW27697   1.557   0.621   5.692
 8933SOL    HW127698   1.613   0.615   5.609
 8933SOL    HW227699   1.521   0.714   5.701
 8934SOL     OW27700   4.476   6.745   3.427
 8934SOL    HW127701   4.479   6.783   3.335
 8934SOL    HW227702   4.539   6.668   3.433
 8935SOL     OW27703   6.023   1.952   2.337
 8935SOL    HW127704   6.094   1.950   2.407
 8935SOL    HW227705   5.971   2.037   2.344
 8936SOL     OW27706   1.752   3.717   2.880
 8936SOL    HW127707   1.685   3.643   2.874
 8936SOL    HW227708   1.738   3.767   2.965
 8937SOL     OW27709   4.242   0.395   5.231
 8937SOL    HW127710   4.152   0.438   5.232
 8937SOL    HW227711   4.246   0.324   5.302
 8938SOL     OW27712   5.809   6.651   1.896
 8938SOL    HW127713   5.756   6.664   1.812
 8938SOL    HW227714   5.904   6.678   1.881
 8939SOL     OW27715   0.522   2.503   4.651
 8939SOL    HW127716   0.564   2.554   4.576
 8939SOL    HW227717   0.454   2.560   4.696
 8940SOL     OW27718   6.184   2.865   2.166
 8940SOL    HW127719   6.268   2.916   2.185
 8940SOL    HW227720   6.116   2.926   2.126
 8941SOL     OW27721   5.211   2.263   2.948
 8941SOL    HW127722   5.166   2.252   2.860
 8941SOL    HW227723   5.155   2.321   3.007
 8942SOL     OW27724   4.911   4.364   4.154
 8942SOL    HW127725   4.882   4.448   4.108
 8942SOL    HW227726   4.949   4.387   4.244
 8943SOL     OW27727   4.259   2.715   0.734
 8943SOL    HW127728   4.184   2.711   0.800
 8943SOL    HW227729   4.345   2.691   0.778
 8944SOL     OW27730   4.567   5.575   4.884
 8944SOL    HW127731   4.648   5.524   4.911
 8944SOL    HW227732   4.549   5.562   4.786
 8945SOL     OW27733   5.818   3.807   2.524
 8945SOL    HW127734   5.859   3.730   2.476
 8945SOL    HW227735   5.829   3.890   2.470
 8946SOL     OW27736   4.359   0.995   5.311
 8946SOL    HW127737   4.277   0.948   5.281
 8946SOL    HW227738   4.374   0.977   5.409
 8947SOL     OW27739   2.022   4.759   6.937
 8947SOL    HW127740   1.927   4.745   6.965
 8947SOL    HW227741   2.062   4.833   6.991
 8948SOL     OW27742   5.587   0.844   2.684
 8948SOL    HW127743   5.519   0.903   2.728
 8948SOL    HW227744   5.566   0.836   2.586
 8949SOL     OW27745   3.796   6.065   0.781
 8949SOL    HW127746   3.725   6.019   0.729
 8949SOL    HW227747   3.884   6.052   0.735
 8950SOL     OW27748   3.491   3.583   2.464
 8950SOL    HW127749   3.571   3.604   2.520
 8950SOL    HW227750   3.412   3.635   2.497
 8951SOL     OW27751   1.147   0.309   4.715
 8951SOL    HW127752   1.141   0.227   4.773
 8951SOL    HW227753   1.103   0.290   4.627
 8952SOL     OW27754   1.427   4.388   4.190
 8952SOL    HW127755   1.342   4.337   4.179
 8952SOL    HW227756   1.490   4.365   4.116
 8953SOL     OW27757   0.778   4.881   1.391
 8953SOL    HW127758   0.746   4.787   1.406
 8953SOL    HW227759   0.806   4.921   1.478
 8954SOL     OW27760   2.083   4.153   5.391
 8954SOL    HW127761   2.067   4.149   5.292
 8954SOL    HW227762   2.062   4.245   5.425
 8955SOL     OW27763   5.720   2.931   5.264
 8955SOL    HW127764   5.793   2.880   5.310
 8955SOL    HW227765   5.701   2.888   5.175
 8956SOL     OW27766   0.580   5.833   1.067
 8956SOL    HW127767   0.599   5.751   1.121
 8956SOL    HW227768   0.664   5.862   1.021
 8957SOL     OW27769   1.414   6.181   2.615
 8957SOL    HW127770   1.433   6.278   2.601
 8957SOL    HW227771   1.367   6.144   2.534
 8958SOL     OW27772   0.821   4.408   4.690
 8958SOL    HW127773   0.729   4.416   4.653
 8958SOL    HW227774   0.836   4.315   4.723
 8959SOL     OW27775   5.676   1.906   4.101
 8959SOL    HW127776   5.732   1.834   4.061
 8959SOL    HW227777   5.579   1.881   4.095
 8960SOL     OW27778   4.996   5.217   3.167
 8960SOL    HW127779   5.024   5.208   3.072
 8960SOL    HW227780   5.077   5.221   3.225
 8961SOL     OW27781   2.745   1.743   4.761
 8961SOL    HW127782   2.696   1.660   4.734
 8961SOL    HW227783   2.829   1.752   4.707
 8962SOL     OW27784   6.330   5.652   2.184
 8962SOL    HW127785   6.278   5.567   2.178
 8962SOL    HW227786   6.287   5.722   2.127
 8963SOL     OW27787   2.856   6.604   6.292
 8963SOL    HW127788   2.779   6.599   6.356
 8963SOL    HW227789   2.922   6.672   6.325
 8964SOL     OW27790   2.097   3.337   3.940
 8964SOL    HW127791   2.112   3.239   3.929
 8964SOL    HW227792   2.176   3.379   3.984
 8965SOL     OW27793   4.043   5.432   0.329
 8965SOL    HW127794   4.082   5.441   0.238
 8965SOL    HW227795   3.995   5.345   0.336
 8966SOL     OW27796   5.335   0.008   5.004
 8966SOL    HW127797   5.407   7.011   4.939
 8966SOL    HW227798   5.376   0.036   5.091
 8967SOL     OW27799   3.205   0.300   3.431
 8967SOL    HW127800   3.161   0.277   3.518
 8967SOL    HW227801   3.283   0.240   3.416
 8968SOL     OW27802   3.602   5.086   2.324
 8968SOL    HW127803   3.589   5.032   2.408
 8968SOL    HW227804   3.621   5.024   2.248
 8969SOL     OW27805   0.383   0.500   2.912
 8969SOL    HW127806   0.406   0.597   2.910
 8969SOL    HW227807   0.298   0.485   2.862
 8970SOL     OW27808   1.887   1.227   3.234
 8970SOL    HW127809   1.861   1.153   3.172
 8970SOL    HW227810   1.959   1.194   3.296
 8971SOL     OW27811   3.243   4.373   1.040
 8971SOL    HW127812   3.208   4.345   1.129
 8971SOL    HW227813   3.171   4.417   0.988
 8972SOL     OW27814   5.075   4.062   6.660
 8972SOL    HW127815   4.991   4.012   6.638
 8972SOL    HW227816   5.136   4.062   6.581
 8973SOL     OW27817   2.527   2.381   3.350
 8973SOL    HW127818   2.524   2.445   3.427
 8973SOL    HW227819   2.577   2.421   3.274
 8974SOL     OW27820   1.876   4.491   3.902
 8974SOL    HW127821   1.975   4.502   3.893
 8974SOL    HW227822   1.832   4.516   3.816
 8975SOL     OW27823   6.490   4.328   5.843
 8975SOL    HW127824   6.450   4.410   5.882
 8975SOL    HW227825   6.551   4.286   5.910
 8976SOL     OW27826   6.119   0.135   1.864
 8976SOL    HW127827   6.116   0.235   1.857
 8976SOL    HW227828   6.146   0.109   1.957
 8977SOL     OW27829   6.399   4.451   6.716
 8977SOL    HW127830   6.404   4.547   6.686
 8977SOL    HW227831   6.476   4.432   6.777
 8978SOL     OW27832   6.131   5.753   6.204
 8978SOL    HW127833   6.119   5.847   6.236
 8978SOL    HW227834   6.221   5.743   6.162
 8979SOL     OW27835   1.618   4.931   3.636
 8979SOL    HW127836   1.562   4.945   3.554
 8979SOL    HW227837   1.564   4.882   3.705
 8980SOL     OW27838   3.735   0.542   0.170
 8980SOL    HW127839   3.740   0.519   0.267
 8980SOL    HW227840   3.640   0.541   0.140
 8981SOL     OW27841   4.087   2.477   6.456
 8981SOL    HW127842   4.011   2.499   6.517
 8981SOL    HW227843   4.121   2.561   6.413
 8982SOL     OW27844   0.117   1.547   1.466
 8982SOL    HW127845   0.144   1.593   1.382
 8982SOL    HW227846   0.149   1.453   1.465
 8983SOL     OW27847   1.524   0.024   2.237
 8983SOL    HW127848   1.593   6.979   2.248
 8983SOL    HW227849   1.562   0.098   2.181
 8984SOL     OW27850   0.045   1.507   4.728
 8984SOL    HW127851   0.029   1.421   4.680
 8984SOL    HW227852   0.111   1.493   4.801
 8985SOL     OW27853   5.004   1.132   2.812
 8985SOL    HW127854   4.997   1.232   2.811
 8985SOL    HW227855   5.088   1.104   2.765
 8986SOL     OW27856   6.836   5.335   0.681
 8986SOL    HW127857   6.924   5.303   0.718
 8986SOL    HW227858   6.762   5.300   0.738
 8987SOL     OW27859   2.193   0.195   1.512
 8987SOL    HW127860   2.145   0.157   1.433
 8987SOL    HW227861   2.266   0.132   1.541
 8988SOL     OW27862   2.719   7.023   1.401
 8988SOL    HW127863   2.721   0.023   1.497
 8988SOL    HW227864   2.739   0.077   1.344
 8989SOL     OW27865   5.699   1.556   2.397
 8989SOL    HW127866   5.795   1.549   2.369
 8989SOL    HW227867   5.671   1.652   2.393
 8990SOL     OW27868   3.336   0.748   2.740
 8990SOL    HW127869   3.286   0.811   2.680
 8990SOL    HW227870   3.346   0.789   2.830
 8991SOL     OW27871   1.254   2.580   0.613
 8991SOL    HW127872   1.162   2.581   0.651
 8991SOL    HW227873   1.276   2.669   0.574
 8992SOL     OW27874   6.318   4.119   6.395
 8992SOL    HW127875   6.278   4.207   6.420
 8992SOL    HW227876   6.370   4.128   6.311
 8993SOL     OW27877   5.505   4.467   4.926
 8993SOL    HW127878   5.540   4.393   4.983
 8993SOL    HW227879   5.409   4.483   4.948
 8994SOL     OW27880   1.589   6.001   2.743
 8994SOL    HW127881   1.565   5.977   2.837
 8994SOL    HW227882   1.523   6.067   2.707
 8995SOL     OW27883   1.890   3.838   4.567
 8995SOL    HW127884   1.881   3.858   4.664
 8995SOL    HW227885   1.838   3.756   4.544
 8996SOL     OW27886   1.968   3.617   1.325
 8996SOL    HW127887   2.005   3.638   1.415
 8996SOL    HW227888   2.014   3.673   1.256
 8997SOL     OW27889   4.314   1.096   5.596
 8997SOL    HW127890   4.375   1.162   5.553
 8997SOL    HW227891   4.354   1.005   5.591
 8998SOL     OW27892   0.633   1.646   6.376
 8998SOL    HW127893   0.638   1.600   6.287
 8998SOL    HW227894   0.617   1.578   6.447
 8999SOL     OW27895   4.877   2.085   5.178
 8999SOL    HW127896   4.804   2.025   5.148
 8999SOL    HW227897   4.962   2.033   5.186
 9000SOL     OW27898   2.936   4.878   1.029
 9000SOL    HW127899   2.950   4.779   1.024
 9000SOL    HW227900   2.846   4.897   1.070
 9001SOL     OW27901   2.280   4.227   3.312
 9001SOL    HW127902   2.275   4.139   3.360
 9001SOL    HW227903   2.283   4.212   3.213
 9002SOL     OW27904   5.609   3.997   5.315
 9002SOL    HW127905   5.622   3.974   5.219
 9002SOL    HW227906   5.551   3.928   5.358
 9003SOL     OW27907   6.562   2.965   6.572
 9003SOL    HW127908   6.520   3.015   6.647
 9003SOL    HW227909   6.511   2.881   6.555
 9004SOL     OW27910   5.075   5.251   0.964
 9004SOL    HW127911   5.114   5.198   0.889
 9004SOL    HW227912   4.984   5.216   0.985
 9005SOL     OW27913   4.774   2.738   3.642
 9005SOL    HW127914   4.780   2.811   3.711
 9005SOL    HW227915   4.767   2.779   3.551
 9006SOL     OW27916   2.229   6.977   1.168
 9006SOL    HW127917   2.176   6.901   1.204
 9006SOL    HW227918   2.326   6.955   1.171
 9007SOL     OW27919   2.381   6.374   4.811
 9007SOL    HW127920   2.465   6.384   4.865
 9007SOL    HW227921   2.323   6.304   4.851
 9008SOL     OW27922   0.334   4.080   2.507
 9008SOL    HW127923   0.373   4.014   2.443
 9008SOL    HW227924   0.402   4.102   2.577
 9009SOL     OW27925   4.582   6.394   0.262
 9009SOL    HW127926   4.665   6.340   0.248
 9009SOL    HW227927   4.564   6.404   0.360
 9010SOL     OW27928   0.216   5.409   4.994
 9010SOL    HW127929   0.251   5.500   4.969
 9010SOL    HW227930   0.239   5.344   4.922
 9011SOL     OW27931   4.564   2.035   2.757
 9011SOL    HW127932   4.653   2.011   2.795
 9011SOL    HW227933   4.499   2.050   2.831
 9012SOL     OW27934   5.383   5.391   2.235
 9012SOL    HW127935   5.400   5.427   2.327
 9012SOL    HW227936   5.456   5.421   2.174
 9013SOL     OW27937   4.579   6.605   2.746
 9013SOL    HW127938   4.554   6.537   2.677
 9013SOL    HW227939   4.602   6.691   2.701
 9014SOL     OW27940   2.237   0.626   1.160
 9014SOL    HW127941   2.239   0.526   1.166
 9014SOL    HW227942   2.187   0.653   1.078
 9015SOL     OW27943   6.112   1.659   4.868
 9015SOL    HW127944   6.112   1.688   4.963
 9015SOL    HW227945   6.186   1.595   4.852
 9016SOL     OW27946   0.075   5.592   6.183
 9016SOL    HW127947   0.104   5.655   6.255
 9016SOL    HW227948   0.014   5.640   6.119
 9017SOL     OW27949   0.037   3.834   3.078
 9017SOL    HW127950   0.087   3.916   3.051
 9017SOL    HW227951   0.031   3.829   3.177
 9018SOL     OW27952   3.609   1.866   6.139
 9018SOL    HW127953   3.586   1.890   6.233
 9018SOL    HW227954   3.653   1.945   6.095
 9019SOL     OW27955   1.304   5.381   6.999
 9019SOL    HW127956   1.224   5.325   6.979
 9019SOL    HW227957   1.374   5.365   6.929
 9020SOL     OW27958   0.808   5.055   3.452
 9020SOL    HW127959   0.748   4.976   3.464
 9020SOL    HW227960   0.888   5.029   3.398
 9021SOL     OW27961   6.215   5.612   5.415
 9021SOL    HW127962   6.261   5.577   5.496
 9021SOL    HW227963   6.257   5.573   5.333
 9022SOL     OW27964   3.021   6.935   6.680
 9022SOL    HW127965   2.979   6.846   6.665
 9022SOL    HW227966   3.103   6.925   6.736
 9023SOL     OW27967   3.513   3.038   3.472
 9023SOL    HW127968   3.587   3.048   3.405
 9023SOL    HW227969   3.547   3.059   3.563
 9024SOL     OW27970   0.396   0.266   6.624
 9024SOL    HW127971   0.406   0.194   6.693
 9024SOL    HW227972   0.486   0.304   6.603
 9025SOL     OW27973   0.094   3.830   0.413
 9025SOL    HW127974   0.042   3.889   0.476
 9025SOL    HW227975   0.186   3.814   0.451
 9026SOL     OW27976   2.968   3.492   5.563
 9026SOL    HW127977   2.914   3.569   5.595
 9026SOL    HW227978   2.971   3.421   5.633
 9027SOL     OW27979   2.455   2.665   2.780
 9027SOL    HW127980   2.544   2.622   2.763
 9027SOL    HW227981   2.469   2.761   2.801
 9028SOL     OW27982   2.820   4.763   4.536
 9028SOL    HW127983   2.764   4.730   4.612
 9028SOL    HW227984   2.761   4.785   4.458
 9029SOL     OW27985   5.720   5.310   3.008
 9029SOL    HW127986   5.632   5.263   3.022
 9029SOL    HW227987   5.755   5.342   3.096
 9030SOL     OW27988   3.797   1.950   2.072
 9030SOL    HW127989   3.745   1.870   2.042
 9030SOL    HW227990   3.746   2.033   2.049
 9031SOL     OW27991   1.363   1.298   1.077
 9031SOL    HW127992   1.291   1.335   1.136
 9031SOL    HW227993   1.375   1.358   0.998
 9032SOL     OW27994   1.274   2.942   2.492
 9032SOL    HW127995   1.243   2.846   2.489
 9032SOL    HW227996   1.229   2.989   2.568
 9033SOL     OW27997   1.443   3.990   1.714
 9033SOL    HW127998   1.365   3.956   1.767
 9033SOL    HW227999   1.508   4.036   1.775
 9034SOL     OW28000   1.647   6.678   6.752
 9034SOL    HW128001   1.614   6.768   6.726
 9034SOL    HW228002   1.574   6.611   6.739
 9035SOL     OW28003   7.008   0.659   4.306
 9035SOL    HW128004   0.026   0.622   4.387
 9035SOL    HW228005   0.048   0.664   4.231
 9036SOL     OW28006   1.306   1.328   4.149
 9036SOL    HW128007   1.243   1.315   4.072
 9036SOL    HW228008   1.260   1.306   4.234
 9037SOL     OW28009   2.451   4.031   6.079
 9037SOL    HW128010   2.401   4.038   6.165
 9037SOL    HW228011   2.402   4.080   6.007
 9038SOL     OW28012   4.798   6.408   5.424
 9038SOL    HW128013   4.824   6.330   5.368
 9038SOL    HW228014   4.708   6.392   5.464
 9039SOL     OW28015   2.776   4.466   6.687
 9039SOL    HW128016   2.831   4.500   6.611
 9039SOL    HW228017   2.723   4.542   6.726
 9040SOL     OW28018   2.781   1.938   2.205
 9040SOL    HW128019   2.798   1.980   2.115
 9040SOL    HW228020   2.703   1.876   2.198
 9041SOL     OW28021   1.684   3.487   6.360
 9041SOL    HW128022   1.703   3.450   6.451
 9041SOL    HW228023   1.605   3.441   6.321
 9042SOL     OW28024   2.518   5.406   3.799
 9042SOL    HW128025   2.586   5.340   3.832
 9042SOL    HW228026   2.430   5.359   3.786
 9043SOL     OW28027   6.360   2.758   0.934
 9043SOL    HW128028   6.428   2.807   0.878
 9043SOL    HW228029   6.364   2.792   1.028
 9044SOL     OW28030   6.704   4.529   0.588
 9044SOL    HW128031   6.633   4.536   0.658
 9044SOL    HW228032   6.707   4.435   0.553
 9045SOL     OW28033   2.616   5.671   3.836
 9045SOL    HW128034   2.626   5.688   3.934
 9045SOL    HW228035   2.563   5.587   3.823
 9046SOL     OW28036   3.856   4.390   5.525
 9046SOL    HW128037   3.793   4.344   5.463
 9046SOL    HW228038   3.804   4.445   5.591
 9047SOL     OW28039   1.107   4.765   4.944
 9047SOL    HW128040   1.038   4.739   4.877
 9047SOL    HW228041   1.192   4.788   4.897
 9048SOL     OW28042   1.993   1.929   4.827
 9048SOL    HW128043   2.036   2.017   4.843
 9048SOL    HW228044   1.964   1.890   4.915
 9049SOL     OW28045   5.108   6.231   6.704
 9049SOL    HW128046   5.149   6.274   6.624
 9049SOL    HW228047   5.155   6.262   6.787
 9050SOL     OW28048   0.269   5.154   5.364
 9050SOL    HW128049   0.336   5.113   5.427
 9050SOL    HW228050   0.221   5.227   5.411
 9051SOL     OW28051   5.337   6.614   6.047
 9051SOL    HW128052   5.434   6.591   6.051
 9051SOL    HW228053   5.325   6.713   6.050
 9052SOL     OW28054   2.753   4.986   5.192
 9052SOL    HW128055   2.792   5.074   5.164
 9052SOL    HW228056   2.701   4.947   5.117
 9053SOL     OW28057   3.141   1.908   3.166
 9053SOL    HW128058   3.078   1.888   3.091
 9053SOL    HW228059   3.189   1.994   3.148
 9054SOL     OW28060   2.533   0.083   1.006
 9054SOL    HW128061   2.516   7.011   1.021
 9054SOL    HW228062   2.611   0.112   1.061
 9055SOL     OW28063   0.843   2.242   4.892
 9055SOL    HW128064   0.787   2.195   4.824
 9055SOL    HW228065   0.919   2.182   4.920
 9056SOL     OW28066   4.599   2.458   2.720
 9056SOL    HW128067   4.610   2.487   2.625
 9056SOL    HW228068   4.595   2.539   2.779
 9057SOL     OW28069   4.337   6.257   0.148
 9057SOL    HW128070   4.364   6.192   0.076
 9057SOL    HW228071   4.418   6.309   0.178
 9058SOL     OW28072   2.070   2.456   4.351
 9058SOL    HW128073   1.994   2.512   4.384
 9058SOL    HW228074   2.116   2.502   4.276
 9059SOL     OW28075   0.343   1.132   2.256
 9059SOL    HW128076   0.368   1.221   2.295
 9059SOL    HW228077   0.348   1.136   2.156
 9060SOL     OW28078   0.755   5.246   1.770
 9060SOL    HW128079   0.743   5.248   1.869
 9060SOL    HW228080   0.787   5.335   1.738
 9061SOL     OW28081   4.940   4.044   2.324
 9061SOL    HW128082   4.860   4.063   2.380
 9061SOL    HW228083   4.940   3.948   2.296
 9062SOL     OW28084   1.098   5.536   2.919
 9062SOL    HW128085   1.158   5.569   2.991
 9062SOL    HW228086   1.151   5.522   2.835
 9063SOL     OW28087   4.768   1.609   1.880
 9063SOL    HW128088   4.694   1.650   1.934
 9063SOL    HW228089   4.848   1.669   1.883
 9064SOL     OW28090   0.945   5.547   3.161
 9064SOL    HW128091   0.880   5.591   3.100
 9064SOL    HW228092   1.022   5.510   3.108
 9065SOL     OW28093   3.361   4.165   6.208
 9065SOL    HW128094   3.410   4.249   6.183
 9065SOL    HW228095   3.268   4.187   6.236
 9066SOL     OW28096   4.625   5.027   4.270
 9066SOL    HW128097   4.538   5.051   4.314
 9066SOL    HW228098   4.640   5.088   4.192
 9067SOL     OW28099   1.799   6.576   4.832
 9067SOL    HW128100   1.815   6.591   4.929
 9067SOL    HW228101   1.728   6.506   4.819
 9068SOL     OW28102   3.848   0.765   6.136
 9068SOL    HW128103   3.917   0.837   6.141
 9068SOL    HW228104   3.782   0.788   6.064
 9069SOL     OW28105   5.044   2.961   1.484
 9069SOL    HW128106   5.110   2.957   1.409
 9069SOL    HW228107   5.083   3.012   1.561
 9070SOL     OW28108   1.793   1.291   5.316
 9070SOL    HW128109   1.708   1.325   5.355
 9070SOL    HW228110   1.793   1.191   5.321
 9071SOL     OW28111   5.850   2.601   6.610
 9071SOL    HW128112   5.850   2.558   6.520
 9071SOL    HW228113   5.855   2.701   6.599
 9072SOL     OW28114   5.618   0.169   2.429
 9072SOL    HW128115   5.680   0.240   2.396
 9072SOL    HW228116   5.548   0.151   2.360
 9073SOL     OW28117   4.704   3.013   5.337
 9073SOL    HW128118   4.681   2.946   5.265
 9073SOL    HW228119   4.620   3.043   5.382
 9074SOL     OW28120   1.939   0.948   2.856
 9074SOL    HW128121   1.900   0.890   2.784
 9074SOL    HW228122   2.027   0.984   2.826
 9075SOL     OW28123   6.040   6.044   0.718
 9075SOL    HW128124   5.956   6.046   0.772
 9075SOL    HW228125   6.070   5.950   0.705
 9076SOL     OW28126   0.562   6.864   2.377
 9076SOL    HW128127   0.624   6.837   2.451
 9076SOL    HW228128   0.535   6.959   2.390
 9077SOL     OW28129   6.497   1.561   6.804
 9077SOL    HW128130   6.585   1.602   6.780
 9077SOL    HW228131   6.475   1.583   6.899
 9078SOL     OW28132   5.092   0.419   6.909
 9078SOL    HW128133   5.153   0.462   6.842
 9078SOL    HW228134   5.013   0.478   6.925
 9079SOL     OW28135   1.042   1.281   6.306
 9079SOL    HW128136   1.055   1.346   6.231
 9079SOL    HW228137   1.081   1.192   6.281
 9080SOL     OW28138   6.093   3.835   2.302
 9080SOL    HW128139   6.149   3.823   2.384
 9080SOL    HW228140   6.153   3.839   2.221
 9081SOL     OW28141   4.856   1.763   0.296
 9081SOL    HW128142   4.834   1.690   0.232
 9081SOL    HW228143   4.780   1.776   0.360
 9082SOL     OW28144   3.537   5.867   6.211
 9082SOL    HW128145   3.583   5.838   6.127
 9082SOL    HW228146   3.594   5.843   6.290
 9083SOL     OW28147   3.906   6.430   0.266
 9083SOL    HW128148   3.971   6.477   0.208
 9083SOL    HW228149   3.822   6.483   0.273
 9084SOL     OW28150   0.197   3.372   4.861
 9084SOL    HW128151   0.127   3.327   4.807
 9084SOL    HW228152   0.224   3.458   4.817
 9085SOL     OW28153   2.314   5.159   0.618
 9085SOL    HW128154   2.373   5.101   0.674
 9085SOL    HW228155   2.292   5.113   0.532
 9086SOL     OW28156   0.271   3.527   0.620
 9086SOL    HW128157   0.277   3.624   0.597
 9086SOL    HW228158   0.205   3.514   0.694
 9087SOL     OW28159   5.283   1.068   1.187
 9087SOL    HW128160   5.250   1.146   1.241
 9087SOL    HW228161   5.381   1.055   1.203
 9088SOL     OW28162   6.153   5.793   0.433
 9088SOL    HW128163   6.149   5.892   0.421
 9088SOL    HW228164   6.186   5.750   0.348
 9089SOL     OW28165   5.071   5.416   3.875
 9089SOL    HW128166   5.094   5.449   3.783
 9089SOL    HW228167   5.135   5.344   3.901
 9090SOL     OW28168   4.950   6.018   5.650
 9090SOL    HW128169   5.026   6.075   5.681
 9090SOL    HW228170   4.972   5.922   5.665
 9091SOL     OW28171   2.640   1.932   1.753
 9091SOL    HW128172   2.595   1.905   1.838
 9091SOL    HW228173   2.598   2.015   1.718
 9092SOL     OW28174   2.168   1.129   5.036
 9092SOL    HW128175   2.142   1.044   5.082
 9092SOL    HW228176   2.189   1.199   5.104
 9093SOL     OW28177   2.144   3.759   1.173
 9093SOL    HW128178   2.059   3.771   1.122
 9093SOL    HW228179   2.219   3.743   1.109
 9094SOL     OW28180   6.459   4.286   0.911
 9094SOL    HW128181   6.375   4.284   0.965
 9094SOL    HW228182   6.538   4.278   0.972
 9095SOL     OW28183   2.538   3.310   6.855
 9095SOL    HW128184   2.530   3.216   6.888
 9095SOL    HW228185   2.546   3.372   6.932
 9096SOL     OW28186   5.970   3.224   3.276
 9096SOL    HW128187   5.941   3.204   3.183
 9096SOL    HW228188   5.901   3.280   3.322
 9097SOL     OW28189   6.764   5.306   5.886
 9097SOL    HW128190   6.829   5.241   5.847
 9097SOL    HW228191   6.806   5.355   5.962
 9098SOL     OW28192   3.377   3.895   4.139
 9098SOL    HW128193   3.428   3.838   4.204
 9098SOL    HW228194   3.328   3.837   4.074
 9099SOL     OW28195   2.254   2.545   0.484
 9099SOL    HW128196   2.161   2.576   0.507
 9099SOL    HW228197   2.256   2.446   0.484
 9100SOL     OW28198   1.191   3.070   0.245
 9100SOL    HW128199   1.233   3.027   0.165
 9100SOL    HW228200   1.092   3.063   0.238
 9101SOL     OW28201   2.146   2.261   6.842
 9101SOL    HW128202   2.215   2.301   6.903
 9101SOL    HW228203   2.122   2.169   6.875
 9102SOL     OW28204   4.762   6.366   2.248
 9102SOL    HW128205   4.734   6.461   2.235
 9102SOL    HW228206   4.818   6.358   2.331
 9103SOL     OW28207   0.124   4.131   6.648
 9103SOL    HW128208   0.173   4.211   6.614
 9103SOL    HW228209   0.056   4.102   6.579
 9104SOL     OW28210   4.804   0.145   2.157
 9104SOL    HW128211   4.839   0.235   2.134
 9104SOL    HW228212   4.862   0.075   2.115
 9105SOL     OW28213   2.338   1.698   5.766
 9105SOL    HW128214   2.321   1.776   5.825
 9105SOL    HW228215   2.331   1.613   5.819
 9106SOL     OW28216   6.464   5.098   1.369
 9106SOL    HW128217   6.458   5.193   1.399
 9106SOL    HW228218   6.560   5.072   1.360
 9107SOL     OW28219   4.682   0.083   1.309
 9107SOL    HW128220   4.726   0.161   1.354
 9107SOL    HW228221   4.677   0.099   1.211
 9108SOL     OW28222   4.242   6.361   6.793
 9108SOL    HW128223   4.329   6.330   6.831
 9108SOL    HW228224   4.255   6.446   6.742
 9109SOL     OW28225   2.711   1.731   4.304
 9109SOL    HW128226   2.740   1.820   4.340
 9109SOL    HW228227   2.787   1.688   4.255
 9110SOL     OW28228   1.539   2.956   2.931
 9110SOL    HW128229   1.569   3.021   2.862
 9110SOL    HW228230   1.611   2.888   2.946
 9111SOL     OW28231   4.245   4.120   1.684
 9111SOL    HW128232   4.207   4.050   1.745
 9111SOL    HW228233   4.335   4.149   1.718
 9112SOL     OW28234   0.459   5.177   2.654
 9112SOL    HW128235   0.519   5.198   2.731
 9112SOL    HW228236   0.431   5.261   2.609
 9113SOL     OW28237   3.705   6.162   6.881
 9113SOL    HW128238   3.718   6.260   6.897
 9113SOL    HW228239   3.766   6.110   6.941
 9114SOL     OW28240   2.435   4.478   1.945
 9114SOL    HW128241   2.463   4.522   2.030
 9114SOL    HW228242   2.406   4.384   1.964
 9115SOL     OW28243   1.934   4.285   4.085
 9115SOL    HW128244   1.991   4.314   4.162
 9115SOL    HW228245   1.897   4.365   4.038
 9116SOL     OW28246   1.808   1.221   5.922
 9116SOL    HW128247   1.850   1.264   6.002
 9116SOL    HW228248   1.797   1.123   5.938
 9117SOL     OW28249   6.527   2.372   6.749
 9117SOL    HW128250   6.615   2.414   6.773
 9117SOL    HW228251   6.544   2.285   6.702
 9118SOL     OW28252   0.065   5.961   1.615
 9118SOL    HW128253   0.079   6.042   1.558
 9118SOL    HW228254   0.055   5.881   1.557
 9119SOL     OW28255   6.591   6.886   1.119
 9119SOL    HW128256   6.512   6.936   1.085
 9119SOL    HW228257   6.675   6.938   1.101
 9120SOL     OW28258   5.575   1.438   6.555
 9120SOL    HW128259   5.597   1.498   6.479
 9120SOL    HW228260   5.565   1.492   6.639
 9121SOL     OW28261   1.456   1.037   6.975
 9121SOL    HW128262   1.523   1.036   0.023
 9121SOL    HW228263   1.425   1.131   6.960
 9122SOL     OW28264   0.357   2.609   1.313
 9122SOL    HW128265   0.320   2.547   1.244
 9122SOL    HW228266   0.439   2.654   1.277
 9123SOL     OW28267   2.881   5.987   0.482
 9123SOL    HW128268   2.796   6.008   0.530
 9123SOL    HW228269   2.868   5.999   0.383
 9124SOL     OW28270   5.914   4.963   5.422
 9124SOL    HW128271   5.887   4.868   5.406
 9124SOL    HW228272   5.841   5.011   5.470
 9125SOL     OW28273   4.893   5.837   3.281
 9125SOL    HW128274   4.900   5.933   3.309
 9125SOL    HW228275   4.895   5.778   3.362
 9126SOL     OW28276   5.913   0.831   1.824
 9126SOL    HW128277   5.932   0.774   1.904
 9126SOL    HW228278   5.976   0.910   1.823
 9127SOL     OW28279   4.905   0.664   6.953
 9127SOL    HW128280   4.881   0.715   6.871
 9127SOL    HW228281   4.835   0.594   6.971
 9128SOL     OW28282   4.792   2.579   5.066
 9128SOL    HW128283   4.783   2.481   5.046
 9128SOL    HW228284   4.749   2.632   4.993
 9129SOL     OW28285   2.103   2.260   5.943
 9129SOL    HW128286   2.033   2.297   5.881
 9129SOL    HW228287   2.191   2.303   5.923
 9130SOL     OW28288   5.778   4.994   0.921
 9130SOL    HW128289   5.810   5.074   0.871
 9130SOL    HW228290   5.678   4.991   0.919
 9131SOL     OW28291   0.656   4.017   4.535
 9131SOL    HW128292   0.685   3.923   4.517
 9131SOL    HW228293   0.676   4.074   4.455
 9132SOL     OW28294   0.271   3.091   4.873
 9132SOL    HW128295   0.226   3.180   4.876
 9132SOL    HW228296   0.207   3.019   4.900
 9133SOL     OW28297   1.540   4.337   1.318
 9133SOL    HW128298   1.552   4.316   1.221
 9133SOL    HW228299   1.444   4.326   1.343
 9134SOL     OW28300   3.108   5.648   6.258
 9134SOL    HW128301   3.179   5.704   6.301
 9134SOL    HW228302   3.103   5.559   6.304
 9135SOL     OW28303   6.330   6.230   4.161
 9135SOL    HW128304   6.232   6.212   4.161
 9135SOL    HW228305   6.345   6.329   4.162
 9136SOL     OW28306   4.660   4.606   5.667
 9136SOL    HW128307   4.759   4.612   5.682
 9136SOL    HW228308   4.623   4.698   5.654
 9137SOL     OW28309   4.090   1.169   2.329
 9137SOL    HW128310   4.122   1.251   2.281
 9137SOL    HW228311   4.063   1.100   2.261
 9138SOL     OW28312   3.946   5.167   0.374
 9138SOL    HW128313   3.926   5.073   0.347
 9138SOL    HW228314   3.868   5.204   0.424
 9139SOL     OW28315   2.449   1.372   5.514
 9139SOL    HW128316   2.468   1.468   5.493
 9139SOL    HW228317   2.497   1.313   5.450
 9140SOL     OW28318   6.826   2.083   3.615
 9140SOL    HW128319   6.819   1.987   3.640
 9140SOL    HW228320   6.921   2.113   3.624
 9141SOL     OW28321   5.778   0.452   5.892
 9141SOL    HW128322   5.718   0.512   5.945
 9141SOL    HW228323   5.778   0.482   5.796
 9142SOL     OW28324   6.965   3.365   5.762
 9142SOL    HW128325   7.021   3.285   5.785
 9142SOL    HW228326   6.878   3.335   5.723
 9143SOL     OW28327   4.962   3.459   0.698
 9143SOL    HW128328   4.972   3.486   0.602
 9143SOL    HW228329   4.889   3.513   0.740
 9144SOL     OW28330   1.990   4.420   4.868
 9144SOL    HW128331   2.071   4.405   4.923
 9144SOL    HW228332   1.938   4.334   4.861
 9145SOL     OW28333   0.224   4.706   6.439
 9145SOL    HW128334   0.144   4.736   6.388
 9145SOL    HW228335   0.301   4.697   6.376
 9146SOL     OW28336   6.535   2.243   2.457
 9146SOL    HW128337   6.517   2.228   2.360
 9146SOL    HW228338   6.528   2.157   2.507
 9147SOL     OW28339   4.553   5.588   5.782
 9147SOL    HW128340   4.531   5.521   5.711
 9147SOL    HW228341   4.547   5.680   5.744
 9148SOL     OW28342   4.308   5.682   3.312
 9148SOL    HW128343   4.214   5.677   3.346
 9148SOL    HW228344   4.308   5.671   3.213
 9149SOL     OW28345   5.796   3.729   4.019
 9149SOL    HW128346   5.723   3.745   4.085
 9149SOL    HW228347   5.882   3.764   4.055
 9150SOL     OW28348   4.837   0.807   3.106
 9150SOL    HW128349   4.880   0.730   3.153
 9150SOL    HW228350   4.770   0.850   3.166
 9151SOL     OW28351   1.563   4.084   1.933
 9151SOL    HW128352   1.498   4.103   2.007
 9151SOL    HW228353   1.629   4.015   1.963
 9152SOL     OW28354   2.152   5.696   3.303
 9152SOL    HW128355   2.159   5.731   3.209
 9152SOL    HW228356   2.197   5.760   3.365
 9153SOL     OW28357   1.555   3.030   6.134
 9153SOL    HW128358   1.538   3.004   6.040
 9153SOL    HW228359   1.642   2.991   6.164
 9154SOL     OW28360   2.305   5.941   0.282
 9154SOL    HW128361   2.363   5.862   0.263
 9154SOL    HW228362   2.311   6.005   0.206
 9155SOL     OW28363   1.175   3.990   0.846
 9155SOL    HW128364   1.090   3.943   0.819
 9155SOL    HW228365   1.220   4.026   0.764
 9156SOL     OW28366   5.158   2.408   1.479
 9156SOL    HW128367   5.082   2.466   1.452
 9156SOL    HW228368   5.216   2.457   1.544
 9157SOL     OW28369   5.256   3.927   5.725
 9157SOL    HW128370   5.209   4.003   5.771
 9157SOL    HW228371   5.194   3.884   5.660
 9158SOL     OW28372   0.624   3.874   4.169
 9158SOL    HW128373   0.541   3.823   4.148
 9158SOL    HW228374   0.602   3.970   4.183
 9159SOL     OW28375   6.932   4.504   3.796
 9159SOL    HW128376   6.917   4.406   3.786
 9159SOL    HW228377   6.990   4.521   3.876
 9160SOL     OW28378   6.651   6.817   6.864
 9160SOL    HW128379   6.677   6.900   6.913
 9160SOL    HW228380   6.553   6.801   6.875
 9161SOL     OW28381   4.802   4.024   4.394
 9161SOL    HW128382   4.829   3.950   4.456
 9161SOL    HW228383   4.757   3.984   4.314
 9162SOL     OW28384   4.833   2.322   2.783
 9162SOL    HW128385   4.813   2.337   2.880
 9162SOL    HW228386   4.750   2.335   2.729
 9163SOL     OW28387   3.007   1.773   3.819
 9163SOL    HW128388   2.993   1.832   3.739
 9163SOL    HW228389   3.091   1.800   3.867
 9164SOL     OW28390   3.303   0.295   0.536
 9164SOL    HW128391   3.289   0.366   0.467
 9164SOL    HW228392   3.271   0.328   0.625
 9165SOL     OW28393   6.136   6.996   6.898
 9165SOL    HW128394   6.156   0.060   6.937
 9165SOL    HW228395   6.066   6.951   6.954
 9166SOL     OW28396   3.185   5.837   1.327
 9166SOL    HW128397   3.246   5.816   1.252
 9166SOL    HW228398   3.113   5.899   1.295
 9167SOL     OW28399   1.613   4.311   5.381
 9167SOL    HW128400   1.629   4.218   5.348
 9167SOL    HW228401   1.656   4.376   5.319
 9168SOL     OW28402   1.950   1.245   6.461
 9168SOL    HW128403   1.970   1.308   6.536
 9168SOL    HW228404   1.864   1.198   6.479
 9169SOL     OW28405   0.695   0.424   3.650
 9169SOL    HW128406   0.710   0.335   3.692
 9169SOL    HW228407   0.772   0.445   3.589
 9170SOL     OW28408   6.763   5.986   6.599
 9170SOL    HW128409   6.760   6.086   6.598
 9170SOL    HW228410   6.848   5.955   6.556
 9171SOL     OW28411   3.014   5.989   6.966
 9171SOL    HW128412   2.960   5.907   6.981
 9171SOL    HW228413   2.995   6.025   6.874
 9172SOL     OW28414   3.029   1.365   3.755
 9172SOL    HW128415   3.081   1.418   3.821
 9172SOL    HW228416   3.038   1.407   3.664
 9173SOL     OW28417   0.918   5.875   3.937
 9173SOL    HW128418   0.899   5.848   4.032
 9173SOL    HW228419   1.002   5.831   3.906
 9174SOL     OW28420   0.508   5.144   0.460
 9174SOL    HW128421   0.422   5.110   0.421
 9174SOL    HW228422   0.525   5.100   0.548
 9175SOL     OW28423   2.108   5.993   6.067
 9175SOL    HW128424   2.060   6.062   6.121
 9175SOL    HW228425   2.191   6.033   6.027
 9176SOL     OW28426   2.105   0.770   5.928
 9176SOL    HW128427   2.149   0.844   5.978
 9176SOL    HW228428   2.117   0.684   5.978
 9177SOL     OW28429   0.975   4.813   3.534
 9177SOL    HW128430   1.057   4.792   3.587
 9177SOL    HW228431   1.001   4.834   3.440
 9178SOL     OW28432   2.430   5.180   6.963
 9178SOL    HW128433   2.471   5.225   0.016
 9178SOL    HW228434   2.398   5.089   6.989
 9179SOL     OW28435   3.550   4.930   4.291
 9179SOL    HW128436   3.458   4.894   4.309
 9179SOL    HW228437   3.616   4.880   4.346
 9180SOL     OW28438   5.122   1.736   3.220
 9180SOL    HW128439   5.063   1.817   3.219
 9180SOL    HW228440   5.161   1.722   3.130
 9181SOL     OW28441   4.416   1.786   2.688
 9181SOL    HW128442   4.467   1.870   2.709
 9181SOL    HW228443   4.396   1.737   2.772
 9182SOL     OW28444   1.184   6.806   1.383
 9182SOL    HW128445   1.143   6.743   1.317
 9182SOL    HW228446   1.144   6.790   1.474
 9183SOL     OW28447   5.192   6.211   0.410
 9183SOL    HW128448   5.109   6.219   0.465
 9183SOL    HW228449   5.271   6.200   0.470
 9184SOL     OW28450   4.824   6.979   0.311
 9184SOL    HW128451   4.915   7.021   0.314
 9184SOL    HW228452   4.830   6.883   0.338
 9185SOL     OW28453   3.457   0.773   5.068
 9185SOL    HW128454   3.454   0.778   4.968
 9185SOL    HW228455   3.394   0.840   5.107
 9186SOL     OW28456   6.041   0.985   5.609
 9186SOL    HW128457   5.998   1.054   5.549
 9186SOL    HW228458   6.032   0.895   5.567
 9187SOL     OW28459   2.335   6.243   2.288
 9187SOL    HW128460   2.370   6.297   2.365
 9187SOL    HW228461   2.392   6.162   2.275
 9188SOL     OW28462   2.457   6.475   1.118
 9188SOL    HW128463   2.441   6.516   1.208
 9188SOL    HW228464   2.428   6.379   1.119
 9189SOL     OW28465   5.164   5.539   2.122
 9189SOL    HW128466   5.257   5.503   2.134
 9189SOL    HW228467   5.110   5.519   2.204
 9190SOL     OW28468   1.802   5.317   0.457
 9190SOL    HW128469   1.887   5.323   0.403
 9190SOL    HW228470   1.773   5.409   0.483
 9191SOL     OW28471   0.098   0.173   5.643
 9191SOL    HW128472   0.032   0.148   5.714
 9191SOL    HW228473   0.104   0.100   5.576
 9192SOL     OW28474   6.863   4.329   4.333
 9192SOL    HW128475   6.836   4.385   4.255
 9192SOL    HW228476   6.911   4.248   4.301
 9193SOL     OW28477   2.917   3.382   0.138
 9193SOL    HW128478   3.000   3.331   0.159
 9193SOL    HW228479   2.930   3.432   0.052
 9194SOL     OW28480   3.834   0.692   3.833
 9194SOL    HW128481   3.923   0.718   3.796
 9194SOL    HW228482   3.822   0.593   3.824
 9195SOL     OW28483   1.613   1.722   4.000
 9195SOL    HW128484   1.671   1.658   4.050
 9195SOL    HW228485   1.548   1.766   4.063
 9196SOL     OW28486   4.777   2.314   5.054
 9196SOL    HW128487   4.841   2.273   5.120
 9196SOL    HW228488   4.780   2.262   4.969
 9197SOL     OW28489   2.324   3.664   1.708
 9197SOL    HW128490   2.258   3.739   1.715
 9197SOL    HW228491   2.298   3.591   1.771
 9198SOL     OW28492   6.676   5.193   4.474
 9198SOL    HW128493   6.654   5.289   4.488
 9198SOL    HW228494   6.596   5.137   4.497
 9199SOL     OW28495   6.327   4.304   4.742
 9199SOL    HW128496   6.338   4.264   4.651
 9199SOL    HW228497   6.366   4.243   4.811
 9200SOL     OW28498   3.097   0.101   0.629
 9200SOL    HW128499   3.140   0.156   0.557
 9200SOL    HW228500   3.068   0.162   0.703
 9201SOL     OW28501   1.866   4.254   0.483
 9201SOL    HW128502   1.789   4.237   0.544
 9201SOL    HW228503   1.952   4.237   0.532
 9202SOL     OW28504   2.507   0.113   3.520
 9202SOL    HW128505   2.593   0.156   3.549
 9202SOL    HW228506   2.454   0.178   3.466
 9203SOL     OW28507   6.818   6.085   0.727
 9203SOL    HW128508   6.796   6.181   0.740
 9203SOL    HW228509   6.841   6.068   0.631
 9204SOL     OW28510   4.951   0.723   6.203
 9204SOL    HW128511   4.923   0.762   6.291
 9204SOL    HW228512   4.958   0.796   6.136
 9205SOL     OW28513   6.979   4.089   2.286
 9205SOL    HW128514   0.019   4.143   2.337
 9205SOL    HW228515   7.020   4.003   2.257
 9206SOL     OW28516   3.330   6.026   0.661
 9206SOL    HW128517   3.299   5.938   0.627
 9206SOL    HW228518   3.301   6.099   0.599
 9207SOL     OW28519   5.000   5.600   0.260
 9207SOL    HW128520   5.098   5.613   0.247
 9207SOL    HW228521   4.959   5.566   0.175
 9208SOL     OW28522   0.764   3.687   3.590
 9208SOL    HW128523   0.816   3.603   3.573
 9208SOL    HW228524   0.736   3.690   3.686
 9209SOL     OW28525   3.028   0.764   6.255
 9209SOL    HW128526   3.083   0.804   6.182
 9209SOL    HW228527   3.024   0.828   6.332
 9210SOL     OW28528   6.796   0.706   3.436
 9210SOL    HW128529   6.711   0.660   3.459
 9210SOL    HW228530   6.785   0.805   3.448
 9211SOL     OW28531   0.910   1.600   3.159
 9211SOL    HW128532   0.857   1.523   3.194
 9211SOL    HW228533   0.901   1.605   3.060
 9212SOL     OW28534   3.200   4.913   4.742
 9212SOL    HW128535   3.148   4.893   4.659
 9212SOL    HW228536   3.139   4.911   4.821
 9213SOL     OW28537   6.065   3.669   6.278
 9213SOL    HW128538   6.048   3.675   6.180
 9213SOL    HW228539   6.092   3.758   6.313
 9214SOL     OW28540   0.270   5.126   1.107
 9214SOL    HW128541   0.256   5.125   1.206
 9214SOL    HW228542   0.200   5.069   1.063
 9215SOL     OW28543   1.007   1.158   0.702
 9215SOL    HW128544   1.028   1.164   0.604
 9215SOL    HW228545   1.093   1.154   0.753
 9216SOL     OW28546   2.161   6.508   3.118
 9216SOL    HW128547   2.167   6.607   3.135
 9216SOL    HW228548   2.252   6.471   3.105
 9217SOL     OW28549   0.984   2.811   6.779
 9217SOL    HW128550   1.069   2.796   6.729
 9217SOL    HW228551   0.922   2.735   6.761
 9218SOL     OW28552   3.007   0.632   0.329
 9218SOL    HW128553   2.939   0.673   0.269
 9218SOL    HW228554   2.965   0.611   0.418
 9219SOL     OW28555   7.000   2.561   0.775
 9219SOL    HW128556   6.983   2.655   0.802
 9219SOL    HW228557   0.045   2.521   0.832
 9220SOL     OW28558   3.619   6.686   1.906
 9220SOL    HW128559   3.697   6.704   1.966
 9220SOL    HW228560   3.535   6.685   1.960
 9221SOL     OW28561   2.837   5.646   4.365
 9221SOL    HW128562   2.899   5.603   4.431
 9221SOL    HW228563   2.757   5.587   4.352
 9222SOL     OW28564   2.373   2.305   5.911
 9222SOL    HW128565   2.453   2.355   5.943
 9222SOL    HW228566   2.331   2.256   5.988
 9223SOL     OW28567   2.718   3.166   5.338
 9223SOL    HW128568   2.722   3.262   5.310
 9223SOL    HW228569   2.636   3.123   5.298
 9224SOL     OW28570   2.278   4.833   5.054
 9224SOL    HW128571   2.203   4.836   5.120
 9224SOL    HW228572   2.312   4.926   5.038
 9225SOL     OW28573   2.310   6.070   6.807
 9225SOL    HW128574   2.229   6.128   6.798
 9225SOL    HW228575   2.335   6.033   6.718
 9226SOL     OW28576   4.595   6.759   1.204
 9226SOL    HW128577   4.586   6.680   1.143
 9226SOL    HW228578   4.585   6.729   1.299
 9227SOL     OW28579   1.860   5.774   2.503
 9227SOL    HW128580   1.876   5.764   2.404
 9227SOL    HW228581   1.857   5.684   2.545
 9228SOL     OW28582   0.678   0.071   6.878
 9228SOL    HW128583   0.589   0.084   6.834
 9228SOL    HW228584   0.672   0.100   6.973
 9229SOL     OW28585   0.766   5.240   5.197
 9229SOL    HW128586   0.817   5.316   5.157
 9229SOL    HW228587   0.671   5.268   5.212
 9230SOL     OW28588   5.634   0.387   4.008
 9230SOL    HW128589   5.671   0.302   4.046
 9230SOL    HW228590   5.664   0.465   4.064
 9231SOL     OW28591   1.528   2.822   3.668
 9231SOL    HW128592   1.443   2.869   3.647
 9231SOL    HW228593   1.568   2.862   3.750
 9232SOL     OW28594   3.655   4.645   1.224
 9232SOL    HW128595   3.754   4.659   1.212
 9232SOL    HW228596   3.621   4.586   1.151
 9233SOL     OW28597   5.211   5.078   0.777
 9233SOL    HW128598   5.183   4.991   0.735
 9233SOL    HW228599   5.311   5.080   0.784
 9234SOL     OW28600   1.947   6.102   4.142
 9234SOL    HW128601   1.979   6.071   4.231
 9234SOL    HW228602   1.947   6.202   4.139
 9235SOL     OW28603   0.562   2.184   3.320
 9235SOL    HW128604   0.576   2.279   3.350
 9235SOL    HW228605   0.578   2.178   3.221
 9236SOL     OW28606   2.925   3.274   5.740
 9236SOL    HW128607   2.830   3.245   5.746
 9236SOL    HW228608   2.977   3.209   5.684
 9237SOL     OW28609   1.815   3.729   3.705
 9237SOL    HW128610   1.782   3.730   3.799
 9237SOL    HW228611   1.777   3.808   3.656
 9238SOL     OW28612   4.468   2.913   6.156
 9238SOL    HW128613   4.422   2.980   6.099
 9238SOL    HW228614   4.534   2.861   6.101
 9239SOL     OW28615   2.081   4.190   0.635
 9239SOL    HW128616   2.088   4.090   0.644
 9239SOL    HW228617   2.059   4.230   0.723
 9240SOL     OW28618   4.628   1.221   2.575
 9240SOL    HW128619   4.696   1.250   2.508
 9240SOL    HW228620   4.607   1.296   2.637
 9241SOL     OW28621   0.333   5.762   6.729
 9241SOL    HW128622   0.420   5.716   6.745
 9241SOL    HW228623   0.342   5.859   6.751
 9242SOL     OW28624   6.893   6.168   1.898
 9242SOL    HW128625   6.830   6.098   1.866
 9242SOL    HW228626   6.920   6.226   1.821
 9243SOL     OW28627   5.851   5.920   4.901
 9243SOL    HW128628   5.827   6.007   4.945
 9243SOL    HW228629   5.767   5.871   4.879
 9244SOL     OW28630   3.745   5.032   6.673
 9244SOL    HW128631   3.827   5.010   6.619
 9244SOL    HW228632   3.718   5.127   6.655
 9245SOL     OW28633   0.486   5.471   1.590
 9245SOL    HW128634   0.392   5.441   1.574
 9245SOL    HW228635   0.549   5.413   1.538
 9246SOL     OW28636   0.234   5.056   3.787
 9246SOL    HW128637   0.216   5.014   3.698
 9246SOL    HW228638   0.303   5.003   3.836
 9247SOL     OW28639   1.832   6.167   2.238
 9247SOL    HW128640   1.795   6.161   2.331
 9247SOL    HW228641   1.931   6.180   2.243
 9248SOL     OW28642   2.846   1.490   6.342
 9248SOL    HW128643   2.937   1.472   6.379
 9248SOL    HW228644   2.794   1.405   6.338
 9249SOL     OW28645   4.824   0.320   3.648
 9249SOL    HW128646   4.881   0.251   3.603
 9249SOL    HW228647   4.750   0.274   3.697
 9250SOL     OW28648   5.469   3.450   4.210
 9250SOL    HW128649   5.479   3.438   4.309
 9250SOL    HW228650   5.452   3.361   4.167
 9251SOL     OW28651   3.346   1.980   2.453
 9251SOL    HW128652   3.312   1.921   2.526
 9251SOL    HW228653   3.270   2.030   2.412
 9252SOL     OW28654   0.944   0.048   4.719
 9252SOL    HW128655   0.899   0.018   4.635
 9252SOL    HW228656   0.893   0.124   4.758
 9253SOL     OW28657   0.942   6.877   5.939
 9253SOL    HW128658   0.982   6.967   5.923
 9253SOL    HW228659   1.009   6.807   5.913
 9254SOL     OW28660   5.603   3.773   1.527
 9254SOL    HW128661   5.565   3.859   1.563
 9254SOL    HW228662   5.615   3.781   1.428
 9255SOL     OW28663   5.912   4.457   0.778
 9255SOL    HW128664   5.957   4.391   0.840
 9255SOL    HW228665   5.918   4.548   0.819
 9256SOL     OW28666   4.210   4.826   1.817
 9256SOL    HW128667   4.124   4.787   1.851
 9256SOL    HW228668   4.218   4.808   1.719
 9257SOL     OW28669   1.249   4.428   1.335
 9257SOL    HW128670   1.200   4.371   1.270
 9257SOL    HW228671   1.294   4.504   1.287
 9258SOL     OW28672   4.140   3.607   3.404
 9258SOL    HW128673   4.234   3.583   3.428
 9258SOL    HW228674   4.081   3.591   3.483
 9259SOL     OW28675   0.793   3.217   0.464
 9259SOL    HW128676   0.837   3.307   0.474
 9259SOL    HW228677   0.695   3.226   0.479
 9260SOL     OW28678   5.294   3.383   6.001
 9260SOL    HW128679   5.231   3.335   5.940
 9260SOL    HW228680   5.329   3.464   5.955
 9261SOL     OW28681   4.461   7.007   6.902
 9261SOL    HW128682   4.384   7.002   6.965
 9261SOL    HW228683   4.438   6.958   6.818
 9262SOL     OW28684   4.712   1.501   5.660
 9262SOL    HW128685   4.734   1.410   5.695
 9262SOL    HW228686   4.631   1.537   5.707
 9263SOL     OW28687   5.287   3.986   1.686
 9263SOL    HW128688   5.332   3.922   1.748
 9263SOL    HW228689   5.352   4.056   1.657
 9264SOL     OW28690   6.354   3.844   0.726
 9264SOL    HW128691   6.351   3.824   0.628
 9264SOL    HW228692   6.295   3.779   0.775
 9265SOL     OW28693   1.722   1.041   6.804
 9265SOL    HW128694   1.678   0.981   6.871
 9265SOL    HW228695   1.665   1.121   6.789
 9266SOL     OW28696   1.801   6.071   3.031
 9266SOL    HW128697   1.835   5.980   3.009
 9266SOL    HW228698   1.844   6.103   3.115
 9267SOL     OW28699   1.729   4.543   4.816
 9267SOL    HW128700   1.818   4.497   4.815
 9267SOL    HW228701   1.721   4.602   4.735
 9268SOL     OW28702   0.586   0.447   3.138
 9268SOL    HW128703   0.539   0.359   3.139
 9268SOL    HW228704   0.519   0.521   3.136
 9269SOL     OW28705   3.339   1.282   6.177
 9269SOL    HW128706   3.279   1.336   6.118
 9269SOL    HW228707   3.292   1.197   6.203
 9270SOL     OW28708   6.756   6.989   5.673
 9270SOL    HW128709   6.797   6.950   5.590
 9270SOL    HW228710   6.662   7.017   5.653
 9271SOL     OW28711   1.399   5.122   0.384
 9271SOL    HW128712   1.424   5.082   0.295
 9271SOL    HW228713   1.423   5.058   0.456
 9272SOL     OW28714   2.628   4.731   6.230
 9272SOL    HW128715   2.710   4.784   6.210
 9272SOL    HW228716   2.654   4.637   6.252
 9273SOL     OW28717   4.292   6.009   5.016
 9273SOL    HW128718   4.373   6.022   4.959
 9273SOL    HW228719   4.221   6.074   4.988
 9274SOL     OW28720   6.212   2.065   0.204
 9274SOL    HW128721   6.262   2.132   0.258
 9274SOL    HW228722   6.116   2.064   0.231
 9275SOL     OW28723   0.831   0.426   6.792
 9275SOL    HW128724   0.761   0.383   6.735
 9275SOL    HW228725   0.909   0.364   6.801
 9276SOL     OW28726   4.744   6.100   5.027
 9276SOL    HW128727   4.742   6.034   5.103
 9276SOL    HW228728   4.812   6.071   4.960
 9277SOL     OW28729   3.681   3.110   0.159
 9277SOL    HW128730   3.714   3.177   0.093
 9277SOL    HW228731   3.698   3.018   0.124
 9278SOL     OW28732   0.806   2.073   1.941
 9278SOL    HW128733   0.753   2.116   1.869
 9278SOL    HW228734   0.783   1.976   1.947
 9279SOL     OW28735   3.569   6.951   2.201
 9279SOL    HW128736   3.475   6.982   2.218
 9279SOL    HW228737   3.624   0.001   2.168
 9280SOL     OW28738   2.214   6.933   3.843
 9280SOL    HW128739   2.288   6.887   3.893
 9280SOL    HW228740   2.139   6.869   3.829
 9281SOL     OW28741   2.226   2.184   0.277
 9281SOL    HW128742   2.194   2.275   0.253
 9281SOL    HW228743   2.246   2.132   0.194
 9282SOL     OW28744   4.749   2.225   5.805
 9282SOL    HW128745   4.771   2.131   5.781
 9282SOL    HW228746   4.733   2.278   5.721
 9283SOL     OW28747   6.084   2.360   2.256
 9283SOL    HW128748   6.091   2.261   2.268
 9283SOL    HW228749   6.038   2.380   2.169
 9284SOL     OW28750   2.809   3.460   1.463
 9284SOL    HW128751   2.761   3.547   1.477
 9284SOL    HW228752   2.776   3.393   1.528
 9285SOL     OW28753   6.480   3.127   6.773
 9285SOL    HW128754   6.470   3.224   6.751
 9285SOL    HW228755   6.397   3.095   6.819
 9286SOL     OW28756   5.510   6.619   5.395
 9286SOL    HW128757   5.603   6.632   5.361
 9286SOL    HW228758   5.452   6.584   5.322
 9287SOL     OW28759   3.310   6.874   1.663
 9287SOL    HW128760   3.347   6.878   1.755
 9287SOL    HW228761   3.256   6.790   1.652
 9288SOL     OW28762   5.073   2.485   5.789
 9288SOL    HW128763   5.141   2.559   5.789
 9288SOL    HW228764   5.079   2.435   5.702
 9289SOL     OW28765   4.857   3.239   3.060
 9289SOL    HW128766   4.867   3.207   3.154
 9289SOL    HW228767   4.871   3.338   3.056
 9290SOL     OW28768   5.009   1.608   4.723
 9290SOL    HW128769   4.950   1.682   4.692
 9290SOL    HW228770   5.059   1.637   4.805
 9291SOL     OW28771   0.605   1.577   4.312
 9291SOL    HW128772   0.593   1.638   4.234
 9291SOL    HW228773   0.549   1.495   4.300
 9292SOL     OW28774   0.336   3.127   6.706
 9292SOL    HW128775   0.277   3.132   6.625
 9292SOL    HW228776   0.336   3.215   6.752
 9293SOL     OW28777   5.396   3.979   0.036
 9293SOL    HW128778   5.421   4.036   6.985
 9293SOL    HW228779   5.473   3.919   0.060
 9294SOL     OW28780   6.310   6.124   6.919
 9294SOL    HW128781   6.303   6.028   6.947
 9294SOL    HW228782   6.224   6.152   6.877
 9295SOL     OW28783   4.693   1.433   3.238
 9295SOL    HW128784   4.665   1.346   3.277
 9295SOL    HW228785   4.707   1.500   3.312
 9296SOL     OW28786   6.003   0.461   5.478
 9296SOL    HW128787   5.913   0.416   5.479
 9296SOL    HW228788   6.047   0.449   5.567
 9297SOL     OW28789   0.535   1.240   0.515
 9297SOL    HW128790   0.581   1.152   0.506
 9297SOL    HW228791   0.453   1.229   0.572
 9298SOL     OW28792   1.477   5.847   4.779
 9298SOL    HW128793   1.522   5.845   4.868
 9298SOL    HW228794   1.421   5.766   4.768
 9299SOL     OW28795   1.979   3.030   4.407
 9299SOL    HW128796   2.070   3.072   4.401
 9299SOL    HW228797   1.910   3.096   4.377
 9300SOL     OW28798   5.600   4.472   4.477
 9300SOL    HW128799   5.525   4.535   4.456
 9300SOL    HW228800   5.645   4.501   4.561
 9301SOL     OW28801   5.380   4.134   2.440
 9301SOL    HW128802   5.430   4.171   2.519
 9301SOL    HW228803   5.311   4.200   2.411
 9302SOL     OW28804   2.151   2.102   2.362
 9302SOL    HW128805   2.207   2.119   2.443
 9302SOL    HW228806   2.065   2.059   2.389
 9303SOL     OW28807   3.696   5.418   0.275
 9303SOL    HW128808   3.776   5.384   0.226
 9303SOL    HW228809   3.723   5.451   0.365
 9304SOL     OW28810   3.509   3.505   1.000
 9304SOL    HW128811   3.560   3.574   0.948
 9304SOL    HW228812   3.536   3.509   1.097
 9305SOL     OW28813   5.262   3.028   2.172
 9305SOL    HW128814   5.279   3.099   2.241
 9305SOL    HW228815   5.347   2.980   2.152
 9306SOL     OW28816   6.814   3.922   4.025
 9306SOL    HW128817   6.806   3.850   4.095
 9306SOL    HW228818   6.731   3.977   4.024
 9307SOL     OW28819   1.870   1.761   6.994
 9307SOL    HW128820   1.855   1.761   0.067
 9307SOL    HW228821   1.825   1.681   6.954
 9308SOL     OW28822   0.013   2.840   0.841
 9308SOL    HW128823   7.003   2.906   0.908
 9308SOL    HW228824   6.995   2.855   0.753
 9309SOL     OW28825   4.838   3.227   6.200
 9309SOL    HW128826   4.914   3.220   6.265
 9309SOL    HW228827   4.811   3.135   6.171
 9310SOL     OW28828   4.071   5.677   6.755
 9310SOL    HW128829   4.123   5.618   6.693
 9310SOL    HW228830   4.083   5.773   6.728
 9311SOL     OW28831   6.258   3.224   1.108
 9311SOL    HW128832   6.198   3.239   1.186
 9311SOL    HW228833   6.209   3.171   1.039
 9312SOL     OW28834   1.553   4.315   6.583
 9312SOL    HW128835   1.639   4.354   6.616
 9312SOL    HW228836   1.539   4.340   6.487
 9313SOL     OW28837   6.668   6.949   2.919
 9313SOL    HW128838   6.641   6.854   2.935
 9313SOL    HW228839   6.717   6.984   2.998
 9314SOL     OW28840   5.018   4.509   7.004
 9314SOL    HW128841   5.057   4.538   0.066
 9314SOL    HW228842   4.918   4.515   7.009
 9315SOL     OW28843   0.351   6.538   6.254
 9315SOL    HW128844   0.350   6.447   6.215
 9315SOL    HW228845   0.381   6.534   6.349
 9316SOL     OW28846   4.011   5.883   3.930
 9316SOL    HW128847   3.956   5.916   4.007
 9316SOL    HW228848   4.042   5.790   3.950
 9317SOL     OW28849   6.433   4.380   4.006
 9317SOL    HW128850   6.358   4.349   3.947
 9317SOL    HW228851   6.441   4.480   4.000
 9318SOL     OW28852   6.675   0.196   6.047
 9318SOL    HW128853   6.615   0.240   5.981
 9318SOL    HW228854   6.770   0.211   6.021
 9319SOL     OW28855   0.237   3.435   5.340
 9319SOL    HW128856   0.170   3.454   5.412
 9319SOL    HW228857   0.327   3.419   5.381
 9320SOL     OW28858   4.642   2.545   6.199
 9320SOL    HW128859   4.543   2.529   6.204
 9320SOL    HW228860   4.690   2.463   6.229
 9321SOL     OW28861   6.630   5.676   2.872
 9321SOL    HW128862   6.693   5.696   2.797
 9321SOL    HW228863   6.681   5.639   2.949
 9322SOL     OW28864   1.162   6.208   6.621
 9322SOL    HW128865   1.182   6.142   6.694
 9322SOL    HW228866   1.172   6.163   6.532
 9323SOL     OW28867   0.156   0.671   6.188
 9323SOL    HW128868   0.211   0.688   6.106
 9323SOL    HW228869   0.108   0.583   6.178
 9324SOL     OW28870   1.552   5.592   0.123
 9324SOL    HW128871   1.639   5.608   0.170
 9324SOL    HW228872   1.566   5.523   0.052
 9325SOL     OW28873   6.226   2.401   1.154
 9325SOL    HW128874   6.184   2.329   1.208
 9325SOL    HW228875   6.244   2.481   1.211
 9326SOL     OW28876   1.927   6.485   1.360
 9326SOL    HW128877   1.840   6.450   1.327
 9326SOL    HW228878   1.963   6.552   1.295
 9327SOL     OW28879   4.153   1.372   3.196
 9327SOL    HW128880   4.119   1.309   3.126
 9327SOL    HW228881   4.171   1.461   3.154
 9328SOL     OW28882   3.370   1.387   1.718
 9328SOL    HW128883   3.321   1.302   1.734
 9328SOL    HW228884   3.326   1.437   1.644
 9329SOL     OW28885   1.768   3.458   1.467
 9329SOL    HW128886   1.850   3.485   1.416
 9329SOL    HW228887   1.696   3.431   1.403
 9330SOL     OW28888   5.666   1.032   0.078
 9330SOL    HW128889   5.686   1.063   7.011
 9330SOL    HW228890   5.594   1.089   0.118
 9331SOL     OW28891   0.762   1.256   7.004
 9331SOL    HW128892   0.693   1.211   6.948
 9331SOL    HW228893   0.723   1.280   0.067
 9332SOL     OW28894   3.505   3.168   4.150
 9332SOL    HW128895   3.521   3.200   4.243
 9332SOL    HW228896   3.495   3.068   4.150
 9333SOL     OW28897   5.885   4.820   1.131
 9333SOL    HW128898   5.879   4.892   1.061
 9333SOL    HW228899   5.810   4.755   1.118
 9334SOL     OW28900   2.649   6.861   5.008
 9334SOL    HW128901   2.575   6.914   4.967
 9334SOL    HW228902   2.712   6.923   5.056
 9335SOL     OW28903   0.404   0.820   0.530
 9335SOL    HW128904   0.450   0.851   0.613
 9335SOL    HW228905   0.470   0.813   0.456
 9336SOL     OW28906   3.083   6.874   5.870
 9336SOL    HW128907   3.179   6.884   5.843
 9336SOL    HW228908   3.026   6.869   5.788
 9337SOL     OW28909   5.311   0.603   2.639
 9337SOL    HW128910   5.321   0.596   2.539
 9337SOL    HW228911   5.359   0.527   2.683
 9338SOL     OW28912   3.708   0.116   1.728
 9338SOL    HW128913   3.747   0.041   1.782
 9338SOL    HW228914   3.744   0.111   1.635
 9339SOL     OW28915   4.674   6.378   0.775
 9339SOL    HW128916   4.773   6.364   0.775
 9339SOL    HW228917   4.637   6.349   0.863
 9340SOL     OW28918   6.241   3.336   6.899
 9340SOL    HW128919   6.308   3.410   6.903
 9340SOL    HW228920   6.222   3.303   6.992
 9341SOL     OW28921   0.110   5.416   6.435
 9341SOL    HW128922   0.149   5.326   6.455
 9341SOL    HW228923   0.101   5.428   6.336
 9342SOL     OW28924   1.316   6.361   5.980
 9342SOL    HW128925   1.303   6.266   5.954
 9342SOL    HW228926   1.239   6.391   6.037
 9343SOL     OW28927   5.980   5.439   5.063
 9343SOL    HW128928   5.946   5.393   4.980
 9343SOL    HW228929   5.909   5.500   5.098
 9344SOL     OW28930   5.240   6.866   1.633
 9344SOL    HW128931   5.157   6.890   1.584
 9344SOL    HW228932   5.320   6.890   1.578
 9345SOL     OW28933   6.855   2.968   1.004
 9345SOL    HW128934   6.836   3.066   1.003
 9345SOL    HW228935   6.897   2.943   1.091
 9346SOL     OW28936   5.550   7.020   0.687
 9346SOL    HW128937   5.620   6.970   0.737
 9346SOL    HW228938   5.543   0.087   0.722
 9347SOL     OW28939   1.636   6.739   1.839
 9347SOL    HW128940   1.660   6.653   1.885
 9347SOL    HW228941   1.703   6.757   1.767
 9348SOL     OW28942   3.151   4.705   6.931
 9348SOL    HW128943   3.163   4.608   6.955
 9348SOL    HW228944   3.126   4.756   7.013
 9349SOL     OW28945   1.873   6.542   2.955
 9349SOL    HW128946   1.945   6.585   2.900
 9349SOL    HW228947   1.904   6.451   2.984
 9350SOL     OW28948   0.812   2.937   6.032
 9350SOL    HW128949   0.763   2.906   6.113
 9350SOL    HW228950   0.848   2.858   5.983
 9351SOL     OW28951   2.710   1.744   6.697
 9351SOL    HW128952   2.622   1.715   6.733
 9351SOL    HW228953   2.762   1.790   6.769
 9352SOL     OW28954   2.332   4.600   5.410
 9352SOL    HW128955   2.392   4.556   5.344
 9352SOL    HW228956   2.368   4.691   5.431
 9353SOL     OW28957   6.769   0.415   1.125
 9353SOL    HW128958   6.759   0.353   1.047
 9353SOL    HW228959   6.763   0.363   1.210
 9354SOL     OW28960   0.393   2.296   6.479
 9354SOL    HW128961   0.392   2.198   6.457
 9354SOL    HW228962   0.458   2.313   6.552
 9355SOL     OW28963   0.449   1.483   5.630
 9355SOL    HW128964   0.491   1.521   5.713
 9355SOL    HW228965   0.518   1.471   5.559
 9356SOL     OW28966   5.648   6.985   3.016
 9356SOL    HW128967   5.556   6.952   3.039
 9356SOL    HW228968   5.696   6.915   2.963
 9357SOL     OW28969   1.058   2.148   6.891
 9357SOL    HW128970   1.078   2.054   6.919
 9357SOL    HW228971   0.962   2.155   6.863
 9358SOL     OW28972   0.857   3.343   1.015
 9358SOL    HW128973   0.841   3.320   1.111
 9358SOL    HW228974   0.916   3.274   0.973
 9359SOL     OW28975   1.665   0.572   5.961
 9359SOL    HW128976   1.613   0.616   6.034
 9359SOL    HW228977   1.615   0.580   5.875
 9360SOL     OW28978   1.261   6.928   6.157
 9360SOL    HW128979   1.223   6.929   6.064
 9360SOL    HW228980   1.357   6.956   6.155
 9361SOL     OW28981   1.732   5.950   4.089
 9361SOL    HW128982   1.786   6.030   4.116
 9361SOL    HW228983   1.668   5.927   4.163
 9362SOL     OW28984   2.139   0.024   2.251
 9362SOL    HW128985   2.187   6.965   2.230
 9362SOL    HW228986   2.059   0.032   2.192
 9363SOL     OW28987   1.967   4.662   2.283
 9363SOL    HW128988   1.886   4.604   2.277
 9363SOL    HW228989   2.021   4.636   2.363
 9364SOL     OW28990   1.234   2.449   1.182
 9364SOL    HW128991   1.270   2.410   1.267
 9364SOL    HW228992   1.281   2.536   1.163
 9365SOL     OW28993   2.909   1.638   4.116
 9365SOL    HW128994   2.984   1.587   4.074
 9365SOL    HW228995   2.924   1.736   4.104
 9366SOL     OW28996   4.101   5.708   1.899
 9366SOL    HW128997   4.163   5.672   1.968
 9366SOL    HW228998   4.009   5.673   1.915
 9367SOL     OW28999   0.082   0.818   1.326
 9367SOL    HW129000   0.156   0.825   1.259
 9367SOL    HW229001   0.066   0.722   1.347
 9368SOL     OW29002   3.135   6.884   3.243
 9368SOL    HW129003   3.201   6.880   3.167
 9368SOL    HW229004   3.183   6.907   3.327
 9369SOL     OW29005   2.961   5.489   0.338
 9369SOL    HW129006   2.950   5.415   0.404
 9369SOL    HW229007   2.996   5.453   0.252
 9370SOL     OW29008   4.535   1.918   4.257
 9370SOL    HW129009   4.616   1.975   4.249
 9370SOL    HW229010   4.542   1.840   4.194
 9371SOL     OW29011   4.535   5.653   1.267
 9371SOL    HW129012   4.633   5.662   1.249
 9371SOL    HW229013   4.489   5.619   1.185
 9372SOL     OW29014   4.701   6.202   1.703
 9372SOL    HW129015   4.607   6.236   1.711
 9372SOL    HW229016   4.765   6.276   1.724
 9373SOL     OW29017   6.938   2.584   1.163
 9373SOL    HW129018   7.014   2.645   1.186
 9373SOL    HW229019   6.857   2.638   1.143
 9374SOL     OW29020   0.251   5.545   5.436
 9374SOL    HW129021   0.172   5.492   5.466
 9374SOL    HW229022   0.305   5.491   5.372
 9375SOL     OW29023   0.473   1.143   0.215
 9375SOL    HW129024   0.509   1.050   0.220
 9375SOL    HW229025   0.463   1.180   0.307
 9376SOL     OW29026   2.356   4.076   1.485
 9376SOL    HW129027   2.420   4.143   1.524
 9376SOL    HW229028   2.403   3.989   1.470
 9377SOL     OW29029   1.611   0.910   3.265
 9377SOL    HW129030   1.662   0.945   3.343
 9377SOL    HW229031   1.546   0.840   3.296
 9378SOL     OW29032   3.405   0.778   4.786
 9378SOL    HW129033   3.418   0.733   4.697
 9378SOL    HW229034   3.398   0.877   4.773
 9379SOL     OW29035   4.679   6.679   4.424
 9379SOL    HW129036   4.769   6.701   4.460
 9379SOL    HW229037   4.688   6.624   4.341
 9380SOL     OW29038   5.218   5.755   0.030
 9380SOL    HW129039   5.312   5.720   0.035
 9380SOL    HW229040   5.164   5.697   6.996
 9381SOL     OW29041   5.684   1.632   5.041
 9381SOL    HW129042   5.734   1.545   5.038
 9381SOL    HW229043   5.735   1.701   4.990
 9382SOL     OW29044   3.144   5.831   5.711
 9382SOL    HW129045   3.239   5.862   5.713
 9382SOL    HW229046   3.141   5.732   5.702
 9383SOL     OW29047   5.902   4.037   2.368
 9383SOL    HW129048   5.971   3.984   2.319
 9383SOL    HW229049   5.947   4.103   2.428
 9384SOL     OW29050   2.393   0.677   2.029
 9384SOL    HW129051   2.427   0.712   1.942
 9384SOL    HW229052   2.468   0.670   2.094
 9385SOL     OW29053   4.722   1.738   4.027
 9385SOL    HW129054   4.736   1.696   3.938
 9385SOL    HW229055   4.727   1.837   4.019
 9386SOL     OW29056   5.027   5.927   0.419
 9386SOL    HW129057   5.017   6.004   0.482
 9386SOL    HW229058   4.960   5.936   0.345
 9387SOL     OW29059   3.085   2.411   0.167
 9387SOL    HW129060   3.146   2.338   0.197
 9387SOL    HW229061   3.081   2.482   0.238
 9388SOL     OW29062   1.991   0.188   5.320
 9388SOL    HW129063   2.066   0.130   5.290
 9388SOL    HW229064   1.945   0.227   5.240
 9389SOL     OW29065   2.061   4.929   2.241
 9389SOL    HW129066   2.102   4.931   2.150
 9389SOL    HW229067   2.009   4.844   2.252
 9390SOL     OW29068   5.214   5.160   4.562
 9390SOL    HW129069   5.119   5.180   4.540
 9390SOL    HW229070   5.227   5.061   4.567
 9391SOL     OW29071   1.507   4.013   4.213
 9391SOL    HW129072   1.529   4.085   4.279
 9391SOL    HW229073   1.519   3.924   4.257
 9392SOL     OW29074   5.025   4.603   2.841
 9392SOL    HW129075   4.937   4.560   2.864
 9392SOL    HW229076   5.031   4.692   2.885
 9393SOL     OW29077   1.997   6.222   6.234
 9393SOL    HW129078   1.918   6.193   6.180
 9393SOL    HW229079   2.015   6.319   6.217
 9394SOL     OW29080   3.847   0.624   0.598
 9394SOL    HW129081   3.810   0.569   0.524
 9394SOL    HW229082   3.774   0.678   0.640
 9395SOL     OW29083   1.774   1.571   0.795
 9395SOL    HW129084   1.770   1.496   0.729
 9395SOL    HW229085   1.857   1.563   0.850
 9396SOL     OW29086   1.081   6.840   6.341
 9396SOL    HW129087   0.992   6.850   6.296
 9396SOL    HW229088   1.154   6.849   6.273
 9397SOL     OW29089   3.434   0.483   4.826
 9397SOL    HW129090   3.388   0.553   4.771
 9397SOL    HW229091   3.380   0.398   4.822
 9398SOL     OW29092   0.735   2.255   0.102
 9398SOL    HW129093   0.785   2.316   0.163
 9398SOL    HW229094   0.654   2.219   0.150
 9399SOL     OW29095   0.897   2.929   4.464
 9399SOL    HW129096   0.967   2.859   4.454
 9399SOL    HW229097   0.887   2.953   4.561
 9400SOL     OW29098   5.783   1.392   0.991
 9400SOL    HW129099   5.837   1.385   0.908
 9400SOL    HW229100   5.739   1.482   0.995
 9401SOL     OW29101   0.268   2.339   3.883
 9401SOL    HW129102   0.276   2.387   3.970
 9401SOL    HW229103   0.207   2.260   3.895
 9402SOL     OW29104   2.411   6.714   4.523
 9402SOL    HW129105   2.371   6.802   4.549
 9402SOL    HW229106   2.510   6.723   4.515
 9403SOL     OW29107   5.754   2.352   1.959
 9403SOL    HW129108   5.760   2.258   1.993
 9403SOL    HW229109   5.840   2.399   1.977
 9404SOL     OW29110   2.324   2.403   0.765
 9404SOL    HW129111   2.355   2.345   0.840
 9404SOL    HW229112   2.374   2.379   0.682
 9405SOL     OW29113   6.832   5.673   5.288
 9405SOL    HW129114   6.838   5.577   5.264
 9405SOL    HW229115   6.791   5.682   5.379
 9406SOL     OW29116   0.901   2.324   0.363
 9406SOL    HW129117   0.870   2.317   0.458
 9406SOL    HW229118   0.935   2.235   0.332
 9407SOL     OW29119   2.028   4.880   5.211
 9407SOL    HW129120   1.940   4.832   5.204
 9407SOL    HW229121   2.015   4.977   5.191
 9408SOL     OW29122   6.693   3.787   4.258
 9408SOL    HW129123   6.661   3.774   4.352
 9408SOL    HW229124   6.728   3.701   4.222
 9409SOL     OW29125   6.268   5.372   2.295
 9409SOL    HW129126   6.296   5.401   2.387
 9409SOL    HW229127   6.328   5.300   2.263
 9410SOL     OW29128   3.913   0.777   1.011
 9410SOL    HW129129   3.838   0.712   1.017
 9410SOL    HW229130   3.978   0.747   0.941
 9411SOL     OW29131   3.056   3.686   2.887
 9411SOL    HW129132   3.148   3.670   2.924
 9411SOL    HW229133   2.995   3.611   2.914
 9412SOL     OW29134   5.069   6.120   1.806
 9412SOL    HW129135   4.969   6.125   1.816
 9412SOL    HW229136   5.098   6.180   1.731
 9413SOL     OW29137   4.812   4.003   3.038
 9413SOL    HW129138   4.908   4.029   3.039
 9413SOL    HW229139   4.802   3.913   2.994
 9414SOL     OW29140   2.210   2.185   3.517
 9414SOL    HW129141   2.181   2.089   3.513
 9414SOL    HW229142   2.275   2.202   3.443
 9415SOL     OW29143   5.102   1.133   2.046
 9415SOL    HW129144   5.021   1.190   2.061
 9415SOL    HW229145   5.117   1.121   1.948
 9416SOL     OW29146   5.467   4.950   5.399
 9416SOL    HW129147   5.509   4.889   5.466
 9416SOL    HW229148   5.370   4.962   5.420
 9417SOL     OW29149   3.168   5.783   2.782
 9417SOL    HW129150   3.093   5.756   2.722
 9417SOL    HW229151   3.254   5.785   2.730
 9418SOL     OW29152   3.163   1.571   5.273
 9418SOL    HW129153   3.214   1.574   5.358
 9418SOL    HW229154   3.070   1.536   5.291
 9419SOL     OW29155   1.570   3.084   6.512
 9419SOL    HW129156   1.643   3.016   6.501
 9419SOL    HW229157   1.499   3.046   6.571
 9420SOL     OW29158   5.767   4.251   6.283
 9420SOL    HW129159   5.787   4.238   6.186
 9420SOL    HW229160   5.668   4.250   6.297
 9421SOL     OW29161   3.819   6.415   6.942
 9421SOL    HW129162   3.830   6.465   6.856
 9421SOL    HW229163   3.904   6.369   6.965
 9422SOL     OW29164   2.271   6.221   6.013
 9422SOL    HW129165   2.368   6.238   6.034
 9422SOL    HW229166   2.219   6.305   6.027
 9423SOL     OW29167   4.450   4.574   2.406
 9423SOL    HW129168   4.479   4.545   2.315
 9423SOL    HW229169   4.367   4.525   2.432
 9424SOL     OW29170   6.349   0.227   4.055
 9424SOL    HW129171   6.418   0.298   4.040
 9424SOL    HW229172   6.294   0.217   3.972
 9425SOL     OW29173   6.542   4.147   1.305
 9425SOL    HW129174   6.596   4.115   1.227
 9425SOL    HW229175   6.595   4.137   1.389
 9426SOL     OW29176   6.221   3.188   5.857
 9426SOL    HW129177   6.234   3.218   5.952
 9426SOL    HW229178   6.128   3.153   5.846
 9427SOL     OW29179   4.587   4.485   2.663
 9427SOL    HW129180   4.677   4.504   2.625
 9427SOL    HW229181   4.596   4.451   2.756
 9428SOL     OW29182   1.278   5.935   5.663
 9428SOL    HW129183   1.292   5.840   5.690
 9428SOL    HW229184   1.200   5.940   5.601
 9429SOL     OW29185   2.350   2.598   4.462
 9429SOL    HW129186   2.393   2.633   4.545
 9429SOL    HW229187   2.253   2.581   4.480
 9430SOL     OW29188   1.484   1.835   4.208
 9430SOL    HW129189   1.538   1.766   4.256
 9430SOL    HW229190   1.410   1.866   4.267
 9431SOL     OW29191   0.628   4.458   5.570
 9431SOL    HW129192   0.663   4.366   5.554
 9431SOL    HW229193   0.652   4.517   5.494
 9432SOL     OW29194   0.002   0.905   3.918
 9432SOL    HW129195   0.031   0.816   3.883
 9432SOL    HW229196   6.932   0.901   3.945
 9433SOL     OW29197   4.610   5.600   1.590
 9433SOL    HW129198   4.670   5.643   1.657
 9433SOL    HW229199   4.663   5.577   1.508
 9434SOL     OW29200   4.315   5.636   3.908
 9434SOL    HW129201   4.368   5.640   3.823
 9434SOL    HW229202   4.223   5.604   3.889
 9435SOL     OW29203   6.550   3.904   0.935
 9435SOL    HW129204   6.542   3.842   1.013
 9435SOL    HW229205   6.480   3.881   0.867
 9436SOL     OW29206   2.628   0.618   3.168
 9436SOL    HW129207   2.547   0.665   3.134
 9436SOL    HW229208   2.601   0.550   3.237
 9437SOL     OW29209   5.441   0.750   4.884
 9437SOL    HW129210   5.449   0.700   4.971
 9437SOL    HW229211   5.530   0.756   4.840
 9438SOL     OW29212   4.791   0.199   2.418
 9438SOL    HW129213   4.784   0.163   2.325
 9438SOL    HW229214   4.831   0.129   2.478
 9439SOL     OW29215   1.846   4.041   0.973
 9439SOL    HW129216   1.841   4.059   1.071
 9439SOL    HW229217   1.754   4.038   0.935
 9440SOL     OW29218   2.098   4.837   3.495
 9440SOL    HW129219   2.098   4.872   3.589
 9440SOL    HW229220   2.024   4.881   3.443
 9441SOL     OW29221   0.083   6.486   4.202
 9441SOL    HW129222   0.054   6.427   4.278
 9441SOL    HW229223   0.034   6.573   4.208
 9442SOL     OW29224   6.068   3.086   0.966
 9442SOL    HW129225   6.055   3.028   0.886
 9442SOL    HW229226   6.034   3.178   0.947
 9443SOL     OW29227   2.007   4.386   2.050
 9443SOL    HW129228   1.910   4.376   2.025
 9443SOL    HW229229   2.014   4.395   2.149
 9444SOL     OW29230   2.061   5.094   6.377
 9444SOL    HW129231   2.146   5.096   6.429
 9444SOL    HW229232   2.018   5.004   6.386
 9445SOL     OW29233   0.147   1.832   4.328
 9445SOL    HW129234   0.219   1.806   4.391
 9445SOL    HW229235   0.142   1.765   4.253
 9446SOL     OW29236   6.255   3.841   4.334
 9446SOL    HW129237   6.279   3.911   4.401
 9446SOL    HW229238   6.294   3.753   4.362
 9447SOL     OW29239   4.879   3.940   1.967
 9447SOL    HW129240   4.881   3.894   2.056
 9447SOL    HW229241   4.946   4.014   1.966
 9448SOL     OW29242   6.359   1.840   6.352
 9448SOL    HW129243   6.383   1.769   6.417
 9448SOL    HW229244   6.259   1.842   6.339
 9449SOL     OW29245   5.697   6.992   2.603
 9449SOL    HW129246   5.679   0.018   2.519
 9449SOL    HW229247   5.634   6.914   2.607
 9450SOL     OW29248   1.236   6.224   3.382
 9450SOL    HW129249   1.264   6.310   3.425
 9450SOL    HW229250   1.309   6.157   3.390
 9451SOL     OW29251   3.839   5.295   0.030
 9451SOL    HW129252   3.789   5.209   0.043
 9451SOL    HW229253   3.937   5.279   0.046
 9452SOL     OW29254   6.210   4.388   6.491
 9452SOL    HW129255   6.213   4.476   6.443
 9452SOL    HW229256   6.284   4.385   6.559
 9453SOL     OW29257   5.461   4.593   1.611
 9453SOL    HW129258   5.482   4.502   1.574
 9453SOL    HW229259   5.467   4.590   1.711
 9454SOL     OW29260   5.823   4.869   0.367
 9454SOL    HW129261   5.882   4.947   0.390
 9454SOL    HW229262   5.741   4.902   0.320
 9455SOL     OW29263   4.096   0.869   1.823
 9455SOL    HW129264   4.182   0.880   1.773
 9455SOL    HW229265   4.111   0.890   1.920
 9456SOL     OW29266   6.471   2.175   3.414
 9456SOL    HW129267   6.529   2.246   3.373
 9456SOL    HW229268   6.495   2.165   3.511
 9457SOL     OW29269   6.223   6.084   4.819
 9457SOL    HW129270   6.218   6.177   4.856
 9457SOL    HW229271   6.270   6.085   4.731
 9458SOL     OW29272   5.974   3.742   0.022
 9458SOL    HW129273   5.991   3.725   6.951
 9458SOL    HW229274   6.037   3.813   0.054
 9459SOL     OW29275   4.726   4.376   4.995
 9459SOL    HW129276   4.648   4.435   5.019
 9459SOL    HW229277   4.719   4.350   4.899
 9460SOL     OW29278   1.163   3.286   2.148
 9460SOL    HW129279   1.128   3.228   2.222
 9460SOL    HW229280   1.263   3.281   2.147
 9461SOL     OW29281   1.802   1.569   1.418
 9461SOL    HW129282   1.832   1.571   1.513
 9461SOL    HW229283   1.727   1.634   1.405
 9462SOL     OW29284   7.004   1.254   4.588
 9462SOL    HW129285   6.961   1.228   4.502
 9462SOL    HW229286   0.037   1.181   4.620
 9463SOL     OW29287   6.058   4.304   0.923
 9463SOL    HW129288   6.069   4.267   1.016
 9463SOL    HW229289   6.082   4.235   0.856
 9464SOL     OW29290   1.406   0.366   1.580
 9464SOL    HW129291   1.476   0.295   1.585
 9464SOL    HW229292   1.393   0.393   1.485
 9465SOL     OW29293   6.649   5.181   0.878
 9465SOL    HW129294   6.578   5.235   0.923
 9465SOL    HW229295   6.609   5.097   0.842
 9466SOL     OW29296   4.461   3.746   5.633
 9466SOL    HW129297   4.459   3.732   5.534
 9466SOL    HW229298   4.508   3.670   5.677
 9467SOL     OW29299   1.542   2.744   0.974
 9467SOL    HW129300   1.510   2.663   0.926
 9467SOL    HW229301   1.531   2.825   0.916
 9468SOL     OW29302   5.909   1.220   0.718
 9468SOL    HW129303   5.833   1.268   0.673
 9468SOL    HW229304   5.877   1.181   0.805
 9469SOL     OW29305   0.028   6.573   1.182
 9469SOL    HW129306   0.023   6.578   1.083
 9469SOL    HW229307   6.971   6.531   1.218
 9470SOL     OW29308   3.491   3.131   0.364
 9470SOL    HW129309   3.567   3.107   0.304
 9470SOL    HW229310   3.524   3.139   0.458
 9471SOL     OW29311   6.433   2.572   4.901
 9471SOL    HW129312   6.373   2.652   4.898
 9471SOL    HW229313   6.506   2.588   4.967
 9472SOL     OW29314   1.499   3.681   5.908
 9472SOL    HW129315   1.582   3.642   5.869
 9472SOL    HW229316   1.518   3.774   5.940
 9473SOL     OW29317   2.741   3.972   1.197
 9473SOL    HW129318   2.661   3.912   1.205
 9473SOL    HW229319   2.824   3.918   1.197
 9474SOL     OW29320   5.132   4.010   1.049
 9474SOL    HW129321   5.187   3.987   0.969
 9474SOL    HW229322   5.093   3.926   1.088
 9475SOL     OW29323   4.809   4.038   5.662
 9475SOL    HW129324   4.752   3.996   5.591
 9475SOL    HW229325   4.821   4.136   5.642
 9476SOL     OW29326   4.134   3.951   1.210
 9476SOL    HW129327   4.187   3.928   1.128
 9476SOL    HW229328   4.196   3.982   1.282
 9477SOL     OW29329   2.941   4.736   0.412
 9477SOL    HW129330   2.965   4.713   0.318
 9477SOL    HW229331   2.842   4.747   0.420
 9478SOL     OW29332   5.729   3.713   6.071
 9478SOL    HW129333   5.799   3.779   6.097
 9478SOL    HW229334   5.641   3.759   6.058
 9479SOL     OW29335   4.633   0.680   1.780
 9479SOL    HW129336   4.657   0.621   1.857
 9479SOL    HW229337   4.716   0.709   1.733
 9480SOL     OW29338   5.847   0.586   1.325
 9480SOL    HW129339   5.918   0.609   1.258
 9480SOL    HW229340   5.786   0.665   1.337
 9481SOL     OW29341   4.669   0.416   3.078
 9481SOL    HW129342   4.764   0.384   3.081
 9481SOL    HW229343   4.610   0.351   3.125
 9482SOL     OW29344   6.162   5.584   6.525
 9482SOL    HW129345   6.166   5.484   6.517
 9482SOL    HW229346   6.235   5.625   6.471
 9483SOL     OW29347   6.810   6.633   0.067
 9483SOL    HW129348   6.860   6.620   0.153
 9483SOL    HW229349   6.751   6.714   0.075
 9484SOL     OW29350   3.240   6.030   4.754
 9484SOL    HW129351   3.296   6.090   4.697
 9484SOL    HW229352   3.244   6.062   4.849
 9485SOL     OW29353   6.976   1.236   5.918
 9485SOL    HW129354   0.042   1.232   5.878
 9485SOL    HW229355   6.931   1.320   5.889
 9486SOL     OW29356   6.567   5.249   6.892
 9486SOL    HW129357   6.617   5.334   6.877
 9486SOL    HW229358   6.473   5.269   6.918
 9487SOL     OW29359   3.248   3.651   3.104
 9487SOL    HW129360   3.299   3.734   3.127
 9487SOL    HW229361   3.166   3.645   3.161
 9488SOL     OW29362   1.464   0.656   1.221
 9488SOL    HW129363   1.513   0.728   1.271
 9488SOL    HW229364   1.507   0.642   1.132
 9489SOL     OW29365   5.532   3.214   0.312
 9489SOL    HW129366   5.549   3.125   0.354
 9489SOL    HW229367   5.439   3.217   0.275
 9490SOL     OW29368   5.421   3.269   5.019
 9490SOL    HW129369   5.453   3.180   4.988
 9490SOL    HW229370   5.412   3.331   4.941
 9491SOL     OW29371   5.451   0.294   2.600
 9491SOL    HW129372   5.507   0.239   2.537
 9491SOL    HW229373   5.382   0.236   2.643
 9492SOL     OW29374   5.141   2.773   3.481
 9492SOL    HW129375   5.076   2.724   3.422
 9492SOL    HW229376   5.222   2.797   3.428
 9493SOL     OW29377   3.727   6.302   1.137
 9493SOL    HW129378   3.764   6.308   1.230
 9493SOL    HW229379   3.631   6.274   1.141
 9494SOL     OW29380   6.000   1.792   1.934
 9494SOL    HW129381   6.078   1.753   1.884
 9494SOL    HW229382   6.018   1.888   1.955
 9495SOL     OW29383   6.268   2.647   1.315
 9495SOL    HW129384   6.257   2.676   1.410
 9495SOL    HW229385   6.328   2.711   1.267
 9496SOL     OW29386   5.825   2.011   1.588
 9496SOL    HW129387   5.924   2.001   1.598
 9496SOL    HW229388   5.799   2.107   1.603
 9497SOL     OW29389   4.518   4.540   4.891
 9497SOL    HW129390   4.471   4.557   4.805
 9497SOL    HW229391   4.451   4.520   4.963
 9498SOL     OW29392   1.150   5.501   4.357
 9498SOL    HW129393   1.088   5.443   4.410
 9498SOL    HW229394   1.175   5.454   4.272
 9499SOL     OW29395   5.533   5.770   4.399
 9499SOL    HW129396   5.457   5.799   4.458
 9499SOL    HW229397   5.616   5.761   4.454
 9500SOL     OW29398   3.052   1.985   0.686
 9500SOL    HW129399   2.978   2.042   0.650
 9500SOL    HW229400   3.100   1.941   0.610
 9501SOL     OW29401   2.170   3.863   4.771
 9501SOL    HW129402   2.194   3.933   4.704
 9501SOL    HW229403   2.226   3.876   4.853
 9502SOL     OW29404   5.383   4.714   3.915
 9502SOL    HW129405   5.340   4.730   3.827
 9502SOL    HW229406   5.382   4.617   3.936
 9503SOL     OW29407   5.965   1.119   0.226
 9503SOL    HW129408   5.886   1.070   0.192
 9503SOL    HW229409   5.951   1.218   0.215
 9504SOL     OW29410   6.295   5.608   1.788
 9504SOL    HW129411   6.394   5.618   1.794
 9504SOL    HW229412   6.266   5.528   1.839
 9505SOL     OW29413   4.673   4.424   6.085
 9505SOL    HW129414   4.711   4.339   6.048
 9505SOL    HW229415   4.709   4.502   6.034
 9506SOL     OW29416   2.750   0.781   1.046
 9506SOL    HW129417   2.771   0.721   0.969
 9506SOL    HW229418   2.680   0.737   1.104
 9507SOL     OW29419   5.736   0.140   2.816
 9507SOL    HW129420   5.731   0.063   2.753
 9507SOL    HW229421   5.683   0.118   2.899
 9508SOL     OW29422   4.629   1.485   2.726
 9508SOL    HW129423   4.668   1.493   2.817
 9508SOL    HW229424   4.529   1.487   2.732
 9509SOL     OW29425   5.600   0.973   3.194
 9509SOL    HW129426   5.510   0.965   3.151
 9509SOL    HW229427   5.661   0.903   3.156
 9510SOL     OW29428   1.935   2.838   3.553
 9510SOL    HW129429   1.922   2.749   3.597
 9510SOL    HW229430   1.896   2.836   3.461
 9511SOL     OW29431   0.254   1.724   0.726
 9511SOL    HW129432   0.196   1.711   0.806
 9511SOL    HW229433   0.209   1.785   0.662
 9512SOL     OW29434   6.809   1.965   1.500
 9512SOL    HW129435   6.835   1.882   1.550
 9512SOL    HW229436   6.865   2.041   1.533
 9513SOL     OW29437   4.597   4.178   5.423
 9513SOL    HW129438   4.608   4.228   5.509
 9513SOL    HW229439   4.500   4.172   5.400
 9514SOL     OW29440   3.737   2.867   0.070
 9514SOL    HW129441   3.726   2.841   7.000
 9514SOL    HW229442   3.701   2.794   0.128
 9515SOL     OW29443   0.743   5.424   3.945
 9515SOL    HW129444   0.752   5.522   3.964
 9515SOL    HW229445   0.806   5.399   3.872
 9516SOL     OW29446   6.772   4.226   6.561
 9516SOL    HW129447   6.675   4.205   6.556
 9516SOL    HW229448   6.825   4.142   6.553
 9517SOL     OW29449   0.448   6.388   1.574
 9517SOL    HW129450   0.495   6.312   1.620
 9517SOL    HW229451   0.442   6.465   1.637
 9518SOL     OW29452   1.290   0.460   0.999
 9518SOL    HW129453   1.291   0.376   0.945
 9518SOL    HW229454   1.238   0.445   1.083
 9519SOL     OW29455   1.057   3.010   5.289
 9519SOL    HW129456   1.074   2.911   5.289
 9519SOL    HW229457   1.027   3.039   5.198
 9520SOL     OW29458   4.455   6.971   1.677
 9520SOL    HW129459   4.371   7.004   1.635
 9520SOL    HW229460   4.527   6.964   1.607
 9521SOL     OW29461   5.342   5.348   3.182
 9521SOL    HW129462   5.296   5.297   3.254
 9521SOL    HW229463   5.409   5.410   3.222
 9522SOL     OW29464   3.198   6.122   0.323
 9522SOL    HW129465   3.200   6.101   0.225
 9522SOL    HW229466   3.116   6.084   0.364
 9523SOL     OW29467   2.528   6.278   6.050
 9523SOL    HW129468   2.524   6.353   5.983
 9523SOL    HW229469   2.623   6.262   6.076
 9524SOL     OW29470   4.369   2.481   1.195
 9524SOL    HW129471   4.297   2.540   1.160
 9524SOL    HW229472   4.399   2.419   1.123
 9525SOL     OW29473   3.971   0.125   4.839
 9525SOL    HW129474   3.995   0.213   4.881
 9525SOL    HW229475   4.013   0.119   4.749
 9526SOL     OW29476   4.584   6.148   2.097
 9526SOL    HW129477   4.499   6.201   2.093
 9526SOL    HW229478   4.646   6.189   2.164
 9527SOL     OW29479   6.799   2.182   1.238
 9527SOL    HW129480   6.753   2.105   1.284
 9527SOL    HW229481   6.889   2.153   1.208
 9528SOL     OW29482   0.051   1.172   1.709
 9528SOL    HW129483   7.018   1.108   1.661
 9528SOL    HW229484   0.142   1.132   1.720
 9529SOL     OW29485   1.140   3.707   4.940
 9529SOL    HW129486   1.225   3.725   4.989
 9529SOL    HW229487   1.062   3.730   4.998
 9530SOL     OW29488   1.240   2.599   4.268
 9530SOL    HW129489   1.299   2.583   4.188
 9530SOL    HW229490   1.196   2.513   4.294
 9531SOL     OW29491   2.962   6.310   3.539
 9531SOL    HW129492   2.929   6.288   3.447
 9531SOL    HW229493   2.884   6.315   3.601
 9532SOL     OW29494   2.773   1.452   1.775
 9532SOL    HW129495   2.829   1.517   1.723
 9532SOL    HW229496   2.678   1.482   1.774
 9533SOL     OW29497   1.389   1.090   4.577
 9533SOL    HW129498   1.466   1.030   4.555
 9533SOL    HW229499   1.337   1.051   4.653
 9534SOL     OW29500   5.145   1.987   4.383
 9534SOL    HW129501   5.217   2.002   4.316
 9534SOL    HW229502   5.161   1.899   4.429
 9535SOL     OW29503   3.106   2.011   4.592
 9535SOL    HW129504   3.187   1.971   4.635
 9535SOL    HW229505   3.081   2.094   4.640
 9536SOL     OW29506   2.734   6.520   6.887
 9536SOL    HW129507   2.687   6.432   6.886
 9536SOL    HW229508   2.667   6.593   6.875
 9537SOL     OW29509   2.459   6.560   0.551
 9537SOL    HW129510   2.409   6.534   0.634
 9537SOL    HW229511   2.554   6.578   0.574
 9538SOL     OW29512   6.103   3.694   3.403
 9538SOL    HW129513   6.197   3.660   3.410
 9538SOL    HW229514   6.067   3.708   3.495
 9539SOL     OW29515   0.342   3.734   0.467
 9539SOL    HW129516   0.386   3.673   0.401
 9539SOL    HW229517   0.366   3.829   0.446
 9540SOL     OW29518   5.601   3.003   5.724
 9540SOL    HW129519   5.531   3.070   5.699
 9540SOL    HW229520   5.684   3.020   5.671
 9541SOL     OW29521   0.154   1.763   3.187
 9541SOL    HW129522   0.218   1.713   3.246
 9541SOL    HW229523   0.202   1.839   3.144
 9542SOL     OW29524   4.683   4.355   4.732
 9542SOL    HW129525   4.716   4.375   4.639
 9542SOL    HW229526   4.589   4.388   4.742
 9543SOL     OW29527   5.485   2.147   1.691
 9543SOL    HW129528   5.466   2.086   1.768
 9543SOL    HW229529   5.414   2.135   1.622
 9544SOL     OW29530   4.031   1.281   1.690
 9544SOL    HW129531   4.131   1.283   1.698
 9544SOL    HW229532   4.005   1.295   1.594
 9545SOL     OW29533   1.159   0.074   4.483
 9545SOL    HW129534   1.233   0.100   4.545
 9545SOL    HW229535   1.087   0.143   4.486
 9546SOL     OW29536   2.134   4.881   1.972
 9546SOL    HW129537   2.157   4.785   1.992
 9546SOL    HW229538   2.200   4.918   1.907
 9547SOL     OW29539   6.219   5.467   3.630
 9547SOL    HW129540   6.120   5.477   3.642
 9547SOL    HW229541   6.261   5.450   3.719
 9548SOL     OW29542   4.831   0.144   2.789
 9548SOL    HW129543   4.849   0.241   2.776
 9548SOL    HW229544   4.860   0.093   2.709
 9549SOL     OW29545   2.420   5.651   0.432
 9549SOL    HW129546   2.329   5.628   0.467
 9549SOL    HW229547   2.489   5.599   0.482
 9550SOL     OW29548   1.287   0.873   0.127
 9550SOL    HW129549   1.354   0.927   0.076
 9550SOL    HW229550   1.222   0.832   0.064
 9551SOL     OW29551   1.302   6.088   5.896
 9551SOL    HW129552   1.261   6.019   5.955
 9551SOL    HW229553   1.304   6.055   5.802
 9552SOL     OW29554   0.496   5.329   3.396
 9552SOL    HW129555   0.595   5.338   3.403
 9552SOL    HW229556   0.473   5.238   3.361
 9553SOL     OW29557   5.505   4.463   6.006
 9553SOL    HW129558   5.480   4.494   5.914
 9553SOL    HW229559   5.577   4.521   6.043
 9554SOL     OW29560   1.819   1.940   1.299
 9554SOL    HW129561   1.891   1.881   1.337
 9554SOL    HW229562   1.858   1.996   1.226
 9555SOL     OW29563   0.251   2.788   6.413
 9555SOL    HW129564   0.220   2.836   6.331
 9555SOL    HW229565   0.316   2.717   6.387
 9556SOL     OW29566   6.552   1.547   0.471
 9556SOL    HW129567   6.502   1.465   0.497
 9556SOL    HW229568   6.533   1.619   0.538
 9557SOL     OW29569   5.366   1.883   2.158
 9557SOL    HW129570   5.357   1.810   2.227
 9557SOL    HW229571   5.319   1.965   2.190
 9558SOL     OW29572   6.097   4.377   2.078
 9558SOL    HW129573   6.129   4.368   1.984
 9558SOL    HW229574   6.083   4.473   2.100
 9559SOL     OW29575   6.798   3.900   2.553
 9559SOL    HW129576   6.748   3.873   2.636
 9559SOL    HW229577   6.849   3.821   2.518
 9560SOL     OW29578   4.025   2.221   5.143
 9560SOL    HW129579   4.090   2.296   5.126
 9560SOL    HW229580   4.068   2.152   5.202
 9561SOL     OW29581   2.799   6.602   6.017
 9561SOL    HW129582   2.833   6.591   6.110
 9561SOL    HW229583   2.850   6.541   5.956
 9562SOL     OW29584   5.792   4.696   4.412
 9562SOL    HW129585   5.866   4.721   4.350
 9562SOL    HW229586   5.714   4.662   4.358
 9563SOL     OW29587   0.489   6.224   6.731
 9563SOL    HW129588   0.586   6.212   6.712
 9563SOL    HW229589   0.463   6.319   6.712
 9564SOL     OW29590   1.672   0.514   6.419
 9564SOL    HW129591   1.729   0.547   6.494
 9564SOL    HW229592   1.618   0.436   6.451
 9565SOL     OW29593   3.741   5.941   4.084
 9565SOL    HW129594   3.727   5.854   4.036
 9565SOL    HW229595   3.767   5.923   4.178
 9566SOL     OW29596   3.679   4.750   6.177
 9566SOL    HW129597   3.738   4.713   6.106
 9566SOL    HW229598   3.707   4.715   6.267
 9567SOL     OW29599   6.053   5.172   4.845
 9567SOL    HW129600   5.972   5.147   4.792
 9567SOL    HW229601   6.118   5.220   4.786
 9568SOL     OW29602   5.449   3.925   6.110
 9568SOL    HW129603   5.539   3.934   6.153
 9568SOL    HW229604   5.389   3.872   6.170
 9569SOL     OW29605   5.429   6.886   2.302
 9569SOL    HW129606   5.433   6.972   2.252
 9569SOL    HW229607   5.350   6.832   2.271
 9570SOL     OW29608   0.816   1.639   6.781
 9570SOL    HW129609   0.820   1.629   6.681
 9570SOL    HW229610   0.721   1.656   6.808
 9571SOL     OW29611   2.201   2.749   0.304
 9571SOL    HW129612   2.109   2.785   0.292
 9571SOL    HW229613   2.198   2.669   0.364
 9572SOL     OW29614   0.379   3.683   1.410
 9572SOL    HW129615   0.455   3.731   1.366
 9572SOL    HW229616   0.292   3.719   1.377
 9573SOL     OW29617   5.243   1.100   2.284
 9573SOL    HW129618   5.223   1.007   2.315
 9573SOL    HW229619   5.220   1.109   2.187
 9574SOL     OW29620   2.941   1.941   3.622
 9574SOL    HW129621   2.993   1.910   3.543
 9574SOL    HW229622   2.845   1.914   3.611
 9575SOL     OW29623   4.490   1.063   2.930
 9575SOL    HW129624   4.553   1.112   2.991
 9575SOL    HW229625   4.538   1.034   2.848
 9576SOL     OW29626   4.128   3.147   5.279
 9576SOL    HW129627   4.087   3.056   5.283
 9576SOL    HW229628   4.062   3.211   5.239
 9577SOL     OW29629   0.847   6.000   3.710
 9577SOL    HW129630   0.797   6.084   3.731
 9577SOL    HW229631   0.881   5.959   3.795
 9578SOL     OW29632   6.435   4.472   1.916
 9578SOL    HW129633   6.362   4.485   1.849
 9578SOL    HW229634   6.410   4.517   2.002
 9579SOL     OW29635   1.930   5.385   3.018
 9579SOL    HW129636   1.899   5.311   3.078
 9579SOL    HW229637   1.878   5.468   3.038
 9580SOL     OW29638   4.117   3.338   5.790
 9580SOL    HW129639   4.100   3.245   5.758
 9580SOL    HW229640   4.103   3.343   5.889
 9581SOL     OW29641   0.993   5.893   5.545
 9581SOL    HW129642   1.004   5.890   5.645
 9581SOL    HW229643   0.911   5.946   5.522
 9582SOL     OW29644   4.379   5.053   3.305
 9582SOL    HW129645   4.450   5.084   3.242
 9582SOL    HW229646   4.289   5.066   3.263
 9583SOL     OW29647   1.832   5.232   1.928
 9583SOL    HW129648   1.789   5.248   2.017
 9583SOL    HW229649   1.780   5.163   1.878
 9584SOL     OW29650   5.121   4.862   0.057
 9584SOL    HW129651   5.055   4.873   7.009
 9584SOL    HW229652   5.210   4.834   0.020
 9585SOL     OW29653   0.596   0.832   3.198
 9585SOL    HW129654   0.519   0.777   3.231
 9585SOL    HW229655   0.571   0.876   3.112
 9586SOL     OW29656   4.942   3.519   2.460
 9586SOL    HW129657   4.954   3.440   2.401
 9586SOL    HW229658   5.022   3.579   2.452
 9587SOL     OW29659   5.157   6.376   1.393
 9587SOL    HW129660   5.114   6.399   1.305
 9587SOL    HW229661   5.256   6.390   1.386
 9588SOL     OW29662   6.668   1.096   2.811
 9588SOL    HW129663   6.589   1.043   2.781
 9588SOL    HW229664   6.740   1.091   2.742
 9589SOL     OW29665   2.983   1.887   4.955
 9589SOL    HW129666   2.962   1.972   4.906
 9589SOL    HW229667   3.082   1.876   4.962
 9590SOL     OW29668   0.804   5.161   4.613
 9590SOL    HW129669   0.880   5.097   4.625
 9590SOL    HW229670   0.836   5.255   4.628
 9591SOL     OW29671   1.296   4.450   2.494
 9591SOL    HW129672   1.296   4.367   2.550
 9591SOL    HW229673   1.217   4.506   2.518
 9592SOL     OW29674   5.202   6.076   0.954
 9592SOL    HW129675   5.195   6.012   0.878
 9592SOL    HW229676   5.222   6.026   1.039
 9593SOL     OW29677   2.682   2.143   3.471
 9593SOL    HW129678   2.662   2.239   3.450
 9593SOL    HW229679   2.604   2.103   3.518
 9594SOL     OW29680   5.971   0.055   0.860
 9594SOL    HW129681   5.917   0.108   0.926
 9594SOL    HW229682   5.995   0.114   0.782
 9595SOL     OW29683   1.009   4.887   4.375
 9595SOL    HW129684   0.923   4.919   4.336
 9595SOL    HW229685   1.002   4.789   4.395
 9596SOL     OW29686   4.968   5.673   2.007
 9596SOL    HW129687   5.047   5.621   2.042
 9596SOL    HW229688   4.916   5.710   2.084
 9597SOL     OW29689   2.081   4.612   0.722
 9597SOL    HW129690   2.129   4.576   0.643
 9597SOL    HW229691   2.130   4.587   0.806
 9598SOL     OW29692   0.996   5.845   5.821
 9598SOL    HW129693   1.047   5.833   5.906
 9598SOL    HW229694   0.933   5.769   5.809
 9599SOL     OW29695   3.858   1.542   4.996
 9599SOL    HW129696   3.901   1.516   5.083
 9599SOL    HW229697   3.827   1.636   5.002
 9600SOL     OW29698   1.142   6.056   6.386
 9600SOL    HW129699   1.047   6.079   6.363
 9600SOL    HW229700   1.204   6.110   6.329
 9601SOL     OW29701   0.593   6.751   5.401
 9601SOL    HW129702   0.609   6.847   5.376
 9601SOL    HW229703   0.564   6.700   5.321
 9602SOL     OW29704   0.521   5.433   6.444
 9602SOL    HW129705   0.604   5.377   6.443
 9602SOL    HW229706   0.525   5.496   6.521
 9603SOL     OW29707   1.466   5.291   2.673
 9603SOL    HW129708   1.428   5.384   2.670
 9603SOL    HW229709   1.412   5.232   2.613
 9604SOL     OW29710   6.862   6.828   6.692
 9604SOL    HW129711   6.777   6.808   6.742
 9604SOL    HW229712   6.840   6.862   6.601
 9605SOL     OW29713   2.975   5.003   0.432
 9605SOL    HW129714   2.947   4.907   0.436
 9605SOL    HW229715   3.046   5.015   0.363
 9606SOL     OW29716   6.759   0.088   5.029
 9606SOL    HW129717   6.722   0.100   5.121
 9606SOL    HW229718   6.727   0.001   4.991
 9607SOL     OW29719   0.045   2.260   2.228
 9607SOL    HW129720   0.070   2.341   2.174
 9607SOL    HW229721   0.075   2.273   2.322
 9608SOL     OW29722   6.609   0.272   2.316
 9608SOL    HW129723   6.637   0.292   2.410
 9608SOL    HW229724   6.611   0.356   2.262
 9609SOL     OW29725   1.939   2.188   3.559
 9609SOL    HW129726   2.036   2.174   3.541
 9609SOL    HW229727   1.891   2.100   3.559
 9610SOL     OW29728   3.716   0.605   5.870
 9610SOL    HW129729   3.773   0.656   5.805
 9610SOL    HW229730   3.774   0.550   5.930
 9611SOL     OW29731   5.635   6.264   1.147
 9611SOL    HW129732   5.599   6.217   1.066
 9611SOL    HW229733   5.725   6.300   1.127
 9612SOL     OW29734   5.144   3.746   3.775
 9612SOL    HW129735   5.047   3.753   3.799
 9612SOL    HW229736   5.172   3.829   3.727
 9613SOL     OW29737   5.795   0.625   5.227
 9613SOL    HW129738   5.835   0.535   5.212
 9613SOL    HW229739   5.859   0.695   5.194
 9614SOL     OW29740   2.927   2.969   1.114
 9614SOL    HW129741   2.897   3.052   1.162
 9614SOL    HW229742   2.918   2.982   1.016
 9615SOL     OW29743   0.731   6.223   3.784
 9615SOL    HW129744   0.642   6.192   3.750
 9615SOL    HW229745   0.780   6.270   3.710
 9616SOL     OW29746   1.197   2.956   1.411
 9616SOL    HW129747   1.289   2.920   1.425
 9616SOL    HW229748   1.203   3.044   1.363
 9617SOL     OW29749   0.147   3.017   2.386
 9617SOL    HW129750   0.070   3.048   2.330
 9617SOL    HW229751   0.115   2.949   2.452
 9618SOL     OW29752   4.462   3.906   0.840
 9618SOL    HW129753   4.445   3.969   0.765
 9618SOL    HW229754   4.558   3.880   0.841
 9619SOL     OW29755   0.820   0.104   1.267
 9619SOL    HW129756   0.883   0.071   1.197
 9619SOL    HW229757   0.833   0.052   1.351
 9620SOL     OW29758   2.871   1.435   6.699
 9620SOL    HW129759   2.896   1.508   6.763
 9620SOL    HW229760   2.781   1.454   6.659
 9621SOL     OW29761   0.510   0.765   1.417
 9621SOL    HW129762   0.607   0.744   1.401
 9621SOL    HW229763   0.495   0.781   1.514
 9622SOL     OW29764   6.325   5.528   5.655
 9622SOL    HW129765   6.268   5.472   5.715
 9622SOL    HW229766   6.415   5.486   5.645
 9623SOL     OW29767   3.472   6.237   5.591
 9623SOL    HW129768   3.377   6.212   5.610
 9623SOL    HW229769   3.520   6.158   5.555
 9624SOL     OW29770   4.561   5.227   5.361
 9624SOL    HW129771   4.569   5.154   5.429
 9624SOL    HW229772   4.634   5.218   5.293
 9625SOL     OW29773   4.567   3.934   6.314
 9625SOL    HW129774   4.495   4.001   6.293
 9625SOL    HW229775   4.526   3.855   6.359
 9626SOL     OW29776   2.600   2.380   6.682
 9626SOL    HW129777   2.561   2.467   6.713
 9626SOL    HW229778   2.535   2.334   6.622
 9627SOL     OW29779   0.140   5.474   0.913
 9627SOL    HW129780   0.225   5.484   0.964
 9627SOL    HW229781   0.063   5.467   0.977
 9628SOL     OW29782   6.769   1.559   6.149
 9628SOL    HW129783   6.676   1.553   6.187
 9628SOL    HW229784   6.811   1.644   6.179
 9629SOL     OW29785   0.292   5.722   3.572
 9629SOL    HW129786   0.355   5.795   3.544
 9629SOL    HW229787   0.324   5.681   3.657
 9630SOL     OW29788   5.721   1.735   6.237
 9630SOL    HW129789   5.707   1.662   6.170
 9630SOL    HW229790   5.716   1.824   6.191
 9631SOL     OW29791   4.758   6.595   0.584
 9631SOL    HW129792   4.765   6.504   0.542
 9631SOL    HW229793   4.739   6.584   0.682
 9632SOL     OW29794   2.485   4.571   2.898
 9632SOL    HW129795   2.529   4.611   2.819
 9632SOL    HW229796   2.523   4.611   2.982
 9633SOL     OW29797   3.733   2.889   4.602
 9633SOL    HW129798   3.763   2.842   4.519
 9633SOL    HW229799   3.807   2.947   4.636
 9634SOL     OW29800   5.390   4.730   2.951
 9634SOL    HW129801   5.448   4.691   3.023
 9634SOL    HW229802   5.299   4.748   2.988
 9635SOL     OW29803   0.674   4.793   4.163
 9635SOL    HW129804   0.712   4.885   4.172
 9635SOL    HW229805   0.577   4.800   4.137
 9636SOL     OW29806   5.849   4.054   3.769
 9636SOL    HW129807   5.941   4.042   3.806
 9636SOL    HW229808   5.782   4.009   3.829
 9637SOL     OW29809   1.501   3.781   0.459
 9637SOL    HW129810   1.516   3.834   0.376
 9637SOL    HW229811   1.576   3.797   0.523
 9638SOL     OW29812   6.180   5.389   5.837
 9638SOL    HW129813   6.095   5.337   5.848
 9638SOL    HW229814   6.249   5.354   5.900
 9639SOL     OW29815   4.937   2.174   1.510
 9639SOL    HW129816   4.922   2.082   1.476
 9639SOL    HW229817   5.003   2.221   1.451
 9640SOL     OW29818   3.895   0.265   3.275
 9640SOL    HW129819   3.804   0.283   3.239
 9640SOL    HW229820   3.963   0.315   3.221
 9641SOL     OW29821   6.648   2.773   4.856
 9641SOL    HW129822   6.732   2.818   4.825
 9641SOL    HW229823   6.621   2.811   4.945
 9642SOL     OW29824   0.664   2.092   4.738
 9642SOL    HW129825   0.686   1.999   4.712
 9642SOL    HW229826   0.583   2.122   4.687
 9643SOL     OW29827   5.669   5.069   4.133
 9643SOL    HW129828   5.579   5.046   4.096
 9643SOL    HW229829   5.694   5.161   4.103
 9644SOL     OW29830   1.380   4.918   3.315
 9644SOL    HW129831   1.386   4.904   3.216
 9644SOL    HW229832   1.361   4.831   3.360
 9645SOL     OW29833   1.444   5.064   6.177
 9645SOL    HW129834   1.352   5.025   6.173
 9645SOL    HW229835   1.462   5.116   6.093
 9646SOL     OW29836   3.295   5.765   0.580
 9646SOL    HW129837   3.206   5.720   0.585
 9646SOL    HW229838   3.365   5.707   0.621
 9647SOL     OW29839   6.044   6.464   2.983
 9647SOL    HW129840   6.105   6.537   2.952
 9647SOL    HW229841   6.070   6.436   3.075
 9648SOL     OW29842   2.607   1.721   1.014
 9648SOL    HW129843   2.662   1.787   0.961
 9648SOL    HW229844   2.666   1.647   1.046
 9649SOL     OW29845   0.234   5.682   1.254
 9649SOL    HW129846   0.188   5.746   1.192
 9649SOL    HW229847   0.291   5.619   1.201
 9650SOL     OW29848   0.998   4.998   4.681
 9650SOL    HW129849   1.003   4.907   4.640
 9650SOL    HW229850   0.964   4.989   4.775
 9651SOL     OW29851   3.544   1.770   6.817
 9651SOL    HW129852   3.464   1.747   6.762
 9651SOL    HW229853   3.580   1.859   6.787
 9652SOL     OW29854   0.149   4.100   0.265
 9652SOL    HW129855   0.090   4.086   0.345
 9652SOL    HW229856   0.159   4.013   0.216
 9653SOL     OW29857   5.173   4.580   5.836
 9653SOL    HW129858   5.168   4.553   5.932
 9653SOL    HW229859   5.266   4.563   5.801
 9654SOL     OW29860   3.957   3.524   3.215
 9654SOL    HW129861   3.881   3.519   3.280
 9654SOL    HW229862   4.040   3.551   3.263
 9655SOL     OW29863   4.473   1.724   1.216
 9655SOL    HW129864   4.432   1.696   1.303
 9655SOL    HW229865   4.417   1.796   1.175
 9656SOL     OW29866   4.818   4.238   6.404
 9656SOL    HW129867   4.777   4.319   6.363
 9656SOL    HW229868   4.901   4.264   6.454
 9657SOL     OW29869   5.226   4.756   3.692
 9657SOL    HW129870   5.146   4.811   3.667
 9657SOL    HW229871   5.236   4.680   3.627
 9658SOL     OW29872   5.593   1.421   2.146
 9658SOL    HW129873   5.640   1.484   2.208
 9658SOL    HW229874   5.580   1.333   2.192
 9659SOL     OW29875   3.159   3.034   6.563
 9659SOL    HW129876   3.222   3.065   6.492
 9659SOL    HW229877   3.095   2.968   6.523
 9660SOL     OW29878   1.405   6.623   1.420
 9660SOL    HW129879   1.369   6.579   1.337
 9660SOL    HW229880   1.338   6.689   1.454
 9661SOL     OW29881   3.898   3.533   1.676
 9661SOL    HW129882   3.941   3.568   1.760
 9661SOL    HW229883   3.967   3.485   1.622
 9662SOL     OW29884   4.920   6.681   5.984
 9662SOL    HW129885   4.852   6.750   5.958
 9662SOL    HW229886   4.948   6.629   5.904
 9663SOL     OW29887   1.284   5.194   2.896
 9663SOL    HW129888   1.191   5.221   2.923
 9663SOL    HW229889   1.319   5.257   2.827
 9664SOL     OW29890   3.356   4.927   2.533
 9664SOL    HW129891   3.308   5.001   2.581
 9664SOL    HW229892   3.293   4.884   2.468
 9665SOL     OW29893   6.130   3.986   5.694
 9665SOL    HW129894   6.118   3.897   5.737
 9665SOL    HW229895   6.042   4.033   5.688
 9666SOL     OW29896   5.122   3.538   0.355
 9666SOL    HW129897   5.060   3.475   0.309
 9666SOL    HW229898   5.070   3.598   0.415
 9667SOL     OW29899   5.629   6.159   7.020
 9667SOL    HW129900   5.647   6.253   6.992
 9667SOL    HW229901   5.602   6.105   6.940
 9668SOL     OW29902   1.958   1.254   6.158
 9668SOL    HW129903   1.943   1.305   6.243
 9668SOL    HW229904   1.987   1.161   6.180
 9669SOL     OW29905   2.907   0.342   6.905
 9669SOL    HW129906   2.824   0.301   6.944
 9669SOL    HW229907   2.987   0.304   6.951
 9670SOL     OW29908   1.021   0.650   0.590
 9670SOL    HW129909   1.089   0.625   0.520
 9670SOL    HW229910   1.053   0.618   0.679
 9671SOL     OW29911   1.084   5.125   6.787
 9671SOL    HW129912   1.066   5.028   6.802
 9671SOL    HW229913   1.048   5.178   6.864
 9672SOL     OW29914   0.865   3.952   4.258
 9672SOL    HW129915   0.828   4.044   4.266
 9672SOL    HW229916   0.798   3.893   4.214
 9673SOL     OW29917   2.139   3.366   6.808
 9673SOL    HW129918   2.195   3.381   6.726
 9673SOL    HW229919   2.194   3.385   6.890
 9674SOL     OW29920   2.007   6.785   3.864
 9674SOL    HW129921   1.994   6.722   3.940
 9674SOL    HW229922   1.919   6.826   3.839
 9675SOL     OW29923   6.284   4.136   5.502
 9675SOL    HW129924   6.290   4.071   5.426
 9675SOL    HW229925   6.245   4.091   5.582
 9676SOL     OW29926   0.884   3.370   5.800
 9676SOL    HW129927   0.968   3.339   5.756
 9676SOL    HW229928   0.862   3.310   5.877
 9677SOL     OW29929   6.753   4.957   2.470
 9677SOL    HW129930   6.664   4.930   2.435
 9677SOL    HW229931   6.762   5.057   2.464
 9678SOL     OW29932   3.576   3.594   5.319
 9678SOL    HW129933   3.598   3.582   5.416
 9678SOL    HW229934   3.652   3.558   5.263
 9679SOL     OW29935   1.866   0.738   3.958
 9679SOL    HW129936   1.891   0.742   3.861
 9679SOL    HW229937   1.848   0.830   3.992
 9680SOL     OW29938   3.943   0.466   2.107
 9680SOL    HW129939   3.944   0.385   2.165
 9680SOL    HW229940   4.029   0.471   2.055
 9681SOL     OW29941   1.377   2.708   1.525
 9681SOL    HW129942   1.307   2.744   1.586
 9681SOL    HW229943   1.335   2.678   1.439
 9682SOL     OW29944   5.244   0.084   6.231
 9682SOL    HW129945   5.321   0.052   6.176
 9682SOL    HW229946   5.243   0.035   6.318
 9683SOL     OW29947   3.899   6.739   3.961
 9683SOL    HW129948   3.924   6.747   3.865
 9683SOL    HW229949   3.800   6.753   3.971
 9684SOL     OW29950   6.944   3.150   5.426
 9684SOL    HW129951   7.019   3.098   5.466
 9684SOL    HW229952   6.963   3.169   5.330
 9685SOL     OW29953   3.314   4.699   1.769
 9685SOL    HW129954   3.401   4.653   1.788
 9685SOL    HW229955   3.248   4.633   1.733
 9686SOL     OW29956   0.205   1.337   5.717
 9686SOL    HW129957   0.288   1.357   5.665
 9686SOL    HW229958   0.138   1.409   5.701
 9687SOL     OW29959   5.661   1.172   3.357
 9687SOL    HW129960   5.760   1.191   3.355
 9687SOL    HW229961   5.641   1.096   3.295
 9688SOL     OW29962   0.358   4.620   1.551
 9688SOL    HW129963   0.405   4.683   1.612
 9688SOL    HW229964   0.381   4.642   1.456
 9689SOL     OW29965   1.879   5.693   1.406
 9689SOL    HW129966   1.929   5.691   1.319
 9689SOL    HW229967   1.903   5.613   1.461
 9690SOL     OW29968   0.539   4.385   4.975
 9690SOL    HW129969   0.440   4.382   4.965
 9690SOL    HW229970   0.569   4.480   4.987
 9691SOL     OW29971   3.600   3.803   1.526
 9691SOL    HW129972   3.625   3.707   1.518
 9691SOL    HW229973   3.677   3.855   1.563
 9692SOL     OW29974   4.920   4.446   0.828
 9692SOL    HW129975   4.867   4.450   0.913
 9692SOL    HW229976   5.017   4.463   0.849
 9693SOL     OW29977   4.686   2.844   5.654
 9693SOL    HW129978   4.600   2.871   5.699
 9693SOL    HW229979   4.750   2.921   5.656
 9694SOL     OW29980   2.957   6.432   1.682
 9694SOL    HW129981   2.880   6.496   1.687
 9694SOL    HW229982   2.989   6.413   1.775
 9695SOL     OW29983   0.816   3.245   4.353
 9695SOL    HW129984   0.776   3.190   4.281
 9695SOL    HW229985   0.914   3.227   4.359
 9696SOL     OW29986   5.002   2.978   3.255
 9696SOL    HW129987   5.049   2.966   3.168
 9696SOL    HW229988   5.047   3.050   3.308
 9697SOL     OW29989   0.360   6.904   1.695
 9697SOL    HW129990   0.286   6.896   1.629
 9697SOL    HW229991   0.446   6.923   1.647
 9698SOL     OW29992   0.394   3.879   1.813
 9698SOL    HW129993   0.335   3.958   1.795
 9698SOL    HW229994   0.359   3.800   1.763
 9699SOL     OW29995   1.124   5.741   1.390
 9699SOL    HW129996   1.100   5.690   1.473
 9699SOL    HW229997   1.218   5.719   1.363
 9700SOL     OW29998   5.246   0.771   6.219
 9700SOL    HW129999   5.163   0.719   6.197
 9700SOL    HW230000   5.220   0.855   6.267
 9701SOL     OW30001   5.190   3.884   6.851
 9701SOL    HW130002   5.214   3.916   6.943
 9701SOL    HW230003   5.170   3.962   6.793
 9702SOL     OW30004   3.670   4.139   1.892
 9702SOL    HW130005   3.619   4.137   1.806
 9702SOL    HW230006   3.735   4.062   1.895
 9703SOL     OW30007   5.952   4.765   3.460
 9703SOL    HW130008   5.884   4.790   3.529
 9703SOL    HW230009   5.969   4.843   3.400
 9704SOL     OW30010   1.400   4.122   2.144
 9704SOL    HW130011   1.328   4.084   2.202
 9704SOL    HW230012   1.474   4.157   2.202
 9705SOL     OW30013   0.101   3.167   5.871
 9705SOL    HW130014   0.123   3.138   5.964
 9705SOL    HW230015   0.115   3.090   5.809
 9706SOL     OW30016   0.672   1.159   2.379
 9706SOL    HW130017   0.621   1.076   2.403
 9706SOL    HW230018   0.679   1.218   2.460
 9707SOL     OW30019   0.903   5.112   2.756
 9707SOL    HW130020   0.964   5.163   2.816
 9707SOL    HW230021   0.955   5.075   2.679
 9708SOL     OW30022   2.419   0.844   1.739
 9708SOL    HW130023   2.354   0.913   1.708
 9708SOL    HW230024   2.512   0.876   1.722
 9709SOL     OW30025   5.375   1.703   1.686
 9709SOL    HW130026   5.324   1.780   1.647
 9709SOL    HW230027   5.464   1.734   1.719
 9710SOL     OW30028   5.349   5.419   4.896
 9710SOL    HW130029   5.422   5.481   4.924
 9710SOL    HW230030   5.313   5.371   4.977
 9711SOL     OW30031   2.796   0.745   6.643
 9711SOL    HW130032   2.837   0.808   6.577
 9711SOL    HW230033   2.850   0.661   6.645
 9712SOL     OW30034   5.342   0.717   6.486
 9712SOL    HW130035   5.303   0.743   6.397
 9712SOL    HW230036   5.440   0.732   6.485
 9713SOL     OW30037   2.427   6.627   2.673
 9713SOL    HW130038   2.336   6.662   2.650
 9713SOL    HW230039   2.428   6.594   2.767
 9714SOL     OW30040   2.151   3.921   3.812
 9714SOL    HW130041   2.175   4.003   3.864
 9714SOL    HW230042   2.175   3.839   3.864
 9715SOL     OW30043   6.937   3.147   6.470
 9715SOL    HW130044   6.886   3.192   6.397
 9715SOL    HW230045   6.880   3.078   6.514
 9716SOL     OW30046   2.397   6.319   0.436
 9716SOL    HW130047   2.452   6.373   0.500
 9716SOL    HW230048   2.358   6.380   0.366
 9717SOL     OW30049   3.843   2.504   5.783
 9717SOL    HW130050   3.836   2.436   5.856
 9717SOL    HW230051   3.929   2.555   5.793
 9718SOL     OW30052   4.157   2.345   6.030
 9718SOL    HW130053   4.226   2.407   6.067
 9718SOL    HW230054   4.074   2.348   6.086
 9719SOL     OW30055   4.636   0.163   6.227
 9719SOL    HW130056   4.698   0.123   6.159
 9719SOL    HW230057   4.648   0.116   6.315
 9720SOL     OW30058   2.065   2.641   2.529
 9720SOL    HW130059   2.134   2.684   2.471
 9720SOL    HW230060   2.110   2.594   2.605
 9721SOL     OW30061   0.602   1.741   1.070
 9721SOL    HW130062   0.516   1.716   1.115
 9721SOL    HW230063   0.604   1.701   0.979
 9722SOL     OW30064   3.947   2.313   5.462
 9722SOL    HW130065   3.989   2.222   5.467
 9722SOL    HW230066   3.882   2.324   5.536
 9723SOL     OW30067   6.164   0.287   4.849
 9723SOL    HW130068   6.230   0.227   4.805
 9723SOL    HW230069   6.181   0.381   4.822
 9724SOL     OW30070   1.470   4.348   1.008
 9724SOL    HW130071   1.512   4.260   0.986
 9724SOL    HW230072   1.444   4.395   0.923
 9725SOL     OW30073   4.636   5.319   4.193
 9725SOL    HW130074   4.556   5.371   4.161
 9725SOL    HW230075   4.667   5.258   4.121
 9726SOL     OW30076   6.590   0.269   3.058
 9726SOL    HW130077   6.561   0.177   3.084
 9726SOL    HW230078   6.524   0.309   2.995
 9727SOL     OW30079   6.052   2.676   1.953
 9727SOL    HW130080   6.040   2.747   2.022
 9727SOL    HW230081   6.146   2.678   1.919
 9728SOL     OW30082   5.346   2.217   4.428
 9728SOL    HW130083   5.350   2.163   4.344
 9728SOL    HW230084   5.258   2.203   4.473
 9729SOL     OW30085   0.337   4.000   3.246
 9729SOL    HW130086   0.304   4.034   3.158
 9729SOL    HW230087   0.434   3.976   3.238
 9730SOL     OW30088   1.016   5.286   2.969
 9730SOL    HW130089   1.035   5.383   2.959
 9730SOL    HW230090   0.927   5.273   3.012
 9731SOL     OW30091   5.759   2.900   1.613
 9731SOL    HW130092   5.799   2.836   1.679
 9731SOL    HW230093   5.673   2.863   1.579
 9732SOL     OW30094   1.203   3.641   2.792
 9732SOL    HW130095   1.226   3.709   2.723
 9732SOL    HW230096   1.267   3.648   2.868
 9733SOL     OW30097   6.415   4.759   1.824
 9733SOL    HW130098   6.381   4.710   1.744
 9733SOL    HW230099   6.477   4.832   1.794
 9734SOL     OW30100   4.434   5.346   6.537
 9734SOL    HW130101   4.472   5.266   6.582
 9734SOL    HW230102   4.501   5.385   6.474
 9735SOL     OW30103   6.921   2.119   0.366
 9735SOL    HW130104   6.930   2.170   0.281
 9735SOL    HW230105   6.827   2.128   0.401
 9736SOL     OW30106   5.184   2.181   4.880
 9736SOL    HW130107   5.119   2.132   4.938
 9736SOL    HW230108   5.160   2.169   4.784
 9737SOL     OW30109   5.725   2.659   3.935
 9737SOL    HW130110   5.724   2.670   4.035
 9737SOL    HW230111   5.819   2.673   3.902
 9738SOL     OW30112   2.429   6.505   1.587
 9738SOL    HW130113   2.511   6.561   1.594
 9738SOL    HW230114   2.421   6.447   1.669
 9739SOL     OW30115   6.190   6.268   0.741
 9739SOL    HW130116   6.141   6.182   0.727
 9739SOL    HW230117   6.162   6.308   0.828
 9740SOL     OW30118   6.243   0.329   2.187
 9740SOL    HW130119   6.150   0.314   2.218
 9740SOL    HW230120   6.282   0.242   2.156
 9741SOL     OW30121   2.275   1.917   3.743
 9741SOL    HW130122   2.298   1.820   3.743
 9741SOL    HW230123   2.225   1.940   3.827
 9742SOL     OW30124   3.230   1.613   6.297
 9742SOL    HW130125   3.264   1.701   6.263
 9742SOL    HW230126   3.189   1.626   6.387
 9743SOL     OW30127   6.412   3.441   3.875
 9743SOL    HW130128   6.454   3.352   3.857
 9743SOL    HW230129   6.320   3.427   3.912
 9744SOL     OW30130   1.801   1.571   2.300
 9744SOL    HW130131   1.898   1.546   2.293
 9744SOL    HW230132   1.749   1.517   2.234
 9745SOL     OW30133   0.105   6.919   5.581
 9745SOL    HW130134   0.036   6.847   5.573
 9745SOL    HW230135   0.139   6.922   5.675
 9746SOL     OW30136   3.398   6.499   6.050
 9746SOL    HW130137   3.309   6.542   6.065
 9746SOL    HW230138   3.469   6.569   6.051
 9747SOL     OW30139   3.495   1.604   3.305
 9747SOL    HW130140   3.576   1.646   3.265
 9747SOL    HW230141   3.455   1.666   3.373
 9748SOL     OW30142   1.455   1.271   2.466
 9748SOL    HW130143   1.516   1.222   2.404
 9748SOL    HW230144   1.491   1.363   2.482
 9749SOL     OW30145   6.989   0.681   1.926
 9749SOL    HW130146   7.002   0.630   1.840
 9749SOL    HW230147   6.892   0.696   1.942
 9750SOL     OW30148   5.922   2.828   5.411
 9750SOL    HW130149   5.991   2.764   5.378
 9750SOL    HW230150   5.856   2.780   5.468
 9751SOL     OW30151   3.240   0.041   1.401
 9751SOL    HW130152   3.325   0.075   1.439
 9751SOL    HW230153   3.248   6.968   1.385
 9752SOL     OW30154   2.947   3.093   0.510
 9752SOL    HW130155   2.898   3.017   0.553
 9752SOL    HW230156   3.017   3.128   0.573
 9753SOL     OW30157   6.292   5.651   4.596
 9753SOL    HW130158   6.230   5.619   4.668
 9753SOL    HW230159   6.381   5.674   4.635
 9754SOL     OW30160   3.273   1.667   2.379
 9754SOL    HW130161   3.179   1.701   2.386
 9754SOL    HW230162   3.284   1.616   2.294
 9755SOL     OW30163   3.880   4.019   0.270
 9755SOL    HW130164   3.955   4.036   0.205
 9755SOL    HW230165   3.863   3.921   0.277
 9756SOL     OW30166   5.578   0.226   6.342
 9756SOL    HW130167   5.548   0.162   6.413
 9756SOL    HW230168   5.508   0.297   6.329
 9757SOL     OW30169   5.193   3.313   4.499
 9757SOL    HW130170   5.212   3.228   4.549
 9757SOL    HW230171   5.107   3.303   4.448
 9758SOL     OW30172   2.480   0.722   2.562
 9758SOL    HW130173   2.498   0.624   2.547
 9758SOL    HW230174   2.562   0.764   2.600
 9759SOL     OW30175   6.692   2.057   1.893
 9759SOL    HW130176   6.747   2.110   1.957
 9759SOL    HW230177   6.691   2.104   1.804
 9760SOL     OW30178   4.477   0.740   6.863
 9760SOL    HW130179   4.412   0.813   6.840
 9760SOL    HW230180   4.527   0.712   6.781
 9761SOL     OW30181   1.034   2.591   1.396
 9761SOL    HW130182   1.036   2.549   1.305
 9761SOL    HW230183   1.021   2.690   1.387
 9762SOL     OW30184   2.953   1.172   5.423
 9762SOL    HW130185   2.939   1.132   5.332
 9762SOL    HW230186   3.048   1.160   5.450
 9763SOL     OW30187   6.582   2.559   1.391
 9763SOL    HW130188   6.662   2.619   1.404
 9763SOL    HW230189   6.603   2.490   1.322
 9764SOL     OW30190   0.664   2.238   2.707
 9764SOL    HW130191   0.631   2.309   2.769
 9764SOL    HW230192   0.587   2.203   2.653
 9765SOL     OW30193   6.954   0.929   1.615
 9765SOL    HW130194   6.982   0.906   1.522
 9765SOL    HW230195   0.003   0.911   1.678
 9766SOL     OW30196   0.754   2.719   2.800
 9766SOL    HW130197   0.682   2.754   2.860
 9766SOL    HW230198   0.837   2.704   2.853
 9767SOL     OW30199   2.396   1.784   5.126
 9767SOL    HW130200   2.479   1.764   5.074
 9767SOL    HW230201   2.337   1.704   5.126
 9768SOL     OW30202   5.566   2.963   0.440
 9768SOL    HW130203   5.548   3.023   0.518
 9768SOL    HW230204   5.494   2.894   0.435
 9769SOL     OW30205   2.759   1.901   5.434
 9769SOL    HW130206   2.824   1.924   5.361
 9769SOL    HW230207   2.768   1.804   5.456
 9770SOL     OW30208   2.026   3.142   5.520
 9770SOL    HW130209   1.962   3.124   5.445
 9770SOL    HW230210   2.048   3.239   5.524
 9771SOL     OW30211   2.920   0.948   1.200
 9771SOL    HW130212   2.869   0.915   1.121
 9771SOL    HW230213   2.877   0.914   1.284
 9772SOL     OW30214   0.745   0.533   1.031
 9772SOL    HW130215   0.817   0.601   1.034
 9772SOL    HW230216   0.660   0.573   1.066
 9773SOL     OW30217   5.936   5.994   2.352
 9773SOL    HW130218   5.992   6.048   2.289
 9773SOL    HW230219   5.847   5.976   2.312
 9774SOL     OW30220   1.958   4.786   3.995
 9774SOL    HW130221   2.010   4.708   4.031
 9774SOL    HW230222   1.988   4.870   4.039
 9775SOL     OW30223   2.351   1.377   2.726
 9775SOL    HW130224   2.323   1.288   2.689
 9775SOL    HW230225   2.441   1.369   2.768
 9776SOL     OW30226   2.575   5.571   1.436
 9776SOL    HW130227   2.494   5.612   1.395
 9776SOL    HW230228   2.592   5.482   1.394
 9777SOL     OW30229   4.367   1.649   5.492
 9777SOL    HW130230   4.321   1.565   5.522
 9777SOL    HW230231   4.384   1.708   5.570
 9778SOL     OW30232   0.833   3.941   3.476
 9778SOL    HW130233   0.823   3.848   3.512
 9778SOL    HW230234   0.905   3.988   3.526
 9779SOL     OW30235   3.228   0.766   3.592
 9779SOL    HW130236   3.299   0.697   3.581
 9779SOL    HW230237   3.146   0.724   3.632
 9780SOL     OW30238   0.502   1.937   0.810
 9780SOL    HW130239   0.590   1.894   0.791
 9780SOL    HW230240   0.455   1.956   0.724
 9781SOL     OW30241   1.497   0.903   1.958
 9781SOL    HW130242   1.426   0.833   1.967
 9781SOL    HW230243   1.473   0.965   1.884
 9782SOL     OW30244   0.154   2.247   0.518
 9782SOL    HW130245   0.072   2.257   0.574
 9782SOL    HW230246   0.204   2.333   0.516
 9783SOL     OW30247   4.357   1.589   2.877
 9783SOL    HW130248   4.365   1.493   2.905
 9783SOL    HW230249   4.279   1.600   2.815
 9784SOL     OW30250   2.038   1.453   5.979
 9784SOL    HW130251   2.018   1.396   6.058
 9784SOL    HW230252   2.036   1.550   6.005
 9785SOL     OW30253   0.688   3.936   4.797
 9785SOL    HW130254   0.597   3.921   4.836
 9785SOL    HW230255   0.678   3.970   4.703
 9786SOL     OW30256   2.567   4.301   6.583
 9786SOL    HW130257   2.509   4.257   6.651
 9786SOL    HW230258   2.653   4.330   6.625
 9787SOL     OW30259   2.915   3.373   2.433
 9787SOL    HW130260   2.999   3.349   2.385
 9787SOL    HW230261   2.838   3.324   2.391
 9788SOL     OW30262   3.997   6.966   2.346
 9788SOL    HW130263   4.023   6.898   2.277
 9788SOL    HW230264   3.902   6.949   2.375
 9789SOL     OW30265   3.024   1.382   0.226
 9789SOL    HW130266   3.033   1.303   0.165
 9789SOL    HW230267   3.114   1.420   0.246
 9790SOL     OW30268   4.887   6.020   4.815
 9790SOL    HW130269   4.832   6.008   4.732
 9790SOL    HW230270   4.918   5.930   4.848
 9791SOL     OW30271   0.843   7.000   1.518
 9791SOL    HW130272   0.928   0.027   1.512
 9791SOL    HW230273   0.858   6.919   1.574
 9792SOL     OW30274   3.559   4.864   1.025
 9792SOL    HW130275   3.462   4.842   1.018
 9792SOL    HW230276   3.596   4.829   1.111
 9793SOL     OW30277   6.561   1.014   3.083
 9793SOL    HW130278   6.614   1.053   3.008
 9793SOL    HW230279   6.473   1.061   3.090
 9794SOL     OW30280   4.424   4.614   4.637
 9794SOL    HW130281   4.483   4.582   4.563
 9794SOL    HW230282   4.339   4.649   4.598
 9795SOL     OW30283   0.891   3.373   3.039
 9795SOL    HW130284   0.968   3.431   3.065
 9795SOL    HW230285   0.809   3.430   3.028
 9796SOL     OW30286   3.100   3.782   3.940
 9796SOL    HW130287   3.013   3.759   3.984
 9796SOL    HW230288   3.170   3.719   3.970
 9797SOL     OW30289   3.021   5.378   0.038
 9797SOL    HW130290   3.085   5.302   0.029
 9797SOL    HW230291   3.033   5.441   6.987
 9798SOL     OW30292   0.192   4.372   6.288
 9798SOL    HW130293   0.095   4.372   6.312
 9798SOL    HW230294   0.247   4.368   6.372
 9799SOL     OW30295   2.975   0.242   0.271
 9799SOL    HW130296   2.948   0.252   0.367
 9799SOL    HW230297   2.918   0.172   0.227
 9800SOL     OW30298   6.572   3.258   4.139
 9800SOL    HW130299   6.519   3.207   4.207
 9800SOL    HW230300   6.534   3.350   4.130
 9801SOL     OW30301   5.384   6.219   0.587
 9801SOL    HW130302   5.397   6.277   0.668
 9801SOL    HW230303   5.376   6.123   0.616
 9802SOL     OW30304   4.145   3.750   6.843
 9802SOL    HW130305   4.072   3.692   6.808
 9802SOL    HW230306   4.171   3.719   6.934
 9803SOL     OW30307   1.054   3.264   6.238
 9803SOL    HW130308   1.138   3.241   6.288
 9803SOL    HW230309   0.975   3.225   6.285
 9804SOL     OW30310   0.471   4.294   2.678
 9804SOL    HW130311   0.490   4.264   2.771
 9804SOL    HW230312   0.462   4.393   2.675
 9805SOL     OW30313   1.126   5.167   3.908
 9805SOL    HW130314   1.117   5.146   3.811
 9805SOL    HW230315   1.162   5.087   3.956
 9806SOL     OW30316   3.975   1.842   0.356
 9806SOL    HW130317   3.979   1.838   0.456
 9806SOL    HW230318   4.035   1.914   0.322
 9807SOL     OW30319   4.053   3.129   3.027
 9807SOL    HW130320   4.059   3.140   2.928
 9807SOL    HW230321   3.974   3.072   3.050
 9808SOL     OW30322   3.944   5.366   2.153
 9808SOL    HW130323   3.981   5.306   2.082
 9808SOL    HW230324   4.014   5.432   2.180
 9809SOL     OW30325   6.635   3.016   0.542
 9809SOL    HW130326   6.608   3.107   0.513
 9809SOL    HW230327   6.607   2.949   0.474
 9810SOL     OW30328   2.251   1.928   0.814
 9810SOL    HW130329   2.272   2.008   0.870
 9810SOL    HW230330   2.187   1.955   0.742
 9811SOL     OW30331   5.843   3.843   4.492
 9811SOL    HW130332   5.777   3.910   4.459
 9811SOL    HW230333   5.904   3.816   4.417
 9812SOL     OW30334   3.169   6.239   5.594
 9812SOL    HW130335   3.201   6.292   5.673
 9812SOL    HW230336   3.105   6.168   5.624
 9813SOL     OW30337   5.084   0.367   2.559
 9813SOL    HW130338   5.002   0.387   2.506
 9813SOL    HW230339   5.162   0.358   2.497
 9814SOL     OW30340   0.234   1.125   6.238
 9814SOL    HW130341   0.193   1.178   6.312
 9814SOL    HW230342   0.326   1.096   6.266
 9815SOL     OW30343   4.605   2.434   4.051
 9815SOL    HW130344   4.658   2.485   4.119
 9815SOL    HW230345   4.562   2.497   3.987
 9816SOL     OW30346   2.615   1.301   1.041
 9816SOL    HW130347   2.694   1.347   1.081
 9816SOL    HW230348   2.536   1.363   1.041
 9817SOL     OW30349   6.768   0.060   2.103
 9817SOL    HW130350   6.732   0.101   2.187
 9817SOL    HW230351   6.841   7.022   2.126
 9818SOL     OW30352   5.243   2.635   5.117
 9818SOL    HW130353   5.277   2.729   5.116
 9818SOL    HW230354   5.240   2.602   5.212
 9819SOL     OW30355   4.026   1.005   2.111
 9819SOL    HW130356   3.972   0.923   2.095
 9819SOL    HW230357   3.983   1.084   2.066
 9820SOL     OW30358   4.432   2.814   6.432
 9820SOL    HW130359   4.531   2.798   6.436
 9820SOL    HW230360   4.412   2.882   6.361
 9821SOL     OW30361   6.754   5.322   0.435
 9821SOL    HW130362   6.699   5.242   0.410
 9821SOL    HW230363   6.797   5.306   0.524
 9822SOL     OW30364   1.206   6.782   3.323
 9822SOL    HW130365   1.285   6.838   3.348
 9822SOL    HW230366   1.150   6.831   3.256
 9823SOL     OW30367   3.814   6.970   1.929
 9823SOL    HW130368   3.781   0.026   1.976
 9823SOL    HW230369   3.823   6.895   1.996
 9824SOL     OW30370   1.325   3.707   5.708
 9824SOL    HW130371   1.247   3.761   5.739
 9824SOL    HW230372   1.388   3.691   5.784
 9825SOL     OW30373   4.217   4.995   5.605
 9825SOL    HW130374   4.227   4.899   5.629
 9825SOL    HW230375   4.120   5.019   5.601
 9826SOL     OW30376   5.180   0.048   6.539
 9826SOL    HW130377   5.152   7.000   6.600
 9826SOL    HW230378   5.203   0.129   6.593
 9827SOL     OW30379   0.879   3.615   4.733
 9827SOL    HW130380   0.867   3.679   4.809
 9827SOL    HW230381   0.931   3.536   4.765
 9828SOL     OW30382   2.973   2.888   6.450
 9828SOL    HW130383   3.031   2.849   6.379
 9828SOL    HW230384   2.885   2.916   6.410
 9829SOL     OW30385   2.971   5.059   1.326
 9829SOL    HW130386   3.058   5.023   1.294
 9829SOL    HW230387   2.987   5.129   1.395
 9830SOL     OW30388   6.333   0.593   0.269
 9830SOL    HW130389   6.277   0.619   0.191
 9830SOL    HW230390   6.428   0.581   0.240
 9831SOL     OW30391   5.975   6.684   0.896
 9831SOL    HW130392   6.004   6.600   0.942
 9831SOL    HW230393   6.023   6.762   0.936
 9832SOL     OW30394   3.987   4.883   0.996
 9832SOL    HW130395   4.080   4.920   0.996
 9832SOL    HW230396   3.926   4.946   1.046
 9833SOL     OW30397   3.813   4.013   5.632
 9833SOL    HW130398   3.744   3.968   5.689
 9833SOL    HW230399   3.889   4.043   5.690
 9834SOL     OW30400   1.344   3.199   4.895
 9834SOL    HW130401   1.426   3.162   4.937
 9834SOL    HW230402   1.309   3.275   4.950
 9835SOL     OW30403   4.762   1.350   4.273
 9835SOL    HW130404   4.770   1.289   4.352
 9835SOL    HW230405   4.816   1.432   4.288
 9836SOL     OW30406   4.861   5.067   2.474
 9836SOL    HW130407   4.905   4.986   2.511
 9836SOL    HW230408   4.775   5.041   2.430
 9837SOL     OW30409   1.293   6.364   4.337
 9837SOL    HW130410   1.342   6.284   4.303
 9837SOL    HW230411   1.242   6.406   4.262
 9838SOL     OW30412   0.003   5.811   5.155
 9838SOL    HW130413   6.950   5.772   5.203
 9838SOL    HW230414   0.025   5.754   5.076
 9839SOL     OW30415   6.832   2.005   2.349
 9839SOL    HW130416   6.922   1.999   2.305
 9839SOL    HW230417   6.766   1.953   2.295
 9840SOL     OW30418   6.529   0.517   1.043
 9840SOL    HW130419   6.470   0.462   1.104
 9840SOL    HW230420   6.624   0.504   1.069
 9841SOL     OW30421   1.691   3.774   4.318
 9841SOL    HW130422   1.786   3.747   4.338
 9841SOL    HW230423   1.647   3.703   4.264
 9842SOL     OW30424   3.253   2.962   2.793
 9842SOL    HW130425   3.168   2.948   2.741
 9842SOL    HW230426   3.292   3.051   2.769
 9843SOL     OW30427   5.467   3.302   2.256
 9843SOL    HW130428   5.451   3.339   2.164
 9843SOL    HW230429   5.546   3.240   2.253
 9844SOL     OW30430   4.845   0.474   2.393
 9844SOL    HW130431   4.822   0.382   2.423
 9844SOL    HW230432   4.766   0.534   2.403
 9845SOL     OW30433   0.730   2.058   3.520
 9845SOL    HW130434   0.747   1.963   3.492
 9845SOL    HW230435   0.683   2.106   3.446
 9846SOL     OW30436   3.030   3.243   3.018
 9846SOL    HW130437   3.065   3.161   3.063
 9846SOL    HW230438   3.027   3.229   2.919
 9847SOL     OW30439   2.204   4.393   5.045
 9847SOL    HW130440   2.215   4.297   5.071
 9847SOL    HW230441   2.288   4.443   5.066
 9848SOL     OW30442   4.421   3.698   0.291
 9848SOL    HW130443   4.380   3.787   0.273
 9848SOL    HW230444   4.447   3.692   0.387
 9849SOL     OW30445   0.267   6.850   5.362
 9849SOL    HW130446   0.224   6.893   5.441
 9849SOL    HW230447   0.232   6.757   5.352
 9850SOL     OW30448   4.254   6.592   2.663
 9850SOL    HW130449   4.203   6.506   2.657
 9850SOL    HW230450   4.295   6.601   2.753
 9851SOL     OW30451   5.501   2.408   4.775
 9851SOL    HW130452   5.431   2.411   4.846
 9851SOL    HW230453   5.591   2.396   4.818
 9852SOL     OW30454   4.935   2.053   3.866
 9852SOL    HW130455   5.018   2.072   3.813
 9852SOL    HW230456   4.874   2.132   3.861
 9853SOL     OW30457   6.533   4.066   2.024
 9853SOL    HW130458   6.475   4.117   2.088
 9853SOL    HW230459   6.614   4.032   2.072
 9854SOL     OW30460   4.862   6.075   3.599
 9854SOL    HW130461   4.953   6.040   3.576
 9854SOL    HW230462   4.794   6.003   3.587
 9855SOL     OW30463   1.440   3.156   1.133
 9855SOL    HW130464   1.516   3.197   1.083
 9855SOL    HW230465   1.474   3.114   1.217
 9856SOL     OW30466   4.298   2.985   1.274
 9856SOL    HW130467   4.256   2.897   1.293
 9856SOL    HW230468   4.391   2.971   1.239
 9857SOL     OW30469   5.426   4.180   3.474
 9857SOL    HW130470   5.442   4.084   3.498
 9857SOL    HW230471   5.327   4.196   3.467
 9858SOL     OW30472   4.391   1.453   1.178
 9858SOL    HW130473   4.450   1.530   1.204
 9858SOL    HW230474   4.443   1.388   1.123
 9859SOL     OW30475   6.488   0.504   1.945
 9859SOL    HW130476   6.450   0.594   1.965
 9859SOL    HW230477   6.547   0.510   1.864
 9860SOL     OW30478   0.484   1.210   2.879
 9860SOL    HW130479   0.545   1.135   2.856
 9860SOL    HW230480   0.399   1.173   2.918
 9861SOL     OW30481   4.027   6.939   4.519
 9861SOL    HW130482   4.086   6.979   4.448
 9861SOL    HW230483   3.935   6.928   4.483
 9862SOL     OW30484   0.614   2.491   0.483
 9862SOL    HW130485   0.688   2.503   0.417
 9862SOL    HW230486   0.623   2.557   0.557
 9863SOL     OW30487   2.925   6.834   0.820
 9863SOL    HW130488   2.997   6.830   0.751
 9863SOL    HW230489   2.954   6.785   0.902
 9864SOL     OW30490   4.731   5.905   2.032
 9864SOL    HW130491   4.673   5.986   2.044
 9864SOL    HW230492   4.736   5.882   1.935
 9865SOL     OW30493   0.333   1.857   4.982
 9865SOL    HW130494   0.381   1.862   4.894
 9865SOL    HW230495   0.235   1.862   4.967
 9866SOL     OW30496   4.329   4.653   3.543
 9866SOL    HW130497   4.288   4.676   3.455
 9866SOL    HW230498   4.263   4.670   3.616
 9867SOL     OW30499   3.899   0.726   6.475
 9867SOL    HW130500   3.861   0.644   6.517
 9867SOL    HW230501   3.896   0.717   6.375
 9868SOL     OW30502   6.869   5.060   0.052
 9868SOL    HW130503   6.831   4.980   0.006
 9868SOL    HW230504   6.824   5.073   0.140
 9869SOL     OW30505   1.562   3.602   3.434
 9869SOL    HW130506   1.656   3.626   3.413
 9869SOL    HW230507   1.520   3.675   3.488
 9870SOL     OW30508   4.833   4.602   2.506
 9870SOL    HW130509   4.888   4.664   2.561
 9870SOL    HW230510   4.792   4.653   2.430
 9871SOL     OW30511   1.708   1.169   5.037
 9871SOL    HW130512   1.713   1.269   5.030
 9871SOL    HW230513   1.736   1.129   4.950
 9872SOL     OW30514   1.879   4.920   3.366
 9872SOL    HW130515   1.892   4.998   3.305
 9872SOL    HW230516   1.793   4.931   3.417
 9873SOL     OW30517   0.645   2.755   0.963
 9873SOL    HW130518   0.666   2.852   0.960
 9873SOL    HW230519   0.725   2.704   0.996
 9874SOL     OW30520   0.550   2.639   3.563
 9874SOL    HW130521   0.626   2.697   3.534
 9874SOL    HW230522   0.537   2.649   3.662
 9875SOL     OW30523   1.071   0.690   3.305
 9875SOL    HW130524   1.014   0.772   3.295
 9875SOL    HW230525   1.144   0.691   3.236
 9876SOL     OW30526   0.110   6.397   2.708
 9876SOL    HW130527   0.170   6.341   2.766
 9876SOL    HW230528   0.043   6.338   2.662
 9877SOL     OW30529   3.306   0.009   2.237
 9877SOL    HW130530   3.227   0.068   2.218
 9877SOL    HW230531   3.338   0.026   2.330
 9878SOL     OW30532   0.529   6.729   5.101
 9878SOL    HW130533   0.623   6.700   5.083
 9878SOL    HW230534   0.493   6.778   5.022
 9879SOL     OW30535   5.222   6.242   6.069
 9879SOL    HW130536   5.143   6.296   6.038
 9879SOL    HW230537   5.213   6.224   6.166
 9880SOL     OW30538   1.550   1.814   5.274
 9880SOL    HW130539   1.512   1.743   5.215
 9880SOL    HW230540   1.513   1.903   5.247
 9881SOL     OW30541   0.404   2.568   6.351
 9881SOL    HW130542   0.406   2.496   6.421
 9881SOL    HW230543   0.490   2.567   6.301
 9882SOL     OW30544   1.022   1.361   3.432
 9882SOL    HW130545   0.931   1.387   3.401
 9882SOL    HW230546   1.070   1.442   3.467
 9883SOL     OW30547   2.080   0.411   1.365
 9883SOL    HW130548   2.075   0.399   1.464
 9883SOL    HW230549   2.171   0.383   1.333
 9884SOL     OW30550   3.865   0.523   4.174
 9884SOL    HW130551   3.898   0.445   4.120
 9884SOL    HW230552   3.941   0.562   4.226
 9885SOL     OW30553   6.240   5.077   4.080
 9885SOL    HW130554   6.236   5.024   4.164
 9885SOL    HW230555   6.331   5.068   4.039
 9886SOL     OW30556   1.091   3.792   2.313
 9886SOL    HW130557   1.027   3.816   2.240
 9886SOL    HW230558   1.115   3.695   2.305
 9887SOL     OW30559   4.146   0.746   6.602
 9887SOL    HW130560   4.064   0.753   6.545
 9887SOL    HW230561   4.159   0.650   6.630
 9888SOL     OW30562   6.917   4.091   0.121
 9888SOL    HW130563   6.880   4.005   0.156
 9888SOL    HW230564   6.977   4.072   0.043
 9889SOL     OW30565   0.091   4.845   0.299
 9889SOL    HW130566   0.099   4.797   0.211
 9889SOL    HW230567   7.020   4.858   0.320
 9890SOL     OW30568   1.344   2.724   1.227
 9890SOL    HW130569   1.289   2.796   1.187
 9890SOL    HW230570   1.431   2.762   1.260
 9891SOL     OW30571   5.180   1.907   1.538
 9891SOL    HW130572   5.132   1.905   1.625
 9891SOL    HW230573   5.220   1.998   1.524
 9892SOL     OW30574   6.932   5.607   6.516
 9892SOL    HW130575   6.981   5.523   6.491
 9892SOL    HW230576   6.995   5.671   6.560
 9893SOL     OW30577   1.965   1.115   0.782
 9893SOL    HW130578   2.003   1.152   0.697
 9893SOL    HW230579   1.977   1.182   0.856
 9894SOL     OW30580   1.708   2.091   0.290
 9894SOL    HW130581   1.750   2.024   0.351
 9894SOL    HW230582   1.636   2.140   0.339
 9895SOL     OW30583   5.412   3.213   5.705
 9895SOL    HW130584   5.410   3.238   5.802
 9895SOL    HW230585   5.318   3.197   5.673
 9896SOL     OW30586   6.028   0.242   6.940
 9896SOL    HW130587   6.051   0.317   7.002
 9896SOL    HW230588   5.944   0.197   6.971
 9897SOL     OW30589   5.273   5.219   3.885
 9897SOL    HW130590   5.346   5.285   3.866
 9897SOL    HW230591   5.311   5.141   3.934
 9898SOL     OW30592   3.636   6.295   5.279
 9898SOL    HW130593   3.613   6.281   5.182
 9898SOL    HW230594   3.640   6.206   5.325
 9899SOL     OW30595   0.116   5.478   0.308
 9899SOL    HW130596   0.144   5.484   0.212
 9899SOL    HW230597   0.130   5.385   0.342
 9900SOL     OW30598   1.915   3.942   3.344
 9900SOL    HW130599   1.960   3.937   3.433
 9900SOL    HW230600   1.981   3.921   3.272
 9901SOL     OW30601   2.021   2.076   5.427
 9901SOL    HW130602   1.936   2.085   5.377
 9901SOL    HW230603   2.067   1.991   5.400
 9902SOL     OW30604   2.813   4.567   0.071
 9902SOL    HW130605   2.900   4.535   0.111
 9902SOL    HW230606   2.811   4.667   0.071
 9903SOL     OW30607   5.535   1.263   3.087
 9903SOL    HW130608   5.530   1.175   3.133
 9903SOL    HW230609   5.600   1.257   3.011
 9904SOL     OW30610   6.742   3.128   6.078
 9904SOL    HW130611   6.737   3.082   6.167
 9904SOL    HW230612   6.660   3.106   6.025
 9905SOL     OW30613   4.192   1.510   0.412
 9905SOL    HW130614   4.142   1.517   0.326
 9905SOL    HW230615   4.150   1.439   0.470
 9906SOL     OW30616   3.991   3.878   4.223
 9906SOL    HW130617   3.902   3.923   4.234
 9906SOL    HW230618   3.979   3.779   4.225
 9907SOL     OW30619   0.850   6.745   1.691
 9907SOL    HW130620   0.787   6.671   1.713
 9907SOL    HW230621   0.902   6.771   1.772
 9908SOL     OW30622   4.957   3.511   3.074
 9908SOL    HW130623   5.020   3.448   3.121
 9908SOL    HW230624   4.907   3.564   3.142
 9909SOL     OW30625   1.877   0.245   5.101
 9909SOL    HW130626   1.778   0.240   5.088
 9909SOL    HW230627   1.921   0.267   5.014
 9910SOL     OW30628   1.108   4.027   3.124
 9910SOL    HW130629   1.155   4.030   3.212
 9910SOL    HW230630   1.011   4.044   3.137
 9911SOL     OW30631   3.013   6.227   2.163
 9911SOL    HW130632   3.050   6.287   2.233
 9911SOL    HW230633   3.043   6.133   2.180
 9912SOL     OW30634   4.298   1.207   0.097
 9912SOL    HW130635   4.291   1.307   0.095
 9912SOL    HW230636   4.394   1.180   0.105
 9913SOL     OW30637   5.958   3.147   6.940
 9913SOL    HW130638   5.884   3.212   6.958
 9913SOL    HW230639   6.021   3.187   6.873
 9914SOL     OW30640   0.706   2.901   5.303
 9914SOL    HW130641   0.774   2.865   5.239
 9914SOL    HW230642   0.716   2.856   5.392
 9915SOL     OW30643   5.739   0.931   3.533
 9915SOL    HW130644   5.651   0.972   3.558
 9915SOL    HW230645   5.727   0.833   3.516
 9916SOL     OW30646   2.223   2.486   2.193
 9916SOL    HW130647   2.198   2.552   2.122
 9916SOL    HW230648   2.141   2.444   2.230
 9917SOL     OW30649   6.709   4.072   5.008
 9917SOL    HW130650   6.759   4.067   4.922
 9917SOL    HW230651   6.664   3.985   5.026
 9918SOL     OW30652   4.126   2.223   2.786
 9918SOL    HW130653   4.172   2.193   2.703
 9918SOL    HW230654   4.029   2.198   2.781
 9919SOL     OW30655   6.624   6.107   0.401
 9919SOL    HW130656   6.608   6.024   0.348
 9919SOL    HW230657   6.571   6.103   0.485
 9920SOL     OW30658   4.771   1.325   2.320
 9920SOL    HW130659   4.732   1.284   2.238
 9920SOL    HW230660   4.870   1.332   2.310
 9921SOL     OW30661   3.852   5.463   5.886
 9921SOL    HW130662   3.899   5.486   5.801
 9921SOL    HW230663   3.836   5.364   5.890
 9922SOL     OW30664   0.221   5.552   0.655
 9922SOL    HW130665   0.160   5.493   0.708
 9922SOL    HW230666   0.304   5.501   0.632
 9923SOL     OW30667   5.096   4.624   0.206
 9923SOL    HW130668   5.161   4.599   0.278
 9923SOL    HW230669   5.092   4.724   0.198
 9924SOL     OW30670   0.580   3.580   4.735
 9924SOL    HW130671   0.581   3.534   4.824
 9924SOL    HW230672   0.669   3.624   4.719
 9925SOL     OW30673   5.336   2.085   4.194
 9925SOL    HW130674   5.367   1.999   4.153
 9925SOL    HW230675   5.289   2.140   4.125
 9926SOL     OW30676   2.095   4.973   0.092
 9926SOL    HW130677   2.089   5.069   0.067
 9926SOL    HW230678   2.016   4.948   0.148
 9927SOL     OW30679   6.361   6.874   3.038
 9927SOL    HW130680   6.279   6.903   3.088
 9927SOL    HW230681   6.335   6.815   2.961
 9928SOL     OW30682   5.011   4.486   1.464
 9928SOL    HW130683   4.974   4.545   1.535
 9928SOL    HW230684   4.946   4.412   1.444
 9929SOL     OW30685   2.671   4.764   3.804
 9929SOL    HW130686   2.640   4.676   3.840
 9929SOL    HW230687   2.601   4.801   3.743
 9930SOL     OW30688   6.650   0.364   3.725
 9930SOL    HW130689   6.674   0.307   3.645
 9930SOL    HW230690   6.724   0.429   3.743
 9931SOL     OW30691   1.035   4.700   5.336
 9931SOL    HW130692   1.097   4.629   5.300
 9931SOL    HW230693   1.055   4.787   5.292
 9932SOL     OW30694   0.652   6.252   5.354
 9932SOL    HW130695   0.617   6.208   5.271
 9932SOL    HW230696   0.648   6.351   5.343
 9933SOL     OW30697   0.580   5.870   2.365
 9933SOL    HW130698   0.565   5.816   2.448
 9933SOL    HW230699   0.494   5.912   2.336
 9934SOL     OW30700   6.577   2.034   6.369
 9934SOL    HW130701   6.504   1.991   6.422
 9934SOL    HW230702   6.577   1.996   6.276
 9935SOL     OW30703   2.962   1.072   6.213
 9935SOL    HW130704   2.957   1.085   6.114
 9935SOL    HW230705   2.875   1.036   6.246
 9936SOL     OW30706   1.087   4.478   4.648
 9936SOL    HW130707   1.128   4.486   4.557
 9936SOL    HW230708   1.001   4.427   4.641
 9937SOL     OW30709   6.627   2.518   6.084
 9937SOL    HW130710   6.635   2.419   6.098
 9937SOL    HW230711   6.551   2.554   6.138
 9938SOL     OW30712   6.585   6.400   3.268
 9938SOL    HW130713   6.562   6.473   3.204
 9938SOL    HW230714   6.579   6.311   3.222
 9939SOL     OW30715   3.210   3.139   2.271
 9939SOL    HW130716   3.262   3.056   2.251
 9939SOL    HW230717   3.135   3.147   2.204
 9940SOL     OW30718   6.796   1.318   0.730
 9940SOL    HW130719   6.823   1.405   0.690
 9940SOL    HW230720   6.703   1.327   0.767
 9941SOL     OW30721   3.447   4.936   5.681
 9941SOL    HW130722   3.384   5.007   5.711
 9941SOL    HW230723   3.401   4.877   5.615
 9942SOL     OW30724   2.572   5.405   3.225
 9942SOL    HW130725   2.601   5.408   3.321
 9942SOL    HW230726   2.636   5.350   3.172
 9943SOL     OW30727   0.858   6.690   5.480
 9943SOL    HW130728   0.863   6.597   5.443
 9943SOL    HW230729   0.762   6.713   5.497
 9944SOL     OW30730   0.621   4.024   0.093
 9944SOL    HW130731   0.697   4.023   0.159
 9944SOL    HW230732   0.657   4.023   0.000
 9945SOL     OW30733   6.848   5.414   0.194
 9945SOL    HW130734   6.908   5.344   0.157
 9945SOL    HW230735   6.809   5.382   0.281
 9946SOL     OW30736   4.846   0.427   5.062
 9946SOL    HW130737   4.861   0.524   5.080
 9946SOL    HW230738   4.893   0.373   5.131
 9947SOL     OW30739   6.306   4.649   3.926
 9947SOL    HW130740   6.396   4.652   3.883
 9947SOL    HW230741   6.237   4.683   3.863
 9948SOL     OW30742   4.759   4.712   4.819
 9948SOL    HW130743   4.740   4.803   4.783
 9948SOL    HW230744   4.686   4.684   4.882
 9949SOL     OW30745   5.216   5.162   3.335
 9949SOL    HW130746   5.259   5.072   3.332
 9949SOL    HW230747   5.223   5.199   3.428
 9950SOL     OW30748   4.135   5.921   5.527
 9950SOL    HW130749   4.112   5.931   5.430
 9950SOL    HW230750   4.138   5.824   5.550
 9951SOL     OW30751   5.807   1.994   3.175
 9951SOL    HW130752   5.779   1.954   3.088
 9951SOL    HW230753   5.788   2.092   3.174
 9952SOL     OW30754   6.855   4.947   0.412
 9952SOL    HW130755   6.775   5.003   0.392
 9952SOL    HW230756   6.931   5.006   0.438
 9953SOL     OW30757   0.063   1.369   4.281
 9953SOL    HW130758   7.021   1.302   4.312
 9953SOL    HW230759   0.124   1.326   4.215
 9954SOL     OW30760   4.781   0.493   5.442
 9954SOL    HW130761   4.858   0.436   5.471
 9954SOL    HW230762   4.697   0.440   5.447
 9955SOL     OW30763   0.706   4.184   5.040
 9955SOL    HW130764   0.660   4.097   5.055
 9955SOL    HW230765   0.642   4.250   5.000
 9956SOL     OW30766   1.891   6.063   1.320
 9956SOL    HW130767   1.792   6.052   1.309
 9956SOL    HW230768   1.909   6.116   1.402
 9957SOL     OW30769   6.588   4.032   3.635
 9957SOL    HW130770   6.537   3.947   3.619
 9957SOL    HW230771   6.524   4.107   3.647
 9958SOL     OW30772   2.557   4.403   1.456
 9958SOL    HW130773   2.545   4.397   1.555
 9958SOL    HW230774   2.482   4.457   1.417
 9959SOL     OW30775   3.867   3.574   0.565
 9959SOL    HW130776   3.789   3.635   0.582
 9959SOL    HW230777   3.903   3.541   0.652
 9960SOL     OW30778   0.698   1.318   2.616
 9960SOL    HW130779   0.617   1.363   2.654
 9960SOL    HW230780   0.780   1.348   2.665
 9961SOL     OW30781   2.324   4.661   4.780
 9961SOL    HW130782   2.352   4.569   4.751
 9961SOL    HW230783   2.301   4.660   4.877
 9962SOL     OW30784   5.443   6.122   5.252
 9962SOL    HW130785   5.425   6.105   5.349
 9962SOL    HW230786   5.362   6.162   5.210
 9963SOL     OW30787   3.174   0.962   0.526
 9963SOL    HW130788   3.111   0.947   0.451
 9963SOL    HW230789   3.127   0.947   0.613
 9964SOL     OW30790   4.676   5.882   5.248
 9964SOL    HW130791   4.653   5.877   5.345
 9964SOL    HW230792   4.598   5.850   5.194
 9965SOL     OW30793   4.256   0.254   0.252
 9965SOL    HW130794   4.261   0.348   0.218
 9965SOL    HW230795   4.332   0.237   0.314
 9966SOL     OW30796   0.921   0.236   2.817
 9966SOL    HW130797   0.894   0.293   2.894
 9966SOL    HW230798   0.978   0.160   2.849
 9967SOL     OW30799   1.193   5.515   0.482
 9967SOL    HW130800   1.198   5.425   0.439
 9967SOL    HW230801   1.141   5.509   0.567
 9968SOL     OW30802   3.685   2.891   2.598
 9968SOL    HW130803   3.746   2.931   2.530
 9968SOL    HW230804   3.594   2.882   2.560
 9969SOL     OW30805   0.662   3.573   1.612
 9969SOL    HW130806   0.723   3.619   1.547
 9969SOL    HW230807   0.600   3.513   1.562
 9970SOL     OW30808   5.530   4.368   1.485
 9970SOL    HW130809   5.580   4.331   1.406
 9970SOL    HW230810   5.433   4.346   1.476
 9971SOL     OW30811   2.245   5.359   0.089
 9971SOL    HW130812   2.338   5.328   0.104
 9971SOL    HW230813   2.184   5.280   0.080
 9972SOL     OW30814   6.693   4.545   1.854
 9972SOL    HW130815   6.607   4.493   1.853
 9972SOL    HW230816   6.722   4.558   1.949
 9973SOL     OW30817   5.529   0.036   4.632
 9973SOL    HW130818   5.596   0.037   4.558
 9973SOL    HW230819   5.438   0.060   4.597
 9974SOL     OW30820   1.923   0.650   4.226
 9974SOL    HW130821   1.926   0.552   4.247
 9974SOL    HW230822   1.879   0.665   4.138
 9975SOL     OW30823   0.187   3.125   0.469
 9975SOL    HW130824   0.237   3.145   0.385
 9975SOL    HW230825   0.229   3.174   0.545
 9976SOL     OW30826   1.875   0.402   4.819
 9976SOL    HW130827   1.899   0.463   4.895
 9976SOL    HW230828   1.881   0.453   4.733
 9977SOL     OW30829   6.706   4.628   4.397
 9977SOL    HW130830   6.675   4.706   4.453
 9977SOL    HW230831   6.793   4.595   4.432
 9978SOL     OW30832   6.805   2.083   4.067
 9978SOL    HW130833   6.880   2.023   4.094
 9978SOL    HW230834   6.737   2.088   4.141
 9979SOL     OW30835   0.040   3.739   5.134
 9979SOL    HW130836   6.986   3.742   5.195
 9979SOL    HW230837   0.112   3.796   5.172
 9980SOL     OW30838   3.864   7.000   5.171
 9980SOL    HW130839   3.825   6.930   5.231
 9980SOL    HW230840   3.871   0.061   5.221
 9981SOL     OW30841   3.499   2.051   4.230
 9981SOL    HW130842   3.415   2.092   4.195
 9981SOL    HW230843   3.557   2.122   4.270
 9982SOL     OW30844   6.234   5.969   3.625
 9982SOL    HW130845   6.161   6.035   3.645
 9982SOL    HW230846   6.291   6.004   3.551
 9983SOL     OW30847   0.345   1.079   1.308
 9983SOL    HW130848   0.336   0.992   1.260
 9983SOL    HW230849   0.360   1.152   1.241
 9984SOL     OW30850   2.734   0.973   0.086
 9984SOL    HW130851   2.680   1.048   0.124
 9984SOL    HW230852   2.732   0.978   7.012
 9985SOL     OW30853   1.244   0.703   1.925
 9985SOL    HW130854   1.311   0.659   1.866
 9985SOL    HW230855   1.211   0.637   1.993
 9986SOL     OW30856   5.224   4.529   4.901
 9986SOL    HW130857   5.129   4.560   4.897
 9986SOL    HW230858   5.254   4.503   4.809
 9987SOL     OW30859   6.888   3.919   6.238
 9987SOL    HW130860   6.793   3.948   6.234
 9987SOL    HW230861   6.906   3.853   6.165
 9988SOL     OW30862   6.327   6.793   4.509
 9988SOL    HW130863   6.400   6.734   4.474
 9988SOL    HW230864   6.322   6.875   4.454
 9989SOL     OW30865   0.760   3.731   5.212
 9989SOL    HW130866   0.814   3.647   5.213
 9989SOL    HW230867   0.671   3.713   5.254
 9990SOL     OW30868   1.289   5.204   2.432
 9990SOL    HW130869   1.226   5.282   2.440
 9990SOL    HW230870   1.292   5.174   2.337
 9991SOL     OW30871   4.035   2.178   3.754
 9991SOL    HW130872   3.998   2.086   3.743
 9991SOL    HW230873   4.051   2.219   3.664
 9992SOL     OW30874   6.376   5.335   6.104
 9992SOL    HW130875   6.420   5.300   6.021
 9992SOL    HW230876   6.435   5.403   6.147
 9993SOL     OW30877   0.864   0.730   1.477
 9993SOL    HW130878   0.856   0.777   1.565
 9993SOL    HW230879   0.961   0.714   1.456
 9994SOL     OW30880   6.073   4.774   3.060
 9994SOL    HW130881   6.158   4.729   3.085
 9994SOL    HW230882   6.012   4.708   3.015
 9995SOL     OW30883   4.887   1.035   5.080
 9995SOL    HW130884   4.916   0.967   5.012
 9995SOL    HW230885   4.958   1.104   5.090
 9996SOL     OW30886   2.671   3.760   7.021
 9996SOL    HW130887   2.612   3.835   6.990
 9996SOL    HW230888   2.758   3.763   6.971
 9997SOL     OW30889   2.811   0.078   5.064
 9997SOL    HW130890   2.863   0.164   5.068
 9997SOL    HW230891   2.723   0.091   5.110
 9998SOL     OW30892   5.707   6.068   5.308
 9998SOL    HW130893   5.619   6.034   5.274
 9998SOL    HW230894   5.694   6.156   5.352
 9999SOL     OW30895   0.441   2.918   4.741
 9999SOL    HW130896   0.467   2.962   4.655
 9999SOL    HW230897   0.358   2.961   4.776
10000SOL     OW30898   7.016   3.528   6.841
10000SOL    HW130899   6.959   3.581   6.904
10000SOL    HW230900   0.071   3.582   6.816
10001SOL     OW30901   4.173   6.952   2.714
10001SOL    HW130902   4.193   6.927   2.809
10001SOL    HW230903   4.250   6.925   2.656
10002SOL     OW30904   0.815   1.779   2.099
10002SOL    HW130905   0.915   1.773   2.090
10002SOL    HW230906   0.776   1.687   2.093
10003SOL     OW30907   4.508   1.902   3.714
10003SOL    HW130908   4.412   1.914   3.688
10003SOL    HW230909   4.515   1.895   3.813
10004SOL     OW30910   0.594   2.164   3.026
10004SOL    HW130911   0.650   2.230   2.976
10004SOL    HW230912   0.592   2.077   2.976
10005SOL     OW30913   5.303   6.603   4.328
10005SOL    HW130914   5.326   6.631   4.421
10005SOL    HW230915   5.206   6.578   4.324
10006SOL     OW30916   4.628   0.966   4.861
10006SOL    HW130917   4.561   0.916   4.914
10006SOL    HW230918   4.686   0.902   4.810
10007SOL     OW30919   6.520   3.174   3.885
10007SOL    HW130920   6.610   3.147   3.853
10007SOL    HW230921   6.522   3.185   3.985
10008SOL     OW30922   3.665   0.114   3.985
10008SOL    HW130923   3.577   0.122   3.939
10008SOL    HW230924   3.734   0.081   3.920
10009SOL     OW30925   0.889   4.183   1.828
10009SOL    HW130926   0.895   4.131   1.913
10009SOL    HW230927   0.850   4.125   1.756
10010SOL     OW30928   0.294   1.477   6.295
10010SOL    HW130929   0.208   1.453   6.251
10010SOL    HW230930   0.370   1.442   6.240
10011SOL     OW30931   6.912   6.732   4.748
10011SOL    HW130932   6.877   6.656   4.694
10011SOL    HW230933   6.981   6.781   4.694
10012SOL     OW30934   5.877   0.799   3.904
10012SOL    HW130935   5.879   0.899   3.907
10012SOL    HW230936   5.808   0.765   3.968
10013SOL     OW30937   1.078   0.768   2.608
10013SOL    HW130938   1.168   0.782   2.650
10013SOL    HW230939   1.089   0.760   2.509
10014SOL     OW30940   1.803   5.143   5.971
10014SOL    HW130941   1.862   5.071   5.934
10014SOL    HW230942   1.830   5.163   6.065
10015SOL     OW30943   2.362   4.967   0.114
10015SOL    HW130944   2.265   4.946   0.127
10015SOL    HW230945   2.409   4.960   0.202
10016SOL     OW30946   2.510   0.580   5.621
10016SOL    HW130947   2.558   0.514   5.680
10016SOL    HW230948   2.440   0.533   5.568
10017SOL     OW30949   1.016   1.770   4.163
10017SOL    HW130950   1.023   1.671   4.177
10017SOL    HW230951   0.994   1.814   4.250
10018SOL     OW30952   4.434   6.838   6.625
10018SOL    HW130953   4.459   6.911   6.561
10018SOL    HW230954   4.517   6.800   6.666
10019SOL     OW30955   1.632   1.426   2.114
10019SOL    HW130956   1.550   1.480   2.092
10019SOL    HW230957   1.606   1.330   2.125
10020SOL     OW30958   6.940   3.143   0.745
10020SOL    HW130959   6.851   3.188   0.751
10020SOL    HW230960   6.932   3.061   0.688
10021SOL     OW30961   6.193   3.636   0.821
10021SOL    HW130962   6.147   3.644   0.909
10021SOL    HW230963   6.127   3.604   0.752
10022SOL     OW30964   1.841   0.633   6.591
10022SOL    HW130965   1.771   0.646   6.661
10022SOL    HW230966   1.891   0.549   6.610
10023SOL     OW30967   7.019   3.691   1.387
10023SOL    HW130968   6.932   3.664   1.346
10023SOL    HW230969   0.030   3.769   1.338
10024SOL     OW30970   1.305   4.581   3.095
10024SOL    HW130971   1.350   4.492   3.097
10024SOL    HW230972   1.215   4.572   3.052
10025SOL     OW30973   1.003   1.562   0.525
10025SOL    HW130974   1.102   1.562   0.518
10025SOL    HW230975   0.964   1.520   0.443
10026SOL     OW30976   0.172   0.712   3.761
10026SOL    HW130977   0.199   0.798   3.719
10026SOL    HW230978   0.133   0.652   3.690
10027SOL     OW30979   4.934   2.345   5.978
10027SOL    HW130980   4.992   2.391   5.911
10027SOL    HW230981   4.849   2.315   5.933
10028SOL     OW30982   1.970   0.725   0.830
10028SOL    HW130983   2.022   0.758   0.909
10028SOL    HW230984   2.014   0.643   0.793
10029SOL     OW30985   5.190   2.095   3.763
10029SOL    HW130986   5.255   2.021   3.773
10029SOL    HW230987   5.239   2.182   3.753
10030SOL     OW30988   2.100   0.939   3.183
10030SOL    HW130989   2.006   0.966   3.161
10030SOL    HW230990   2.127   0.982   3.269
10031SOL     OW30991   6.475   4.555   4.294
10031SOL    HW130992   6.553   4.580   4.352
10031SOL    HW230993   6.506   4.495   4.221
10032SOL     OW30994   2.899   1.475   5.351
10032SOL    HW130995   2.861   1.515   5.434
10032SOL    HW230996   2.947   1.390   5.373
10033SOL     OW30997   5.830   2.772   4.552
10033SOL    HW130998   5.745   2.815   4.520
10033SOL    HW230999   5.812   2.677   4.578
10034SOL     OW31000   4.606   0.481   6.209
10034SOL    HW131001   4.699   0.501   6.177
10034SOL    HW231002   4.595   0.382   6.220
10035SOL     OW31003   0.449   6.461   3.139
10035SOL    HW131004   0.508   6.436   3.063
10035SOL    HW231005   0.388   6.534   3.111
10036SOL     OW31006   6.686   0.847   0.190
10036SOL    HW131007   6.778   0.806   0.188
10036SOL    HW231008   6.676   0.911   0.114
10037SOL     OW31009   0.470   6.660   1.279
10037SOL    HW131010   0.494   6.736   1.340
10037SOL    HW231011   0.548   6.638   1.221
10038SOL     OW31012   6.398   0.522   0.801
10038SOL    HW131013   6.445   0.535   0.888
10038SOL    HW231014   6.465   0.529   0.726
10039SOL     OW31015   3.486   0.383   3.084
10039SOL    HW131016   3.419   0.414   3.151
10039SOL    HW231017   3.547   0.459   3.061
10040SOL     OW31018   0.141   2.438   0.978
10040SOL    HW131019   0.209   2.406   1.043
10040SOL    HW231020   0.052   2.446   1.024
10041SOL     OW31021   1.811   5.906   0.847
10041SOL    HW131022   1.878   5.856   0.792
10041SOL    HW231023   1.792   5.855   0.931
10042SOL     OW31024   5.957   2.622   2.804
10042SOL    HW131025   6.044   2.600   2.761
10042SOL    HW231026   5.883   2.617   2.736
10043SOL     OW31027   0.534   2.534   5.332
10043SOL    HW131028   0.543   2.500   5.239
10043SOL    HW231029   0.615   2.509   5.385
10044SOL     OW31030   3.915   1.479   6.237
10044SOL    HW131031   3.929   1.410   6.166
10044SOL    HW231032   3.869   1.437   6.315
10045SOL     OW31033   2.217   0.710   0.451
10045SOL    HW131034   2.150   0.768   0.497
10045SOL    HW231035   2.265   0.654   0.518
10046SOL     OW31036   1.191   5.148   1.246
10046SOL    HW131037   1.120   5.154   1.316
10046SOL    HW231038   1.267   5.092   1.280
10047SOL     OW31039   0.788   4.165   0.827
10047SOL    HW131040   0.754   4.184   0.919
10047SOL    HW231041   0.873   4.215   0.812
10048SOL     OW31042   5.488   5.162   3.062
10048SOL    HW131043   5.437   5.220   3.126
10048SOL    HW231044   5.436   5.152   2.977
10049SOL     OW31045   6.109   1.316   4.983
10049SOL    HW131046   6.132   1.238   5.041
10049SOL    HW231047   6.070   1.283   4.897
10050SOL     OW31048   0.438   2.932   6.564
10050SOL    HW131049   0.409   3.023   6.593
10050SOL    HW231050   0.364   2.889   6.512
10051SOL     OW31051   2.471   2.194   3.844
10051SOL    HW131052   2.430   2.149   3.765
10051SOL    HW231053   2.567   2.167   3.852
10052SOL     OW31054   1.701   0.190   3.487
10052SOL    HW131055   1.640   0.205   3.409
10052SOL    HW231056   1.706   0.273   3.543
10053SOL     OW31057   5.871   5.173   3.376
10053SOL    HW131058   5.888   5.259   3.327
10053SOL    HW231059   5.824   5.193   3.462
10054SOL     OW31060   6.947   4.511   4.524
10054SOL    HW131061   6.951   4.455   4.441
10054SOL    HW231062   6.930   4.452   4.603
10055SOL     OW31063   1.588   2.858   6.741
10055SOL    HW131064   1.595   2.875   6.840
10055SOL    HW231065   1.496   2.880   6.709
10056SOL     OW31066   6.149   1.900   4.044
10056SOL    HW131067   6.079   1.940   3.984
10056SOL    HW231068   6.104   1.840   4.110
10057SOL     OW31069   5.089   4.749   5.482
10057SOL    HW131070   5.151   4.671   5.477
10057SOL    HW231071   5.020   4.741   5.410
10058SOL     OW31072   0.207   4.134   4.627
10058SOL    HW131073   0.191   4.036   4.631
10058SOL    HW231074   0.304   4.151   4.612
10059SOL     OW31075   5.474   0.063   6.909
10059SOL    HW131076   5.531   0.050   6.990
10059SOL    HW231077   5.490   0.153   6.870
10060SOL     OW31078   2.984   2.004   1.710
10060SOL    HW131079   3.080   2.020   1.689
10060SOL    HW231080   2.937   1.971   1.628
10061SOL     OW31081   3.348   6.890   1.929
10061SOL    HW131082   3.256   6.930   1.935
10061SOL    HW231083   3.407   6.933   1.998
10062SOL     OW31084   0.810   6.693   5.040
10062SOL    HW131085   0.825   6.594   5.042
10062SOL    HW231086   0.796   6.722   4.945
10063SOL     OW31087   2.751   2.287   4.908
10063SOL    HW131088   2.689   2.208   4.904
10063SOL    HW231089   2.784   2.298   5.002
10064SOL     OW31090   2.492   6.863   1.445
10064SOL    HW131091   2.564   6.930   1.424
10064SOL    HW231092   2.424   6.905   1.505
10065SOL     OW31093   0.220   1.797   1.603
10065SOL    HW131094   0.176   1.714   1.571
10065SOL    HW231095   0.297   1.820   1.543
10066SOL     OW31096   6.401   5.033   3.424
10066SOL    HW131097   6.408   5.009   3.327
10066SOL    HW231098   6.382   5.131   3.433
10067SOL     OW31099   6.992   3.198   5.149
10067SOL    HW131100   6.904   3.199   5.196
10067SOL    HW231101   0.008   3.288   5.156
10068SOL     OW31102   1.392   3.566   2.352
10068SOL    HW131103   1.453   3.488   2.368
10068SOL    HW231104   1.403   3.633   2.426
10069SOL     OW31105   3.332   4.713   1.047
10069SOL    HW131106   3.283   4.716   1.134
10069SOL    HW231107   3.276   4.755   0.976
10070SOL     OW31108   5.240   7.020   0.008
10070SOL    HW131109   5.324   0.012   6.983
10070SOL    HW231110   5.161   0.007   6.974
10071SOL     OW31111   5.760   0.982   5.435
10071SOL    HW131112   5.675   1.009   5.389
10071SOL    HW231113   5.823   1.060   5.437
10072SOL     OW31114   5.838   3.174   1.652
10072SOL    HW131115   5.778   3.247   1.621
10072SOL    HW231116   5.807   3.086   1.615
10073SOL     OW31117   5.745   5.269   4.921
10073SOL    HW131118   5.681   5.206   4.964
10073SOL    HW231119   5.761   5.242   4.826
10074SOL     OW31120   2.356   4.631   0.133
10074SOL    HW131121   2.340   4.701   0.203
10074SOL    HW231122   2.269   4.609   0.089
10075SOL     OW31123   1.271   3.461   1.659
10075SOL    HW131124   1.217   3.532   1.614
10075SOL    HW231125   1.347   3.503   1.709
10076SOL     OW31126   5.321   4.973   4.277
10076SOL    HW131127   5.233   4.932   4.253
10076SOL    HW231128   5.317   5.072   4.262
10077SOL     OW31129   4.580   3.646   6.334
10077SOL    HW131130   4.503   3.585   6.312
10077SOL    HW231131   4.576   3.671   6.431
10078SOL     OW31132   6.321   5.353   4.341
10078SOL    HW131133   6.365   5.268   4.316
10078SOL    HW231134   6.270   5.340   4.426
10079SOL     OW31135   5.084   4.441   3.867
10079SOL    HW131136   5.079   4.424   3.966
10079SOL    HW231137   5.027   4.519   3.844
10080SOL     OW31138   4.818   1.708   5.518
10080SOL    HW131139   4.785   1.629   5.569
10080SOL    HW231140   4.917   1.701   5.507
10081SOL     OW31141   1.050   5.045   1.031
10081SOL    HW131142   0.995   4.979   1.082
10081SOL    HW231143   1.078   5.120   1.091
10082SOL     OW31144   0.818   4.565   1.071
10082SOL    HW131145   0.855   4.495   1.132
10082SOL    HW231146   0.732   4.599   1.109
10083SOL     OW31147   2.842   6.036   2.606
10083SOL    HW131148   2.784   5.994   2.536
10083SOL    HW231149   2.789   6.053   2.689
10084SOL     OW31150   0.774   2.302   4.485
10084SOL    HW131151   0.840   2.335   4.552
10084SOL    HW231152   0.719   2.228   4.526
10085SOL     OW31153   5.050   0.069   1.063
10085SOL    HW131154   5.072   7.009   1.017
10085SOL    HW231155   5.015   0.049   1.155
10086SOL     OW31156   4.764   6.555   3.063
10086SOL    HW131157   4.671   6.519   3.059
10086SOL    HW231158   4.816   6.522   2.983
10087SOL     OW31159   2.208   5.901   5.709
10087SOL    HW131160   2.216   5.859   5.800
10087SOL    HW231161   2.128   5.961   5.707
10088SOL     OW31162   6.457   2.475   1.647
10088SOL    HW131163   6.358   2.464   1.639
10088SOL    HW231164   6.496   2.492   1.556
10089SOL     OW31165   3.858   0.732   1.839
10089SOL    HW131166   3.951   0.768   1.842
10089SOL    HW231167   3.860   0.638   1.805
10090SOL     OW31168   1.529   6.477   3.373
10090SOL    HW131169   1.525   6.381   3.343
10090SOL    HW231170   1.601   6.488   3.441
10091SOL     OW31171   5.495   4.982   4.496
10091SOL    HW131172   5.445   4.964   4.581
10091SOL    HW231173   5.432   4.981   4.419
10092SOL     OW31174   1.165   2.041   3.379
10092SOL    HW131175   1.203   1.950   3.362
10092SOL    HW231176   1.174   2.062   3.476
10093SOL     OW31177   4.299   3.988   6.290
10093SOL    HW131178   4.214   4.038   6.270
10093SOL    HW231179   4.298   3.959   6.386
10094SOL     OW31180   3.424   2.098   0.510
10094SOL    HW131181   3.393   2.012   0.552
10094SOL    HW231182   3.489   2.078   0.437
10095SOL     OW31183   4.265   3.786   5.319
10095SOL    HW131184   4.201   3.736   5.377
10095SOL    HW231185   4.215   3.829   5.244
10096SOL     OW31186   6.491   3.528   2.354
10096SOL    HW131187   6.585   3.515   2.385
10096SOL    HW231188   6.474   3.626   2.341
10097SOL     OW31189   0.766   1.228   1.016
10097SOL    HW131190   0.730   1.252   0.926
10097SOL    HW231191   0.820   1.304   1.052
10098SOL     OW31192   3.494   5.379   4.413
10098SOL    HW131193   3.424   5.377   4.341
10098SOL    HW231194   3.508   5.287   4.449
10099SOL     OW31195   6.992   4.617   3.552
10099SOL    HW131196   6.957   4.568   3.632
10099SOL    HW231197   6.920   4.674   3.514
10100SOL     OW31198   5.422   4.988   3.676
10100SOL    HW131199   5.494   4.985   3.607
10100SOL    HW231200   5.373   4.900   3.676
10101SOL     OW31201   6.298   3.124   0.319
10101SOL    HW131202   6.244   3.171   0.248
10101SOL    HW231203   6.379   3.179   0.340
10102SOL     OW31204   6.116   4.755   3.767
10102SOL    HW131205   6.050   4.820   3.805
10102SOL    HW231206   6.155   4.792   3.683
10103SOL     OW31207   0.664   6.614   6.560
10103SOL    HW131208   0.643   6.711   6.568
10103SOL    HW231209   0.720   6.585   6.637
10104SOL     OW31210   2.795   1.237   4.440
10104SOL    HW131211   2.721   1.205   4.381
10104SOL    HW231212   2.863   1.285   4.384
10105SOL     OW31213   2.972   1.190   3.474
10105SOL    HW131214   2.902   1.261   3.477
10105SOL    HW231215   3.061   1.230   3.451
10106SOL     OW31216   5.626   4.157   1.326
10106SOL    HW131217   5.724   4.149   1.343
10106SOL    HW231218   5.597   4.083   1.266
10107SOL     OW31219   5.697   5.667   6.750
10107SOL    HW131220   5.761   5.652   6.825
10107SOL    HW231221   5.695   5.764   6.727
10108SOL     OW31222   2.143   2.672   4.911
10108SOL    HW131223   2.075   2.640   4.976
10108SOL    HW231224   2.221   2.711   4.961
10109SOL     OW31225   1.068   2.445   0.978
10109SOL    HW131226   1.139   2.467   1.044
10109SOL    HW231227   1.022   2.361   1.005
10110SOL     OW31228   6.256   5.924   2.039
10110SOL    HW131229   6.181   5.898   1.978
10110SOL    HW231230   6.221   5.979   2.114
10111SOL     OW31231   6.812   2.239   2.081
10111SOL    HW131232   6.731   2.249   2.138
10111SOL    HW231233   6.894   2.248   2.138
10112SOL     OW31234   5.922   2.866   3.859
10112SOL    HW131235   5.959   2.919   3.935
10112SOL    HW231236   5.993   2.804   3.824
10113SOL     OW31237   6.542   6.635   5.737
10113SOL    HW131238   6.488   6.553   5.752
10113SOL    HW231239   6.600   6.652   5.816
10114SOL     OW31240   5.217   3.497   2.013
10114SOL    HW131241   5.228   3.571   2.080
10114SOL    HW231242   5.306   3.454   1.997
10115SOL     OW31243   3.102   2.937   5.964
10115SOL    HW131244   3.144   2.890   5.886
10115SOL    HW231245   3.125   3.034   5.961
10116SOL     OW31246   0.279   0.138   5.846
10116SOL    HW131247   0.233   0.140   5.758
10116SOL    HW231248   0.378   0.137   5.833
10117SOL     OW31249   6.536   4.353   2.214
10117SOL    HW131250   6.622   4.313   2.185
10117SOL    HW231251   6.539   4.453   2.203
10118SOL     OW31252   3.932   5.432   3.616
10118SOL    HW131253   3.856   5.481   3.574
10118SOL    HW231254   4.018   5.478   3.594
10119SOL     OW31255   6.245   6.124   6.537
10119SOL    HW131256   6.263   6.194   6.606
10119SOL    HW231257   6.323   6.062   6.532
10120SOL     OW31258   2.589   2.429   3.070
10120SOL    HW131259   2.655   2.443   2.997
10120SOL    HW231260   2.511   2.491   3.057
10121SOL     OW31261   6.760   5.088   1.316
10121SOL    HW131262   6.777   4.993   1.342
10121SOL    HW231263   6.807   5.109   1.230
10122SOL     OW31264   2.188   0.108   3.667
10122SOL    HW131265   2.191   0.041   3.742
10122SOL    HW231266   2.107   0.091   3.611
10123SOL     OW31267   6.525   5.547   6.200
10123SOL    HW131268   6.525   5.623   6.135
10123SOL    HW231269   6.609   5.551   6.254
10124SOL     OW31270   2.357   4.996   2.650
10124SOL    HW131271   2.444   4.971   2.607
10124SOL    HW231272   2.293   4.919   2.643
10125SOL     OW31273   1.248   0.661   5.111
10125SOL    HW131274   1.213   0.603   5.037
10125SOL    HW231275   1.175   0.677   5.178
10126SOL     OW31276   6.371   6.183   5.251
10126SOL    HW131277   6.315   6.186   5.334
10126SOL    HW231278   6.465   6.209   5.274
10127SOL     OW31279   1.990   6.986   5.691
10127SOL    HW131280   1.916   6.921   5.707
10127SOL    HW231281   2.053   6.949   5.623
10128SOL     OW31282   2.276   2.458   0.007
10128SOL    HW131283   2.330   2.541   0.022
10128SOL    HW231284   2.187   2.467   0.050
10129SOL     OW31285   5.972   2.109   4.633
10129SOL    HW131286   5.900   2.052   4.671
10129SOL    HW231287   6.039   2.050   4.587
10130SOL     OW31288   0.913   2.115   3.197
10130SOL    HW131289   0.859   2.032   3.189
10130SOL    HW231290   0.996   2.096   3.249
10131SOL     OW31291   1.713   6.770   5.413
10131SOL    HW131292   1.755   6.792   5.501
10131SOL    HW231293   1.689   6.854   5.366
10132SOL     OW31294   5.813   0.390   2.339
10132SOL    HW131295   5.890   0.327   2.323
10132SOL    HW231296   5.842   0.464   2.399
10133SOL     OW31297   5.017   6.479   1.118
10133SOL    HW131298   5.083   6.554   1.127
10133SOL    HW231299   4.954   6.481   1.195
10134SOL     OW31300   0.422   6.609   3.397
10134SOL    HW131301   0.373   6.574   3.477
10134SOL    HW231302   0.435   6.534   3.331
10135SOL     OW31303   6.301   6.526   3.105
10135SOL    HW131304   6.234   6.590   3.142
10135SOL    HW231305   6.387   6.574   3.088
10136SOL     OW31306   4.688   1.276   3.541
10136SOL    HW131307   4.688   1.234   3.632
10136SOL    HW231308   4.780   1.272   3.502
10137SOL     OW31309   6.816   6.151   4.256
10137SOL    HW131310   6.718   6.150   4.276
10137SOL    HW231311   6.858   6.066   4.291
10138SOL     OW31312   0.115   2.458   1.998
10138SOL    HW131313   0.071   2.389   1.940
10138SOL    HW231314   0.065   2.544   1.990
10139SOL     OW31315   3.649   2.729   6.469
10139SOL    HW131316   3.581   2.656   6.477
10139SOL    HW231317   3.615   2.812   6.513
10140SOL     OW31318   0.069   6.061   5.060
10140SOL    HW131319   0.032   5.981   5.109
10140SOL    HW231320   7.019   6.114   5.021
10141SOL     OW31321   1.595   2.716   4.559
10141SOL    HW131322   1.671   2.767   4.600
10141SOL    HW231323   1.551   2.661   4.629
10142SOL     OW31324   4.797   5.603   2.260
10142SOL    HW131325   4.743   5.576   2.180
10142SOL    HW231326   4.758   5.686   2.299
10143SOL     OW31327   5.718   2.902   5.977
10143SOL    HW131328   5.810   2.864   5.963
10143SOL    HW231329   5.682   2.933   5.889
10144SOL     OW31330   3.575   0.327   0.593
10144SOL    HW131331   3.480   0.340   0.564
10144SOL    HW231332   3.600   0.399   0.657
10145SOL     OW31333   6.591   6.659   5.471
10145SOL    HW131334   6.556   6.643   5.563
10145SOL    HW231335   6.624   6.753   5.464
10146SOL     OW31336   1.692   2.859   5.300
10146SOL    HW131337   1.733   2.769   5.296
10146SOL    HW231338   1.640   2.869   5.386
10147SOL     OW31339   3.844   5.791   6.841
10147SOL    HW131340   3.935   5.760   6.815
10147SOL    HW231341   3.851   5.851   6.921
10148SOL     OW31342   0.667   5.090   6.907
10148SOL    HW131343   0.743   5.025   6.915
10148SOL    HW231344   0.660   5.144   6.990
10149SOL     OW31345   3.865   3.138   1.928
10149SOL    HW131346   3.794   3.209   1.925
10149SOL    HW231347   3.913   3.135   1.841
10150SOL     OW31348   4.512   4.076   1.205
10150SOL    HW131349   4.570   4.006   1.165
10150SOL    HW231350   4.458   4.119   1.132
10151SOL     OW31351   6.810   0.818   5.939
10151SOL    HW131352   6.786   0.906   5.900
10151SOL    HW231353   6.806   0.823   6.039
10152SOL     OW31354   4.201   6.830   2.995
10152SOL    HW131355   4.262   6.754   2.974
10152SOL    HW231356   4.106   6.800   2.988
10153SOL     OW31357   4.697   3.746   1.616
10153SOL    HW131358   4.752   3.724   1.696
10153SOL    HW231359   4.619   3.803   1.644
10154SOL     OW31360   4.381   5.201   5.168
10154SOL    HW131361   4.283   5.214   5.184
10154SOL    HW231362   4.431   5.218   5.253
10155SOL     OW31363   4.746   2.175   4.262
10155SOL    HW131364   4.664   2.166   4.206
10155SOL    HW231365   4.759   2.271   4.287
10156SOL     OW31366   4.036   1.684   6.037
10156SOL    HW131367   3.982   1.622   5.981
10156SOL    HW231368   4.021   1.662   6.134
10157SOL     OW31369   0.495   4.817   1.080
10157SOL    HW131370   0.560   4.852   1.012
10157SOL    HW231371   0.522   4.725   1.108
10158SOL     OW31372   5.625   4.993   0.207
10158SOL    HW131373   5.673   5.057   0.147
10158SOL    HW231374   5.557   5.042   0.261
10159SOL     OW31375   3.406   2.874   2.559
10159SOL    HW131376   3.375   2.815   2.484
10159SOL    HW231377   3.340   2.871   2.633
10160SOL     OW31378   0.166   4.055   2.723
10160SOL    HW131379   0.210   4.086   2.638
10160SOL    HW231380   0.067   4.056   2.712
10161SOL     OW31381   5.755   3.508   5.893
10161SOL    HW131382   5.761   3.581   5.960
10161SOL    HW231383   5.795   3.539   5.807
10162SOL     OW31384   1.840   2.508   2.413
10162SOL    HW131385   1.819   2.426   2.465
10162SOL    HW231386   1.912   2.559   2.459
10163SOL     OW31387   3.389   4.940   4.962
10163SOL    HW131388   3.355   4.909   4.873
10163SOL    HW231389   3.346   4.886   5.035
10164SOL     OW31390   0.270   1.209   3.704
10164SOL    HW131391   0.350   1.232   3.759
10164SOL    HW231392   0.253   1.281   3.637
10165SOL     OW31393   1.566   3.338   4.251
10165SOL    HW131394   1.645   3.314   4.307
10165SOL    HW231395   1.569   3.286   4.166
10166SOL     OW31396   2.858   6.059   2.997
10166SOL    HW131397   2.950   6.036   3.029
10166SOL    HW231398   2.792   6.040   3.069
10167SOL     OW31399   3.066   2.225   6.436
10167SOL    HW131400   3.052   2.221   6.535
10167SOL    HW231401   3.028   2.143   6.394
10168SOL     OW31402   0.222   0.800   6.814
10168SOL    HW131403   0.131   0.787   6.773
10168SOL    HW231404   0.214   0.805   6.913
10169SOL     OW31405   4.513   5.838   3.110
10169SOL    HW131406   4.529   5.819   3.207
10169SOL    HW231407   4.599   5.827   3.059
10170SOL     OW31408   5.073   6.682   0.363
10170SOL    HW131409   5.140   6.748   0.329
10170SOL    HW231410   5.017   6.726   0.434
10171SOL     OW31411   2.286   4.157   4.248
10171SOL    HW131412   2.213   4.224   4.261
10171SOL    HW231413   2.247   4.067   4.234
10172SOL     OW31414   0.317   0.862   2.642
10172SOL    HW131415   0.275   0.778   2.608
10172SOL    HW231416   0.370   0.842   2.724
10173SOL     OW31417   3.689   3.875   4.824
10173SOL    HW131418   3.595   3.850   4.845
10173SOL    HW231419   3.751   3.833   4.891
10174SOL     OW31420   5.070   4.588   1.206
10174SOL    HW131421   5.073   4.586   1.306
10174SOL    HW231422   5.065   4.495   1.170
10175SOL     OW31423   6.675   0.017   4.261
10175SOL    HW131424   6.751   0.044   4.320
10175SOL    HW231425   6.702   6.966   4.204
10176SOL     OW31426   0.233   0.845   4.588
10176SOL    HW131427   0.169   0.864   4.663
10176SOL    HW231428   0.193   0.872   4.501
10177SOL     OW31429   2.511   1.477   3.945
10177SOL    HW131430   2.607   1.452   3.929
10177SOL    HW231431   2.459   1.394   3.965
10178SOL     OW31432   0.487   1.346   1.460
10178SOL    HW131433   0.450   1.278   1.523
10178SOL    HW231434   0.529   1.420   1.512
10179SOL     OW31435   0.029   6.087   0.904
10179SOL    HW131436   6.975   6.046   0.860
10179SOL    HW231437   0.101   6.101   0.836
10180SOL     OW31438   3.318   6.675   6.459
10180SOL    HW131439   3.280   6.661   6.550
10180SOL    HW231440   3.382   6.602   6.437
10181SOL     OW31441   0.222   3.828   3.446
10181SOL    HW131442   0.187   3.882   3.523
10181SOL    HW231443   0.289   3.882   3.396
10182SOL     OW31444   4.102   0.410   0.641
10182SOL    HW131445   4.189   0.456   0.627
10182SOL    HW231446   4.117   0.311   0.646
10183SOL     OW31447   4.482   6.149   5.527
10183SOL    HW131448   4.431   6.148   5.613
10183SOL    HW231449   4.430   6.198   5.457
10184SOL     OW31450   5.541   2.440   5.562
10184SOL    HW131451   5.455   2.452   5.512
10184SOL    HW231452   5.593   2.365   5.521
10185SOL     OW31453   2.965   4.986   2.426
10185SOL    HW131454   2.882   5.017   2.378
10185SOL    HW231455   3.036   4.965   2.359
10186SOL     OW31456   3.392   2.759   6.994
10186SOL    HW131457   3.433   2.751   0.059
10186SOL    HW231458   3.298   2.726   6.997
10187SOL     OW31459   2.125   3.876   5.435
10187SOL    HW131460   2.167   3.847   5.349
10187SOL    HW231461   2.096   3.972   5.427
10188SOL     OW31462   2.178   6.866   6.792
10188SOL    HW131463   2.184   6.961   6.763
10188SOL    HW231464   2.153   6.808   6.714
10189SOL     OW31465   2.185   1.746   4.739
10189SOL    HW131466   2.209   1.792   4.654
10189SOL    HW231467   2.104   1.789   4.779
10190SOL     OW31468   4.367   4.430   0.952
10190SOL    HW131469   4.337   4.495   1.022
10190SOL    HW231470   4.379   4.340   0.994
10191SOL     OW31471   5.648   0.412   0.375
10191SOL    HW131472   5.733   0.432   0.425
10191SOL    HW231473   5.595   0.496   0.367
10192SOL     OW31474   2.122   0.781   3.783
10192SOL    HW131475   2.175   0.788   3.867
10192SOL    HW231476   2.180   0.746   3.709
10193SOL     OW31477   3.210   4.080   3.889
10193SOL    HW131478   3.220   4.123   3.979
10193SOL    HW231479   3.171   3.988   3.900
10194SOL     OW31480   3.062   6.283   2.974
10194SOL    HW131481   3.101   6.372   2.952
10194SOL    HW231482   3.133   6.212   2.966
10195SOL     OW31483   5.197   0.317   2.935
10195SOL    HW131484   5.192   0.316   2.835
10195SOL    HW231485   5.289   0.345   2.964
10196SOL     OW31486   5.073   4.065   4.386
10196SOL    HW131487   5.097   4.030   4.477
10196SOL    HW231488   4.974   4.059   4.374
10197SOL     OW31489   5.257   1.335   3.026
10197SOL    HW131490   5.342   1.387   3.020
10197SOL    HW231491   5.186   1.391   3.069
10198SOL     OW31492   3.227   1.151   1.751
10198SOL    HW131493   3.258   1.132   1.658
10198SOL    HW231494   3.134   1.188   1.748
10199SOL     OW31495   1.299   2.085   0.302
10199SOL    HW131496   1.253   2.000   0.331
10199SOL    HW231497   1.261   2.116   0.215
10200SOL     OW31498   5.641   6.202   4.862
10200SOL    HW131499   5.709   6.190   4.790
10200SOL    HW231500   5.604   6.112   4.888
10201SOL     OW31501   1.565   4.674   3.087
10201SOL    HW131502   1.591   4.653   3.181
10201SOL    HW231503   1.469   4.648   3.073
10202SOL     OW31504   0.370   1.870   3.376
10202SOL    HW131505   0.378   1.965   3.404
10202SOL    HW231506   0.353   1.813   3.457
10203SOL     OW31507   0.494   3.082   1.274
10203SOL    HW131508   0.593   3.072   1.261
10203SOL    HW231509   0.449   2.995   1.252
10204SOL     OW31510   2.774   5.322   4.541
10204SOL    HW131511   2.680   5.299   4.567
10204SOL    HW231512   2.835   5.307   4.619
10205SOL     OW31513   4.340   0.675   1.199
10205SOL    HW131514   4.393   0.759   1.203
10205SOL    HW231515   4.320   0.644   1.292
10206SOL     OW31516   4.700   6.752   6.688
10206SOL    HW131517   4.759   6.696   6.631
10206SOL    HW231518   4.753   6.827   6.727
10207SOL     OW31519   4.124   1.638   2.715
10207SOL    HW131520   4.089   1.725   2.680
10207SOL    HW231521   4.093   1.564   2.654
10208SOL     OW31522   6.851   3.672   5.720
10208SOL    HW131523   6.846   3.745   5.788
10208SOL    HW231524   6.945   3.638   5.715
10209SOL     OW31525   4.766   6.044   6.911
10209SOL    HW131526   4.830   5.994   6.969
10209SOL    HW231527   4.806   6.055   6.819
10210SOL     OW31528   5.609   5.643   0.206
10210SOL    HW131529   5.561   5.634   0.293
10210SOL    HW231530   5.704   5.614   0.217
10211SOL     OW31531   3.879   5.716   5.399
10211SOL    HW131532   3.951   5.650   5.418
10211SOL    HW231533   3.799   5.668   5.363
10212SOL     OW31534   6.083   6.002   5.916
10212SOL    HW131535   5.993   5.969   5.946
10212SOL    HW231536   6.121   5.938   5.849
10213SOL     OW31537   4.774   0.769   4.715
10213SOL    HW131538   4.785   0.756   4.617
10213SOL    HW231539   4.714   0.698   4.752
10214SOL     OW31540   0.700   1.022   0.461
10214SOL    HW131541   0.743   0.985   0.378
10214SOL    HW231542   0.737   0.976   0.541
10215SOL     OW31543   3.848   2.490   0.151
10215SOL    HW131544   3.775   2.546   0.190
10215SOL    HW231545   3.890   2.435   0.223
10216SOL     OW31546   4.937   0.017   2.560
10216SOL    HW131547   4.973   6.961   2.606
10216SOL    HW231548   4.987   0.032   2.475
10217SOL     OW31549   3.377   2.392   5.787
10217SOL    HW131550   3.363   2.489   5.765
10217SOL    HW231551   3.359   2.337   5.706
10218SOL     OW31552   3.079   2.476   6.775
10218SOL    HW131553   3.089   2.564   6.729
10218SOL    HW231554   3.004   2.481   6.841
10219SOL     OW31555   0.622   4.626   6.782
10219SOL    HW131556   0.535   4.589   6.814
10219SOL    HW231557   0.697   4.574   6.822
10220SOL     OW31558   4.023   2.355   0.329
10220SOL    HW131559   4.107   2.404   0.352
10220SOL    HW231560   3.990   2.304   0.408
10221SOL     OW31561   3.064   1.020   4.461
10221SOL    HW131562   2.979   1.039   4.510
10221SOL    HW231563   3.136   1.080   4.494
10222SOL     OW31564   2.004   4.958   5.669
10222SOL    HW131565   2.030   4.894   5.597
10222SOL    HW231566   1.911   4.992   5.652
10223SOL     OW31567   7.013   4.113   0.521
10223SOL    HW131568   6.913   4.110   0.527
10223SOL    HW231569   0.021   4.193   0.571
10224SOL     OW31570   2.769   0.461   4.497
10224SOL    HW131571   2.821   0.376   4.501
10224SOL    HW231572   2.831   0.538   4.510
10225SOL     OW31573   4.717   5.778   4.237
10225SOL    HW131574   4.751   5.743   4.324
10225SOL    HW231575   4.763   5.732   4.162
10226SOL     OW31576   6.990   3.177   6.776
10226SOL    HW131577   6.943   3.180   6.688
10226SOL    HW231578   0.062   3.167   6.760
10227SOL     OW31579   5.126   5.017   5.489
10227SOL    HW131580   5.125   4.918   5.476
10227SOL    HW231581   5.142   5.037   5.586
10228SOL     OW31582   1.555   3.372   2.412
10228SOL    HW131583   1.486   3.301   2.424
10228SOL    HW231584   1.638   3.331   2.372
10229SOL     OW31585   2.078   1.252   1.464
10229SOL    HW131586   2.084   1.341   1.420
10229SOL    HW231587   2.003   1.199   1.423
10230SOL     OW31588   6.240   6.694   3.498
10230SOL    HW131589   6.307   6.768   3.508
10230SOL    HW231590   6.199   6.674   3.586
10231SOL     OW31591   5.102   6.910   4.227
10231SOL    HW131592   5.108   6.915   4.327
10231SOL    HW231593   5.055   6.991   4.193
10232SOL     OW31594   3.921   1.790   3.986
10232SOL    HW131595   3.874   1.706   3.960
10232SOL    HW231596   3.900   1.813   4.081
10233SOL     OW31597   4.907   0.469   5.858
10233SOL    HW131598   4.984   0.483   5.796
10233SOL    HW231599   4.872   0.376   5.848
10234SOL     OW31600   4.834   5.746   1.276
10234SOL    HW131601   4.798   5.798   1.354
10234SOL    HW231602   4.849   5.808   1.199
10235SOL     OW31603   4.541   1.142   0.122
10235SOL    HW131604   4.526   1.077   0.196
10235SOL    HW231605   4.628   1.121   0.076
10236SOL     OW31606   1.919   6.188   1.547
10236SOL    HW131607   1.829   6.231   1.556
10236SOL    HW231608   1.986   6.239   1.600
10237SOL     OW31609   5.714   2.958   3.693
10237SOL    HW131610   5.619   2.937   3.717
10237SOL    HW231611   5.775   2.911   3.756
10238SOL     OW31612   4.557   5.977   4.464
10238SOL    HW131613   4.471   6.024   4.485
10238SOL    HW231614   4.537   5.887   4.424
10239SOL     OW31615   6.379   3.615   4.441
10239SOL    HW131616   6.399   3.638   4.536
10239SOL    HW231617   6.353   3.519   4.434
10240SOL     OW31618   5.082   4.001   3.658
10240SOL    HW131619   5.001   4.016   3.715
10240SOL    HW231620   5.137   4.085   3.657
10241SOL     OW31621   1.806   1.776   2.927
10241SOL    HW131622   1.870   1.750   3.000
10241SOL    HW231623   1.845   1.851   2.873
10242SOL     OW31624   0.766   5.487   6.047
10242SOL    HW131625   0.708   5.568   6.056
10242SOL    HW231626   0.763   5.454   5.953
10243SOL     OW31627   1.035   6.266   2.628
10243SOL    HW131628   1.112   6.248   2.688
10243SOL    HW231629   0.977   6.185   2.621
10244SOL     OW31630   1.762   5.897   0.412
10244SOL    HW131631   1.663   5.902   0.423
10244SOL    HW231632   1.797   5.985   0.383
10245SOL     OW31633   2.060   2.398   0.181
10245SOL    HW131634   2.001   2.455   0.123
10245SOL    HW231635   2.014   2.381   0.268
10246SOL     OW31636   3.347   3.663   3.971
10246SOL    HW131637   3.383   3.693   3.883
10246SOL    HW231638   3.402   3.587   4.006
10247SOL     OW31639   0.610   6.101   5.138
10247SOL    HW131640   0.680   6.041   5.101
10247SOL    HW231641   0.523   6.051   5.146
10248SOL     OW31642   5.314   1.045   3.088
10248SOL    HW131643   5.337   1.142   3.087
10248SOL    HW231644   5.221   1.033   3.123
10249SOL     OW31645   4.709   1.328   6.491
10249SOL    HW131646   4.805   1.355   6.485
10249SOL    HW231647   4.682   1.323   6.587
10250SOL     OW31648   5.313   6.927   0.624
10250SOL    HW131649   5.221   6.961   0.643
10250SOL    HW231650   5.380   6.995   0.654
10251SOL     OW31651   4.086   4.582   0.615
10251SOL    HW131652   4.143   4.661   0.594
10251SOL    HW231653   4.012   4.575   0.548
10252SOL     OW31654   6.967   4.458   1.416
10252SOL    HW131655   6.875   4.470   1.380
10252SOL    HW231656   7.019   4.543   1.404
10253SOL     OW31657   3.819   4.913   0.373
10253SOL    HW131658   3.846   4.882   0.282
10253SOL    HW231659   3.771   4.839   0.421
10254SOL     OW31660   2.389   1.552   4.821
10254SOL    HW131661   2.419   1.531   4.914
10254SOL    HW231662   2.294   1.583   4.823
10255SOL     OW31663   3.126   5.375   2.561
10255SOL    HW131664   3.095   5.458   2.515
10255SOL    HW231665   3.216   5.349   2.527
10256SOL     OW31666   6.052   6.215   6.834
10256SOL    HW131667   6.007   6.279   6.771
10256SOL    HW231668   5.989   6.191   6.907
10257SOL     OW31669   1.682   6.308   5.555
10257SOL    HW131670   1.777   6.328   5.530
10257SOL    HW231671   1.678   6.221   5.605
10258SOL     OW31672   4.238   0.761   3.475
10258SOL    HW131673   4.291   0.845   3.473
10258SOL    HW231674   4.195   0.750   3.565
10259SOL     OW31675   0.732   3.510   4.261
10259SOL    HW131676   0.751   3.423   4.308
10259SOL    HW231677   0.802   3.526   4.192
10260SOL     OW31678   6.771   6.290   2.251
10260SOL    HW131679   6.869   6.304   2.241
10260SOL    HW231680   6.743   6.208   2.201
10261SOL     OW31681   1.998   0.389   1.878
10261SOL    HW131682   1.967   0.483   1.882
10261SOL    HW231683   2.034   0.362   1.967
10262SOL     OW31684   1.250   5.853   4.484
10262SOL    HW131685   1.346   5.826   4.472
10262SOL    HW231686   1.243   5.915   4.561
10263SOL     OW31687   6.871   2.617   5.558
10263SOL    HW131688   6.808   2.691   5.533
10263SOL    HW231689   6.936   2.650   5.626
10264SOL     OW31690   0.373   0.079   0.213
10264SOL    HW131691   0.377   0.111   0.308
10264SOL    HW231692   0.338   7.012   0.211
10265SOL     OW31693   4.386   2.414   2.267
10265SOL    HW131694   4.368   2.511   2.249
10265SOL    HW231695   4.299   2.365   2.274
10266SOL     OW31696   4.061   3.415   6.628
10266SOL    HW131697   4.093   3.381   6.716
10266SOL    HW231698   3.963   3.398   6.619
10267SOL     OW31699   6.992   1.441   6.287
10267SOL    HW131700   6.972   1.347   6.261
10267SOL    HW231701   6.909   1.496   6.282
10268SOL     OW31702   6.291   4.542   1.320
10268SOL    HW131703   6.214   4.585   1.366
10268SOL    HW231704   6.376   4.585   1.349
10269SOL     OW31705   3.048   1.732   6.075
10269SOL    HW131706   3.132   1.768   6.117
10269SOL    HW231707   3.052   1.745   5.976
10270SOL     OW31708   2.979   6.657   2.028
10270SOL    HW131709   2.938   6.622   1.944
10270SOL    HW231710   2.912   6.653   2.102
10271SOL     OW31711   2.804   5.698   1.050
10271SOL    HW131712   2.809   5.692   1.150
10271SOL    HW231713   2.878   5.643   1.010
10272SOL     OW31714   1.678   2.181   4.411
10272SOL    HW131715   1.743   2.236   4.359
10272SOL    HW231716   1.599   2.160   4.353
10273SOL     OW31717   3.958   0.007   4.152
10273SOL    HW131718   3.980   6.948   4.103
10273SOL    HW231719   3.923   7.011   4.243
10274SOL     OW31720   2.851   5.060   6.393
10274SOL    HW131721   2.947   5.070   6.418
10274SOL    HW231722   2.801   5.143   6.421
10275SOL     OW31723   0.949   6.527   1.975
10275SOL    HW131724   0.963   6.625   1.963
10275SOL    HW231725   1.005   6.477   1.909
10276SOL     OW31726   7.011   6.028   6.801
10276SOL    HW131727   6.921   6.034   6.843
10276SOL    HW231728   7.004   5.985   6.711
10277SOL     OW31729   0.770   5.909   2.178
10277SOL    HW131730   0.709   5.877   2.251
10277SOL    HW231731   0.735   5.878   2.089
10278SOL     OW31732   6.397   6.971   5.861
10278SOL    HW131733   6.456   6.995   5.938
10278SOL    HW231734   6.438   6.895   5.810
10279SOL     OW31735   4.064   6.256   4.537
10279SOL    HW131736   4.096   6.351   4.534
10279SOL    HW231737   4.132   6.197   4.492
10280SOL     OW31738   3.438   2.723   6.729
10280SOL    HW131739   3.503   2.794   6.700
10280SOL    HW231740   3.432   2.723   6.828
10281SOL     OW31741   4.367   0.386   4.044
10281SOL    HW131742   4.311   0.365   4.124
10281SOL    HW231743   4.458   0.346   4.055
10282SOL     OW31744   1.345   2.982   4.581
10282SOL    HW131745   1.340   2.883   4.563
10282SOL    HW231746   1.252   3.017   4.596
10283SOL     OW31747   1.791   4.089   6.052
10283SOL    HW131748   1.766   4.167   5.994
10283SOL    HW231749   1.729   4.085   6.131
10284SOL     OW31750   5.171   2.926   6.923
10284SOL    HW131751   5.262   2.929   6.966
10284SOL    HW231752   5.139   2.832   6.921
10285SOL     OW31753   5.717   0.667   0.704
10285SOL    HW131754   5.630   0.714   0.687
10285SOL    HW231755   5.770   0.665   0.620
10286SOL     OW31756   4.517   0.921   3.660
10286SOL    HW131757   4.442   0.959   3.607
10286SOL    HW231758   4.586   0.992   3.675
10287SOL     OW31759   1.126   4.500   2.010
10287SOL    HW131760   1.047   4.466   2.062
10287SOL    HW231761   1.193   4.427   2.000
10288SOL     OW31762   4.687   6.631   4.700
10288SOL    HW131763   4.780   6.651   4.672
10288SOL    HW231764   4.625   6.642   4.622
10289SOL     OW31765   2.379   1.465   1.056
10289SOL    HW131766   2.333   1.413   1.129
10289SOL    HW231767   2.347   1.560   1.059
10290SOL     OW31768   2.801   3.400   2.137
10290SOL    HW131769   2.810   3.448   2.050
10290SOL    HW231770   2.723   3.338   2.134
10291SOL     OW31771   3.976   0.329   5.553
10291SOL    HW131772   3.900   0.284   5.506
10291SOL    HW231773   3.970   0.428   5.541
10292SOL     OW31774   0.517   1.470   4.881
10292SOL    HW131775   0.423   1.448   4.855
10292SOL    HW231776   0.577   1.393   4.860
10293SOL     OW31777   3.096   5.531   3.146
10293SOL    HW131778   3.061   5.578   3.227
10293SOL    HW231779   3.020   5.489   3.097
10294SOL     OW31780   6.634   1.550   2.762
10294SOL    HW131781   6.582   1.473   2.727
10294SOL    HW231782   6.614   1.563   2.859
10295SOL     OW31783   2.109   4.383   4.266
10295SOL    HW131784   2.076   4.410   4.357
10295SOL    HW231785   2.123   4.465   4.211
10296SOL     OW31786   6.623   2.938   1.900
10296SOL    HW131787   6.532   2.972   1.877
10296SOL    HW231788   6.623   2.904   1.994
10297SOL     OW31789   2.987   5.256   4.751
10297SOL    HW131790   2.969   5.289   4.844
10297SOL    HW231791   3.085   5.242   4.739
10298SOL     OW31792   5.683   3.258   3.069
10298SOL    HW131793   5.585   3.238   3.064
10298SOL    HW231794   5.696   3.352   3.100
10299SOL     OW31795   4.866   3.690   1.813
10299SOL    HW131796   4.867   3.628   1.891
10299SOL    HW231797   4.880   3.784   1.844
10300SOL     OW31798   1.626   5.628   1.442
10300SOL    HW131799   1.719   5.661   1.427
10300SOL    HW231800   1.622   5.577   1.529
10301SOL     OW31801   4.650   1.211   1.634
10301SOL    HW131802   4.696   1.255   1.712
10301SOL    HW231803   4.559   1.251   1.622
10302SOL     OW31804   1.747   4.637   4.143
10302SOL    HW131805   1.788   4.644   4.052
10302SOL    HW231806   1.723   4.728   4.176
10303SOL     OW31807   3.815   2.885   1.378
10303SOL    HW131808   3.832   2.944   1.457
10303SOL    HW231809   3.761   2.934   1.310
10304SOL     OW31810   6.075   6.481   3.969
10304SOL    HW131811   6.115   6.550   4.030
10304SOL    HW231812   6.020   6.418   4.023
10305SOL     OW31813   1.607   5.493   0.938
10305SOL    HW131814   1.677   5.460   0.874
10305SOL    HW231815   1.558   5.414   0.976
10306SOL     OW31816   3.942   4.193   0.734
10306SOL    HW131817   3.964   4.178   0.638
10306SOL    HW231818   3.982   4.120   0.789
10307SOL     OW31819   2.061   1.344   5.265
10307SOL    HW131820   2.122   1.327   5.343
10307SOL    HW231821   1.971   1.304   5.285
10308SOL     OW31822   3.010   5.616   3.435
10308SOL    HW131823   3.027   5.518   3.444
10308SOL    HW231824   2.952   5.647   3.510
10309SOL     OW31825   0.232   6.063   3.551
10309SOL    HW131826   0.168   5.993   3.520
10309SOL    HW231827   0.305   6.021   3.605
10310SOL     OW31828   3.589   2.934   4.356
10310SOL    HW131829   3.642   3.008   4.315
10310SOL    HW231830   3.582   2.948   4.455
10311SOL     OW31831   0.604   6.764   0.788
10311SOL    HW131832   0.655   6.805   0.863
10311SOL    HW231833   0.640   6.672   0.769
10312SOL     OW31834   2.279   4.794   0.894
10312SOL    HW131835   2.180   4.807   0.896
10312SOL    HW231836   2.302   4.707   0.936
10313SOL     OW31837   6.708   5.739   3.973
10313SOL    HW131838   6.630   5.696   3.927
10313SOL    HW231839   6.735   5.684   4.051
10314SOL     OW31840   6.205   5.308   5.220
10314SOL    HW131841   6.148   5.355   5.153
10314SOL    HW231842   6.189   5.210   5.216
10315SOL     OW31843   4.718   6.813   5.662
10315SOL    HW131844   4.791   6.748   5.642
10315SOL    HW231845   4.725   6.891   5.599
10316SOL     OW31846   0.179   3.424   2.745
10316SOL    HW131847   0.155   3.517   2.774
10316SOL    HW231848   0.278   3.414   2.745
10317SOL     OW31849   4.725   4.646   0.729
10317SOL    HW131850   4.782   4.569   0.757
10317SOL    HW231851   4.781   4.729   0.728
10318SOL     OW31852   6.340   5.338   2.566
10318SOL    HW131853   6.317   5.264   2.630
10318SOL    HW231854   6.343   5.425   2.616
10319SOL     OW31855   5.472   6.395   4.930
10319SOL    HW131856   5.549   6.331   4.921
10319SOL    HW231857   5.503   6.487   4.905
10320SOL     OW31858   4.130   5.991   1.858
10320SOL    HW131859   4.191   6.025   1.786
10320SOL    HW231860   4.133   5.891   1.860
10321SOL     OW31861   3.931   0.295   4.027
10321SOL    HW131862   4.014   0.262   3.981
10321SOL    HW231863   3.878   0.217   4.059
10322SOL     OW31864   0.763   2.639   6.784
10322SOL    HW131865   0.769   2.616   6.881
10322SOL    HW231866   0.762   2.555   6.730
10323SOL     OW31867   0.456   2.421   5.789
10323SOL    HW131868   0.407   2.424   5.702
10323SOL    HW231869   0.548   2.385   5.774
10324SOL     OW31870   3.781   3.105   4.320
10324SOL    HW131871   3.818   3.122   4.229
10324SOL    HW231872   3.810   3.178   4.382
10325SOL     OW31873   0.192   4.035   2.994
10325SOL    HW131874   0.203   4.133   3.013
10325SOL    HW231875   0.191   4.020   2.895
10326SOL     OW31876   5.461   1.734   1.344
10326SOL    HW131877   5.505   1.824   1.342
10326SOL    HW231878   5.362   1.745   1.341
10327SOL     OW31879   6.631   0.684   2.998
10327SOL    HW131880   6.592   0.776   2.996
10327SOL    HW231881   6.607   0.640   3.085
10328SOL     OW31882   6.442   3.744   2.916
10328SOL    HW131883   6.364   3.719   2.973
10328SOL    HW231884   6.488   3.662   2.883
10329SOL     OW31885   3.609   6.306   3.114
10329SOL    HW131886   3.656   6.240   3.172
10329SOL    HW231887   3.632   6.289   3.018
10330SOL     OW31888   3.216   4.032   1.098
10330SOL    HW131889   3.282   3.958   1.108
10330SOL    HW231890   3.160   4.016   1.016
10331SOL     OW31891   5.145   0.893   4.573
10331SOL    HW131892   5.198   0.810   4.590
10331SOL    HW231893   5.087   0.880   4.492
10332SOL     OW31894   0.469   1.392   6.765
10332SOL    HW131895   0.432   1.434   6.847
10332SOL    HW231896   0.395   1.375   6.700
10333SOL     OW31897   5.969   4.454   5.309
10333SOL    HW131898   6.005   4.438   5.401
10333SOL    HW231899   6.016   4.532   5.268
10334SOL     OW31900   1.075   4.928   5.147
10334SOL    HW131901   1.171   4.943   5.171
10334SOL    HW231902   1.070   4.860   5.073
10335SOL     OW31903   2.796   5.049   1.995
10335SOL    HW131904   2.796   5.063   2.094
10335SOL    HW231905   2.833   4.959   1.974
10336SOL     OW31906   5.027   6.528   2.671
10336SOL    HW131907   4.938   6.510   2.713
10336SOL    HW231908   5.036   6.625   2.649
10337SOL     OW31909   0.134   4.450   5.617
10337SOL    HW131910   0.165   4.394   5.541
10337SOL    HW231911   0.166   4.544   5.605
10338SOL     OW31912   2.833   5.010   2.741
10338SOL    HW131913   2.772   4.998   2.819
10338SOL    HW231914   2.903   4.938   2.742
10339SOL     OW31915   3.100   6.038   0.980
10339SOL    HW131916   3.055   6.060   1.066
10339SOL    HW231917   3.098   5.939   0.965
10340SOL     OW31918   1.483   6.478   0.155
10340SOL    HW131919   1.413   6.530   0.204
10340SOL    HW231920   1.563   6.536   0.140
10341SOL     OW31921   0.728   2.929   2.304
10341SOL    HW131922   0.632   2.935   2.330
10341SOL    HW231923   0.783   2.907   2.384
10342SOL     OW31924   3.430   6.417   3.867
10342SOL    HW131925   3.513   6.424   3.811
10342SOL    HW231926   3.362   6.361   3.818
10343SOL     OW31927   2.417   2.739   4.226
10343SOL    HW131928   2.484   2.666   4.211
10343SOL    HW231929   2.358   2.715   4.303
10344SOL     OW31930   4.219   3.710   1.633
10344SOL    HW131931   4.237   3.612   1.620
10344SOL    HW231932   4.142   3.737   1.575
10345SOL     OW31933   2.559   2.509   5.601
10345SOL    HW131934   2.604   2.445   5.663
10345SOL    HW231935   2.578   2.603   5.631
10346SOL     OW31936   5.756   5.300   0.819
10346SOL    HW131937   5.793   5.375   0.875
10346SOL    HW231938   5.772   5.319   0.722
10347SOL     OW31939   4.552   0.506   1.576
10347SOL    HW131940   4.454   0.499   1.596
10347SOL    HW231941   4.595   0.568   1.642
10348SOL     OW31942   6.834   5.006   5.601
10348SOL    HW131943   6.918   5.056   5.577
10348SOL    HW231944   6.835   4.985   5.699
10349SOL     OW31945   6.713   2.229   0.515
10349SOL    HW131946   6.737   2.247   0.611
10349SOL    HW231947   6.636   2.165   0.511
10350SOL     OW31948   2.382   5.087   5.073
10350SOL    HW131949   2.300   5.143   5.063
10350SOL    HW231950   2.427   5.108   5.160
10351SOL     OW31951   4.185   4.872   4.743
10351SOL    HW131952   4.199   4.819   4.659
10351SOL    HW231953   4.258   4.851   4.807
10352SOL     OW31954   6.684   1.057   0.016
10352SOL    HW131955   6.703   0.994   6.967
10352SOL    HW231956   6.717   1.148   7.019
10353SOL     OW31957   6.515   2.403   3.911
10353SOL    HW131958   6.544   2.496   3.890
10353SOL    HW231959   6.545   2.341   3.838
10354SOL     OW31960   6.189   2.739   1.563
10354SOL    HW131961   6.225   2.805   1.629
10354SOL    HW231962   6.117   2.782   1.508
10355SOL     OW31963   0.718   1.969   0.505
10355SOL    HW131964   0.792   1.964   0.571
10355SOL    HW231965   0.656   2.043   0.529
10356SOL     OW31966   5.407   2.215   6.374
10356SOL    HW131967   5.393   2.263   6.461
10356SOL    HW231968   5.495   2.243   6.335
10357SOL     OW31969   1.021   0.217   6.124
10357SOL    HW131970   0.940   0.255   6.170
10357SOL    HW231971   1.091   0.196   6.192
10358SOL     OW31972   0.277   2.706   3.157
10358SOL    HW131973   0.269   2.739   3.251
10358SOL    HW231974   0.359   2.650   3.149
10359SOL     OW31975   0.605   1.905   2.228
10359SOL    HW131976   0.523   1.851   2.245
10359SOL    HW231977   0.663   1.859   2.161
10360SOL     OW31978   5.973   3.936   1.369
10360SOL    HW131979   6.066   3.903   1.354
10360SOL    HW231980   5.909   3.883   1.313
10361SOL     OW31981   6.425   1.940   2.079
10361SOL    HW131982   6.389   2.029   2.052
10361SOL    HW231983   6.390   1.870   2.016
10362SOL     OW31984   1.374   5.710   1.681
10362SOL    HW131985   1.432   5.632   1.705
10362SOL    HW231986   1.280   5.679   1.669
10363SOL     OW31987   5.547   5.194   6.682
10363SOL    HW131988   5.553   5.291   6.705
10363SOL    HW231989   5.469   5.153   6.728
10364SOL     OW31990   5.451   5.636   2.777
10364SOL    HW131991   5.439   5.712   2.841
10364SOL    HW231992   5.541   5.596   2.790
10365SOL     OW31993   6.143   5.808   0.700
10365SOL    HW131994   6.152   5.724   0.753
10365SOL    HW231995   6.171   5.792   0.605
10366SOL     OW31996   3.121   6.365   3.945
10366SOL    HW131997   3.133   6.438   3.878
10366SOL    HW231998   3.163   6.392   4.031
10367SOL     OW31999   5.241   6.462   1.773
10367SOL    HW132000   5.323   6.517   1.791
10367SOL    HW232001   5.266   6.380   1.722
10368SOL     OW32002   1.418   5.284   1.669
10368SOL    HW132003   1.414   5.191   1.632
10368SOL    HW232004   1.325   5.318   1.683
10369SOL     OW32005   2.555   0.362   6.035
10369SOL    HW132006   2.597   0.371   6.125
10369SOL    HW232007   2.465   0.405   6.035
10370SOL     OW32008   1.885   1.563   5.506
10370SOL    HW132009   1.894   1.467   5.535
10370SOL    HW232010   1.856   1.619   5.584
10371SOL     OW32011   4.272   5.720   3.030
10371SOL    HW132012   4.201   5.791   3.028
10371SOL    HW232013   4.361   5.762   3.047
10372SOL     OW32014   2.413   6.631   1.344
10372SOL    HW132015   2.431   6.580   1.428
10372SOL    HW232016   2.429   6.728   1.361
10373SOL     OW32017   6.006   0.945   6.556
10373SOL    HW132018   5.993   0.926   6.653
10373SOL    HW232019   6.100   0.925   6.530
10374SOL     OW32020   3.335   4.957   3.301
10374SOL    HW132021   3.282   5.035   3.334
10374SOL    HW232022   3.297   4.925   3.213
10375SOL     OW32023   2.317   5.653   0.971
10375SOL    HW132024   2.227   5.642   0.929
10375SOL    HW232025   2.382   5.687   0.903
10376SOL     OW32026   2.535   4.897   3.595
10376SOL    HW132027   2.607   4.966   3.591
10376SOL    HW232028   2.470   4.912   3.521
10377SOL     OW32029   1.980   0.915   2.233
10377SOL    HW132030   1.896   0.961   2.203
10377SOL    HW232031   2.019   0.863   2.158
10378SOL     OW32032   0.470   6.292   4.672
10378SOL    HW132033   0.448   6.312   4.577
10378SOL    HW232034   0.482   6.193   4.684
10379SOL     OW32035   2.390   0.167   3.820
10379SOL    HW132036   2.331   0.161   3.740
10379SOL    HW232037   2.424   0.076   3.844
10380SOL     OW32038   2.937   1.895   4.134
10380SOL    HW132039   3.025   1.888   4.181
10380SOL    HW232040   2.885   1.972   4.172
10381SOL     OW32041   4.094   6.376   2.723
10381SOL    HW132042   4.051   6.320   2.652
10381SOL    HW232043   4.024   6.404   2.789
10382SOL     OW32044   4.340   5.207   1.683
10382SOL    HW132045   4.305   5.298   1.662
10382SOL    HW232046   4.409   5.181   1.615
10383SOL     OW32047   0.768   4.717   0.091
10383SOL    HW132048   0.815   4.652   0.151
10383SOL    HW232049   0.676   4.684   0.072
10384SOL     OW32050   5.527   5.722   1.377
10384SOL    HW132051   5.545   5.685   1.468
10384SOL    HW232052   5.509   5.647   1.313
10385SOL     OW32053   4.374   4.666   0.555
10385SOL    HW132054   4.430   4.614   0.491
10385SOL    HW232055   4.411   4.656   0.648
10386SOL     OW32056   0.470   0.601   1.033
10386SOL    HW132057   0.392   0.562   0.984
10386SOL    HW232058   0.491   0.691   0.997
10387SOL     OW32059   4.890   2.947   2.231
10387SOL    HW132060   4.851   2.982   2.146
10387SOL    HW232061   4.843   2.988   2.309
10388SOL     OW32062   1.463   6.661   5.371
10388SOL    HW132063   1.404   6.737   5.340
10388SOL    HW232064   1.556   6.695   5.382
10389SOL     OW32065   0.668   4.062   6.849
10389SOL    HW132066   0.690   4.025   6.759
10389SOL    HW232067   0.616   4.146   6.838
10390SOL     OW32068   2.491   2.486   1.849
10390SOL    HW132069   2.563   2.524   1.790
10390SOL    HW232070   2.404   2.487   1.799
10391SOL     OW32071   5.782   6.600   4.109
10391SOL    HW132072   5.801   6.624   4.204
10391SOL    HW232073   5.709   6.532   4.106
10392SOL     OW32074   6.326   3.987   4.742
10392SOL    HW132075   6.358   3.893   4.745
10392SOL    HW232076   6.246   3.993   4.681
10393SOL     OW32077   1.484   3.125   3.273
10393SOL    HW132078   1.482   3.033   3.235
10393SOL    HW232079   1.404   3.138   3.332
10394SOL     OW32080   3.089   0.420   4.531
10394SOL    HW132081   3.177   0.380   4.505
10394SOL    HW232082   3.048   0.465   4.452
10395SOL     OW32083   0.786   0.131   0.723
10395SOL    HW132084   0.812   0.224   0.751
10395SOL    HW232085   0.796   0.122   0.624
10396SOL     OW32086   3.298   2.070   4.935
10396SOL    HW132087   3.230   2.129   4.979
10396SOL    HW232088   3.328   2.112   4.849
10397SOL     OW32089   4.995   1.794   3.779
10397SOL    HW132090   4.918   1.733   3.794
10397SOL    HW232091   4.966   1.889   3.792
10398SOL     OW32092   5.850   2.933   2.299
10398SOL    HW132093   5.751   2.943   2.297
10398SOL    HW232094   5.881   2.924   2.394
10399SOL     OW32095   1.119   3.909   1.545
10399SOL    HW132096   1.185   3.985   1.539
10399SOL    HW232097   1.126   3.853   1.463
10400SOL     OW32098   2.074   6.539   0.925
10400SOL    HW132099   2.136   6.512   0.851
10400SOL    HW232100   2.126   6.586   0.996
10401SOL     OW32101   0.466   0.909   5.797
10401SOL    HW132102   0.452   1.008   5.791
10401SOL    HW232103   0.405   0.871   5.867
10402SOL     OW32104   0.282   3.015   5.183
10402SOL    HW132105   0.276   2.963   5.097
10402SOL    HW232106   0.306   3.110   5.163
10403SOL     OW32107   3.309   0.516   0.762
10403SOL    HW132108   3.300   0.538   0.859
10403SOL    HW232109   3.236   0.561   0.711
10404SOL     OW32110   6.864   6.402   6.361
10404SOL    HW132111   6.919   6.482   6.384
10404SOL    HW232112   6.820   6.367   6.444
10405SOL     OW32113   0.666   2.288   6.253
10405SOL    HW132114   0.753   2.304   6.301
10405SOL    HW232115   0.619   2.211   6.296
10406SOL     OW32116   2.315   4.987   1.782
10406SOL    HW132117   2.274   5.055   1.721
10406SOL    HW232118   2.414   4.992   1.775
10407SOL     OW32119   2.114   6.499   6.007
10407SOL    HW132120   2.030   6.546   5.982
10407SOL    HW232121   2.192   6.561   5.998
10408SOL     OW32122   3.954   1.602   0.249
10408SOL    HW132123   3.979   1.596   0.152
10408SOL    HW232124   3.975   1.693   0.283
10409SOL     OW32125   5.728   5.005   1.286
10409SOL    HW132126   5.794   4.942   1.243
10409SOL    HW232127   5.671   5.046   1.215
10410SOL     OW32128   5.017   0.801   0.844
10410SOL    HW132129   5.090   0.843   0.790
10410SOL    HW232130   4.980   0.870   0.907
10411SOL     OW32131   2.658   5.432   3.521
10411SOL    HW132132   2.726   5.472   3.582
10411SOL    HW232133   2.579   5.402   3.575
10412SOL     OW32134   6.082   0.619   0.366
10412SOL    HW132135   6.181   0.606   0.374
10412SOL    HW232136   6.056   0.626   0.270
10413SOL     OW32137   0.171   2.931   1.979
10413SOL    HW132138   0.252   2.990   1.981
10413SOL    HW232139   0.123   2.944   1.892
10414SOL     OW32140   5.207   2.836   3.940
10414SOL    HW132141   5.254   2.909   3.891
10414SOL    HW232142   5.275   2.774   3.980
10415SOL     OW32143   0.003   0.096   6.367
10415SOL    HW132144   0.014   0.057   6.276
10415SOL    HW232145   6.942   0.146   6.371
10416SOL     OW32146   5.534   3.021   4.985
10416SOL    HW132147   5.624   3.063   5.001
10416SOL    HW232148   5.522   3.004   4.887
10417SOL     OW32149   2.643   4.671   3.406
10417SOL    HW132150   2.611   4.700   3.496
10417SOL    HW232151   2.615   4.576   3.389
10418SOL     OW32152   1.195   4.952   6.214
10418SOL    HW132153   1.126   5.019   6.243
10418SOL    HW232154   1.150   4.867   6.188
10419SOL     OW32155   0.899   1.463   1.052
10419SOL    HW132156   0.884   1.546   1.106
10419SOL    HW232157   0.898   1.486   0.955
10420SOL     OW32158   0.379   3.571   3.516
10420SOL    HW132159   0.339   3.502   3.455
10420SOL    HW232160   0.333   3.659   3.501
10421SOL     OW32161   0.213   1.386   3.505
10421SOL    HW132162   0.114   1.392   3.516
10421SOL    HW232163   0.239   1.429   3.419
10422SOL     OW32164   5.781   3.242   5.944
10422SOL    HW132165   5.753   3.334   5.916
10422SOL    HW232166   5.709   3.201   6.000
10423SOL     OW32167   5.179   4.344   2.710
10423SOL    HW132168   5.155   4.383   2.798
10423SOL    HW232169   5.097   4.334   2.654
10424SOL     OW32170   4.682   1.831   6.156
10424SOL    HW132171   4.591   1.818   6.117
10424SOL    HW232172   4.731   1.899   6.101
10425SOL     OW32173   1.909   6.247   1.972
10425SOL    HW132174   2.007   6.229   1.980
10425SOL    HW232175   1.865   6.233   2.060
10426SOL     OW32176   6.521   3.665   6.716
10426SOL    HW132177   6.508   3.725   6.637
10426SOL    HW232178   6.608   3.688   6.761
10427SOL     OW32179   4.603   1.554   0.681
10427SOL    HW132180   4.561   1.499   0.609
10427SOL    HW232181   4.682   1.506   0.718
10428SOL     OW32182   4.476   1.192   4.790
10428SOL    HW132183   4.515   1.261   4.852
10428SOL    HW232184   4.529   1.107   4.799
10429SOL     OW32185   6.261   6.627   2.216
10429SOL    HW132186   6.208   6.677   2.148
10429SOL    HW232187   6.330   6.571   2.171
10430SOL     OW32188   3.914   6.530   3.169
10430SOL    HW132189   3.979   6.484   3.229
10430SOL    HW232190   3.860   6.595   3.222
10431SOL     OW32191   2.186   1.574   5.138
10431SOL    HW132192   2.134   1.531   5.212
10431SOL    HW232193   2.260   1.513   5.109
10432SOL     OW32194   5.468   1.046   4.991
10432SOL    HW132195   5.483   0.960   5.040
10432SOL    HW232196   5.535   1.114   5.021
10433SOL     OW32197   2.345   6.649   0.962
10433SOL    HW132198   2.338   6.617   0.868
10433SOL    HW232199   2.371   6.573   1.021
10434SOL     OW32200   2.288   1.627   3.805
10434SOL    HW132201   2.201   1.611   3.851
10434SOL    HW232202   2.357   1.563   3.841
10435SOL     OW32203   5.289   6.164   0.163
10435SOL    HW132204   5.384   6.187   0.183
10435SOL    HW232205   5.242   6.141   0.248
10436SOL     OW32206   1.549   6.580   2.652
10436SOL    HW132207   1.626   6.522   2.680
10436SOL    HW232208   1.510   6.544   2.567
10437SOL     OW32209   6.412   4.890   5.940
10437SOL    HW132210   6.414   4.930   5.848
10437SOL    HW232211   6.330   4.833   5.949
10438SOL     OW32212   3.561   6.122   6.244
10438SOL    HW132213   3.543   6.025   6.225
10438SOL    HW232214   3.558   6.138   6.342
10439SOL     OW32215   4.080   0.237   5.783
10439SOL    HW132216   4.039   0.284   5.705
10439SOL    HW232217   4.022   0.161   5.811
10440SOL     OW32218   2.528   5.752   0.209
10440SOL    HW132219   2.503   5.716   0.299
10440SOL    HW232220   2.626   5.767   0.205
10441SOL     OW32221   3.746   0.836   6.847
10441SOL    HW132222   3.810   0.774   6.893
10441SOL    HW232223   3.762   0.835   6.749
10442SOL     OW32224   4.422   5.466   5.985
10442SOL    HW132225   4.469   5.521   5.916
10442SOL    HW232226   4.335   5.508   6.009
10443SOL     OW32227   6.233   2.776   5.141
10443SOL    HW132228   6.152   2.726   5.172
10443SOL    HW232229   6.314   2.720   5.157
10444SOL     OW32230   3.697   4.906   4.053
10444SOL    HW132231   3.742   4.988   4.091
10444SOL    HW232232   3.630   4.872   4.118
10445SOL     OW32233   6.054   6.074   4.285
10445SOL    HW132234   6.074   6.080   4.382
10445SOL    HW232235   6.028   5.980   4.262
10446SOL     OW32236   1.101   5.739   6.321
10446SOL    HW132237   1.043   5.678   6.375
10446SOL    HW232238   1.043   5.806   6.274
10447SOL     OW32239   5.976   2.321   1.527
10447SOL    HW132240   5.967   2.276   1.438
10447SOL    HW232241   5.892   2.309   1.580
10448SOL     OW32242   3.061   3.944   2.251
10448SOL    HW132243   3.155   3.920   2.228
10448SOL    HW232244   3.006   3.949   2.167
10449SOL     OW32245   1.634   4.870   4.287
10449SOL    HW132246   1.696   4.883   4.365
10449SOL    HW232247   1.565   4.942   4.287
10450SOL     OW32248   7.021   3.313   1.182
10450SOL    HW132249   0.032   3.285   1.271
10450SOL    HW232250   0.048   3.272   1.109
10451SOL     OW32251   2.207   4.151   2.608
10451SOL    HW132252   2.284   4.208   2.581
10451SOL    HW232253   2.152   4.199   2.676
10452SOL     OW32254   1.304   4.049   5.210
10452SOL    HW132255   1.260   3.960   5.221
10452SOL    HW232256   1.300   4.077   5.114
10453SOL     OW32257   5.348   0.183   1.720
10453SOL    HW132258   5.442   0.163   1.694
10453SOL    HW232259   5.347   0.251   1.793
10454SOL     OW32260   4.818   3.093   2.456
10454SOL    HW132261   4.899   3.139   2.491
10454SOL    HW232262   4.749   3.161   2.431
10455SOL     OW32263   6.740   4.317   2.998
10455SOL    HW132264   6.678   4.270   3.062
10455SOL    HW232265   6.788   4.390   3.046
10456SOL     OW32266   3.937   6.244   0.976
10456SOL    HW132267   3.871   6.269   1.047
10456SOL    HW232268   3.894   6.181   0.911
10457SOL     OW32269   3.611   3.755   4.310
10457SOL    HW132270   3.692   3.701   4.289
10457SOL    HW232271   3.599   3.760   4.410
10458SOL     OW32272   6.783   6.959   1.834
10458SOL    HW132273   6.772   6.997   1.926
10458SOL    HW232274   6.871   6.989   1.797
10459SOL     OW32275   6.899   5.176   2.290
10459SOL    HW132276   6.850   5.102   2.245
10459SOL    HW232277   6.834   5.245   2.321
10460SOL     OW32278   2.187   5.607   2.018
10460SOL    HW132279   2.136   5.536   1.970
10460SOL    HW232280   2.150   5.697   1.993
10461SOL     OW32281   2.096   1.723   6.058
10461SOL    HW132282   2.165   1.767   6.000
10461SOL    HW232283   2.138   1.700   6.147
10462SOL     OW32284   6.098   6.904   1.022
10462SOL    HW132285   6.072   6.978   0.960
10462SOL    HW232286   6.046   6.913   1.107
10463SOL     OW32287   2.836   3.899   1.543
10463SOL    HW132288   2.883   3.984   1.519
10463SOL    HW232289   2.897   3.841   1.597
10464SOL     OW32290   5.237   0.522   1.429
10464SOL    HW132291   5.253   0.487   1.336
10464SOL    HW232292   5.285   0.463   1.494
10465SOL     OW32293   6.460   5.400   5.154
10465SOL    HW132294   6.522   5.322   5.166
10465SOL    HW232295   6.368   5.374   5.182
10466SOL     OW32296   5.208   6.156   6.345
10466SOL    HW132297   5.199   6.241   6.397
10466SOL    HW232298   5.247   6.085   6.404
10467SOL     OW32299   4.231   1.030   4.097
10467SOL    HW132300   4.280   0.944   4.108
10467SOL    HW232301   4.188   1.055   4.183
10468SOL     OW32302   3.421   5.768   2.681
10468SOL    HW132303   3.450   5.757   2.776
10468SOL    HW232304   3.492   5.734   2.620
10469SOL     OW32305   1.649   4.593   0.304
10469SOL    HW132306   1.712   4.669   0.291
10469SOL    HW232307   1.555   4.625   0.300
10470SOL     OW32308   2.524   1.720   4.092
10470SOL    HW132309   2.526   1.649   4.022
10470SOL    HW232310   2.579   1.691   4.170
10471SOL     OW32311   4.495   3.724   0.584
10471SOL    HW132312   4.466   3.670   0.663
10471SOL    HW232313   4.474   3.820   0.600
10472SOL     OW32314   4.702   1.521   2.980
10472SOL    HW132315   4.744   1.612   2.975
10472SOL    HW232316   4.690   1.495   3.076
10473SOL     OW32317   4.982   5.492   0.519
10473SOL    HW132318   5.026   5.403   0.529
10473SOL    HW232319   4.988   5.521   0.424
10474SOL     OW32320   4.505   0.077   4.199
10474SOL    HW132321   4.573   0.005   4.188
10474SOL    HW232322   4.519   0.122   4.287
10475SOL     OW32323   4.723   5.928   1.742
10475SOL    HW132324   4.639   5.891   1.702
10475SOL    HW232325   4.730   6.025   1.721
10476SOL     OW32326   0.016   4.363   0.352
10476SOL    HW132327   0.110   4.394   0.343
10476SOL    HW232328   0.008   4.268   0.322
10477SOL     OW32329   4.689   4.739   5.203
10477SOL    HW132330   4.621   4.796   5.159
10477SOL    HW232331   4.644   4.677   5.269
10478SOL     OW32332   0.339   6.263   2.385
10478SOL    HW132333   0.322   6.356   2.415
10478SOL    HW232334   0.437   6.249   2.371
10479SOL     OW32335   1.424   4.807   2.810
10479SOL    HW132336   1.340   4.858   2.794
10479SOL    HW232337   1.404   4.709   2.810
10480SOL     OW32338   6.268   0.255   2.578
10480SOL    HW132339   6.218   0.274   2.662
10480SOL    HW232340   6.367   0.259   2.596
10481SOL     OW32341   2.336   0.610   4.811
10481SOL    HW132342   2.238   0.612   4.793
10481SOL    HW232343   2.385   0.580   4.729
10482SOL     OW32344   1.118   5.411   5.791
10482SOL    HW132345   1.103   5.427   5.889
10482SOL    HW232346   1.173   5.329   5.779
10483SOL     OW32347   6.850   5.159   1.079
10483SOL    HW132348   6.764   5.138   1.032
10483SOL    HW232349   6.879   5.252   1.056
10484SOL     OW32350   6.099   1.949   1.572
10484SOL    HW132351   6.067   1.914   1.484
10484SOL    HW232352   6.198   1.932   1.581
10485SOL     OW32353   3.164   4.068   3.471
10485SOL    HW132354   3.101   4.015   3.414
10485SOL    HW232355   3.131   4.069   3.566
10486SOL     OW32356   5.796   5.606   5.179
10486SOL    HW132357   5.871   5.645   5.233
10486SOL    HW232358   5.730   5.562   5.241
10487SOL     OW32359   5.048   2.467   3.052
10487SOL    HW132360   4.981   2.534   3.082
10487SOL    HW232361   5.106   2.507   2.980
10488SOL     OW32362   0.132   2.161   5.549
10488SOL    HW132363   0.174   2.211   5.473
10488SOL    HW232364   0.047   2.118   5.516
10489SOL     OW32365   6.140   4.029   4.558
10489SOL    HW132366   6.190   4.113   4.537
10489SOL    HW232367   6.042   4.049   4.564
10490SOL     OW32368   5.810   0.077   6.990
10490SOL    HW132369   5.767   0.039   0.046
10490SOL    HW232370   5.867   0.007   6.946
10491SOL     OW32371   2.037   2.891   5.637
10491SOL    HW132372   2.049   2.985   5.607
10491SOL    HW232373   2.121   2.840   5.622
10492SOL     OW32374   3.626   6.282   0.369
10492SOL    HW132375   3.550   6.292   0.433
10492SOL    HW232376   3.701   6.341   0.396
10493SOL     OW32377   3.839   5.568   1.891
10493SOL    HW132378   3.786   5.517   1.958
10493SOL    HW232379   3.829   5.526   1.801
10494SOL     OW32380   0.701   4.180   4.317
10494SOL    HW132381   0.689   4.274   4.349
10494SOL    HW232382   0.667   4.172   4.223
10495SOL     OW32383   0.155   6.428   0.849
10495SOL    HW132384   0.200   6.461   0.766
10495SOL    HW232385   0.085   6.493   0.877
10496SOL     OW32386   0.574   4.450   6.564
10496SOL    HW132387   0.664   4.429   6.525
10496SOL    HW232388   0.578   4.537   6.614
10497SOL     OW32389   2.788   0.716   1.855
10497SOL    HW132390   2.879   0.689   1.887
10497SOL    HW232391   2.747   0.778   1.921
10498SOL     OW32392   4.698   4.037   6.558
10498SOL    HW132393   4.761   4.093   6.504
10498SOL    HW232394   4.610   4.030   6.510
10499SOL     OW32395   5.629   3.724   2.706
10499SOL    HW132396   5.700   3.743   2.639
10499SOL    HW232397   5.606   3.627   2.703
10500SOL     OW32398   0.893   3.491   5.243
10500SOL    HW132399   0.989   3.463   5.253
10500SOL    HW232400   0.837   3.445   5.312
10501SOL     OW32401   3.734   4.857   3.094
10501SOL    HW132402   3.738   4.940   3.039
10501SOL    HW232403   3.672   4.792   3.050
10502SOL     OW32404   3.688   3.601   2.694
10502SOL    HW132405   3.773   3.550   2.682
10502SOL    HW232406   3.709   3.698   2.708
10503SOL     OW32407   0.169   1.495   6.000
10503SOL    HW132408   0.192   1.572   5.940
10503SOL    HW232409   0.099   1.523   6.065
10504SOL     OW32410   0.748   3.836   5.626
10504SOL    HW132411   0.786   3.841   5.534
10504SOL    HW232412   0.763   3.923   5.674
10505SOL     OW32413   5.952   0.340   0.845
10505SOL    HW132414   5.853   0.336   0.839
10505SOL    HW232415   5.992   0.336   0.753
10506SOL     OW32416   1.195   4.339   6.418
10506SOL    HW132417   1.242   4.411   6.368
10506SOL    HW232418   1.158   4.272   6.352
10507SOL     OW32419   1.358   5.724   5.843
10507SOL    HW132420   1.431   5.778   5.884
10507SOL    HW232421   1.274   5.735   5.897
10508SOL     OW32422   1.787   5.293   6.214
10508SOL    HW132423   1.717   5.358   6.246
10508SOL    HW232424   1.875   5.317   6.254
10509SOL     OW32425   4.793   2.323   3.102
10509SOL    HW132426   4.715   2.371   3.141
10509SOL    HW232427   4.872   2.385   3.098
10510SOL     OW32428   5.445   5.609   3.611
10510SOL    HW132429   5.377   5.653   3.552
10510SOL    HW232430   5.419   5.619   3.707
10511SOL     OW32431   3.929   1.575   0.780
10511SOL    HW132432   3.949   1.494   0.835
10511SOL    HW232433   3.831   1.590   0.776
10512SOL     OW32434   4.154   1.574   5.215
10512SOL    HW132435   4.248   1.585   5.248
10512SOL    HW232436   4.091   1.616   5.281
10513SOL     OW32437   3.626   3.033   0.606
10513SOL    HW132438   3.700   3.070   0.549
10513SOL    HW232439   3.634   3.070   0.699
10514SOL     OW32440   1.673   4.636   1.795
10514SOL    HW132441   1.739   4.679   1.733
10514SOL    HW232442   1.608   4.703   1.827
10515SOL     OW32443   2.192   2.994   4.858
10515SOL    HW132444   2.193   3.089   4.825
10515SOL    HW232445   2.264   2.982   4.926
10516SOL     OW32446   4.991   2.238   1.745
10516SOL    HW132447   5.052   2.317   1.754
10516SOL    HW232448   4.964   2.229   1.649
10517SOL     OW32449   1.053   2.875   2.294
10517SOL    HW132450   1.107   2.819   2.357
10517SOL    HW232451   0.955   2.857   2.309
10518SOL     OW32452   1.076   5.440   2.007
10518SOL    HW132453   1.143   5.512   1.994
10518SOL    HW232454   1.122   5.353   2.023
10519SOL     OW32455   3.812   0.074   1.464
10519SOL    HW132456   3.872   0.003   1.427
10519SOL    HW232457   3.863   0.161   1.468
10520SOL     OW32458   1.206   2.568   6.258
10520SOL    HW132459   1.267   2.645   6.239
10520SOL    HW232460   1.161   2.582   6.346
10521SOL     OW32461   6.345   2.405   3.149
10521SOL    HW132462   6.376   2.378   3.058
10521SOL    HW232463   6.418   2.389   3.215
10522SOL     OW32464   5.620   1.457   3.978
10522SOL    HW132465   5.638   1.359   3.971
10522SOL    HW232466   5.589   1.491   3.889
10523SOL     OW32467   0.944   4.623   2.538
10523SOL    HW132468   0.934   4.643   2.636
10523SOL    HW232469   0.896   4.537   2.518
10524SOL     OW32470   6.682   6.166   4.747
10524SOL    HW132471   6.636   6.250   4.717
10524SOL    HW232472   6.767   6.154   4.696
10525SOL     OW32473   5.321   1.764   3.692
10525SOL    HW132474   5.230   1.795   3.717
10525SOL    HW232475   5.388   1.834   3.715
10526SOL     OW32476   0.747   5.360   6.564
10526SOL    HW132477   0.669   5.325   6.616
10526SOL    HW232478   0.832   5.325   6.603
10527SOL     OW32479   0.283   6.528   5.589
10527SOL    HW132480   0.380   6.538   5.568
10527SOL    HW232481   0.261   6.583   5.669
10528SOL     OW32482   1.558   4.823   5.544
10528SOL    HW132483   1.502   4.748   5.510
10528SOL    HW232484   1.618   4.790   5.617
10529SOL     OW32485   6.911   5.462   1.099
10529SOL    HW132486   6.856   5.470   1.182
10529SOL    HW232487   6.859   5.493   1.021
10530SOL     OW32488   0.182   6.219   1.781
10530SOL    HW132489   0.122   6.142   1.758
10530SOL    HW232490   0.202   6.271   1.698
10531SOL     OW32491   3.202   2.996   5.453
10531SOL    HW132492   3.106   3.024   5.455
10531SOL    HW232493   3.215   2.925   5.384
10532SOL     OW32494   4.980   5.983   6.251
10532SOL    HW132495   4.884   5.972   6.278
10532SOL    HW232496   5.028   6.037   6.320
10533SOL     OW32497   3.810   0.286   2.913
10533SOL    HW132498   3.895   0.339   2.920
10533SOL    HW232499   3.755   0.321   2.837
10534SOL     OW32500   1.395   5.570   3.643
10534SOL    HW132501   1.337   5.651   3.654
10534SOL    HW232502   1.372   5.503   3.713
10535SOL     OW32503   3.594   2.129   2.818
10535SOL    HW132504   3.568   2.222   2.845
10535SOL    HW232505   3.581   2.067   2.895
10536SOL     OW32506   5.631   3.186   5.321
10536SOL    HW132507   5.660   3.096   5.288
10536SOL    HW232508   5.641   3.253   5.247
10537SOL     OW32509   4.082   0.687   4.303
10537SOL    HW132510   4.161   0.678   4.242
10537SOL    HW232511   4.109   0.665   4.397
10538SOL     OW32512   0.024   2.865   3.245
10538SOL    HW132513   0.002   2.767   3.252
10538SOL    HW232514   6.997   2.916   3.313
10539SOL     OW32515   0.006   6.857   3.029
10539SOL    HW132516   0.021   6.829   2.934
10539SOL    HW232517   0.090   6.895   3.067
10540SOL     OW32518   1.669   4.358   6.911
10540SOL    HW132519   1.714   4.269   6.916
10540SOL    HW232520   1.700   4.406   6.828
10541SOL     OW32521   2.908   3.032   5.473
10541SOL    HW132522   2.824   3.067   5.431
10541SOL    HW232523   2.912   2.933   5.460
10542SOL     OW32524   5.151   6.386   3.243
10542SOL    HW132525   5.194   6.327   3.310
10542SOL    HW232526   5.172   6.482   3.263
10543SOL     OW32527   1.866   3.103   3.913
10543SOL    HW132528   1.917   3.080   3.831
10543SOL    HW232529   1.906   3.056   3.992
10544SOL     OW32530   3.536   1.475   3.096
10544SOL    HW132531   3.524   1.521   3.184
10544SOL    HW232532   3.624   1.428   3.094
10545SOL     OW32533   2.269   2.768   2.381
10545SOL    HW132534   2.363   2.735   2.392
10545SOL    HW232535   2.259   2.810   2.291
10546SOL     OW32536   2.196   0.113   6.731
10546SOL    HW132537   2.278   0.160   6.762
10546SOL    HW232538   2.206   0.088   6.635
10547SOL     OW32539   4.258   6.104   5.704
10547SOL    HW132540   4.212   6.192   5.716
10547SOL    HW232541   4.203   6.044   5.646
10548SOL     OW32542   0.726   5.968   3.467
10548SOL    HW132543   0.777   5.979   3.552
10548SOL    HW232544   0.790   5.942   3.394
10549SOL     OW32545   6.178   0.558   2.051
10549SOL    HW132546   6.206   0.480   2.107
10549SOL    HW232547   6.256   0.619   2.036
10550SOL     OW32548   5.189   5.565   2.832
10550SOL    HW132549   5.147   5.654   2.816
10550SOL    HW232550   5.271   5.556   2.776
10551SOL     OW32551   3.530   0.362   5.531
10551SOL    HW132552   3.492   0.385   5.621
10551SOL    HW232553   3.548   0.446   5.480
10552SOL     OW32554   2.951   6.930   3.847
10552SOL    HW132555   2.897   6.978   3.916
10552SOL    HW232556   2.898   6.922   3.763
10553SOL     OW32557   6.364   5.688   1.022
10553SOL    HW132558   6.358   5.708   1.120
10553SOL    HW232559   6.376   5.773   0.971
10554SOL     OW32560   6.188   6.281   2.635
10554SOL    HW132561   6.206   6.281   2.733
10554SOL    HW232562   6.252   6.219   2.589
10555SOL     OW32563   3.083   3.598   0.958
10555SOL    HW132564   3.053   3.504   0.970
10555SOL    HW232565   3.110   3.613   0.863
10556SOL     OW32566   2.582   1.616   2.228
10556SOL    HW132567   2.626   1.543   2.177
10556SOL    HW232568   2.516   1.577   2.292
10557SOL     OW32569   1.942   4.190   3.027
10557SOL    HW132570   2.022   4.132   3.039
10557SOL    HW232571   1.951   4.272   3.083
10558SOL     OW32572   3.541   5.248   4.915
10558SOL    HW132573   3.629   5.293   4.897
10558SOL    HW232574   3.556   5.167   4.971
10559SOL     OW32575   4.384   6.602   1.456
10559SOL    HW132576   4.369   6.622   1.553
10559SOL    HW232577   4.302   6.560   1.418
10560SOL     OW32578   5.670   6.622   2.952
10560SOL    HW132579   5.712   6.573   3.029
10560SOL    HW232580   5.574   6.639   2.972
10561SOL     OW32581   0.172   5.183   6.558
10561SOL    HW132582   0.101   5.122   6.524
10561SOL    HW232583   0.233   5.132   6.619
10562SOL     OW32584   4.275   5.825   2.121
10562SOL    HW132585   4.226   5.911   2.108
10562SOL    HW232586   4.362   5.842   2.168
10563SOL     OW32587   0.453   0.090   2.338
10563SOL    HW132588   0.360   0.065   2.364
10563SOL    HW232589   0.459   0.097   2.238
10564SOL     OW32590   4.767   4.635   3.179
10564SOL    HW132591   4.774   4.600   3.085
10564SOL    HW232592   4.675   4.673   3.193
10565SOL     OW32593   0.273   0.761   5.931
10565SOL    HW132594   0.329   0.679   5.929
10565SOL    HW232595   0.194   0.750   5.870
10566SOL     OW32596   3.576   2.316   0.260
10566SOL    HW132597   3.588   2.411   0.290
10566SOL    HW232598   3.642   2.257   0.308
10567SOL     OW32599   1.684   2.430   6.192
10567SOL    HW132600   1.713   2.335   6.183
10567SOL    HW232601   1.640   2.460   6.107
10568SOL     OW32602   5.095   1.958   6.111
10568SOL    HW132603   5.065   1.865   6.133
10568SOL    HW232604   5.100   2.012   6.194
10569SOL     OW32605   5.914   0.447   0.468
10569SOL    HW132606   5.966   0.530   0.448
10569SOL    HW232607   5.972   0.382   0.518
10570SOL     OW32608   1.392   3.487   3.257
10570SOL    HW132609   1.445   3.424   3.201
10570SOL    HW232610   1.452   3.530   3.324
10571SOL     OW32611   6.717   4.261   5.237
10571SOL    HW132612   6.649   4.334   5.244
10571SOL    HW232613   6.701   4.209   5.154
10572SOL     OW32614   6.102   4.219   1.211
10572SOL    HW132615   6.103   4.131   1.163
10572SOL    HW232616   6.172   4.220   1.282
10573SOL     OW32617   6.594   2.649   3.099
10573SOL    HW132618   6.690   2.623   3.107
10573SOL    HW232619   6.539   2.567   3.082
10574SOL     OW32620   5.640   2.377   2.522
10574SOL    HW132621   5.591   2.387   2.436
10574SOL    HW232622   5.644   2.465   2.569
10575SOL     OW32623   5.878   6.744   2.824
10575SOL    HW132624   5.860   6.769   2.729
10575SOL    HW232625   5.805   6.684   2.858
10576SOL     OW32626   1.235   4.204   4.225
10576SOL    HW132627   1.297   4.129   4.202
10576SOL    HW232628   1.206   4.195   4.320
10577SOL     OW32629   4.404   4.086   0.636
10577SOL    HW132630   4.365   4.169   0.675
10577SOL    HW232631   4.344   4.052   0.563
10578SOL     OW32632   0.611   3.384   3.659
10578SOL    HW132633   0.571   3.351   3.744
10578SOL    HW232634   0.547   3.445   3.613
10579SOL     OW32635   0.854   3.716   0.378
10579SOL    HW132636   0.845   3.695   0.280
10579SOL    HW232637   0.870   3.631   0.428
10580SOL     OW32638   5.560   6.668   6.752
10580SOL    HW132639   5.499   6.741   6.720
10580SOL    HW232640   5.506   6.601   6.804
10581SOL     OW32641   4.555   0.668   3.090
10581SOL    HW132642   4.585   0.744   3.148
10581SOL    HW232643   4.599   0.583   3.120
10582SOL     OW32644   6.579   3.685   6.172
10582SOL    HW132645   6.481   3.700   6.160
10582SOL    HW232646   6.597   3.656   6.266
10583SOL     OW32647   3.400   1.988   5.570
10583SOL    HW132648   3.455   1.944   5.499
10583SOL    HW232649   3.312   1.942   5.578
10584SOL     OW32650   0.996   6.110   3.481
10584SOL    HW132651   1.014   6.047   3.557
10584SOL    HW232652   1.078   6.164   3.462
10585SOL     OW32653   1.727   0.935   5.143
10585SOL    HW132654   1.733   0.931   5.243
10585SOL    HW232655   1.717   1.030   5.114
10586SOL     OW32656   4.355   4.171   5.338
10586SOL    HW132657   4.293   4.095   5.359
10586SOL    HW232658   4.302   4.252   5.314
10587SOL     OW32659   2.467   4.826   5.371
10587SOL    HW132660   2.444   4.856   5.279
10587SOL    HW232661   2.552   4.773   5.369
10588SOL     OW32662   1.231   3.227   3.760
10588SOL    HW132663   1.278   3.240   3.848
10588SOL    HW232664   1.286   3.266   3.686
10589SOL     OW32665   6.180   6.386   3.742
10589SOL    HW132666   6.130   6.433   3.814
10589SOL    HW232667   6.279   6.399   3.756
10590SOL     OW32668   0.590   4.776   2.245
10590SOL    HW132669   0.499   4.751   2.213
10590SOL    HW232670   0.582   4.844   2.318
10591SOL     OW32671   0.120   3.868   2.255
10591SOL    HW132672   0.065   3.785   2.254
10591SOL    HW232673   0.209   3.849   2.297
10592SOL     OW32674   0.575   1.743   4.787
10592SOL    HW132675   0.605   1.654   4.821
10592SOL    HW232676   0.652   1.789   4.743
10593SOL     OW32677   3.300   4.994   3.574
10593SOL    HW132678   3.316   4.967   3.479
10593SOL    HW232679   3.292   4.912   3.630
10594SOL     OW32680   3.439   5.388   3.621
10594SOL    HW132681   3.527   5.384   3.575
10594SOL    HW232682   3.449   5.356   3.715
10595SOL     OW32683   5.088   0.040   0.709
10595SOL    HW132684   5.059   0.135   0.727
10595SOL    HW232685   5.014   7.004   0.733
10596SOL     OW32686   5.268   3.400   7.019
10596SOL    HW132687   5.302   3.324   6.964
10596SOL    HW232688   5.277   3.378   0.090
10597SOL     OW32689   2.250   6.604   4.740
10597SOL    HW132690   2.303   6.634   4.661
10597SOL    HW232691   2.303   6.540   4.795
10598SOL     OW32692   2.943   0.511   6.691
10598SOL    HW132693   3.043   0.522   6.690
10598SOL    HW232694   2.917   0.455   6.770
10599SOL     OW32695   0.823   2.340   0.602
10599SOL    HW132696   0.853   2.409   0.668
10599SOL    HW232697   0.728   2.357   0.577
10600SOL     OW32698   3.783   1.508   1.763
10600SOL    HW132699   3.746   1.420   1.733
10600SOL    HW232700   3.778   1.514   1.863
10601SOL     OW32701   2.293   0.902   4.846
10601SOL    HW132702   2.388   0.930   4.858
10601SOL    HW232703   2.234   0.957   4.905
10602SOL     OW32704   6.679   0.270   1.973
10602SOL    HW132705   6.588   0.233   1.995
10602SOL    HW232706   6.747   0.198   1.985
10603SOL     OW32707   5.566   0.394   2.822
10603SOL    HW132708   5.614   0.310   2.844
10603SOL    HW232709   5.517   0.384   2.735
10604SOL     OW32710   4.983   0.852   4.892
10604SOL    HW132711   5.047   0.904   4.835
10604SOL    HW232712   4.912   0.811   4.835
10605SOL     OW32713   3.085   2.166   0.937
10605SOL    HW132714   3.091   2.147   0.839
10605SOL    HW232715   3.009   2.229   0.954
10606SOL     OW32716   6.891   0.419   6.700
10606SOL    HW132717   6.983   0.416   6.738
10606SOL    HW232718   6.846   0.330   6.713
10607SOL     OW32719   3.092   4.459   0.218
10607SOL    HW132720   3.160   4.531   0.224
10607SOL    HW232721   3.133   4.372   0.247
10608SOL     OW32722   5.424   4.435   3.992
10608SOL    HW132723   5.496   4.416   3.925
10608SOL    HW232724   5.368   4.353   4.004
10609SOL     OW32725   6.078   0.878   6.822
10609SOL    HW132726   6.147   0.827   6.771
10609SOL    HW232727   6.031   0.817   6.885
10610SOL     OW32728   0.750   1.404   3.376
10610SOL    HW132729   0.681   1.428   3.444
10610SOL    HW232730   0.711   1.338   3.312
10611SOL     OW32731   4.033   5.083   5.000
10611SOL    HW132732   4.084   5.112   4.918
10611SOL    HW232733   3.956   5.144   5.015
10612SOL     OW32734   6.631   2.536   3.526
10612SOL    HW132735   6.649   2.633   3.540
10612SOL    HW232736   6.589   2.498   3.609
10613SOL     OW32737   4.313   6.100   4.032
10613SOL    HW132738   4.238   6.127   4.093
10613SOL    HW232739   4.339   6.005   4.052
10614SOL     OW32740   3.438   2.144   6.030
10614SOL    HW132741   3.487   2.227   6.005
10614SOL    HW232742   3.450   2.127   6.128
10615SOL     OW32743   2.142   2.649   5.368
10615SOL    HW132744   2.210   2.716   5.339
10615SOL    HW232745   2.186   2.581   5.427
10616SOL     OW32746   1.544   6.060   6.841
10616SOL    HW132747   1.576   6.037   6.933
10616SOL    HW232748   1.592   6.003   6.774
10617SOL     OW32749   1.660   2.763   1.235
10617SOL    HW132750   1.652   2.674   1.280
10617SOL    HW232751   1.613   2.759   1.146
10618SOL     OW32752   0.906   4.772   3.912
10618SOL    HW132753   0.834   4.726   3.860
10618SOL    HW232754   0.883   4.769   4.010
10619SOL     OW32755   1.286   2.693   2.107
10619SOL    HW132756   1.313   2.751   2.185
10619SOL    HW232757   1.368   2.658   2.062
10620SOL     OW32758   3.179   0.266   5.535
10620SOL    HW132759   3.177   0.243   5.438
10620SOL    HW232760   3.235   0.348   5.548
10621SOL     OW32761   0.377   3.691   3.167
10621SOL    HW132762   0.289   3.726   3.200
10621SOL    HW232763   0.451   3.746   3.206
10622SOL     OW32764   4.505   2.185   7.011
10622SOL    HW132765   4.457   2.269   0.011
10622SOL    HW232766   4.475   2.156   6.920
10623SOL     OW32767   5.016   5.997   5.363
10623SOL    HW132768   4.998   6.040   5.451
10623SOL    HW232769   4.952   5.921   5.350
10624SOL     OW32770   0.791   2.174   6.888
10624SOL    HW132771   0.785   2.214   6.980
10624SOL    HW232772   0.730   2.224   6.827
10625SOL     OW32773   6.407   5.425   0.702
10625SOL    HW132774   6.452   5.463   0.621
10625SOL    HW232775   6.465   5.437   0.782
10626SOL     OW32776   5.635   2.660   1.085
10626SOL    HW132777   5.732   2.677   1.070
10626SOL    HW232778   5.586   2.664   0.998
10627SOL     OW32779   5.612   5.056   5.096
10627SOL    HW132780   5.666   5.123   5.146
10627SOL    HW232781   5.666   5.017   5.022
10628SOL     OW32782   2.819   6.419   0.275
10628SOL    HW132783   2.844   6.492   0.211
10628SOL    HW232784   2.884   6.416   0.350
10629SOL     OW32785   4.427   5.336   4.773
10629SOL    HW132786   4.428   5.427   4.733
10629SOL    HW232787   4.488   5.276   4.721
10630SOL     OW32788   3.917   1.015   1.675
10630SOL    HW132789   3.985   0.947   1.700
10630SOL    HW232790   3.927   1.095   1.734
10631SOL     OW32791   3.638   6.019   1.688
10631SOL    HW132792   3.590   6.011   1.776
10631SOL    HW232793   3.660   5.928   1.653
10632SOL     OW32794   5.469   6.298   4.368
10632SOL    HW132795   5.400   6.245   4.319
10632SOL    HW232796   5.507   6.367   4.306
10633SOL     OW32797   2.133   3.662   0.708
10633SOL    HW132798   2.139   3.602   0.629
10633SOL    HW232799   2.224   3.679   0.745
10634SOL     OW32800   6.950   4.563   6.763
10634SOL    HW132801   6.920   4.597   6.674
10634SOL    HW232802   6.903   4.478   6.785
10635SOL     OW32803   2.997   6.035   6.701
10635SOL    HW132804   2.913   6.028   6.647
10635SOL    HW232805   3.066   6.084   6.649
10636SOL     OW32806   6.527   2.605   6.982
10636SOL    HW132807   6.442   2.566   6.947
10636SOL    HW232808   6.540   2.696   6.944
10637SOL     OW32809   2.353   0.934   6.935
10637SOL    HW132810   2.423   0.863   6.931
10637SOL    HW232811   2.276   0.903   6.991
10638SOL     OW32812   5.479   5.407   0.962
10638SOL    HW132813   5.524   5.487   0.922
10638SOL    HW232814   5.412   5.370   0.898
10639SOL     OW32815   0.493   5.089   1.801
10639SOL    HW132816   0.476   5.125   1.709
10639SOL    HW232817   0.497   5.164   1.866
10640SOL     OW32818   4.403   6.374   3.545
10640SOL    HW132819   4.432   6.340   3.634
10640SOL    HW232820   4.467   6.444   3.513
10641SOL     OW32821   1.372   1.752   3.095
10641SOL    HW132822   1.460   1.763   3.141
10641SOL    HW232823   1.299   1.782   3.157
10642SOL     OW32824   6.697   3.447   6.103
10642SOL    HW132825   6.651   3.534   6.118
10642SOL    HW232826   6.724   3.407   6.191
10643SOL     OW32827   2.443   5.031   5.858
10643SOL    HW132828   2.445   4.941   5.901
10643SOL    HW232829   2.394   5.026   5.771
10644SOL     OW32830   6.191   2.916   2.856
10644SOL    HW132831   6.138   2.907   2.940
10644SOL    HW232832   6.257   2.841   2.850
10645SOL     OW32833   2.010   2.010   3.116
10645SOL    HW132834   1.945   2.086   3.121
10645SOL    HW232835   1.965   1.926   3.146
10646SOL     OW32836   5.479   0.229   3.668
10646SOL    HW132837   5.488   0.326   3.646
10646SOL    HW232838   5.528   0.209   3.753
10647SOL     OW32839   3.398   5.386   5.365
10647SOL    HW132840   3.462   5.311   5.380
10647SOL    HW232841   3.432   5.445   5.292
10648SOL     OW32842   4.840   4.317   5.691
10648SOL    HW132843   4.898   4.394   5.663
10648SOL    HW232844   4.746   4.350   5.705
10649SOL     OW32845   5.711   3.545   3.145
10649SOL    HW132846   5.635   3.581   3.092
10649SOL    HW232847   5.690   3.553   3.243
10650SOL     OW32848   0.834   0.134   3.297
10650SOL    HW132849   0.758   0.166   3.240
10650SOL    HW232850   0.905   0.205   3.301
10651SOL     OW32851   3.126   5.659   5.993
10651SOL    HW132852   3.124   5.634   6.090
10651SOL    HW232853   3.159   5.752   5.983
10652SOL     OW32854   1.911   0.150   0.195
10652SOL    HW132855   1.950   0.119   0.108
10652SOL    HW232856   1.924   0.249   0.204
10653SOL     OW32857   4.863   6.118   4.304
10653SOL    HW132858   4.889   6.073   4.218
10653SOL    HW232859   4.771   6.155   4.295
10654SOL     OW32860   6.602   1.996   4.258
10654SOL    HW132861   6.526   2.035   4.310
10654SOL    HW232862   6.642   1.921   4.310
10655SOL     OW32863   6.983   4.181   1.405
10655SOL    HW132864   6.910   4.133   1.356
10655SOL    HW232865   6.976   4.279   1.388
10656SOL     OW32866   5.634   1.924   4.623
10656SOL    HW132867   5.599   1.839   4.662
10656SOL    HW232868   5.559   1.991   4.615
10657SOL     OW32869   5.119   6.820   4.746
10657SOL    HW132870   5.140   6.795   4.840
10657SOL    HW232871   5.089   6.915   4.743
10658SOL     OW32872   1.089   1.709   5.703
10658SOL    HW132873   1.096   1.693   5.605
10658SOL    HW232874   1.034   1.791   5.719
10659SOL     OW32875   0.596   5.584   0.726
10659SOL    HW132876   0.553   5.510   0.672
10659SOL    HW232877   0.532   5.615   0.796
10660SOL     OW32878   5.562   2.573   5.809
10660SOL    HW132879   5.518   2.656   5.776
10660SOL    HW232880   5.531   2.495   5.755
10661SOL     OW32881   3.175   5.112   5.463
10661SOL    HW132882   3.143   5.207   5.462
10661SOL    HW232883   3.235   5.097   5.384
10662SOL     OW32884   2.269   1.313   1.261
10662SOL    HW132885   2.187   1.370   1.271
10662SOL    HW232886   2.282   1.258   1.343
10663SOL     OW32887   0.772   1.501   3.700
10663SOL    HW132888   0.689   1.550   3.727
10663SOL    HW232889   0.757   1.402   3.707
10664SOL     OW32890   0.951   5.269   4.969
10664SOL    HW132891   1.015   5.303   5.037
10664SOL    HW232892   0.906   5.346   4.924
10665SOL     OW32893   3.252   3.202   6.952
10665SOL    HW132894   3.302   3.131   7.003
10665SOL    HW232895   3.156   3.202   6.981
10666SOL     OW32896   3.414   3.975   1.476
10666SOL    HW132897   3.336   3.932   1.432
10666SOL    HW232898   3.475   3.905   1.512
10667SOL     OW32899   5.390   2.925   3.530
10667SOL    HW132900   5.375   2.930   3.629
10667SOL    HW232901   5.362   3.011   3.488
10668SOL     OW32902   3.224   2.886   5.694
10668SOL    HW132903   3.129   2.856   5.683
10668SOL    HW232904   3.256   2.928   5.609
10669SOL     OW32905   6.049   1.719   1.439
10669SOL    HW132906   6.013   1.699   1.530
10669SOL    HW232907   5.982   1.693   1.370
10670SOL     OW32908   4.853   3.661   4.328
10670SOL    HW132909   4.835   3.723   4.252
10670SOL    HW232910   4.948   3.672   4.357
10671SOL     OW32911   1.234   3.548   5.515
10671SOL    HW132912   1.144   3.576   5.548
10671SOL    HW232913   1.305   3.593   5.570
10672SOL     OW32914   5.873   3.595   2.195
10672SOL    HW132915   5.958   3.597   2.142
10672SOL    HW232916   5.884   3.533   2.273
10673SOL     OW32917   2.072   1.752   0.555
10673SOL    HW132918   2.081   1.669   0.501
10673SOL    HW232919   2.002   1.739   0.625
10674SOL     OW32920   3.266   3.782   3.495
10674SOL    HW132921   3.276   3.882   3.492
10674SOL    HW232922   3.169   3.758   3.486
10675SOL     OW32923   4.175   6.762   5.100
10675SOL    HW132924   4.240   6.761   5.176
10675SOL    HW232925   4.134   6.672   5.090
10676SOL     OW32926   1.412   0.213   5.921
10676SOL    HW132927   1.362   0.283   5.871
10676SOL    HW232928   1.493   0.186   5.869
10677SOL     OW32929   0.109   1.667   6.995
10677SOL    HW132930   0.031   1.730   6.993
10677SOL    HW232931   0.093   1.597   0.038
10678SOL     OW32932   3.573   5.676   2.236
10678SOL    HW132933   3.593   5.638   2.146
10678SOL    HW232934   3.505   5.749   2.227
10679SOL     OW32935   3.933   3.669   6.644
10679SOL    HW132936   3.972   3.757   6.617
10679SOL    HW232937   3.996   3.596   6.618
10680SOL     OW32938   3.657   1.125   4.804
10680SOL    HW132939   3.683   1.043   4.856
10680SOL    HW232940   3.732   1.152   4.744
10681SOL     OW32941   1.904   3.494   5.452
10681SOL    HW132942   1.838   3.448   5.393
10681SOL    HW232943   1.880   3.592   5.457
10682SOL     OW32944   5.066   3.180   6.394
10682SOL    HW132945   5.022   3.145   6.477
10682SOL    HW232946   5.148   3.231   6.419
10683SOL     OW32947   2.873   0.351   3.757
10683SOL    HW132948   2.845   0.265   3.713
10683SOL    HW232949   2.798   0.385   3.813
10684SOL     OW32950   4.565   4.723   2.054
10684SOL    HW132951   4.658   4.754   2.070
10684SOL    HW232952   4.548   4.718   1.956
10685SOL     OW32953   1.102   6.697   1.623
10685SOL    HW132954   1.004   6.698   1.641
10685SOL    HW232955   1.147   6.634   1.686
10686SOL     OW32956   2.408   1.077   6.692
10686SOL    HW132957   2.394   1.037   6.782
10686SOL    HW232958   2.351   1.029   6.625
10687SOL     OW32959   0.605   4.142   4.079
10687SOL    HW132960   0.564   4.230   4.053
10687SOL    HW232961   0.590   4.076   4.005
10688SOL     OW32962   5.085   1.511   2.466
10688SOL    HW132963   5.160   1.554   2.518
10688SOL    HW232964   4.997   1.542   2.504
10689SOL     OW32965   0.593   0.611   2.576
10689SOL    HW132966   0.502   0.653   2.579
10689SOL    HW232967   0.592   0.525   2.626
10690SOL     OW32968   0.021   6.790   4.260
10690SOL    HW132969   0.064   6.827   4.178
10690SOL    HW232970   6.950   6.815   4.261
10691SOL     OW32971   3.524   0.299   2.318
10691SOL    HW132972   3.491   0.227   2.379
10691SOL    HW232973   3.467   0.380   2.329
10692SOL     OW32974   2.273   1.050   3.908
10692SOL    HW132975   2.216   1.051   3.825
10692SOL    HW232976   2.338   0.974   3.903
10693SOL     OW32977   1.823   5.385   0.104
10693SOL    HW132978   1.746   5.332   0.140
10693SOL    HW232979   1.805   5.482   0.117
10694SOL     OW32980   4.602   0.382   5.182
10694SOL    HW132981   4.696   0.402   5.153
10694SOL    HW232982   4.549   0.351   5.103
10695SOL     OW32983   5.722   4.351   2.345
10695SOL    HW132984   5.663   4.395   2.413
10695SOL    HW232985   5.813   4.337   2.384
10696SOL     OW32986   6.399   4.461   3.668
10696SOL    HW132987   6.303   4.466   3.642
10696SOL    HW232988   6.447   4.542   3.635
10697SOL     OW32989   2.005   5.352   5.276
10697SOL    HW132990   2.010   5.444   5.314
10697SOL    HW232991   2.029   5.286   5.347
10698SOL     OW32992   3.968   2.976   0.023
10698SOL    HW132993   3.888   2.920   0.044
10698SOL    HW232994   4.045   2.917   0.001
10699SOL     OW32995   3.148   3.171   0.707
10699SOL    HW132996   3.180   3.265   0.705
10699SOL    HW232997   3.226   3.110   0.724
10700SOL     OW32998   4.903   0.858   1.437
10700SOL    HW132999   4.910   0.937   1.498
10700SOL    HW233000   4.936   0.884   1.346
10701SOL     OW33001   2.997   0.175   6.325
10701SOL    HW133002   2.950   0.091   6.351
10701SOL    HW233003   2.944   0.254   6.356
10702SOL     OW33004   6.015   2.391   1.986
10702SOL    HW133005   6.088   2.348   1.933
10702SOL    HW233006   6.030   2.490   1.990
10703SOL     OW33007   1.190   3.194   5.984
10703SOL    HW133008   1.147   3.263   6.043
10703SOL    HW233009   1.174   3.103   6.022
10704SOL     OW33010   5.572   0.109   1.569
10704SOL    HW133011   5.623   0.037   1.616
10704SOL    HW233012   5.504   0.067   1.509
10705SOL     OW33013   5.832   3.778   1.174
10705SOL    HW133014   5.860   3.698   1.120
10705SOL    HW233015   5.769   3.833   1.120
10706SOL     OW33016   4.213   0.061   0.889
10706SOL    HW133017   4.129   0.100   0.850
10706SOL    HW233018   4.286   0.129   0.886
10707SOL     OW33019   6.041   0.427   3.884
10707SOL    HW133020   6.067   0.524   3.878
10707SOL    HW233021   5.979   0.414   3.961
10708SOL     OW33022   4.096   1.483   1.914
10708SOL    HW133023   4.184   1.532   1.917
10708SOL    HW233024   4.062   1.483   1.820
10709SOL     OW33025   5.789   4.845   3.661
10709SOL    HW133026   5.759   4.772   3.722
10709SOL    HW233027   5.742   4.930   3.684
10710SOL     OW33028   5.463   1.035   3.584
10710SOL    HW133029   5.395   1.015   3.514
10710SOL    HW233030   5.481   1.133   3.586
10711SOL     OW33031   4.197   0.183   2.010
10711SOL    HW133032   4.206   0.091   2.049
10711SOL    HW233033   4.150   0.177   1.922
10712SOL     OW33034   5.224   6.903   2.842
10712SOL    HW133035   5.167   6.830   2.881
10712SOL    HW233036   5.289   6.934   2.911
10713SOL     OW33037   1.346   4.104   1.258
10713SOL    HW133038   1.270   4.140   1.205
10713SOL    HW233039   1.330   4.120   1.356
10714SOL     OW33040   2.951   3.836   4.340
10714SOL    HW133041   2.939   3.762   4.407
10714SOL    HW233042   2.928   3.923   4.382
10715SOL     OW33043   6.297   0.862   1.680
10715SOL    HW133044   6.292   0.820   1.589
10715SOL    HW233045   6.357   0.942   1.677
10716SOL     OW33046   5.763   1.894   3.444
10716SOL    HW133047   5.777   1.943   3.358
10716SOL    HW233048   5.814   1.940   3.517
10717SOL     OW33049   1.461   2.510   0.261
10717SOL    HW133050   1.485   2.416   0.285
10717SOL    HW233051   1.367   2.514   0.228
10718SOL     OW33052   1.823   5.372   5.606
10718SOL    HW133053   1.740   5.360   5.551
10718SOL    HW233054   1.799   5.379   5.702
10719SOL     OW33055   6.040   5.736   4.515
10719SOL    HW133056   6.057   5.815   4.574
10719SOL    HW233057   6.126   5.688   4.498
10720SOL     OW33058   6.670   5.138   3.396
10720SOL    HW133059   6.599   5.069   3.411
10720SOL    HW233060   6.627   5.229   3.397
10721SOL     OW33061   5.173   3.901   5.244
10721SOL    HW133062   5.216   3.812   5.230
10721SOL    HW233063   5.211   3.966   5.178
10722SOL     OW33064   6.649   4.080   5.453
10722SOL    HW133065   6.681   4.149   5.388
10722SOL    HW233066   6.552   4.093   5.471
10723SOL     OW33067   5.748   7.010   0.453
10723SOL    HW133068   5.683   6.989   0.526
10723SOL    HW233069   5.715   0.060   0.399
10724SOL     OW33070   6.722   6.623   0.524
10724SOL    HW133071   6.723   6.529   0.488
10724SOL    HW233072   6.756   6.623   0.618
10725SOL     OW33073   2.764   5.361   5.493
10725SOL    HW133074   2.768   5.267   5.461
10725SOL    HW233075   2.790   5.365   5.589
10726SOL     OW33076   4.943   1.270   4.476
10726SOL    HW133077   4.851   1.263   4.516
10726SOL    HW233078   5.009   1.228   4.538
10727SOL     OW33079   1.849   6.053   5.825
10727SOL    HW133080   1.835   5.956   5.807
10727SOL    HW233081   1.838   6.071   5.923
10728SOL     OW33082   6.308   6.100   1.040
10728SOL    HW133083   6.316   6.015   0.988
10728SOL    HW233084   6.221   6.144   1.017
10729SOL     OW33085   6.717   2.862   1.675
10729SOL    HW133086   6.674   2.901   1.757
10729SOL    HW233087   6.767   2.779   1.700
10730SOL     OW33088   4.203   0.457   2.041
10730SOL    HW133089   4.269   0.508   2.097
10730SOL    HW233090   4.209   0.360   2.064
10731SOL     OW33091   4.405   1.083   1.281
10731SOL    HW133092   4.372   1.175   1.304
10731SOL    HW233093   4.390   1.067   1.184
10732SOL     OW33094   0.868   5.032   5.285
10732SOL    HW133095   0.939   5.005   5.220
10732SOL    HW233096   0.818   5.111   5.249
10733SOL     OW33097   6.159   2.748   6.784
10733SOL    HW133098   6.164   2.764   6.685
10733SOL    HW233099   6.212   2.666   6.807
10734SOL     OW33100   7.017   2.130   1.612
10734SOL    HW133101   0.038   2.190   1.547
10734SOL    HW233102   0.058   2.079   1.666
10735SOL     OW33103   0.268   3.796   2.656
10735SOL    HW133104   0.261   3.769   2.560
10735SOL    HW233105   0.205   3.871   2.675
10736SOL     OW33106   3.186   7.019   3.722
10736SOL    HW133107   3.107   6.977   3.766
10736SOL    HW233108   3.180   0.092   3.731
10737SOL     OW33109   0.077   2.179   1.171
10737SOL    HW133110   0.083   2.231   1.256
10737SOL    HW233111   0.116   2.088   1.184
10738SOL     OW33112   4.245   0.974   3.040
10738SOL    HW133113   4.331   1.005   3.001
10738SOL    HW233114   4.226   0.880   3.010
10739SOL     OW33115   1.926   2.284   1.765
10739SOL    HW133116   2.002   2.350   1.762
10739SOL    HW233117   1.861   2.312   1.836
10740SOL     OW33118   4.976   4.770   3.550
10740SOL    HW133119   4.990   4.842   3.482
10740SOL    HW233120   4.886   4.782   3.592
10741SOL     OW33121   3.830   0.604   2.536
10741SOL    HW133122   3.927   0.589   2.514
10741SOL    HW233123   3.776   0.597   2.452
10742SOL     OW33124   5.939   5.492   0.930
10742SOL    HW133125   5.941   5.414   0.992
10742SOL    HW233126   6.031   5.510   0.896
10743SOL     OW33127   1.876   1.973   4.171
10743SOL    HW133128   1.879   2.068   4.200
10743SOL    HW233129   1.886   1.913   4.251
10744SOL     OW33130   3.843   2.144   0.990
10744SOL    HW133131   3.790   2.211   1.041
10744SOL    HW233132   3.788   2.061   0.978
10745SOL     OW33133   0.298   5.577   5.957
10745SOL    HW133134   0.273   5.673   5.971
10745SOL    HW233135   0.350   5.544   6.035
10746SOL     OW33136   0.290   4.057   5.287
10746SOL    HW133137   0.252   4.087   5.199
10746SOL    HW233138   0.387   4.082   5.292
10747SOL     OW33139   3.213   1.192   4.605
10747SOL    HW133140   3.269   1.189   4.522
10747SOL    HW233141   3.140   1.259   4.594
10748SOL     OW33142   5.238   1.508   2.199
10748SOL    HW133143   5.231   1.453   2.283
10748SOL    HW233144   5.146   1.524   2.162
10749SOL     OW33145   1.786   0.089   5.473
10749SOL    HW133146   1.863   0.129   5.423
10749SOL    HW233147   1.814   0.071   5.567
10750SOL     OW33148   3.469   0.827   5.779
10750SOL    HW133149   3.438   0.741   5.819
10750SOL    HW233150   3.534   0.808   5.706
10751SOL     OW33151   2.139   4.597   4.079
10751SOL    HW133152   2.222   4.550   4.047
10751SOL    HW233153   2.163   4.687   4.115
10752SOL     OW33154   5.057   4.827   4.318
10752SOL    HW133155   5.039   4.836   4.220
10752SOL    HW233156   4.980   4.863   4.370
10753SOL     OW33157   0.263   3.262   4.053
10753SOL    HW133158   0.215   3.248   4.139
10753SOL    HW233159   0.219   3.337   4.003
10754SOL     OW33160   1.437   0.596   2.558
10754SOL    HW133161   1.469   0.551   2.475
10754SOL    HW233162   1.421   0.527   2.629
10755SOL     OW33163   6.487   6.051   1.983
10755SOL    HW133164   6.396   6.018   2.009
10755SOL    HW233165   6.554   6.020   2.050
10756SOL     OW33166   6.721   6.875   4.878
10756SOL    HW133167   6.640   6.820   4.898
10756SOL    HW233168   6.794   6.816   4.844
10757SOL     OW33169   2.401   3.031   0.902
10757SOL    HW133170   2.343   3.054   0.823
10757SOL    HW233171   2.397   3.106   0.968
10758SOL     OW33172   0.502   5.269   3.908
10758SOL    HW133173   0.459   5.313   3.829
10758SOL    HW233174   0.579   5.324   3.939
10759SOL     OW33175   6.793   2.814   0.233
10759SOL    HW133176   6.713   2.874   0.243
10759SOL    HW233177   6.807   2.793   0.137
10760SOL     OW33178   6.318   0.749   3.368
10760SOL    HW133179   6.335   0.700   3.283
10760SOL    HW233180   6.274   0.837   3.347
10761SOL     OW33181   2.743   5.093   5.436
10761SOL    HW133182   2.716   5.059   5.346
10761SOL    HW233183   2.746   5.018   5.502
10762SOL     OW33184   3.648   0.590   4.357
10762SOL    HW133185   3.728   0.583   4.298
10762SOL    HW233186   3.660   0.532   4.437
10763SOL     OW33187   4.102   0.267   3.462
10763SOL    HW133188   4.037   0.259   3.387
10763SOL    HW233189   4.104   0.361   3.496
10764SOL     OW33190   5.769   0.295   3.748
10764SOL    HW133191   5.722   0.262   3.830
10764SOL    HW233192   5.761   0.394   3.743
10765SOL     OW33193   5.354   3.326   0.988
10765SOL    HW133194   5.374   3.401   1.051
10765SOL    HW233195   5.340   3.363   0.896
10766SOL     OW33196   3.880   3.048   1.620
10766SOL    HW133197   3.946   3.085   1.554
10766SOL    HW233198   3.929   2.999   1.692
10767SOL     OW33199   2.642   1.198   1.808
10767SOL    HW133200   2.586   1.209   1.726
10767SOL    HW233201   2.683   1.286   1.833
10768SOL     OW33202   6.616   5.074   0.377
10768SOL    HW133203   6.567   5.100   0.294
10768SOL    HW233204   6.556   5.018   0.435
10769SOL     OW33205   1.603   3.892   6.014
10769SOL    HW133206   1.678   3.951   5.983
10769SOL    HW233207   1.610   3.879   6.113
10770SOL     OW33208   4.831   6.110   3.253
10770SOL    HW133209   4.741   6.127   3.294
10770SOL    HW233210   4.828   6.131   3.156
10771SOL     OW33211   2.938   0.637   3.300
10771SOL    HW133212   3.028   0.670   3.272
10771SOL    HW233213   2.888   0.711   3.346
10772SOL     OW33214   5.512   5.328   3.565
10772SOL    HW133215   5.601   5.290   3.542
10772SOL    HW233216   5.524   5.411   3.619
10773SOL     OW33217   5.106   4.950   4.063
10773SOL    HW133218   5.155   4.957   3.976
10773SOL    HW233219   5.089   5.041   4.100
10774SOL     OW33220   1.527   1.252   3.649
10774SOL    HW133221   1.444   1.293   3.687
10774SOL    HW233222   1.508   1.218   3.558
10775SOL     OW33223   0.775   4.050   2.041
10775SOL    HW133224   0.715   3.971   2.031
10775SOL    HW233225   0.733   4.116   2.104
10776SOL     OW33226   2.010   0.106   6.934
10776SOL    HW133227   2.075   0.115   6.859
10776SOL    HW233228   1.928   0.058   6.901
10777SOL     OW33229   3.574   6.431   1.827
10777SOL    HW133230   3.654   6.391   1.783
10777SOL    HW233231   3.602   6.513   1.879
10778SOL     OW33232   5.779   6.005   3.327
10778SOL    HW133233   5.830   5.919   3.338
10778SOL    HW233234   5.839   6.082   3.349
10779SOL     OW33235   5.500   2.108   3.222
10779SOL    HW133236   5.572   2.142   3.161
10779SOL    HW233237   5.514   2.146   3.313
10780SOL     OW33238   0.851   1.048   3.035
10780SOL    HW133239   0.917   1.116   3.003
10780SOL    HW233240   0.786   1.027   2.962
10781SOL     OW33241   3.271   0.017   4.053
10781SOL    HW133242   3.349   0.038   3.993
10781SOL    HW233243   3.303   7.023   4.145
10782SOL     OW33244   6.743   5.613   4.260
10782SOL    HW133245   6.799   5.558   4.322
10782SOL    HW233246   6.719   5.699   4.304
10783SOL     OW33247   6.963   2.129   2.961
10783SOL    HW133248   6.910   2.045   2.973
10783SOL    HW233249   6.912   2.193   2.904
10784SOL     OW33250   2.579   1.221   4.274
10784SOL    HW133251   2.529   1.153   4.328
10784SOL    HW233252   2.616   1.177   4.192
10785SOL     OW33253   0.539   4.307   6.810
10785SOL    HW133254   0.561   4.342   6.719
10785SOL    HW233255   0.498   4.380   6.865
10786SOL     OW33256   0.029   5.285   3.359
10786SOL    HW133257   7.022   5.297   3.266
10786SOL    HW233258   0.016   5.190   3.387
10787SOL     OW33259   1.604   2.762   5.751
10787SOL    HW133260   1.684   2.803   5.795
10787SOL    HW233261   1.619   2.664   5.741
10788SOL     OW33262   6.115   3.927   6.397
10788SOL    HW133263   6.186   3.998   6.398
10788SOL    HW233264   6.078   3.916   6.489
10789SOL     OW33265   6.454   1.734   0.020
10789SOL    HW133266   6.369   1.770   0.059
10789SOL    HW233267   6.508   1.691   0.093
10790SOL     OW33268   7.019   0.053   2.661
10790SOL    HW133269   0.059   0.101   2.719
10790SOL    HW233270   7.023   0.091   2.568
10791SOL     OW33271   6.765   6.337   2.508
10791SOL    HW133272   6.743   6.305   2.415
10791SOL    HW233273   6.757   6.436   2.511
10792SOL     OW33274   3.599   4.095   5.051
10792SOL    HW133275   3.615   4.004   5.088
10792SOL    HW233276   3.502   4.117   5.058
10793SOL     OW33277   5.762   3.156   5.053
10793SOL    HW133278   5.809   3.088   5.109
10793SOL    HW233279   5.823   3.233   5.034
10794SOL     OW33280   3.455   3.383   3.773
10794SOL    HW133281   3.359   3.377   3.747
10794SOL    HW233282   3.486   3.478   3.767
10795SOL     OW33283   0.748   4.409   3.318
10795SOL    HW133284   0.734   4.311   3.335
10795SOL    HW233285   0.823   4.421   3.254
10796SOL     OW33286   1.629   5.900   4.999
10796SOL    HW133287   1.716   5.899   4.949
10796SOL    HW233288   1.629   5.975   5.065
10797SOL     OW33289   3.862   2.486   0.642
10797SOL    HW133290   3.936   2.421   0.629
10797SOL    HW233291   3.789   2.467   0.576
10798SOL     OW33292   0.395   2.002   0.554
10798SOL    HW133293   0.418   1.937   0.481
10798SOL    HW233294   0.296   2.016   0.556
10799SOL     OW33295   4.148   1.405   2.184
10799SOL    HW133296   4.152   1.424   2.086
10799SOL    HW233297   4.222   1.454   2.231
10800SOL     OW33298   1.460   6.652   0.875
10800SOL    HW133299   1.450   6.671   0.777
10800SOL    HW233300   1.489   6.735   0.922
10801SOL     OW33301   1.389   0.810   0.868
10801SOL    HW133302   1.436   0.741   0.921
10801SOL    HW233303   1.408   0.796   0.771
10802SOL     OW33304   6.321   0.146   3.590
10802SOL    HW133305   6.267   0.140   3.673
10802SOL    HW233306   6.339   0.243   3.569
10803SOL     OW33307   2.511   5.070   6.349
10803SOL    HW133308   2.458   4.986   6.346
10803SOL    HW233309   2.524   5.105   6.256
10804SOL     OW33310   0.101   3.101   3.845
10804SOL    HW133311   0.147   3.149   3.919
10804SOL    HW233312   0.139   3.008   3.837
10805SOL     OW33313   6.162   1.053   5.045
10805SOL    HW133314   6.191   1.007   4.962
10805SOL    HW233315   6.203   1.008   5.125
10806SOL     OW33316   2.091   4.401   6.654
10806SOL    HW133317   2.093   4.343   6.735
10806SOL    HW233318   2.117   4.495   6.679
10807SOL     OW33319   3.318   6.599   4.487
10807SOL    HW133320   3.362   6.653   4.558
10807SOL    HW233321   3.295   6.658   4.409
10808SOL     OW33322   0.718   2.224   5.988
10808SOL    HW133323   0.748   2.294   5.924
10808SOL    HW233324   0.676   2.268   6.068
10809SOL     OW33325   2.358   5.755   4.492
10809SOL    HW133326   2.315   5.722   4.576
10809SOL    HW233327   2.346   5.854   4.485
10810SOL     OW33328   0.209   0.157   4.217
10810SOL    HW133329   0.308   0.152   4.233
10810SOL    HW233330   0.190   0.132   4.122
10811SOL     OW33331   4.879   4.943   5.159
10811SOL    HW133332   4.788   4.905   5.141
10811SOL    HW233333   4.926   4.957   5.073
10812SOL     OW33334   6.499   2.322   7.012
10812SOL    HW133335   6.503   2.359   6.919
10812SOL    HW233336   6.562   2.372   0.045
10813SOL     OW33337   0.927   4.363   6.243
10813SOL    HW133338   0.851   4.428   6.239
10813SOL    HW233339   0.937   4.318   6.155
10814SOL     OW33340   2.521   0.643   1.225
10814SOL    HW133341   2.528   0.624   1.323
10814SOL    HW233342   2.426   0.662   1.201
10815SOL     OW33343   5.126   1.155   4.630
10815SOL    HW133344   5.202   1.206   4.589
10815SOL    HW233345   5.137   1.057   4.611
10816SOL     OW33346   4.011   3.152   3.559
10816SOL    HW133347   4.085   3.111   3.613
10816SOL    HW233348   4.027   3.134   3.462
10817SOL     OW33349   2.418   6.572   3.447
10817SOL    HW133350   2.441   6.478   3.472
10817SOL    HW233351   2.331   6.598   3.489
10818SOL     OW33352   4.294   5.016   6.133
10818SOL    HW133353   4.284   5.116   6.137
10818SOL    HW233354   4.336   4.985   6.218
10819SOL     OW33355   6.884   5.782   6.235
10819SOL    HW133356   6.821   5.746   6.304
10819SOL    HW233357   6.854   5.754   6.144
10820SOL     OW33358   2.565   4.404   6.155
10820SOL    HW133359   2.629   4.456   6.211
10820SOL    HW233360   2.566   4.308   6.182
10821SOL     OW33361   4.628   5.418   3.001
10821SOL    HW133362   4.649   5.470   2.919
10821SOL    HW233363   4.713   5.391   3.046
10822SOL     OW33364   5.239   2.392   2.131
10822SOL    HW133365   5.260   2.486   2.158
10822SOL    HW233366   5.305   2.362   2.062
10823SOL     OW33367   6.263   6.562   2.647
10823SOL    HW133368   6.221   6.472   2.645
10823SOL    HW233369   6.361   6.554   2.630
10824SOL     OW33370   0.757   2.429   3.848
10824SOL    HW133371   0.806   2.453   3.764
10824SOL    HW233372   0.820   2.437   3.925
10825SOL     OW33373   0.949   2.066   0.267
10825SOL    HW133374   0.850   2.058   0.268
10825SOL    HW233375   0.990   1.980   0.297
10826SOL     OW33376   0.523   3.028   3.033
10826SOL    HW133377   0.491   3.059   3.122
10826SOL    HW233378   0.619   3.054   3.022
10827SOL     OW33379   0.016   3.272   4.703
10827SOL    HW133380   6.945   3.259   4.723
10827SOL    HW233381   0.047   3.198   4.643
10828SOL     OW33382   6.242   4.888   5.421
10828SOL    HW133383   6.327   4.920   5.461
10828SOL    HW233384   6.191   4.966   5.385
10829SOL     OW33385   4.049   3.669   5.469
10829SOL    HW133386   4.038   3.645   5.565
10829SOL    HW233387   3.970   3.723   5.439
10830SOL     OW33388   4.764   1.622   3.800
10830SOL    HW133389   4.684   1.600   3.745
10830SOL    HW233390   4.825   1.543   3.804
10831SOL     OW33391   3.856   1.102   3.169
10831SOL    HW133392   3.816   1.145   3.088
10831SOL    HW233393   3.804   1.130   3.250
10832SOL     OW33394   6.940   3.456   0.628
10832SOL    HW133395   6.842   3.447   0.643
10832SOL    HW233396   6.972   3.382   0.570
10833SOL     OW33397   0.663   1.327   0.239
10833SOL    HW133398   0.587   1.269   0.211
10833SOL    HW233399   0.630   1.400   0.298
10834SOL     OW33400   0.030   6.681   0.899
10834SOL    HW133401   0.124   6.698   0.929
10834SOL    HW233402   7.009   6.768   0.886
10835SOL     OW33403   0.010   2.532   5.973
10835SOL    HW133404   6.945   2.512   5.936
10835SOL    HW233405   0.067   2.451   5.966
10836SOL     OW33406   0.010   1.493   3.974
10836SOL    HW133407   0.006   1.420   4.043
10836SOL    HW233408   0.087   1.477   3.913
10837SOL     OW33409   0.583   3.886   3.197
10837SOL    HW133410   0.666   3.832   3.210
10837SOL    HW233411   0.576   3.915   3.101
10838SOL     OW33412   0.127   5.763   2.798
10838SOL    HW133413   0.106   5.742   2.703
10838SOL    HW233414   0.174   5.685   2.840
10839SOL     OW33415   5.086   2.996   1.161
10839SOL    HW133416   5.093   3.024   1.065
10839SOL    HW233417   5.105   2.898   1.168
10840SOL     OW33418   3.111   0.639   1.260
10840SOL    HW133419   3.026   0.681   1.229
10840SOL    HW233420   3.140   0.681   1.345
10841SOL     OW33421   1.594   5.267   5.490
10841SOL    HW133422   1.537   5.185   5.480
10841SOL    HW233423   1.539   5.348   5.469
10842SOL     OW33424   5.249   4.773   0.433
10842SOL    HW133425   5.243   4.673   0.433
10842SOL    HW233426   5.194   4.810   0.508
10843SOL     OW33427   2.594   2.168   1.577
10843SOL    HW133428   2.630   2.194   1.487
10843SOL    HW233429   2.645   2.215   1.649
10844SOL     OW33430   1.546   5.536   5.395
10844SOL    HW133431   1.447   5.546   5.381
10844SOL    HW233432   1.587   5.627   5.402
10845SOL     OW33433   4.286   6.716   4.608
10845SOL    HW133434   4.291   6.689   4.704
10845SOL    HW233435   4.234   6.648   4.556
10846SOL     OW33436   5.069   0.643   0.155
10846SOL    HW133437   5.017   0.666   0.072
10846SOL    HW233438   5.085   0.544   0.157
10847SOL     OW33439   2.001   1.037   6.807
10847SOL    HW133440   1.903   1.023   6.790
10847SOL    HW233441   2.014   1.118   6.864
10848SOL     OW33442   1.723   4.826   2.147
10848SOL    HW133443   1.796   4.895   2.144
10848SOL    HW233444   1.764   4.735   2.147
10849SOL     OW33445   2.317   6.515   4.361
10849SOL    HW133446   2.321   6.448   4.435
10849SOL    HW233447   2.336   6.606   4.399
10850SOL     OW33448   3.408   5.367   0.174
10850SOL    HW133449   3.500   5.403   0.189
10850SOL    HW233450   3.361   5.359   0.262
10851SOL     OW33451   2.052   5.556   0.836
10851SOL    HW133452   2.047   5.469   0.787
10851SOL    HW233453   2.032   5.631   0.773
10852SOL     OW33454   2.123   1.666   1.649
10852SOL    HW133455   2.023   1.668   1.647
10852SOL    HW233456   2.154   1.612   1.727
10853SOL     OW33457   2.843   2.065   6.069
10853SOL    HW133458   2.761   2.050   6.124
10853SOL    HW233459   2.843   2.159   6.033
10854SOL     OW33460   3.897   6.329   5.717
10854SOL    HW133461   3.865   6.242   5.680
10854SOL    HW233462   3.826   6.370   5.773
10855SOL     OW33463   3.445   1.568   0.009
10855SOL    HW133464   3.415   1.479   7.000
10855SOL    HW233465   3.455   1.632   6.958
10856SOL     OW33466   0.123   0.937   0.402
10856SOL    HW133467   0.186   0.861   0.421
10856SOL    HW233468   0.032   0.916   0.437
10857SOL     OW33469   6.863   2.143   2.592
10857SOL    HW133470   6.807   2.093   2.658
10857SOL    HW233471   6.829   2.125   2.499
10858SOL     OW33472   2.256   6.114   1.767
10858SOL    HW133473   2.322   6.110   1.692
10858SOL    HW233474   2.231   6.021   1.794
10859SOL     OW33475   1.632   5.682   3.544
10859SOL    HW133476   1.689   5.728   3.611
10859SOL    HW233477   1.547   5.652   3.587
10860SOL     OW33478   0.119   2.639   3.673
10860SOL    HW133479   0.129   2.555   3.727
10860SOL    HW233480   0.120   2.616   3.576
10861SOL     OW33481   3.909   3.441   4.694
10861SOL    HW133482   3.837   3.510   4.691
10861SOL    HW233483   3.922   3.410   4.788
10862SOL     OW33484   1.414   0.815   4.650
10862SOL    HW133485   1.374   0.749   4.714
10862SOL    HW233486   1.363   0.814   4.564
10863SOL     OW33487   3.333   5.803   4.391
10863SOL    HW133488   3.345   5.886   4.337
10863SOL    HW233489   3.265   5.820   4.463
10864SOL     OW33490   3.216   5.830   3.052
10864SOL    HW133491   3.198   5.814   2.956
10864SOL    HW233492   3.163   5.766   3.108
10865SOL     OW33493   6.136   2.118   6.239
10865SOL    HW133494   6.075   2.110   6.317
10865SOL    HW233495   6.170   2.212   6.233
10866SOL     OW33496   5.482   5.088   0.783
10866SOL    HW133497   5.526   5.171   0.749
10866SOL    HW233498   5.469   5.024   0.707
10867SOL     OW33499   3.515   1.995   0.243
10867SOL    HW133500   3.436   1.943   0.274
10867SOL    HW233501   3.586   1.932   0.211
10868SOL     OW33502   2.783   2.269   2.566
10868SOL    HW133503   2.805   2.235   2.474
10868SOL    HW233504   2.799   2.196   2.632
10869NA      NA33505   6.372   2.148   5.909
10870NA      NA33506   4.338   4.555   5.313
10871NA      NA33507   2.510   3.671   1.562
10872NA      NA33508   4.788   3.809   5.211
10873NA      NA33509   4.097   2.445   5.338
10874NA      NA33510   3.666   4.782   1.656
10875NA      NA33511   6.440   5.926   5.162
10876NA      NA33512   3.687   4.102   4.804
10877NA      NA33513   4.503   6.821   0.041
10878NA      NA33514   4.052   6.947   4.990
10879NA      NA33515   6.977   5.016   2.780
10880NA      NA33516   2.677   0.346   2.793
10881NA      NA33517   3.579   4.298   1.060
10882NA      NA33518   3.414   3.485   3.078
   7.02611   7.02611   7.02611
