Generated by trjconv : CNT in water t= 176.00000
33518
    1C        C    1   2.846   2.771   4.749
    1C        C    2   2.898   2.722   4.871
    1C        C    3   2.841   2.770   4.989
    1C        C    4   2.852   2.774   4.261
    1C        C    5   2.904   2.726   4.383
    1C        C    6   2.850   2.773   4.505
    1C        C    7   3.013   2.638   4.630
    1C        C    8   2.899   2.722   4.628
    1C        C    9   3.078   2.601   4.750
    1C        C   10   3.010   2.635   4.869
    1C        C   11   3.187   2.500   4.983
    1C        C   12   3.064   2.569   4.979
    1C        C   13   2.852   2.772   3.773
    1C        C   14   2.901   2.722   3.895
    1C        C   15   2.847   2.771   4.016
    1C        C   16   3.020   2.646   4.139
    1C        C   17   2.904   2.727   4.138
    1C        C   18   3.081   2.612   4.262
    1C        C   19   3.019   2.645   4.385
    1C        C   20   3.211   2.560   4.506
    1C        C   21   3.077   2.606   4.508
    1C        C   22   3.280   2.535   4.626
    1C        C   23   3.210   2.548   4.748
    1C        C   24   3.415   2.492   4.869
    1C        C   25   3.273   2.508   4.868
    1C        C   26   3.491   2.475   4.986
    1C        C   27   2.848   2.767   3.288
    1C        C   28   2.907   2.725   3.409
    1C        C   29   2.854   2.773   3.531
    1C        C   30   3.017   2.636   3.651
    1C        C   31   2.907   2.724   3.652
    1C        C   32   3.076   2.598   3.773
    1C        C   33   3.013   2.635   3.894
    1C        C   34   3.208   2.554   4.020
    1C        C   35   3.077   2.607   4.017
    1C        C   36   3.279   2.535   4.141
    1C        C   37   3.210   2.557   4.263
    1C        C   38   3.416   2.503   4.386
    1C        C   39   3.279   2.535   4.384
    1C        C   40   3.487   2.500   4.508
    1C        C   41   3.419   2.507   4.631
    1C        C   42   3.635   2.482   4.749
    1C        C   43   3.492   2.489   4.750
    1C        C   44   3.710   2.488   4.868
    1C        C   45   3.630   2.484   4.983
    1C        C   46   2.840   2.754   2.800
    1C        C   47   2.891   2.704   2.922
    1C        C   48   2.841   2.759   3.042
    1C        C   49   3.012   2.636   3.166
    1C        C   50   2.898   2.719   3.165
    1C        C   51   3.076   2.598   3.286
    1C        C   52   3.019   2.638   3.409
    1C        C   53   3.212   2.549   3.530
    1C        C   54   3.081   2.601   3.530
    1C        C   55   3.277   2.527   3.654
    1C        C   56   3.208   2.547   3.776
    1C        C   57   3.416   2.508   3.900
    1C        C   58   3.276   2.532   3.899
    1C        C   59   3.487   2.499   4.021
    1C        C   60   3.417   2.505   4.144
    1C        C   61   3.630   2.496   4.264
    1C        C   62   3.488   2.492   4.265
    1C        C   63   3.700   2.509   4.386
    1C        C   64   3.628   2.504   4.508
    1C        C   65   3.837   2.552   4.623
    1C        C   66   3.704   2.504   4.628
    1C        C   67   3.908   2.572   4.744
    1C        C   68   3.843   2.534   4.864
    1C        C   69   4.056   2.593   4.980
    1C        C   70   3.926   2.540   4.977
    1C        C   71   2.827   2.737   2.311
    1C        C   72   2.885   2.696   2.433
    1C        C   73   2.835   2.745   2.555
    1C        C   74   3.008   2.624   2.679
    1C        C   75   2.891   2.703   2.678
    1C        C   76   3.073   2.595   2.800
    1C        C   77   3.011   2.630   2.923
    1C        C   78   3.203   2.539   3.042
    1C        C   79   3.076   2.601   3.045
    1C        C   80   3.274   2.524   3.163
    1C        C   81   3.208   2.546   3.286
    1C        C   82   3.416   2.501   3.407
    1C        C   83   3.276   2.524   3.407
    1C        C   84   3.486   2.498   3.530
    1C        C   85   3.417   2.507   3.653
    1C        C   86   3.626   2.505   3.774
    1C        C   87   3.485   2.499   3.777
    1C        C   88   3.696   2.515   3.896
    1C        C   89   3.629   2.502   4.019
    1C        C   90   3.833   2.553   4.141
    1C        C   91   3.699   2.507   4.142
    1C        C   92   3.904   2.573   4.261
    1C        C   93   3.836   2.545   4.382
    1C        C   94   4.027   2.647   4.500
    1C        C   95   3.904   2.577   4.502
    1C        C   96   4.091   2.682   4.621
    1C        C   97   4.036   2.632   4.741
    1C        C   98   4.195   2.769   4.867
    1C        C   99   4.107   2.657   4.862
    1C        C  100   4.221   2.844   4.983
    1C        C  101   2.829   2.733   2.073
    1C        C  102   2.994   2.595   2.194
    1C        C  103   2.878   2.678   2.192
    1C        C  104   3.064   2.574   2.316
    1C        C  105   3.004   2.620   2.435
    1C        C  106   3.201   2.535   2.556
    1C        C  107   3.070   2.590   2.557
    1C        C  108   3.271   2.524   2.678
    1C        C  109   3.206   2.548   2.802
    1C        C  110   3.413   2.497   2.919
    1C        C  111   3.273   2.515   2.922
    1C        C  112   3.484   2.492   3.041
    1C        C  113   3.414   2.503   3.163
    1C        C  114   3.626   2.505   3.285
    1C        C  115   3.486   2.494   3.285
    1C        C  116   3.696   2.511   3.408
    1C        C  117   3.627   2.498   3.531
    1C        C  118   3.834   2.547   3.652
    1C        C  119   3.698   2.508   3.652
    1C        C  120   3.899   2.576   3.774
    1C        C  121   3.832   2.552   3.896
    1C        C  122   4.020   2.650   4.016
    1C        C  123   3.899   2.576   4.018
    1C        C  124   4.084   2.686   4.136
    1C        C  125   4.026   2.643   4.257
    1C        C  126   4.196   2.775   4.379
    1C        C  127   4.084   2.689   4.378
    1C        C  128   4.242   2.828   4.502
    1C        C  129   4.197   2.775   4.624
    1C        C  130   4.332   2.938   4.745
    1C        C  131   4.250   2.822   4.747
    1C        C  132   4.363   3.007   4.864
    1C        C  133   4.296   2.960   4.977
    1C        C  134   3.174   2.466   2.086
    1C        C  135   3.041   2.509   2.090
    1C        C  136   3.260   2.478   2.196
    1C        C  137   3.196   2.519   2.314
    1C        C  138   3.406   2.482   2.432
    1C        C  139   3.267   2.506   2.435
    1C        C  140   3.481   2.483   2.553
    1C        C  141   3.410   2.500   2.674
    1C        C  142   3.622   2.494   2.796
    1C        C  143   3.481   2.491   2.795
    1C        C  144   3.692   2.511   2.917
    1C        C  145   3.625   2.502   3.041
    1C        C  146   3.834   2.544   3.160
    1C        C  147   3.697   2.512   3.163
    1C        C  148   3.901   2.566   3.283
    1C        C  149   3.832   2.547   3.405
    1C        C  150   4.025   2.631   3.525
    1C        C  151   3.899   2.568   3.528
    1C        C  152   4.081   2.676   3.647
    1C        C  153   4.026   2.639   3.772
    1C        C  154   4.195   2.769   3.892
    1C        C  155   4.080   2.686   3.894
    1C        C  156   4.249   2.818   4.013
    1C        C  157   4.199   2.768   4.135
    1C        C  158   4.344   2.924   4.253
    1C        C  159   4.254   2.815   4.257
    1C        C  160   4.377   2.988   4.375
    1C        C  161   4.335   2.935   4.499
    1C        C  162   4.442   3.118   4.618
    1C        C  163   4.373   2.995   4.622
    1C        C  164   4.477   3.184   4.738
    1C        C  165   4.446   3.122   4.861
    1C        C  166   4.520   3.322   4.975
    1C        C  167   4.487   3.187   4.978
    1C        C  168   3.478   2.434   2.077
    1C        C  169   3.400   2.461   2.191
    1C        C  170   3.617   2.473   2.312
    1C        C  171   3.475   2.464   2.310
    1C        C  172   3.692   2.494   2.430
    1C        C  173   3.622   2.488   2.552
    1C        C  174   3.829   2.541   2.671
    1C        C  175   3.692   2.505   2.673
    1C        C  176   3.895   2.572   2.791
    1C        C  177   3.828   2.548   2.914
    1C        C  178   4.024   2.629   3.036
    1C        C  179   3.896   2.568   3.036
    1C        C  180   4.086   2.668   3.157
    1C        C  181   4.025   2.633   3.279
    1C        C  182   4.195   2.757   3.403
    1C        C  183   4.084   2.669   3.403
    1C        C  184   4.243   2.812   3.524
    1C        C  185   4.189   2.767   3.647
    1C        C  186   4.338   2.921   3.766
    1C        C  187   4.243   2.816   3.768
    1C        C  188   4.386   2.978   3.885
    1C        C  189   4.344   2.923   4.008
    1C        C  190   4.452   3.105   4.131
    1C        C  191   4.386   2.979   4.131
    1C        C  192   4.470   3.174   4.252
    1C        C  193   4.440   3.114   4.377
    1C        C  194   4.511   3.318   4.492
    1C        C  195   4.469   3.183   4.496
    1C        C  196   4.521   3.390   4.614
    1C        C  197   4.515   3.321   4.737
    1C        C  198   4.555   3.536   4.854
    1C        C  199   4.539   3.394   4.856
    1C        C  200   4.586   3.622   4.964
    1C        C  201   3.617   2.424   2.073
    1C        C  202   3.823   2.517   2.186
    1C        C  203   3.688   2.469   2.189
    1C        C  204   3.897   2.549   2.304
    1C        C  205   3.830   2.523   2.426
    1C        C  206   4.024   2.616   2.545
    1C        C  207   3.896   2.556   2.547
    1C        C  208   4.086   2.656   2.665
    1C        C  209   4.023   2.632   2.790
    1C        C  210   4.191   2.757   2.910
    1C        C  211   4.081   2.670   2.913
    1C        C  212   4.248   2.802   3.031
    1C        C  213   4.196   2.757   3.155
    1C        C  214   4.337   2.910   3.275
    1C        C  215   4.245   2.803   3.280
    1C        C  216   4.374   2.975   3.395
    1C        C  217   4.333   2.921   3.519
    1C        C  218   4.440   3.102   3.639
    1C        C  219   4.377   2.976   3.642
    1C        C  220   4.473   3.168   3.760
    1C        C  221   4.450   3.104   3.885
    1C        C  222   4.512   3.306   4.008
    1C        C  223   4.477   3.169   4.008
    1C        C  224   4.525   3.379   4.127
    1C        C  225   4.509   3.310   4.249
    1C        C  226   4.528   3.525   4.367
    1C        C  227   4.526   3.384   4.368
    1C        C  228   4.525   3.600   4.487
    1C        C  229   4.531   3.531   4.610
    1C        C  230   4.500   3.743   4.732
    1C        C  231   4.534   3.605   4.731
    1C        C  232   4.499   3.822   4.849
    1C        C  233   4.546   3.756   4.963
    1C        C  234   4.021   2.610   2.067
    1C        C  235   3.898   2.545   2.071
    1C        C  236   4.089   2.649   2.183
    1C        C  237   4.023   2.615   2.303
    1C        C  238   4.199   2.739   2.424
    1C        C  239   4.085   2.654   2.424
    1C        C  240   4.256   2.786   2.544
    1C        C  241   4.198   2.742   2.665
    1C        C  242   4.340   2.902   2.787
    1C        C  243   4.250   2.793   2.787
    1C        C  244   4.376   2.966   2.908
    1C        C  245   4.337   2.912   3.032
    1C        C  246   4.438   3.097   3.150
    1C        C  247   4.379   2.969   3.154
    1C        C  248   4.456   3.166   3.272
    1C        C  249   4.431   3.104   3.397
    1C        C  250   4.501   3.306   3.516
    1C        C  251   4.460   3.171   3.517
    1C        C  252   4.519   3.373   3.639
    1C        C  253   4.512   3.303   3.762
    1C        C  254   4.533   3.514   3.883
    1C        C  255   4.524   3.373   3.884
    1C        C  256   4.524   3.589   4.003
    1C        C  257   4.531   3.521   4.126
    1C        C  258   4.495   3.734   4.242
    1C        C  259   4.526   3.597   4.245
    1C        C  260   4.474   3.803   4.364
    1C        C  261   4.495   3.738   4.488
    1C        C  262   4.420   3.938   4.604
    1C        C  263   4.471   3.806   4.609
    1C        C  264   4.399   4.011   4.722
    1C        C  265   4.436   3.948   4.843
    1C        C  266   4.321   4.130   4.959
    1C        C  267   4.396   4.013   4.960
    1C        C  268   4.264   2.779   2.066
    1C        C  269   4.201   2.734   2.183
    1C        C  270   4.349   2.893   2.304
    1C        C  271   4.256   2.785   2.303
    1C        C  272   4.385   2.956   2.424
    1C        C  273   4.346   2.895   2.545
    1C        C  274   4.450   3.084   2.663
    1C        C  275   4.385   2.958   2.665
    1C        C  276   4.476   3.154   2.783
    1C        C  277   4.443   3.091   2.905
    1C        C  278   4.512   3.293   3.026
    1C        C  279   4.471   3.157   3.026
    1C        C  280   4.517   3.365   3.147
    1C        C  281   4.502   3.299   3.271
    1C        C  282   4.529   3.513   3.391
    1C        C  283   4.518   3.372   3.392
    1C        C  284   4.520   3.581   3.514
    1C        C  285   4.521   3.514   3.639
    1C        C  286   4.502   3.724   3.757
    1C        C  287   4.525   3.585   3.761
    1C        C  288   4.479   3.796   3.876
    1C        C  289   4.496   3.727   3.999
    1C        C  290   4.433   3.934   4.119
    1C        C  291   4.481   3.801   4.118
    1C        C  292   4.395   3.997   4.239
    1C        C  293   4.419   3.933   4.363
    1C        C  294   4.322   4.127   4.479
    1C        C  295   4.389   4.003   4.482
    1C        C  296   4.286   4.192   4.600
    1C        C  297   4.327   4.134   4.722
    1C        C  298   4.197   4.311   4.840
    1C        C  299   4.282   4.196   4.841
    1C        C  300   4.174   4.403   4.947
    1C        C  301   4.353   2.885   2.069
    1C        C  302   4.480   3.069   2.182
    1C        C  303   4.401   2.949   2.184
    1C        C  304   4.492   3.144   2.302
    1C        C  305   4.452   3.081   2.422
    1C        C  306   4.513   3.288   2.538
    1C        C  307   4.479   3.151   2.542
    1C        C  308   4.518   3.360   2.659
    1C        C  309   4.505   3.292   2.782
    1C        C  310   4.533   3.503   2.902
    1C        C  311   4.525   3.362   2.903
    1C        C  312   4.525   3.575   3.024
    1C        C  313   4.524   3.506   3.147
    1C        C  314   4.491   3.718   3.267
    1C        C  315   4.521   3.580   3.267
    1C        C  316   4.479   3.787   3.390
    1C        C  317   4.500   3.721   3.513
    1C        C  318   4.431   3.923   3.631
    1C        C  319   4.484   3.792   3.634
    1C        C  320   4.395   3.987   3.752
    1C        C  321   4.426   3.927   3.876
    1C        C  322   4.319   4.112   3.993
    1C        C  323   4.398   3.995   3.997
    1C        C  324   4.274   4.170   4.114
    1C        C  325   4.320   4.116   4.236
    1C        C  326   4.184   4.284   4.355
    1C        C  327   4.282   4.182   4.355
    1C        C  328   4.135   4.340   4.475
    1C        C  329   4.191   4.297   4.597
    1C        C  330   4.024   4.434   4.717
    1C        C  331   4.139   4.351   4.716
    1C        C  332   3.971   4.492   4.835
    1C        C  333   4.056   4.477   4.945
    1C        C  334   4.563   3.269   2.066
    1C        C  335   4.533   3.132   2.066
    1C        C  336   4.549   3.353   2.178
    1C        C  337   4.528   3.281   2.297
    1C        C  338   4.523   3.499   2.412
    1C        C  339   4.524   3.358   2.416
    1C        C  340   4.523   3.569   2.535
    1C        C  341   4.530   3.501   2.658
    1C        C  342   4.492   3.710   2.775
    1C        C  343   4.523   3.573   2.780
    1C        C  344   4.471   3.779   2.896
    1C        C  345   4.494   3.713   3.019
    1C        C  346   4.424   3.912   3.141
    1C        C  347   4.477   3.781   3.141
    1C        C  348   4.391   3.976   3.263
    1C        C  349   4.428   3.919   3.386
    1C        C  350   4.317   4.099   3.506
    1C        C  351   4.400   3.985   3.508
    1C        C  352   4.272   4.158   3.627
    1C        C  353   4.319   4.106   3.749
    1C        C  354   4.177   4.267   3.868
    1C        C  355   4.274   4.164   3.869
    1C        C  356   4.123   4.319   3.988
    1C        C  357   4.176   4.272   4.111
    1C        C  358   4.011   4.405   4.230
    1C        C  359   4.125   4.321   4.233
    1C        C  360   3.954   4.449   4.352
    1C        C  361   4.019   4.421   4.473
    1C        C  362   3.830   4.517   4.594
    1C        C  363   3.960   4.463   4.595
    1C        C  364   3.763   4.550   4.714
    1C        C  365   3.840   4.545   4.832
    1C        C  366   3.629   4.600   4.951
    1C        C  367   3.766   4.576   4.948
    1C        C  368   4.505   3.566   2.055
    1C        C  369   4.523   3.492   2.172
    1C        C  370   4.498   3.709   2.290
    1C        C  371   4.520   3.570   2.290
    1C        C  372   4.485   3.779   2.412
    1C        C  373   4.507   3.710   2.533
    1C        C  374   4.421   3.909   2.651
    1C        C  375   4.480   3.780   2.652
    1C        C  376   4.392   3.975   2.773
    1C        C  377   4.426   3.913   2.895
    1C        C  378   4.324   4.097   3.015
    1C        C  379   4.395   3.975   3.018
    1C        C  380   4.275   4.152   3.136
    1C        C  381   4.317   4.097   3.259
    1C        C  382   4.181   4.258   3.380
    1C        C  383   4.275   4.152   3.382
    1C        C  384   4.128   4.310   3.501
    1C        C  385   4.177   4.262   3.625
    1C        C  386   4.009   4.395   3.742
    1C        C  387   4.124   4.313   3.746
    1C        C  388   3.947   4.433   3.864
    1C        C  389   4.007   4.400   3.987
    1C        C  390   3.820   4.499   4.111
    1C        C  391   3.948   4.440   4.109
    1C        C  392   3.751   4.523   4.232
    1C        C  393   3.824   4.506   4.352
    1C        C  394   3.619   4.559   4.476
    1C        C  395   3.758   4.532   4.474
    1C        C  396   3.547   4.570   4.597
    1C        C  397   3.623   4.570   4.716
    1C        C  398   3.413   4.553   4.840
    1C        C  399   3.550   4.586   4.836
    1C        C  400   3.345   4.512   4.955
    1C        C  401   4.501   3.705   2.052
    1C        C  402   4.449   3.917   2.168
    1C        C  403   4.486   3.781   2.169
    1C        C  404   4.413   3.979   2.289
    1C        C  405   4.431   3.909   2.411
    1C        C  406   4.324   4.097   2.530
    1C        C  407   4.401   3.979   2.530
    1C        C  408   4.276   4.152   2.651
    1C        C  409   4.311   4.091   2.773
    1C        C  410   4.174   4.251   2.892
    1C        C  411   4.275   4.152   2.895
    1C        C  412   4.121   4.295   3.016
    1C        C  413   4.176   4.253   3.139
    1C        C  414   4.009   4.385   3.259
    1C        C  415   4.126   4.306   3.259
    1C        C  416   3.946   4.419   3.381
    1C        C  417   4.009   4.385   3.503
    1C        C  418   3.815   4.483   3.623
    1C        C  419   3.946   4.431   3.621
    1C        C  420   3.747   4.511   3.743
    1C        C  421   3.817   4.488   3.864
    1C        C  422   3.614   4.542   3.989
    1C        C  423   3.752   4.512   3.987
    1C        C  424   3.543   4.552   4.110
    1C        C  425   3.613   4.549   4.233
    1C        C  426   3.404   4.546   4.359
    1C        C  427   3.545   4.562   4.356
    1C        C  428   3.335   4.549   4.481
    1C        C  429   3.406   4.562   4.602
    1C        C  430   3.196   4.517   4.726
    1C        C  431   3.334   4.549   4.723
    1C        C  432   3.126   4.498   4.848
    1C        C  433   3.206   4.501   4.963
    1C        C  434   4.383   4.126   2.053
    1C        C  435   4.445   4.000   2.055
    1C        C  436   4.305   4.167   2.166
    1C        C  437   4.340   4.102   2.288
    1C        C  438   4.187   4.254   2.406
    1C        C  439   4.291   4.159   2.407
    1C        C  440   4.128   4.301   2.526
    1C        C  441   4.178   4.254   2.650
    1C        C  442   4.005   4.380   2.769
    1C        C  443   4.122   4.301   2.770
    1C        C  444   3.946   4.415   2.893
    1C        C  445   4.005   4.376   3.015
    1C        C  446   3.819   4.479   3.135
    1C        C  447   3.945   4.414   3.137
    1C        C  448   3.750   4.498   3.257
    1C        C  449   3.817   4.478   3.379
    1C        C  450   3.610   4.532   3.501
    1C        C  451   3.748   4.504   3.500
    1C        C  452   3.540   4.550   3.622
    1C        C  453   3.610   4.546   3.745
    1C        C  454   3.401   4.550   3.867
    1C        C  455   3.542   4.555   3.868
    1C        C  456   3.332   4.540   3.990
    1C        C  457   3.402   4.543   4.112
    1C        C  458   3.197   4.508   4.239
    1C        C  459   3.334   4.542   4.236
    1C        C  460   3.130   4.489   4.362
    1C        C  461   3.197   4.515   4.483
    1C        C  462   2.999   4.434   4.605
    1C        C  463   3.128   4.493   4.604
    1C        C  464   2.934   4.404   4.726
    1C        C  465   2.990   4.454   4.847
    1C        C  466   2.805   4.343   4.959
    1C        C  467   2.906   4.439   4.963
    1C        C  468   4.126   4.291   2.048
    1C        C  469   4.190   4.252   2.166
    1C        C  470   4.008   4.374   2.283
    1C        C  471   4.128   4.298   2.285
    1C        C  472   3.945   4.409   2.404
    1C        C  473   4.010   4.379   2.526
    1C        C  474   3.817   4.473   2.648
    1C        C  475   3.945   4.414   2.646
    1C        C  476   3.748   4.495   2.770
    1C        C  477   3.816   4.471   2.892
    1C        C  478   3.612   4.530   3.012
    1C        C  479   3.750   4.500   3.013
    1C        C  480   3.542   4.544   3.134
    1C        C  481   3.613   4.530   3.256
    1C        C  482   3.400   4.535   3.378
    1C        C  483   3.541   4.534   3.377
    1C        C  484   3.328   4.533   3.500
    1C        C  485   3.399   4.543   3.622
    1C        C  486   3.192   4.503   3.747
    1C        C  487   3.329   4.537   3.745
    1C        C  488   3.129   4.481   3.871
    1C        C  489   3.196   4.502   3.994
    1C        C  490   3.004   4.417   4.120
    1C        C  491   3.132   4.478   4.118
    1C        C  492   2.944   4.385   4.243
    1C        C  493   3.003   4.427   4.365
    1C        C  494   2.828   4.302   4.486
    1C        C  495   2.938   4.391   4.485
    1C        C  496   2.773   4.259   4.608
    1C        C  497   2.822   4.316   4.727
    1C        C  498   2.664   4.169   4.845
    1C        C  499   2.759   4.273   4.846
    1C        C  500   2.601   4.119   4.961
    1C        C  501   4.006   4.360   2.044
    1C        C  502   3.815   4.465   2.161
    1C        C  503   3.943   4.405   2.161
    1C        C  504   3.747   4.489   2.282
    1C        C  505   3.814   4.462   2.404
    1C        C  506   3.610   4.522   2.524
    1C        C  507   3.746   4.484   2.526
    1C        C  508   3.540   4.524   2.646
    1C        C  509   3.610   4.523   2.768
    1C        C  510   3.399   4.528   2.887
    1C        C  511   3.540   4.532   2.891
    1C        C  512   3.329   4.523   3.010
    1C        C  513   3.401   4.533   3.131
    1C        C  514   3.195   4.492   3.257
    1C        C  515   3.332   4.527   3.254
    1C        C  516   3.126   4.473   3.379
    1C        C  517   3.190   4.504   3.501
    1C        C  518   3.002   4.412   3.628
    1C        C  519   3.125   4.481   3.624
    1C        C  520   2.945   4.373   3.751
    1C        C  521   3.005   4.414   3.872
    1C        C  522   2.845   4.281   3.996
    1C        C  523   2.949   4.377   3.996
    1C        C  524   2.796   4.234   4.120
    1C        C  525   2.835   4.295   4.242
    1C        C  526   2.692   4.140   4.364
    1C        C  527   2.780   4.250   4.363
    1C        C  528   2.652   4.081   4.487
    1C        C  529   2.688   4.146   4.607
    1C        C  530   2.581   3.964   4.733
    1C        C  531   2.633   4.097   4.728
    1C        C  532   2.541   3.904   4.855
    1C        C  533   2.528   4.000   4.960
    1C        C  534   3.620   4.564   2.040
    1C        C  535   3.749   4.510   2.046
    1C        C  536   3.542   4.546   2.158
    1C        C  537   3.609   4.524   2.281
    1C        C  538   3.397   4.529   2.398
    1C        C  539   3.538   4.533   2.403
    1C        C  540   3.327   4.518   2.520
    1C        C  541   3.398   4.523   2.642
    1C        C  542   3.192   4.483   2.768
    1C        C  543   3.329   4.517   2.765
    1C        C  544   3.124   4.466   2.891
    1C        C  545   3.192   4.490   3.013
    1C        C  546   3.001   4.404   3.137
    1C        C  547   3.126   4.469   3.136
    1C        C  548   2.945   4.366   3.261
    1C        C  549   3.000   4.409   3.384
    1C        C  550   2.833   4.283   3.507
    1C        C  551   2.939   4.376   3.507
    1C        C  552   2.785   4.234   3.630
    1C        C  553   2.834   4.285   3.752
    1C        C  554   2.705   4.120   3.875
    1C        C  555   2.789   4.233   3.876
    1C        C  556   2.661   4.067   3.999
    1C        C  557   2.702   4.129   4.119
    1C        C  558   2.599   3.948   4.249
    1C        C  559   2.659   4.076   4.243
    1C        C  560   2.567   3.883   4.370
    1C        C  561   2.590   3.955   4.490
    1C        C  562   2.530   3.754   4.618
    1C        C  563   2.565   3.891   4.613
    1C        C  564   2.513   3.683   4.739
    1C        C  565   2.519   3.762   4.857
    1C        C  566   2.534   3.550   4.980
    1C        C  567   2.519   3.689   4.977
    1C        C  568   3.329   4.481   2.042
    1C        C  569   3.402   4.518   2.156
    1C        C  570   3.190   4.475   2.282
    1C        C  571   3.327   4.512   2.276
    1C        C  572   3.121   4.456   2.404
    1C        C  573   3.190   4.485   2.524
    1C        C  574   2.992   4.410   2.650
    1C        C  575   3.122   4.466   2.646
    1C        C  576   2.934   4.368   2.771
    1C        C  577   2.994   4.410   2.892
    1C        C  578   2.828   4.282   3.018
    1C        C  579   2.935   4.374   3.015
    1C        C  580   2.780   4.231   3.141
    1C        C  581   2.835   4.277   3.263
    1C        C  582   2.697   4.118   3.385
    1C        C  583   2.784   4.229   3.386
    1C        C  584   2.658   4.065   3.511
    1C        C  585   2.693   4.126   3.633
    1C        C  586   2.593   3.937   3.756
    1C        C  587   2.660   4.062   3.755
    1C        C  588   2.570   3.875   3.880
    1C        C  589   2.596   3.942   4.002
    1C        C  590   2.542   3.743   4.128
    1C        C  591   2.577   3.879   4.127
    1C        C  592   2.528   3.676   4.252
    1C        C  593   2.532   3.746   4.374
    1C        C  594   2.511   3.540   4.499
    1C        C  595   2.514   3.682   4.498
    1C        C  596   2.519   3.467   4.620
    1C        C  597   2.517   3.541   4.740
    1C        C  598   2.542   3.333   4.863
    1C        C  599   2.528   3.473   4.863
    1C        C  600   2.534   3.255   4.979
    1C        C  601   3.198   4.439   2.046
    1C        C  602   2.985   4.397   2.164
    1C        C  603   3.119   4.447   2.162
    1C        C  604   2.929   4.360   2.289
    1C        C  605   2.993   4.398   2.410
    1C        C  606   2.818   4.278   2.529
    1C        C  607   2.928   4.368   2.532
    1C        C  608   2.776   4.224   2.653
    1C        C  609   2.826   4.277   2.774
    1C        C  610   2.692   4.116   2.897
    1C        C  611   2.779   4.227   2.898
    1C        C  612   2.655   4.059   3.021
    1C        C  613   2.694   4.120   3.142
    1C        C  614   2.594   3.932   3.266
    1C        C  615   2.655   4.060   3.264
    1C        C  616   2.567   3.870   3.390
    1C        C  617   2.595   3.939   3.511
    1C        C  618   2.532   3.736   3.639
    1C        C  619   2.570   3.872   3.633
    1C        C  620   2.521   3.668   3.763
    1C        C  621   2.536   3.738   3.885
    1C        C  622   2.515   3.529   4.012
    1C        C  623   2.528   3.669   4.008
    1C        C  624   2.519   3.461   4.136
    1C        C  625   2.519   3.535   4.256
    1C        C  626   2.547   3.328   4.382
    1C        C  627   2.517   3.466   4.379
    1C        C  628   2.560   3.256   4.503
    1C        C  629   2.541   3.327   4.623
    1C        C  630   2.598   3.122   4.745
    1C        C  631   2.551   3.256   4.745
    1C        C  632   2.618   3.051   4.866
    1C        C  633   2.567   3.119   4.982
    1C        C  634   2.791   4.308   2.057
    1C        C  635   2.898   4.398   2.051
    1C        C  636   2.752   4.233   2.169
    1C        C  637   2.814   4.277   2.289
    1C        C  638   2.677   4.115   2.411
    1C        C  639   2.761   4.229   2.410
    1C        C  640   2.651   4.051   2.534
    1C        C  641   2.694   4.109   2.656
    1C        C  642   2.589   3.925   2.779
    1C        C  643   2.653   4.051   2.778
    1C        C  644   2.569   3.860   2.902
    1C        C  645   2.596   3.930   3.021
    1C        C  646   2.529   3.729   3.148
    1C        C  647   2.572   3.864   3.144
    1C        C  648   2.516   3.662   3.272
    1C        C  649   2.533   3.733   3.393
    1C        C  650   2.515   3.525   3.520
    1C        C  651   2.521   3.666   3.517
    1C        C  652   2.518   3.457   3.644
    1C        C  653   2.516   3.527   3.766
    1C        C  654   2.541   3.320   3.894
    1C        C  655   2.515   3.458   3.889
    1C        C  656   2.560   3.254   4.018
    1C        C  657   2.545   3.322   4.140
    1C        C  658   2.611   3.122   4.261
    1C        C  659   2.558   3.253   4.263
    1C        C  660   2.645   3.060   4.384
    1C        C  661   2.609   3.123   4.505
    1C        C  662   2.716   2.938   4.628
    1C        C  663   2.639   3.057   4.626
    1C        C  664   2.759   2.883   4.751
    1C        C  665   2.698   2.932   4.870
    1C        C  666   2.738   2.864   4.985
    1C        C  667   2.685   4.028   2.055
    1C        C  668   2.683   4.111   2.169
    1C        C  669   2.591   3.918   2.295
    1C        C  670   2.645   4.049   2.290
    1C        C  671   2.565   3.851   2.417
    1C        C  672   2.597   3.920   2.535
    1C        C  673   2.529   3.720   2.662
    1C        C  674   2.570   3.855   2.658
    1C        C  675   2.513   3.652   2.784
    1C        C  676   2.532   3.723   2.905
    1C        C  677   2.511   3.514   3.032
    1C        C  678   2.519   3.655   3.028
    1C        C  679   2.517   3.448   3.156
    1C        C  680   2.515   3.521   3.277
    1C        C  681   2.538   3.311   3.403
    1C        C  682   2.516   3.451   3.400
    1C        C  683   2.559   3.247   3.527
    1C        C  684   2.538   3.317   3.648
    1C        C  685   2.618   3.123   3.773
    1C        C  686   2.562   3.252   3.771
    1C        C  687   2.649   3.060   3.896
    1C        C  688   2.608   3.121   4.016
    1C        C  689   2.713   2.937   4.143
    1C        C  690   2.639   3.057   4.139
    1C        C  691   2.758   2.879   4.264
    1C        C  692   2.718   2.939   4.385
    1C        C  693   2.760   2.881   4.506
    1C        C  694   2.633   3.898   2.059
    1C        C  695   2.533   3.709   2.176
    1C        C  696   2.581   3.841   2.176
    1C        C  697   2.514   3.641   2.298
    1C        C  698   2.526   3.716   2.418
    1C        C  699   2.498   3.508   2.544
    1C        C  700   2.510   3.649   2.541
    1C        C  701   2.509   3.437   2.666
    1C        C  702   2.510   3.510   2.787
    1C        C  703   2.534   3.302   2.913
    1C        C  704   2.514   3.442   2.910
    1C        C  705   2.552   3.236   3.037
    1C        C  706   2.536   3.308   3.158
    1C        C  707   2.608   3.111   3.281
    1C        C  708   2.556   3.242   3.281
    1C        C  709   2.645   3.053   3.404
    1C        C  710   2.613   3.117   3.526
    1C        C  711   2.719   2.937   3.653
    1C        C  712   2.644   3.057   3.651
    1C        C  713   2.762   2.882   3.775
    1C        C  714   2.720   2.938   3.898
    1C        C  715   2.759   2.881   4.021
    1C        C  716   2.458   3.503   2.064
    1C        C  717   2.492   3.639   2.061
    1C        C  718   2.472   3.425   2.183
    1C        C  719   2.490   3.501   2.302
    1C        C  720   2.521   3.294   2.426
    1C        C  721   2.491   3.432   2.425
    1C        C  722   2.546   3.227   2.547
    1C        C  723   2.529   3.297   2.668
    1C        C  724   2.603   3.103   2.791
    1C        C  725   2.542   3.230   2.792
    1C        C  726   2.630   3.038   2.914
    1C        C  727   2.603   3.105   3.036
    1C        C  728   2.707   2.923   3.161
    1C        C  729   2.631   3.042   3.159
    1C        C  730   2.753   2.872   3.284
    1C        C  731   2.720   2.933   3.407
    1C        C  732   2.759   2.878   3.531
    1C        C  733   2.490   3.199   2.075
    1C        C  734   2.493   3.284   2.186
    1C        C  735   2.577   3.084   2.307
    1C        C  736   2.531   3.218   2.307
    1C        C  737   2.616   3.022   2.428
    1C        C  738   2.592   3.093   2.547
    1C        C  739   2.701   2.913   2.672
    1C        C  740   2.631   3.036   2.670
    1C        C  741   2.745   2.858   2.794
    1C        C  742   2.703   2.917   2.916
    1C        C  743   2.747   2.864   3.039
    1C        C  744   2.540   3.069   2.076
    1C        C  745   2.683   2.897   2.186
    1C        C  746   2.599   3.010   2.189
    1C        C  747   2.736   2.847   2.307
    1C        C  748   2.698   2.906   2.429
    1C        C  749   2.742   2.851   2.551
    1C        C  750   2.743   2.843   2.071
    1C        C  751   3.672   2.335   1.969
    1C        O  752   3.649   2.211   1.965
    1C        O  753   3.682   2.381   1.837
    1C        C  754   4.618   3.061   1.967
    1C        O  755   4.573   3.040   1.851
    1C        O  756   4.756   3.045   1.981
    1C        C  757   4.445   4.222   1.959
    1C        O  758   4.475   4.339   1.995
    1C        O  759   4.471   4.208   1.822
    1C        C  760   3.593   4.686   1.960
    1C        O  761   3.646   4.798   1.983
    1C        O  762   3.553   4.678   1.826
    1C        C  763   2.862   4.527   1.989
    1C        O  764   2.833   4.535   1.866
    1C        O  765   2.793   4.620   2.068
    1C        C  766   2.364   3.469   1.955
    1C        O  767   2.414   3.419   1.851
    1C        O  768   2.224   3.471   1.959
    1C        C  769   4.705   3.593   5.047
    1C        O  770   4.706   3.515   5.146
    1C        O  771   4.831   3.583   4.985
    1C        C  772   4.290   4.458   5.021
    1C        O  773   4.285   4.477   5.145
    1C        O  774   4.369   4.554   4.955
    1C        C  775   4.145   2.499   5.050
    1C        O  776   4.235   2.443   4.982
    1C        O  777   4.207   2.516   5.175
    1C        C  778   2.886   4.546   5.063
    1C        O  779   2.798   4.633   5.035
    1C        O  780   2.906   4.531   5.200
    1C        C  781   2.475   3.045   5.071
    1C        O  782   2.377   2.980   5.026
    1C        O  783   2.509   2.996   5.197
    1C        C  784   2.398   4.001   5.031
    1C        O  785   2.309   4.084   4.997
    1C        O  786   2.380   3.962   5.164
    1C        C  787   2.943   2.430   2.013
    1C        O  788   2.942   2.438   1.887
    1C        O  789   2.871   2.327   2.073
    1C        C  790   3.170   2.382   5.070
    1C        O  791   3.114   2.275   5.036
    1C        O  792   3.159   2.400   5.208
    1C        H  793   4.303   3.022   5.065
    1C        H  794   4.197   2.806   5.080
    1C        H  795   4.510   3.132   5.067
    1C        H  796   4.486   3.379   5.059
    1C        H  797   4.507   3.783   5.059
    1C        H  798   4.470   4.009   5.037
    1C        H  799   4.245   4.127   5.034
    1C        H  800   4.016   4.512   5.038
    1C        H  801   3.820   4.596   5.038
    1C        H  802   3.590   4.641   5.042
    1C        H  803   3.401   4.500   5.046
    1C        H  804   3.162   4.538   5.053
    1C        H  805   3.899   2.473   5.056
    1C        H  806   3.675   2.465   5.078
    1C        H  807   3.033   2.602   5.076
    1C        H  808   3.443   2.438   5.074
    1C        H  809   2.854   2.716   5.080
    1C        H  810   2.655   2.833   5.044
    1C        H  811   2.494   3.298   5.068
    1C        H  812   2.588   3.519   5.067
    1C        H  813   2.469   3.737   5.058
    1C        H  814   2.647   4.139   5.055
    1C        H  815   2.741   4.334   5.044
    1C        H  816   2.695   2.857   1.977
    1C        H  817   2.816   2.671   1.987
    1C        H  818   3.213   2.424   1.995
    1C        H  819   3.434   2.423   1.980
    1C        H  820   3.839   2.567   1.985
    1C        H  821   4.076   2.600   1.976
    1C        H  822   4.267   2.715   1.980
    1C        H  823   4.375   2.921   1.970
    1C        H  824   4.631   3.306   1.993
    1C        H  825   4.449   3.524   1.975
    1C        H  826   4.527   3.747   1.957
    1C        H  827   3.795   4.501   1.950
    1C        H  828   3.946   4.346   1.957
    1C        H  829   4.181   4.283   1.956
    1C        H  830   4.531   3.987   1.993
    1C        H  831   2.628   3.840   1.970
    1C        H  832   2.757   4.045   1.978
    1C        H  833   2.727   4.301   1.972
    1C        H  834   3.386   4.453   1.956
    1C        H  835   3.147   4.420   1.953
    1C        H  836   2.514   3.006   1.993
    1C        H  837   2.406   3.218   2.011
    1C        H  838   2.444   3.695   1.983
    2V3OU   H29  839   2.813   3.555   1.730
    2V3OU   C27  840   2.792   3.507   1.829
    2V3OU   H27  841   2.729   3.570   1.898
    2V3OU   H28  842   2.738   3.410   1.823
    2V3OU   O11  843   2.916   3.475   1.894
    2V3OU   C15  844   2.930   3.394   2.005
    2V3OU   C13  845   3.056   3.372   2.065
    2V3OU   C14  846   3.079   3.267   2.155
    2V3OU   C16  847   2.973   3.189   2.201
    2V3OU    H6  848   2.992   3.100   2.263
    2V3OU   C12  849   3.214   3.235   2.208
    2V3OU    O2  850   3.240   3.127   2.266
    2V3OU   C10  851   3.327   3.312   2.155
    2V3OU    C8  852   3.457   3.276   2.189
    2V3OU   O10  853   3.494   3.161   2.252
    2V3OU   H26  854   3.414   3.115   2.283
    2V3OU    C6  855   3.568   3.350   2.139
    2V3OU    C5  856   3.540   3.462   2.060
    2V3OU    C4  857   3.707   3.298   2.144
    2V3OU    H4  858   3.726   3.235   2.236
    2V3OU    H5  859   3.718   3.226   2.057
    2V3OU    C2  860   3.820   3.401   2.142
    2V3OU    O6  861   3.811   3.482   2.259
    2V3OU   H21  862   3.768   3.561   2.223
    2V3OU    C3  863   3.784   3.503   2.034
    2V3OU    H2  864   3.870   3.574   2.032
    2V3OU    H3  865   3.785   3.448   1.937
    2V3OU   C25  866   3.953   3.327   2.121
    2V3OU    O7  867   4.007   3.300   2.014
    2V3OU   C26  868   4.028   3.292   2.248
    2V3OU   H22  869   4.056   3.389   2.296
    2V3OU   H23  870   4.122   3.237   2.222
    2V3OU    O8  871   3.962   3.208   2.341
    2V3OU   H24  872   3.936   3.265   2.415
    2V3OU    C1  873   3.646   3.567   2.040
    2V3OU    H1  874   3.627   3.624   1.944
    2V3OU    O3  875   3.663   3.657   2.150
    2V3OU   C19  876   3.621   3.793   2.140
    2V3OU    H9  877   3.523   3.795   2.084
    2V3OU    O4  878   3.718   3.851   2.055
    2V3OU   C20  879   3.850   3.872   2.106
    2V3OU   H10  880   3.901   3.773   2.124
    2V3OU   C24  881   3.615   3.858   2.278
    2V3OU   H16  882   3.547   3.800   2.345
    2V3OU   H17  883   3.575   3.962   2.270
    2V3OU   C23  884   3.754   3.878   2.339
    2V3OU   H15  885   3.794   3.774   2.360
    2V3OU    N1  886   3.740   3.952   2.463
    2V3OU   H19  887   3.816   3.921   2.520
    2V3OU   H20  888   3.648   3.930   2.497
    2V3OU   C21  889   3.852   3.948   2.239
    2V3OU   H11  890   3.951   3.927   2.290
    2V3OU    O5  891   3.836   4.089   2.229
    2V3OU   H18  892   3.779   4.115   2.303
    2V3OU   C22  893   3.921   3.947   1.995
    2V3OU   H12  894   3.868   4.043   1.973
    2V3OU   H13  895   3.913   3.888   1.899
    2V3OU   H14  896   4.030   3.959   2.018
    2V3OU   C11  897   3.162   3.471   2.044
    2V3OU    O1  898   3.137   3.587   2.005
    2V3OU    C9  899   3.299   3.425   2.074
    2V3OU    C7  900   3.407   3.502   2.030
    2V3OU    O9  901   3.387   3.623   1.967
    2V3OU   H25  902   3.291   3.633   1.955
    2V3OU   C17  903   2.823   3.315   2.051
    2V3OU    H7  904   2.719   3.340   2.029
    2V3OU   C18  905   2.849   3.217   2.145
    2V3OU    H8  906   2.768   3.161   2.194
    3SOL     OW  907   2.765   4.294   0.564
    3SOL    HW1  908   2.770   4.199   0.531
    3SOL    HW2  909   2.812   4.354   0.500
    4SOL     OW  910   6.203   5.569   1.839
    4SOL    HW1  911   6.222   5.597   1.745
    4SOL    HW2  912   6.273   5.503   1.868
    5SOL     OW  913   3.605   1.423   3.213
    5SOL    HW1  914   3.655   1.352   3.262
    5SOL    HW2  915   3.667   1.497   3.188
    6SOL     OW  916   4.798   1.614   1.705
    6SOL    HW1  917   4.714   1.591   1.754
    6SOL    HW2  918   4.796   1.710   1.677
    7SOL     OW  919   6.195   3.421   2.475
    7SOL    HW1  920   6.121   3.353   2.474
    7SOL    HW2  921   6.242   3.418   2.387
    8SOL     OW  922   2.874   0.321   5.575
    8SOL    HW1  923   2.791   0.271   5.600
    8SOL    HW2  924   2.949   0.293   5.636
    9SOL     OW  925   6.789   5.179   5.717
    9SOL    HW1  926   6.864   5.135   5.767
    9SOL    HW2  927   6.822   5.211   5.628
   10SOL     OW  928   0.919   4.763   5.768
   10SOL    HW1  929   0.966   4.851   5.771
   10SOL    HW2  930   0.912   4.732   5.673
   11SOL     OW  931   3.020   0.481   0.144
   11SOL    HW1  932   3.066   0.420   0.079
   11SOL    HW2  933   3.087   0.517   0.209
   12SOL     OW  934   4.282   6.446   3.904
   12SOL    HW1  935   4.309   6.476   3.996
   12SOL    HW2  936   4.183   6.455   3.894
   13SOL     OW  937   3.065   5.557   4.276
   13SOL    HW1  938   3.136   5.590   4.214
   13SOL    HW2  939   3.064   5.457   4.275
   14SOL     OW  940   4.801   5.629   6.090
   14SOL    HW1  941   4.761   5.629   6.182
   14SOL    HW2  942   4.743   5.574   6.029
   15SOL     OW  943   0.920   5.240   0.704
   15SOL    HW1  944   0.902   5.230   0.802
   15SOL    HW2  945   0.863   5.313   0.666
   16SOL     OW  946   5.743   2.826   5.517
   16SOL    HW1  947   5.676   2.771   5.466
   16SOL    HW2  948   5.833   2.815   5.475
   17SOL     OW  949   5.211   5.892   5.165
   17SOL    HW1  950   5.300   5.919   5.128
   17SOL    HW2  951   5.203   5.923   5.259
   18SOL     OW  952   2.806   1.241   6.116
   18SOL    HW1  953   2.882   1.303   6.096
   18SOL    HW2  954   2.824   1.152   6.073
   19SOL     OW  955   0.135   6.935   3.121
   19SOL    HW1  956   0.124   6.836   3.115
   19SOL    HW2  957   0.171   6.970   3.034
   20SOL     OW  958   4.673   1.760   4.423
   20SOL    HW1  959   4.677   1.758   4.523
   20SOL    HW2  960   4.722   1.840   4.389
   21SOL     OW  961   3.093   2.129   2.273
   21SOL    HW1  962   3.114   2.149   2.177
   21SOL    HW2  963   2.994   2.128   2.287
   22SOL     OW  964   2.518   7.010   0.464
   22SOL    HW1  965   2.491   6.919   0.496
   22SOL    HW2  966   2.607   7.005   0.420
   23SOL     OW  967   4.550   6.519   3.396
   23SOL    HW1  968   4.547   6.442   3.459
   23SOL    HW2  969   4.618   6.502   3.324
   24SOL     OW  970   5.061   1.103   2.893
   24SOL    HW1  971   5.018   1.133   2.808
   24SOL    HW2  972   5.159   1.120   2.888
   25SOL     OW  973   3.682   6.532   6.040
   25SOL    HW1  974   3.753   6.462   6.053
   25SOL    HW2  975   3.610   6.520   6.108
   26SOL     OW  976   6.121   1.009   0.485
   26SOL    HW1  977   6.078   1.074   0.423
   26SOL    HW2  978   6.202   1.050   0.526
   27SOL     OW  979   0.437   1.559   1.572
   27SOL    HW1  980   0.465   1.618   1.648
   27SOL    HW2  981   0.340   1.572   1.554
   28SOL     OW  982   3.704   1.535   0.138
   28SOL    HW1  983   3.686   1.607   0.204
   28SOL    HW2  984   3.641   1.459   0.154
   29SOL     OW  985   5.381   2.898   1.948
   29SOL    HW1  986   5.360   2.816   1.895
   29SOL    HW2  987   5.297   2.931   1.992
   30SOL     OW  988   3.723   0.820   4.965
   30SOL    HW1  989   3.810   0.781   4.936
   30SOL    HW2  990   3.731   0.919   4.975
   31SOL     OW  991   0.782   1.907   6.000
   31SOL    HW1  992   0.707   1.872   6.055
   31SOL    HW2  993   0.829   1.979   6.051
   32SOL     OW  994   6.853   1.408   3.019
   32SOL    HW1  995   6.771   1.351   3.016
   32SOL    HW2  996   6.883   1.429   2.926
   33SOL     OW  997   2.372   3.594   7.025
   33SOL    HW1  998   2.425   3.677   0.014
   33SOL    HW2  999   2.379   3.570   6.928
   34SOL     OW 1000   2.114   1.597   3.796
   34SOL    HW1 1001   2.031   1.541   3.797
   34SOL    HW2 1002   2.089   1.694   3.791
   35SOL     OW 1003   3.270   2.092   0.125
   35SOL    HW1 1004   3.210   2.172   0.128
   35SOL    HW2 1005   3.262   2.048   0.035
   36SOL     OW 1006   0.010   1.044   6.221
   36SOL    HW1 1007   0.092   1.097   6.199
   36SOL    HW2 1008   0.002   1.034   6.320
   37SOL     OW 1009   1.338   0.163   0.532
   37SOL    HW1 1010   1.398   0.171   0.612
   37SOL    HW2 1011   1.394   0.164   0.448
   38SOL     OW 1012   0.208   4.640   2.121
   38SOL    HW1 1013   0.131   4.670   2.064
   38SOL    HW2 1014   0.217   4.702   2.199
   39SOL     OW 1015   6.825   5.154   6.536
   39SOL    HW1 1016   6.844   5.232   6.476
   39SOL    HW2 1017   6.911   5.120   6.573
   40SOL     OW 1018   5.793   2.308   1.390
   40SOL    HW1 1019   5.709   2.271   1.351
   40SOL    HW2 1020   5.802   2.278   1.485
   41SOL     OW 1021   0.393   6.568   4.288
   41SOL    HW1 1022   0.297   6.598   4.287
   41SOL    HW2 1023   0.448   6.636   4.336
   42SOL     OW 1024   2.268   5.593   5.955
   42SOL    HW1 1025   2.291   5.571   6.050
   42SOL    HW2 1026   2.296   5.518   5.896
   43SOL     OW 1027   5.482   6.517   5.192
   43SOL    HW1 1028   5.434   6.604   5.192
   43SOL    HW2 1029   5.491   6.483   5.098
   44SOL     OW 1030   5.733   2.072   6.277
   44SOL    HW1 1031   5.740   1.992   6.337
   44SOL    HW2 1032   5.825   2.108   6.258
   45SOL     OW 1033   3.636   6.823   3.285
   45SOL    HW1 1034   3.660   6.794   3.378
   45SOL    HW2 1035   3.537   6.816   3.272
   46SOL     OW 1036   1.387   3.530   3.933
   46SOL    HW1 1037   1.347   3.516   4.023
   46SOL    HW2 1038   1.465   3.592   3.940
   47SOL     OW 1039   5.018   4.374   1.938
   47SOL    HW1 1040   4.977   4.397   1.849
   47SOL    HW2 1041   4.986   4.284   1.967
   48SOL     OW 1042   0.050   3.107   5.735
   48SOL    HW1 1043   0.069   3.035   5.803
   48SOL    HW2 1044   7.012   3.171   5.773
   49SOL     OW 1045   4.704   4.111   1.772
   49SOL    HW1 1046   4.614   4.142   1.801
   49SOL    HW2 1047   4.701   4.013   1.751
   50SOL     OW 1048   6.729   2.629   5.963
   50SOL    HW1 1049   6.766   2.547   6.007
   50SOL    HW2 1050   6.631   2.615   5.947
   51SOL     OW 1051   2.783   6.142   2.390
   51SOL    HW1 1052   2.809   6.087   2.469
   51SOL    HW2 1053   2.852   6.213   2.374
   52SOL     OW 1054   5.090   2.755   3.378
   52SOL    HW1 1055   5.086   2.764   3.279
   52SOL    HW2 1056   5.174   2.708   3.404
   53SOL     OW 1057   3.877   0.285   4.600
   53SOL    HW1 1058   3.786   0.272   4.639
   53SOL    HW2 1059   3.884   0.377   4.562
   54SOL     OW 1060   3.948   4.574   0.449
   54SOL    HW1 1061   4.009   4.613   0.517
   54SOL    HW2 1062   3.950   4.474   0.456
   55SOL     OW 1063   3.568   1.489   6.332
   55SOL    HW1 1064   3.577   1.587   6.350
   55SOL    HW2 1065   3.592   1.471   6.236
   56SOL     OW 1066   0.284   7.007   0.919
   56SOL    HW1 1067   0.371   6.959   0.911
   56SOL    HW2 1068   0.266   7.027   1.015
   57SOL     OW 1069   5.330   0.502   0.676
   57SOL    HW1 1070   5.259   0.435   0.654
   57SOL    HW2 1071   5.332   0.516   0.775
   58SOL     OW 1072   6.417   6.891   5.507
   58SOL    HW1 1073   6.422   6.793   5.528
   58SOL    HW2 1074   6.424   6.904   5.408
   59SOL     OW 1075   1.730   1.379   6.400
   59SOL    HW1 1076   1.815   1.348   6.359
   59SOL    HW2 1077   1.653   1.347   6.344
   60SOL     OW 1078   5.976   1.042   6.308
   60SOL    HW1 1079   6.000   1.051   6.404
   60SOL    HW2 1080   5.951   0.947   6.288
   61SOL     OW 1081   5.172   1.642   5.222
   61SOL    HW1 1082   5.176   1.571   5.152
   61SOL    HW2 1083   5.265   1.678   5.238
   62SOL     OW 1084   0.136   0.593   3.510
   62SOL    HW1 1085   0.166   0.656   3.582
   62SOL    HW2 1086   0.204   0.589   3.438
   63SOL     OW 1087   6.196   1.837   3.858
   63SOL    HW1 1088   6.259   1.776   3.809
   63SOL    HW2 1089   6.106   1.794   3.863
   64SOL     OW 1090   0.165   4.171   6.463
   64SOL    HW1 1091   0.144   4.144   6.369
   64SOL    HW2 1092   0.241   4.236   6.463
   65SOL     OW 1093   0.024   4.518   5.325
   65SOL    HW1 1094   0.057   4.564   5.406
   65SOL    HW2 1095   0.034   4.419   5.336
   66SOL     OW 1096   3.623   0.970   6.666
   66SOL    HW1 1097   3.636   0.915   6.748
   66SOL    HW2 1098   3.532   0.953   6.629
   67SOL     OW 1099   5.213   4.276   5.658
   67SOL    HW1 1100   5.252   4.336   5.587
   67SOL    HW2 1101   5.113   4.282   5.654
   68SOL     OW 1102   5.887   0.641   6.677
   68SOL    HW1 1103   5.983   0.616   6.667
   68SOL    HW2 1104   5.875   0.738   6.655
   69SOL     OW 1105   0.659   3.397   6.869
   69SOL    HW1 1106   0.659   3.328   6.797
   69SOL    HW2 1107   0.677   3.353   6.957
   70SOL     OW 1108   5.911   4.931   3.576
   70SOL    HW1 1109   5.846   4.941   3.652
   70SOL    HW2 1110   5.944   4.836   3.573
   71SOL     OW 1111   4.107   1.670   2.326
   71SOL    HW1 1112   4.166   1.639   2.401
   71SOL    HW2 1113   4.011   1.661   2.354
   72SOL     OW 1114   3.044   6.135   5.240
   72SOL    HW1 1115   3.119   6.168   5.297
   72SOL    HW2 1116   3.059   6.162   5.145
   73SOL     OW 1117   3.695   0.999   0.881
   73SOL    HW1 1118   3.749   1.083   0.880
   73SOL    HW2 1119   3.601   1.019   0.910
   74SOL     OW 1120   4.715   6.222   5.910
   74SOL    HW1 1121   4.761   6.169   5.838
   74SOL    HW2 1122   4.742   6.318   5.904
   75SOL     OW 1123   4.018   0.704   6.641
   75SOL    HW1 1124   4.060   0.632   6.586
   75SOL    HW2 1125   3.975   0.664   6.721
   76SOL     OW 1126   2.381   2.533   1.529
   76SOL    HW1 1127   2.320   2.526   1.450
   76SOL    HW2 1128   2.472   2.500   1.503
   77SOL     OW 1129   5.780   6.260   4.135
   77SOL    HW1 1130   5.763   6.238   4.231
   77SOL    HW2 1131   5.702   6.230   4.079
   78SOL     OW 1132   5.755   0.929   5.936
   78SOL    HW1 1133   5.837   0.964   5.981
   78SOL    HW2 1134   5.763   0.829   5.926
   79SOL     OW 1135   3.129   6.720   0.372
   79SOL    HW1 1136   3.121   6.628   0.411
   79SOL    HW2 1137   3.053   6.776   0.403
   80SOL     OW 1138   5.422   1.683   4.390
   80SOL    HW1 1139   5.433   1.645   4.482
   80SOL    HW2 1140   5.339   1.648   4.349
   81SOL     OW 1141   1.830   0.363   3.022
   81SOL    HW1 1142   1.910   0.336   2.968
   81SOL    HW2 1143   1.842   0.333   3.116
   82SOL     OW 1144   6.257   5.067   0.864
   82SOL    HW1 1145   6.249   5.146   0.804
   82SOL    HW2 1146   6.274   4.985   0.809
   83SOL     OW 1147   0.010   0.564   0.764
   83SOL    HW1 1148   0.021   0.484   0.823
   83SOL    HW2 1149   0.100   0.599   0.739
   84SOL     OW 1150   5.264   3.642   3.672
   84SOL    HW1 1151   5.188   3.673   3.614
   84SOL    HW2 1152   5.350   3.651   3.621
   85SOL     OW 1153   2.039   1.843   5.169
   85SOL    HW1 1154   2.033   1.743   5.170
   85SOL    HW2 1155   1.949   1.882   5.190
   86SOL     OW 1156   0.602   0.438   5.525
   86SOL    HW1 1157   0.653   0.400   5.602
   86SOL    HW2 1158   0.649   0.418   5.440
   87SOL     OW 1159   5.112   3.487   0.679
   87SOL    HW1 1160   5.170   3.514   0.601
   87SOL    HW2 1161   5.165   3.495   0.764
   88SOL     OW 1162   3.758   1.859   6.224
   88SOL    HW1 1163   3.741   1.884   6.128
   88SOL    HW2 1164   3.844   1.899   6.254
   89SOL     OW 1165   0.937   2.669   5.768
   89SOL    HW1 1166   0.964   2.665   5.865
   89SOL    HW2 1167   0.845   2.707   5.761
   90SOL     OW 1168   4.024   6.042   3.065
   90SOL    HW1 1169   4.024   6.124   3.121
   90SOL    HW2 1170   3.930   6.009   3.054
   91SOL     OW 1171   4.731   4.343   4.967
   91SOL    HW1 1172   4.672   4.346   5.047
   91SOL    HW2 1173   4.681   4.377   4.887
   92SOL     OW 1174   3.036   4.082   0.172
   92SOL    HW1 1175   3.106   4.130   0.225
   92SOL    HW2 1176   3.079   4.033   0.096
   93SOL     OW 1177   2.637   3.595   6.579
   93SOL    HW1 1178   2.630   3.556   6.487
   93SOL    HW2 1179   2.649   3.694   6.573
   94SOL     OW 1180   2.414   6.142   5.943
   94SOL    HW1 1181   2.434   6.047   5.968
   94SOL    HW2 1182   2.358   6.143   5.860
   95SOL     OW 1183   1.090   0.921   3.312
   95SOL    HW1 1184   1.117   0.983   3.238
   95SOL    HW2 1185   1.162   0.919   3.381
   96SOL     OW 1186   4.018   0.454   5.065
   96SOL    HW1 1187   4.011   0.378   5.000
   96SOL    HW2 1188   3.957   0.436   5.143
   97SOL     OW 1189   1.535   3.348   6.218
   97SOL    HW1 1190   1.474   3.421   6.187
   97SOL    HW2 1191   1.604   3.330   6.148
   98SOL     OW 1192   6.212   3.752   0.569
   98SOL    HW1 1193   6.269   3.807   0.630
   98SOL    HW2 1194   6.254   3.663   0.555
   99SOL     OW 1195   4.700   3.596   1.440
   99SOL    HW1 1196   4.745   3.508   1.424
   99SOL    HW2 1197   4.746   3.667   1.386
  100SOL     OW 1198   0.153   0.233   5.345
  100SOL    HW1 1199   0.210   0.167   5.394
  100SOL    HW2 1200   0.095   0.184   5.279
  101SOL     OW 1201   1.715   5.850   2.382
  101SOL    HW1 1202   1.710   5.950   2.373
  101SOL    HW2 1203   1.746   5.827   2.474
  102SOL     OW 1204   4.198   0.162   2.304
  102SOL    HW1 1205   4.198   0.245   2.248
  102SOL    HW2 1206   4.114   0.111   2.288
  103SOL     OW 1207   3.409   1.471   2.533
  103SOL    HW1 1208   3.475   1.396   2.526
  103SOL    HW2 1209   3.394   1.510   2.442
  104SOL     OW 1210   0.504   5.122   2.166
  104SOL    HW1 1211   0.577   5.110   2.233
  104SOL    HW2 1212   0.482   5.220   2.157
  105SOL     OW 1213   6.772   3.150   6.508
  105SOL    HW1 1214   6.701   3.219   6.523
  105SOL    HW2 1215   6.729   3.063   6.482
  106SOL     OW 1216   3.586   6.030   4.560
  106SOL    HW1 1217   3.674   6.025   4.607
  106SOL    HW2 1218   3.587   6.103   4.492
  107SOL     OW 1219   1.688   1.390   1.893
  107SOL    HW1 1220   1.768   1.386   1.833
  107SOL    HW2 1221   1.699   1.324   1.968
  108SOL     OW 1222   3.866   5.205   5.494
  108SOL    HW1 1223   3.868   5.108   5.519
  108SOL    HW2 1224   3.851   5.213   5.395
  109SOL     OW 1225   0.503   0.695   1.592
  109SOL    HW1 1226   0.595   0.719   1.561
  109SOL    HW2 1227   0.437   0.758   1.552
  110SOL     OW 1228   3.691   6.028   5.598
  110SOL    HW1 1229   3.592   6.038   5.588
  110SOL    HW2 1230   3.712   5.937   5.634
  111SOL     OW 1231   3.443   0.526   4.503
  111SOL    HW1 1232   3.395   0.439   4.493
  111SOL    HW2 1233   3.390   0.586   4.563
  112SOL     OW 1234   5.367   6.776   5.988
  112SOL    HW1 1235   5.316   6.759   6.072
  112SOL    HW2 1236   5.420   6.694   5.964
  113SOL     OW 1237   5.908   4.981   3.307
  113SOL    HW1 1238   5.904   4.941   3.399
  113SOL    HW2 1239   6.003   5.005   3.286
  114SOL     OW 1240   0.940   0.137   0.919
  114SOL    HW1 1241   0.895   0.053   0.891
  114SOL    HW2 1242   0.958   0.194   0.838
  115SOL     OW 1243   3.819   1.633   3.129
  115SOL    HW1 1244   3.810   1.701   3.202
  115SOL    HW2 1245   3.912   1.596   3.129
  116SOL     OW 1246   5.954   5.364   1.740
  116SOL    HW1 1247   6.037   5.421   1.739
  116SOL    HW2 1248   5.945   5.321   1.830
  117SOL     OW 1249   1.550   1.315   0.535
  117SOL    HW1 1250   1.459   1.289   0.504
  117SOL    HW2 1251   1.584   1.246   0.599
  118SOL     OW 1252   1.637   1.511   3.290
  118SOL    HW1 1253   1.714   1.569   3.315
  118SOL    HW2 1254   1.617   1.522   3.193
  119SOL     OW 1255   0.914   1.387   6.747
  119SOL    HW1 1256   0.978   1.414   6.819
  119SOL    HW2 1257   0.958   1.397   6.658
  120SOL     OW 1258   6.715   6.630   0.085
  120SOL    HW1 1259   6.641   6.657   0.146
  120SOL    HW2 1260   6.703   6.535   0.058
  121SOL     OW 1261   2.344   3.549   6.465
  121SOL    HW1 1262   2.348   3.632   6.409
  121SOL    HW2 1263   2.295   3.477   6.415
  122SOL     OW 1264   1.659   4.448   6.739
  122SOL    HW1 1265   1.741   4.494   6.772
  122SOL    HW2 1266   1.612   4.404   6.816
  123SOL     OW 1267   0.174   1.583   1.540
  123SOL    HW1 1268   0.186   1.609   1.445
  123SOL    HW2 1269   0.105   1.511   1.547
  124SOL     OW 1270   5.119   3.033   0.648
  124SOL    HW1 1271   5.045   3.061   0.587
  124SOL    HW2 1272   5.151   3.113   0.700
  125SOL     OW 1273   3.041   1.455   2.151
  125SOL    HW1 1274   2.960   1.450   2.092
  125SOL    HW2 1275   3.093   1.537   2.129
  126SOL     OW 1276   2.622   3.757   1.170
  126SOL    HW1 1277   2.541   3.699   1.183
  126SOL    HW2 1278   2.602   3.849   1.203
  127SOL     OW 1279   0.454   5.621   5.947
  127SOL    HW1 1280   0.506   5.650   5.867
  127SOL    HW2 1281   0.359   5.605   5.921
  128SOL     OW 1282   4.770   2.380   1.115
  128SOL    HW1 1283   4.785   2.296   1.166
  128SOL    HW2 1284   4.697   2.367   1.049
  129SOL     OW 1285   3.371   2.714   5.901
  129SOL    HW1 1286   3.347   2.810   5.914
  129SOL    HW2 1287   3.300   2.670   5.845
  130SOL     OW 1288   0.805   0.920   3.883
  130SOL    HW1 1289   0.871   0.993   3.864
  130SOL    HW2 1290   0.851   0.832   3.886
  131SOL     OW 1291   5.020   1.998   3.654
  131SOL    HW1 1292   5.030   2.049   3.739
  131SOL    HW2 1293   4.929   1.956   3.650
  132SOL     OW 1294   2.461   2.615   1.014
  132SOL    HW1 1295   2.474   2.576   0.923
  132SOL    HW2 1296   2.368   2.597   1.044
  133SOL     OW 1297   4.772   6.658   4.124
  133SOL    HW1 1298   4.854   6.600   4.125
  133SOL    HW2 1299   4.788   6.738   4.181
  134SOL     OW 1300   6.316   1.522   2.313
  134SOL    HW1 1301   6.372   1.488   2.237
  134SOL    HW2 1302   6.295   1.446   2.375
  135SOL     OW 1303   5.747   3.742   3.056
  135SOL    HW1 1304   5.846   3.746   3.043
  135SOL    HW2 1305   5.703   3.723   2.969
  136SOL     OW 1306   3.143   3.778   6.240
  136SOL    HW1 1307   3.239   3.754   6.260
  136SOL    HW2 1308   3.132   3.877   6.244
  137SOL     OW 1309   5.474   1.391   5.239
  137SOL    HW1 1310   5.411   1.413   5.164
  137SOL    HW2 1311   5.441   1.433   5.324
  138SOL     OW 1312   0.525   4.679   3.259
  138SOL    HW1 1313   0.516   4.586   3.223
  138SOL    HW2 1314   0.501   4.745   3.188
  139SOL     OW 1315   2.002   6.287   5.014
  139SOL    HW1 1316   1.916   6.237   5.003
  139SOL    HW2 1317   2.000   6.340   5.098
  140SOL     OW 1318   0.720   5.692   3.464
  140SOL    HW1 1319   0.691   5.648   3.379
  140SOL    HW2 1320   0.820   5.696   3.467
  141SOL     OW 1321   5.946   3.463   4.753
  141SOL    HW1 1322   5.881   3.409   4.700
  141SOL    HW2 1323   6.007   3.512   4.691
  142SOL     OW 1324   1.958   4.044   0.911
  142SOL    HW1 1325   1.935   3.991   0.992
  142SOL    HW2 1326   1.878   4.051   0.852
  143SOL     OW 1327   5.749   4.474   1.548
  143SOL    HW1 1328   5.827   4.516   1.501
  143SOL    HW2 1329   5.669   4.476   1.489
  144SOL     OW 1330   1.531   6.259   6.617
  144SOL    HW1 1331   1.629   6.278   6.612
  144SOL    HW2 1332   1.490   6.275   6.527
  145SOL     OW 1333   0.140   5.441   0.294
  145SOL    HW1 1334   0.067   5.461   0.359
  145SOL    HW2 1335   0.182   5.353   0.317
  146SOL     OW 1336   5.093   0.636   6.398
  146SOL    HW1 1337   5.171   0.683   6.356
  146SOL    HW2 1338   5.081   0.546   6.354
  147SOL     OW 1339   6.045   4.063   6.284
  147SOL    HW1 1340   5.993   3.978   6.285
  147SOL    HW2 1341   6.014   4.120   6.208
  148SOL     OW 1342   0.114   5.676   6.328
  148SOL    HW1 1343   0.201   5.634   6.303
  148SOL    HW2 1344   0.094   5.656   6.424
  149SOL     OW 1345   3.041   1.888   4.841
  149SOL    HW1 1346   3.128   1.848   4.812
  149SOL    HW2 1347   3.003   1.941   4.765
  150SOL     OW 1348   5.870   5.854   6.282
  150SOL    HW1 1349   5.838   5.804   6.201
  150SOL    HW2 1350   5.969   5.860   6.281
  151SOL     OW 1351   3.537   2.516   1.149
  151SOL    HW1 1352   3.528   2.517   1.249
  151SOL    HW2 1353   3.512   2.425   1.115
  152SOL     OW 1354   1.425   0.946   3.162
  152SOL    HW1 1355   1.450   1.025   3.220
  152SOL    HW2 1356   1.329   0.953   3.137
  153SOL     OW 1357   3.237   0.591   1.612
  153SOL    HW1 1358   3.236   0.548   1.702
  153SOL    HW2 1359   3.150   0.574   1.566
  154SOL     OW 1360   0.604   1.922   2.992
  154SOL    HW1 1361   0.508   1.899   2.976
  154SOL    HW2 1362   0.611   2.018   3.019
  155SOL     OW 1363   6.312   1.670   3.653
  155SOL    HW1 1364   6.236   1.614   3.621
  155SOL    HW2 1365   6.356   1.715   3.575
  156SOL     OW 1366   0.045   2.317   0.574
  156SOL    HW1 1367   0.127   2.262   0.556
  156SOL    HW2 1368   0.035   2.329   0.673
  157SOL     OW 1369   6.101   3.480   1.429
  157SOL    HW1 1370   6.171   3.484   1.501
  157SOL    HW2 1371   6.056   3.391   1.432
  158SOL     OW 1372   2.329   6.039   2.385
  158SOL    HW1 1373   2.364   6.043   2.478
  158SOL    HW2 1374   2.230   6.030   2.386
  159SOL     OW 1375   4.286   4.614   2.088
  159SOL    HW1 1376   4.252   4.523   2.065
  159SOL    HW2 1377   4.386   4.613   2.090
  160SOL     OW 1378   6.521   5.459   0.397
  160SOL    HW1 1379   6.487   5.485   0.306
  160SOL    HW2 1380   6.544   5.362   0.398
  161SOL     OW 1381   2.034   5.700   4.619
  161SOL    HW1 1382   2.045   5.602   4.598
  161SOL    HW2 1383   1.951   5.734   4.575
  162SOL     OW 1384   3.923   6.635   6.968
  162SOL    HW1 1385   3.978   6.703   6.920
  162SOL    HW2 1386   3.979   6.554   6.988
  163SOL     OW 1387   5.629   6.064   0.913
  163SOL    HW1 1388   5.600   5.972   0.888
  163SOL    HW2 1389   5.727   6.074   0.893
  164SOL     OW 1390   6.175   4.168   0.070
  164SOL    HW1 1391   6.228   4.214   7.027
  164SOL    HW2 1392   6.170   4.070   0.049
  165SOL     OW 1393   5.282   2.729   1.746
  165SOL    HW1 1394   5.183   2.735   1.730
  165SOL    HW2 1395   5.306   2.634   1.770
  166SOL     OW 1396   6.821   4.979   3.466
  166SOL    HW1 1397   6.723   4.993   3.481
  166SOL    HW2 1398   6.849   5.027   3.383
  167SOL     OW 1399   5.727   2.571   6.745
  167SOL    HW1 1400   5.716   2.574   6.844
  167SOL    HW2 1401   5.641   2.598   6.701
  168SOL     OW 1402   2.326   3.246   1.259
  168SOL    HW1 1403   2.416   3.262   1.219
  168SOL    HW2 1404   2.298   3.326   1.312
  169SOL     OW 1405   4.387   0.462   1.702
  169SOL    HW1 1406   4.412   0.384   1.645
  169SOL    HW2 1407   4.403   0.547   1.652
  170SOL     OW 1408   0.889   0.896   3.579
  170SOL    HW1 1409   0.850   0.917   3.490
  170SOL    HW2 1410   0.821   0.850   3.636
  171SOL     OW 1411   3.751   4.737   0.374
  171SOL    HW1 1412   3.834   4.685   0.395
  171SOL    HW2 1413   3.675   4.673   0.360
  172SOL     OW 1414   5.887   1.769   4.224
  172SOL    HW1 1415   5.793   1.735   4.217
  172SOL    HW2 1416   5.951   1.692   4.219
  173SOL     OW 1417   6.860   2.364   4.366
  173SOL    HW1 1418   6.832   2.321   4.452
  173SOL    HW2 1419   6.859   2.297   4.292
  174SOL     OW 1420   3.539   5.327   4.600
  174SOL    HW1 1421   3.557   5.413   4.551
  174SOL    HW2 1422   3.619   5.301   4.653
  175SOL     OW 1423   2.423   0.052   2.091
  175SOL    HW1 1424   2.369   0.136   2.094
  175SOL    HW2 1425   2.362   7.002   2.102
  176SOL     OW 1426   1.370   4.088   1.296
  176SOL    HW1 1427   1.403   4.004   1.339
  176SOL    HW2 1428   1.357   4.072   1.198
  177SOL     OW 1429   5.850   3.160   2.694
  177SOL    HW1 1430   5.850   3.069   2.737
  177SOL    HW2 1431   5.944   3.192   2.684
  178SOL     OW 1432   2.917   2.746   6.250
  178SOL    HW1 1433   2.894   2.649   6.250
  178SOL    HW2 1434   2.840   2.798   6.212
  179SOL     OW 1435   2.460   1.488   6.237
  179SOL    HW1 1436   2.420   1.458   6.151
  179SOL    HW2 1437   2.550   1.528   6.219
  180SOL     OW 1438   1.557   7.011   6.778
  180SOL    HW1 1439   1.656   7.006   6.780
  180SOL    HW2 1440   1.518   6.922   6.802
  181SOL     OW 1441   3.143   2.014   5.984
  181SOL    HW1 1442   3.150   2.066   6.069
  181SOL    HW2 1443   3.063   2.045   5.933
  182SOL     OW 1444   3.528   1.231   3.963
  182SOL    HW1 1445   3.486   1.299   4.023
  182SOL    HW2 1446   3.507   1.139   3.996
  183SOL     OW 1447   3.664   2.118   3.515
  183SOL    HW1 1448   3.638   2.104   3.611
  183SOL    HW2 1449   3.596   2.077   3.455
  184SOL     OW 1450   2.060   6.314   4.282
  184SOL    HW1 1451   2.058   6.239   4.216
  184SOL    HW2 1452   2.018   6.395   4.242
  185SOL     OW 1453   0.314   1.634   6.223
  185SOL    HW1 1454   0.256   1.671   6.295
  185SOL    HW2 1455   0.264   1.563   6.172
  186SOL     OW 1456   5.986   1.241   3.851
  186SOL    HW1 1457   5.896   1.209   3.822
  186SOL    HW2 1458   6.040   1.265   3.770
  187SOL     OW 1459   4.581   0.463   2.746
  187SOL    HW1 1460   4.603   0.446   2.842
  187SOL    HW2 1461   4.604   0.558   2.723
  188SOL     OW 1462   6.837   2.160   2.590
  188SOL    HW1 1463   6.876   2.080   2.637
  188SOL    HW2 1464   6.776   2.129   2.517
  189SOL     OW 1465   2.261   5.382   1.760
  189SOL    HW1 1466   2.334   5.369   1.827
  189SOL    HW2 1467   2.294   5.440   1.686
  190SOL     OW 1468   4.528   1.535   4.345
  190SOL    HW1 1469   4.523   1.524   4.245
  190SOL    HW2 1470   4.571   1.623   4.366
  191SOL     OW 1471   5.553   5.847   6.489
  191SOL    HW1 1472   5.534   5.863   6.392
  191SOL    HW2 1473   5.504   5.765   6.519
  192SOL     OW 1474   0.312   5.673   1.845
  192SOL    HW1 1475   0.337   5.770   1.841
  192SOL    HW2 1476   0.262   5.656   1.930
  193SOL     OW 1477   4.669   2.895   5.523
  193SOL    HW1 1478   4.591   2.872   5.581
  193SOL    HW2 1479   4.639   2.958   5.451
  194SOL     OW 1480   4.021   0.686   2.659
  194SOL    HW1 1481   4.022   0.741   2.576
  194SOL    HW2 1482   3.967   0.603   2.644
  195SOL     OW 1483   1.615   0.014   4.859
  195SOL    HW1 1484   1.636   0.060   4.773
  195SOL    HW2 1485   1.699   7.005   4.898
  196SOL     OW 1486   2.696   1.261   6.589
  196SOL    HW1 1487   2.760   1.184   6.587
  196SOL    HW2 1488   2.603   1.228   6.575
  197SOL     OW 1489   2.281   0.464   0.873
  197SOL    HW1 1490   2.303   0.445   0.777
  197SOL    HW2 1491   2.216   0.540   0.879
  198SOL     OW 1492   4.478   0.737   2.615
  198SOL    HW1 1493   4.494   0.665   2.547
  198SOL    HW2 1494   4.466   0.824   2.568
  199SOL     OW 1495   0.631   2.175   4.090
  199SOL    HW1 1496   0.676   2.168   4.178
  199SOL    HW2 1497   0.697   2.158   4.017
  200SOL     OW 1498   1.558   3.580   0.668
  200SOL    HW1 1499   1.518   3.518   0.735
  200SOL    HW2 1500   1.495   3.654   0.648
  201SOL     OW 1501   0.426   6.553   6.067
  201SOL    HW1 1502   0.397   6.458   6.056
  201SOL    HW2 1503   0.521   6.555   6.098
  202SOL     OW 1504   3.652   1.758   6.667
  202SOL    HW1 1505   3.677   1.718   6.755
  202SOL    HW2 1506   3.592   1.836   6.681
  203SOL     OW 1507   6.046   2.188   5.235
  203SOL    HW1 1508   5.966   2.128   5.232
  203SOL    HW2 1509   6.101   2.174   5.153
  204SOL     OW 1510   0.756   0.067   4.683
  204SOL    HW1 1511   0.807   7.014   4.707
  204SOL    HW2 1512   0.662   0.042   4.661
  205SOL     OW 1513   0.861   2.539   3.104
  205SOL    HW1 1514   0.867   2.639   3.114
  205SOL    HW2 1515   0.872   2.496   3.194
  206SOL     OW 1516   0.409   4.162   1.151
  206SOL    HW1 1517   0.392   4.255   1.117
  206SOL    HW2 1518   0.431   4.102   1.074
  207SOL     OW 1519   5.604   1.102   4.216
  207SOL    HW1 1520   5.613   1.069   4.121
  207SOL    HW2 1521   5.572   1.197   4.215
  208SOL     OW 1522   0.006   4.516   5.658
  208SOL    HW1 1523   6.945   4.492   5.623
  208SOL    HW2 1524   0.071   4.443   5.637
  209SOL     OW 1525   0.144   4.915   3.621
  209SOL    HW1 1526   0.140   4.978   3.544
  209SOL    HW2 1527   0.054   4.874   3.635
  210SOL     OW 1528   4.347   1.832   0.434
  210SOL    HW1 1529   4.402   1.915   0.427
  210SOL    HW2 1530   4.317   1.819   0.528
  211SOL     OW 1531   1.246   6.182   1.609
  211SOL    HW1 1532   1.286   6.138   1.689
  211SOL    HW2 1533   1.208   6.271   1.635
  212SOL     OW 1534   1.500   3.693   2.163
  212SOL    HW1 1535   1.505   3.596   2.138
  212SOL    HW2 1536   1.533   3.705   2.256
  213SOL     OW 1537   2.965   6.643   0.693
  213SOL    HW1 1538   2.964   6.566   0.629
  213SOL    HW2 1539   3.058   6.655   0.729
  214SOL     OW 1540   3.364   5.708   3.106
  214SOL    HW1 1541   3.366   5.611   3.130
  214SOL    HW2 1542   3.347   5.716   3.008
  215SOL     OW 1543   3.040   3.728   0.793
  215SOL    HW1 1544   3.093   3.685   0.866
  215SOL    HW2 1545   3.093   3.728   0.708
  216SOL     OW 1546   0.449   5.732   3.091
  216SOL    HW1 1547   0.397   5.730   3.006
  216SOL    HW2 1548   0.399   5.787   3.159
  217SOL     OW 1549   1.438   2.592   4.469
  217SOL    HW1 1550   1.457   2.625   4.562
  217SOL    HW2 1551   1.524   2.579   4.421
  218SOL     OW 1552   1.035   2.671   4.442
  218SOL    HW1 1553   0.943   2.697   4.413
  218SOL    HW2 1554   1.065   2.731   4.516
  219SOL     OW 1555   4.382   6.732   7.013
  219SOL    HW1 1556   4.293   6.686   7.005
  219SOL    HW2 1557   4.454   6.670   6.982
  220SOL     OW 1558   2.967   6.951   1.465
  220SOL    HW1 1559   2.898   6.895   1.419
  220SOL    HW2 1560   2.956   0.018   1.438
  221SOL     OW 1561   5.564   4.004   1.040
  221SOL    HW1 1562   5.580   4.054   1.125
  221SOL    HW2 1563   5.638   4.023   0.976
  222SOL     OW 1564   1.302   5.203   5.464
  222SOL    HW1 1565   1.316   5.105   5.451
  222SOL    HW2 1566   1.327   5.252   5.380
  223SOL     OW 1567   7.007   3.542   5.895
  223SOL    HW1 1568   6.910   3.559   5.882
  223SOL    HW2 1569   7.022   3.493   5.981
  224SOL     OW 1570   3.039   1.733   6.052
  224SOL    HW1 1571   2.985   1.730   6.135
  224SOL    HW2 1572   3.073   1.826   6.037
  225SOL     OW 1573   4.496   3.825   6.510
  225SOL    HW1 1574   4.459   3.906   6.555
  225SOL    HW2 1575   4.486   3.835   6.411
  226SOL     OW 1576   0.552   1.325   5.662
  226SOL    HW1 1577   0.605   1.365   5.737
  226SOL    HW2 1578   0.533   1.229   5.683
  227SOL     OW 1579   1.042   3.636   2.149
  227SOL    HW1 1580   1.123   3.650   2.092
  227SOL    HW2 1581   1.068   3.587   2.232
  228SOL     OW 1582   2.032   0.177   2.596
  228SOL    HW1 1583   1.960   0.242   2.620
  228SOL    HW2 1584   2.117   0.227   2.577
  229SOL     OW 1585   5.960   5.939   5.979
  229SOL    HW1 1586   5.919   5.853   6.009
  229SOL    HW2 1587   5.925   5.962   5.888
  230SOL     OW 1588   3.816   5.679   4.072
  230SOL    HW1 1589   3.837   5.648   4.164
  230SOL    HW2 1590   3.718   5.665   4.054
  231SOL     OW 1591   6.336   0.972   6.706
  231SOL    HW1 1592   6.353   1.048   6.644
  231SOL    HW2 1593   6.422   0.941   6.746
  232SOL     OW 1594   0.210   3.419   6.904
  232SOL    HW1 1595   0.140   3.372   6.958
  232SOL    HW2 1596   0.165   3.479   6.837
  233SOL     OW 1597   3.486   1.074   2.875
  233SOL    HW1 1598   3.538   1.063   2.790
  233SOL    HW2 1599   3.491   1.169   2.906
  234SOL     OW 1600   5.170   1.043   6.373
  234SOL    HW1 1601   5.104   1.028   6.446
  234SOL    HW2 1602   5.124   1.041   6.284
  235SOL     OW 1603   4.888   2.965   2.184
  235SOL    HW1 1604   4.988   2.975   2.177
  235SOL    HW2 1605   4.845   3.007   2.104
  236SOL     OW 1606   5.378   3.075   6.742
  236SOL    HW1 1607   5.319   3.009   6.696
  236SOL    HW2 1608   5.383   3.052   6.839
  237SOL     OW 1609   0.294   4.404   2.185
  237SOL    HW1 1610   0.353   4.367   2.113
  237SOL    HW2 1611   0.252   4.489   2.153
  238SOL     OW 1612   5.508   1.426   0.359
  238SOL    HW1 1613   5.481   1.487   0.284
  238SOL    HW2 1614   5.567   1.354   0.324
  239SOL     OW 1615   0.812   4.367   6.391
  239SOL    HW1 1616   0.796   4.269   6.381
  239SOL    HW2 1617   0.849   4.385   6.483
  240SOL     OW 1618   0.546   2.746   3.387
  240SOL    HW1 1619   0.470   2.714   3.331
  240SOL    HW2 1620   0.632   2.718   3.344
  241SOL     OW 1621   2.967   2.240   4.784
  241SOL    HW1 1622   2.880   2.290   4.781
  241SOL    HW2 1623   3.008   2.252   4.874
  242SOL     OW 1624   3.386   4.177   4.528
  242SOL    HW1 1625   3.479   4.150   4.502
  242SOL    HW2 1626   3.381   4.276   4.537
  243SOL     OW 1627   4.920   0.836   6.962
  243SOL    HW1 1628   4.864   0.827   0.016
  243SOL    HW2 1629   4.912   0.929   6.926
  244SOL     OW 1630   6.401   3.781   5.762
  244SOL    HW1 1631   6.413   3.774   5.663
  244SOL    HW2 1632   6.332   3.716   5.792
  245SOL     OW 1633   4.766   1.990   4.311
  245SOL    HW1 1634   4.771   1.978   4.212
  245SOL    HW2 1635   4.839   2.052   4.341
  246SOL     OW 1636   4.589   2.193   3.568
  246SOL    HW1 1637   4.631   2.219   3.654
  246SOL    HW2 1638   4.661   2.175   3.500
  247SOL     OW 1639   2.677   2.063   0.671
  247SOL    HW1 1640   2.752   2.003   0.701
  247SOL    HW2 1641   2.706   2.113   0.589
  248SOL     OW 1642   3.615   1.333   2.935
  248SOL    HW1 1643   3.627   1.376   3.025
  248SOL    HW2 1644   3.625   1.402   2.864
  249SOL     OW 1645   5.515   0.152   5.115
  249SOL    HW1 1646   5.504   0.129   5.212
  249SOL    HW2 1647   5.602   0.199   5.101
  250SOL     OW 1648   4.940   3.421   0.144
  250SOL    HW1 1649   5.026   3.387   0.182
  250SOL    HW2 1650   4.906   3.495   0.201
  251SOL     OW 1651   4.577   3.355   5.321
  251SOL    HW1 1652   4.479   3.374   5.329
  251SOL    HW2 1653   4.620   3.426   5.265
  252SOL     OW 1654   6.736   6.416   5.060
  252SOL    HW1 1655   6.796   6.476   5.007
  252SOL    HW2 1656   6.764   6.418   5.156
  253SOL     OW 1657   3.028   5.242   5.850
  253SOL    HW1 1658   2.963   5.182   5.803
  253SOL    HW2 1659   3.018   5.335   5.814
  254SOL     OW 1660   6.441   2.732   3.918
  254SOL    HW1 1661   6.415   2.699   4.009
  254SOL    HW2 1662   6.382   2.808   3.892
  255SOL     OW 1663   2.075   5.112   5.498
  255SOL    HW1 1664   2.167   5.082   5.471
  255SOL    HW2 1665   2.016   5.117   5.418
  256SOL     OW 1666   6.018   4.072   5.754
  256SOL    HW1 1667   6.103   4.082   5.701
  256SOL    HW2 1668   5.948   4.132   5.715
  257SOL     OW 1669   4.902   0.445   3.586
  257SOL    HW1 1670   4.977   0.403   3.537
  257SOL    HW2 1671   4.869   0.525   3.536
  258SOL     OW 1672   2.187   4.960   5.189
  258SOL    HW1 1673   2.270   4.945   5.136
  258SOL    HW2 1674   2.139   4.873   5.202
  259SOL     OW 1675   6.485   1.528   2.968
  259SOL    HW1 1676   6.388   1.512   2.983
  259SOL    HW2 1677   6.538   1.462   3.022
  260SOL     OW 1678   4.372   6.535   2.372
  260SOL    HW1 1679   4.382   6.528   2.472
  260SOL    HW2 1680   4.455   6.502   2.328
  261SOL     OW 1681   6.289   3.065   0.787
  261SOL    HW1 1682   6.246   3.017   0.710
  261SOL    HW2 1683   6.219   3.088   0.855
  262SOL     OW 1684   0.720   3.760   0.204
  262SOL    HW1 1685   0.642   3.819   0.183
  262SOL    HW2 1686   0.778   3.805   0.272
  263SOL     OW 1687   2.302   0.694   4.761
  263SOL    HW1 1688   2.382   0.660   4.810
  263SOL    HW2 1689   2.237   0.732   4.827
  264SOL     OW 1690   5.976   3.178   6.503
  264SOL    HW1 1691   5.960   3.273   6.473
  264SOL    HW2 1692   6.011   3.125   6.426
  265SOL     OW 1693   5.824   6.409   2.782
  265SOL    HW1 1694   5.898   6.474   2.798
  265SOL    HW2 1695   5.780   6.429   2.694
  266SOL     OW 1696   3.531   2.835   5.694
  266SOL    HW1 1697   3.479   2.907   5.648
  266SOL    HW2 1698   3.475   2.793   5.766
  267SOL     OW 1699   0.866   1.551   6.318
  267SOL    HW1 1700   0.825   1.507   6.238
  267SOL    HW2 1701   0.793   1.581   6.381
  268SOL     OW 1702   3.330   1.294   6.220
  268SOL    HW1 1703   3.267   1.218   6.240
  268SOL    HW2 1704   3.282   1.362   6.163
  269SOL     OW 1705   1.579   3.722   1.185
  269SOL    HW1 1706   1.613   3.647   1.242
  269SOL    HW2 1707   1.614   3.712   1.092
  270SOL     OW 1708   1.418   5.975   0.700
  270SOL    HW1 1709   1.491   6.034   0.666
  270SOL    HW2 1710   1.454   5.916   0.772
  271SOL     OW 1711   6.896   1.638   6.738
  271SOL    HW1 1712   6.839   1.682   6.668
  271SOL    HW2 1713   6.899   1.696   6.820
  272SOL     OW 1714   3.514   5.618   3.871
  272SOL    HW1 1715   3.568   5.536   3.851
  272SOL    HW2 1716   3.451   5.636   3.796
  273SOL     OW 1717   2.666   4.619   4.548
  273SOL    HW1 1718   2.697   4.638   4.641
  273SOL    HW2 1719   2.625   4.702   4.510
  274SOL     OW 1720   4.063   1.936   3.138
  274SOL    HW1 1721   4.041   1.885   3.054
  274SOL    HW2 1722   4.066   2.034   3.117
  275SOL     OW 1723   6.940   5.288   3.541
  275SOL    HW1 1724   6.900   5.375   3.569
  275SOL    HW2 1725   6.911   5.216   3.604
  276SOL     OW 1726   6.961   6.246   2.413
  276SOL    HW1 1727   0.029   6.229   2.432
  276SOL    HW2 1728   6.904   6.198   2.481
  277SOL     OW 1729   1.415   4.234   0.492
  277SOL    HW1 1730   1.413   4.314   0.433
  277SOL    HW2 1731   1.389   4.153   0.440
  278SOL     OW 1732   0.377   4.596   1.836
  278SOL    HW1 1733   0.335   4.687   1.833
  278SOL    HW2 1734   0.343   4.547   1.917
  279SOL     OW 1735   5.776   3.116   4.358
  279SOL    HW1 1736   5.798   3.102   4.262
  279SOL    HW2 1737   5.751   3.028   4.399
  280SOL     OW 1738   2.796   6.120   3.270
  280SOL    HW1 1739   2.822   6.024   3.261
  280SOL    HW2 1740   2.867   6.178   3.230
  281SOL     OW 1741   2.605   4.492   1.745
  281SOL    HW1 1742   2.689   4.505   1.799
  281SOL    HW2 1743   2.595   4.396   1.722
  282SOL     OW 1744   3.079   1.145   5.729
  282SOL    HW1 1745   3.026   1.206   5.787
  282SOL    HW2 1746   3.118   1.197   5.653
  283SOL     OW 1747   5.719   2.466   6.389
  283SOL    HW1 1748   5.783   2.455   6.465
  283SOL    HW2 1749   5.761   2.523   6.318
  284SOL     OW 1750   1.303   3.949   3.682
  284SOL    HW1 1751   1.324   3.853   3.704
  284SOL    HW2 1752   1.204   3.958   3.669
  285SOL     OW 1753   5.709   4.989   4.327
  285SOL    HW1 1754   5.805   4.971   4.306
  285SOL    HW2 1755   5.652   4.930   4.270
  286SOL     OW 1756   3.454   5.079   6.306
  286SOL    HW1 1757   3.500   4.991   6.318
  286SOL    HW2 1758   3.444   5.124   6.394
  287SOL     OW 1759   0.820   3.526   1.293
  287SOL    HW1 1760   0.733   3.499   1.334
  287SOL    HW2 1761   0.865   3.445   1.255
  288SOL     OW 1762   3.113   1.365   6.930
  288SOL    HW1 1763   3.083   1.461   6.938
  288SOL    HW2 1764   3.211   1.359   6.947
  289SOL     OW 1765   1.757   4.636   5.913
  289SOL    HW1 1766   1.658   4.647   5.904
  289SOL    HW2 1767   1.802   4.679   5.834
  290SOL     OW 1768   6.297   1.943   4.658
  290SOL    HW1 1769   6.367   2.014   4.653
  290SOL    HW2 1770   6.262   1.937   4.751
  291SOL     OW 1771   1.344   2.356   4.825
  291SOL    HW1 1772   1.330   2.453   4.845
  291SOL    HW2 1773   1.285   2.329   4.749
  292SOL     OW 1774   1.482   2.141   3.322
  292SOL    HW1 1775   1.549   2.091   3.377
  292SOL    HW2 1776   1.466   2.231   3.363
  293SOL     OW 1777   4.059   6.214   2.698
  293SOL    HW1 1778   4.092   6.271   2.773
  293SOL    HW2 1779   4.085   6.119   2.715
  294SOL     OW 1780   0.433   6.198   6.671
  294SOL    HW1 1781   0.519   6.230   6.630
  294SOL    HW2 1782   0.450   6.116   6.725
  295SOL     OW 1783   3.812   1.186   3.603
  295SOL    HW1 1784   3.819   1.285   3.588
  295SOL    HW2 1785   3.808   1.140   3.514
  296SOL     OW 1786   3.793   2.102   3.230
  296SOL    HW1 1787   3.759   2.130   3.141
  296SOL    HW2 1788   3.717   2.099   3.296
  297SOL     OW 1789   2.751   4.839   3.467
  297SOL    HW1 1790   2.827   4.817   3.405
  297SOL    HW2 1791   2.725   4.756   3.518
  298SOL     OW 1792   3.393   5.433   1.947
  298SOL    HW1 1793   3.444   5.512   1.982
  298SOL    HW2 1794   3.346   5.459   1.863
  299SOL     OW 1795   5.848   3.548   6.236
  299SOL    HW1 1796   5.756   3.539   6.198
  299SOL    HW2 1797   5.907   3.477   6.198
  300SOL     OW 1798   6.331   0.894   2.618
  300SOL    HW1 1799   6.239   0.855   2.624
  300SOL    HW2 1800   6.399   0.821   2.621
  301SOL     OW 1801   4.850   3.387   1.321
  301SOL    HW1 1802   4.911   3.314   1.352
  301SOL    HW2 1803   4.904   3.460   1.279
  302SOL     OW 1804   1.254   0.222   3.315
  302SOL    HW1 1805   1.298   0.309   3.337
  302SOL    HW2 1806   1.317   0.165   3.261
  303SOL     OW 1807   5.943   0.537   2.020
  303SOL    HW1 1808   5.915   0.582   2.105
  303SOL    HW2 1809   5.933   0.601   1.944
  304SOL     OW 1810   2.406   0.164   3.510
  304SOL    HW1 1811   2.384   0.086   3.569
  304SOL    HW2 1812   2.506   0.174   3.505
  305SOL     OW 1813   0.351   3.669   0.311
  305SOL    HW1 1814   0.410   3.589   0.318
  305SOL    HW2 1815   0.356   3.706   0.218
  306SOL     OW 1816   1.685   0.525   3.810
  306SOL    HW1 1817   1.770   0.478   3.830
  306SOL    HW2 1818   1.673   0.531   3.711
  307SOL     OW 1819   4.562   6.828   0.457
  307SOL    HW1 1820   4.482   6.807   0.512
  307SOL    HW2 1821   4.636   6.860   0.517
  308SOL     OW 1822   6.292   3.768   4.869
  308SOL    HW1 1823   6.335   3.842   4.818
  308SOL    HW2 1824   6.248   3.805   4.951
  309SOL     OW 1825   4.185   3.890   6.180
  309SOL    HW1 1826   4.185   3.791   6.196
  309SOL    HW2 1827   4.260   3.914   6.120
  310SOL     OW 1828   6.807   6.733   5.899
  310SOL    HW1 1829   6.865   6.706   5.822
  310SOL    HW2 1830   6.836   6.823   5.932
  311SOL     OW 1831   6.578   5.010   1.922
  311SOL    HW1 1832   6.638   4.978   1.848
  311SOL    HW2 1833   6.633   5.034   2.002
  312SOL     OW 1834   4.510   2.288   5.884
  312SOL    HW1 1835   4.551   2.300   5.794
  312SOL    HW2 1836   4.410   2.295   5.877
  313SOL     OW 1837   2.876   4.343   1.645
  313SOL    HW1 1838   2.872   4.415   1.713
  313SOL    HW2 1839   2.948   4.363   1.579
  314SOL     OW 1840   3.065   5.693   0.152
  314SOL    HW1 1841   2.974   5.709   0.192
  314SOL    HW2 1842   3.092   5.598   0.167
  315SOL     OW 1843   1.242   2.456   3.603
  315SOL    HW1 1844   1.159   2.409   3.633
  315SOL    HW2 1845   1.248   2.545   3.647
  316SOL     OW 1846   2.129   2.443   4.276
  316SOL    HW1 1847   2.150   2.485   4.364
  316SOL    HW2 1848   2.092   2.512   4.214
  317SOL     OW 1849   1.064   1.137   0.666
  317SOL    HW1 1850   1.039   1.102   0.756
  317SOL    HW2 1851   0.982   1.172   0.620
  318SOL     OW 1852   1.043   5.519   0.660
  318SOL    HW1 1853   1.006   5.480   0.575
  318SOL    HW2 1854   0.997   5.477   0.738
  319SOL     OW 1855   0.277   0.389   2.400
  319SOL    HW1 1856   0.225   0.308   2.426
  319SOL    HW2 1857   0.231   0.471   2.435
  320SOL     OW 1858   5.175   2.440   6.499
  320SOL    HW1 1859   5.195   2.409   6.592
  320SOL    HW2 1860   5.111   2.517   6.503
  321SOL     OW 1861   2.928   1.185   2.414
  321SOL    HW1 1862   2.884   1.274   2.405
  321SOL    HW2 1863   2.871   1.115   2.370
  322SOL     OW 1864   3.232   3.753   4.364
  322SOL    HW1 1865   3.262   3.734   4.271
  322SOL    HW2 1866   3.154   3.816   4.362
  323SOL     OW 1867   0.570   4.052   6.975
  323SOL    HW1 1868   0.470   4.054   6.971
  323SOL    HW2 1869   0.604   3.961   6.952
  324SOL     OW 1870   1.646   3.047   3.805
  324SOL    HW1 1871   1.661   3.079   3.899
  324SOL    HW2 1872   1.715   3.087   3.745
  325SOL     OW 1873   1.880   3.130   1.359
  325SOL    HW1 1874   1.849   3.045   1.316
  325SOL    HW2 1875   1.979   3.127   1.373
  326SOL     OW 1876   1.925   5.782   6.760
  326SOL    HW1 1877   1.997   5.789   6.691
  326SOL    HW2 1878   1.962   5.741   6.843
  327SOL     OW 1879   1.159   5.398   3.731
  327SOL    HW1 1880   1.118   5.309   3.752
  327SOL    HW2 1881   1.101   5.446   3.665
  328SOL     OW 1882   3.343   4.902   2.639
  328SOL    HW1 1883   3.357   4.922   2.542
  328SOL    HW2 1884   3.428   4.866   2.678
  329SOL     OW 1885   3.612   4.188   4.221
  329SOL    HW1 1886   3.541   4.240   4.174
  329SOL    HW2 1887   3.688   4.171   4.159
  330SOL     OW 1888   3.390   5.928   2.069
  330SOL    HW1 1889   3.314   5.887   2.120
  330SOL    HW2 1890   3.389   6.027   2.082
  331SOL     OW 1891   4.769   4.958   6.779
  331SOL    HW1 1892   4.719   5.040   6.807
  331SOL    HW2 1893   4.741   4.932   6.687
  332SOL     OW 1894   3.492   2.087   4.297
  332SOL    HW1 1895   3.555   2.085   4.219
  332SOL    HW2 1896   3.502   2.002   4.349
  333SOL     OW 1897   3.721   6.831   6.993
  333SOL    HW1 1898   3.766   6.744   7.012
  333SOL    HW2 1899   3.789   6.905   6.997
  334SOL     OW 1900   2.886   6.928   0.982
  334SOL    HW1 1901   2.856   6.870   1.059
  334SOL    HW2 1902   2.979   6.903   0.956
  335SOL     OW 1903   3.276   6.667   3.761
  335SOL    HW1 1904   3.275   6.646   3.859
  335SOL    HW2 1905   3.224   6.597   3.711
  336SOL     OW 1906   2.320   0.502   3.637
  336SOL    HW1 1907   2.407   0.505   3.688
  336SOL    HW2 1908   2.326   0.430   3.567
  337SOL     OW 1909   0.142   3.333   0.788
  337SOL    HW1 1910   0.130   3.399   0.714
  337SOL    HW2 1911   0.181   3.379   0.868
  338SOL     OW 1912   2.658   2.776   1.122
  338SOL    HW1 1913   2.590   2.711   1.089
  338SOL    HW2 1914   2.689   2.747   1.213
  339SOL     OW 1915   3.778   6.883   3.894
  339SOL    HW1 1916   3.778   6.871   3.795
  339SOL    HW2 1917   3.867   6.856   3.931
  340SOL     OW 1918   5.335   4.166   4.834
  340SOL    HW1 1919   5.417   4.150   4.889
  340SOL    HW2 1920   5.359   4.215   4.751
  341SOL     OW 1921   6.448   6.894   4.031
  341SOL    HW1 1922   6.501   6.929   3.953
  341SOL    HW2 1923   6.351   6.891   4.006
  342SOL     OW 1924   5.740   4.260   6.929
  342SOL    HW1 1925   5.655   4.207   6.924
  342SOL    HW2 1926   5.800   4.221   6.998
  343SOL     OW 1927   2.317   5.704   1.059
  343SOL    HW1 1928   2.412   5.710   1.029
  343SOL    HW2 1929   2.314   5.704   1.159
  344SOL     OW 1930   1.994   5.605   1.838
  344SOL    HW1 1931   2.083   5.650   1.848
  344SOL    HW2 1932   1.923   5.674   1.825
  345SOL     OW 1933   6.850   0.853   5.636
  345SOL    HW1 1934   6.924   0.859   5.569
  345SOL    HW2 1935   6.780   0.790   5.603
  346SOL     OW 1936   2.354   0.081   1.745
  346SOL    HW1 1937   2.378   0.005   1.806
  346SOL    HW2 1938   2.344   0.165   1.799
  347SOL     OW 1939   4.997   0.228   6.640
  347SOL    HW1 1940   4.899   0.220   6.619
  347SOL    HW2 1941   5.014   0.313   6.689
  348SOL     OW 1942   4.615   4.907   1.592
  348SOL    HW1 1943   4.561   4.828   1.564
  348SOL    HW2 1944   4.707   4.877   1.617
  349SOL     OW 1945   6.979   4.656   1.985
  349SOL    HW1 1946   6.962   4.754   1.997
  349SOL    HW2 1947   6.918   4.620   1.914
  350SOL     OW 1948   3.775   3.603   1.690
  350SOL    HW1 1949   3.734   3.521   1.649
  350SOL    HW2 1950   3.703   3.668   1.713
  351SOL     OW 1951   2.469   2.786   0.636
  351SOL    HW1 1952   2.393   2.823   0.689
  351SOL    HW2 1953   2.466   2.686   0.639
  352SOL     OW 1954   3.633   0.058   4.906
  352SOL    HW1 1955   3.622   0.123   4.830
  352SOL    HW2 1956   3.656   6.997   4.869
  353SOL     OW 1957   2.727   6.987   0.728
  353SOL    HW1 1958   2.808   6.978   0.670
  353SOL    HW2 1959   2.755   7.008   0.822
  354SOL     OW 1960   4.195   2.580   0.248
  354SOL    HW1 1961   4.172   2.656   0.310
  354SOL    HW2 1962   4.211   2.616   0.156
  355SOL     OW 1963   6.725   3.087   2.892
  355SOL    HW1 1964   6.801   3.030   2.864
  355SOL    HW2 1965   6.748   3.184   2.878
  356SOL     OW 1966   4.169   5.593   4.522
  356SOL    HW1 1967   4.115   5.652   4.462
  356SOL    HW2 1968   4.249   5.560   4.472
  357SOL     OW 1969   6.806   6.891   5.146
  357SOL    HW1 1970   6.779   6.980   5.184
  357SOL    HW2 1971   6.746   6.820   5.183
  358SOL     OW 1972   6.510   0.128   1.251
  358SOL    HW1 1973   6.509   0.215   1.203
  358SOL    HW2 1974   6.497   0.053   1.186
  359SOL     OW 1975   1.792   2.566   2.371
  359SOL    HW1 1976   1.839   2.479   2.357
  359SOL    HW2 1977   1.783   2.614   2.284
  360SOL     OW 1978   2.632   6.365   6.322
  360SOL    HW1 1979   2.720   6.343   6.281
  360SOL    HW2 1980   2.575   6.413   6.255
  361SOL     OW 1981   5.558   5.556   2.795
  361SOL    HW1 1982   5.639   5.498   2.788
  361SOL    HW2 1983   5.577   5.634   2.854
  362SOL     OW 1984   3.558   3.588   0.408
  362SOL    HW1 1985   3.655   3.598   0.385
  362SOL    HW2 1986   3.549   3.530   0.490
  363SOL     OW 1987   3.498   5.084   3.626
  363SOL    HW1 1988   3.562   5.050   3.696
  363SOL    HW2 1989   3.443   5.158   3.665
  364SOL     OW 1990   0.320   5.510   5.009
  364SOL    HW1 1991   0.378   5.551   4.939
  364SOL    HW2 1992   0.376   5.464   5.078
  365SOL     OW 1993   4.184   6.686   2.853
  365SOL    HW1 1994   4.230   6.729   2.930
  365SOL    HW2 1995   4.252   6.640   2.795
  366SOL     OW 1996   5.544   0.712   0.159
  366SOL    HW1 1997   5.610   0.771   0.111
  366SOL    HW2 1998   5.570   0.703   0.255
  367SOL     OW 1999   5.134   2.556   0.954
  367SOL    HW1 2000   5.209   2.546   0.889
  367SOL    HW2 2001   5.048   2.567   0.904
  368SOL     OW 2002   1.395   4.207   5.278
  368SOL    HW1 2003   1.352   4.157   5.353
  368SOL    HW2 2004   1.444   4.142   5.219
  369SOL     OW 2005   6.665   4.329   1.795
  369SOL    HW1 2006   6.761   4.348   1.812
  369SOL    HW2 2007   6.657   4.251   1.733
  370SOL     OW 2008   2.579   1.394   5.225
  370SOL    HW1 2009   2.631   1.311   5.205
  370SOL    HW2 2010   2.633   1.475   5.199
  371SOL     OW 2011   2.053   3.761   6.263
  371SOL    HW1 2012   1.972   3.706   6.242
  371SOL    HW2 2013   2.024   3.849   6.302
  372SOL     OW 2014   0.144   0.434   5.148
  372SOL    HW1 2015   0.178   0.370   5.217
  372SOL    HW2 2016   0.046   0.419   5.135
  373SOL     OW 2017   6.913   6.933   5.567
  373SOL    HW1 2018   6.830   6.885   5.539
  373SOL    HW2 2019   6.967   6.873   5.627
  374SOL     OW 2020   4.278   6.960   2.471
  374SOL    HW1 2021   4.252   0.016   2.425
  374SOL    HW2 2022   4.339   6.982   2.547
  375SOL     OW 2023   0.074   4.529   3.627
  375SOL    HW1 2024   0.008   4.483   3.686
  375SOL    HW2 2025   0.064   4.496   3.533
  376SOL     OW 2026   1.835   3.485   3.507
  376SOL    HW1 2027   1.813   3.478   3.410
  376SOL    HW2 2028   1.755   3.459   3.561
  377SOL     OW 2029   5.986   2.746   2.573
  377SOL    HW1 2030   6.067   2.796   2.541
  377SOL    HW2 2031   5.991   2.651   2.544
  378SOL     OW 2032   3.821   2.896   5.685
  378SOL    HW1 2033   3.828   2.955   5.604
  378SOL    HW2 2034   3.726   2.869   5.699
  379SOL     OW 2035   5.865   3.432   1.692
  379SOL    HW1 2036   5.876   3.332   1.691
  379SOL    HW2 2037   5.770   3.455   1.670
  380SOL     OW 2038   2.396   1.452   1.910
  380SOL    HW1 2039   2.412   1.465   1.812
  380SOL    HW2 2040   2.481   1.470   1.960
  381SOL     OW 2041   1.955   4.657   1.633
  381SOL    HW1 2042   2.032   4.721   1.637
  381SOL    HW2 2043   1.940   4.618   1.724
  382SOL     OW 2044   3.975   5.659   6.868
  382SOL    HW1 2045   4.070   5.639   6.844
  382SOL    HW2 2046   3.971   5.739   6.927
  383SOL     OW 2047   6.519   2.919   6.278
  383SOL    HW1 2048   6.489   2.831   6.243
  383SOL    HW2 2049   6.555   2.908   6.370
  384SOL     OW 2050   1.258   3.920   4.945
  384SOL    HW1 2051   1.301   3.846   4.997
  384SOL    HW2 2052   1.329   3.974   4.900
  385SOL     OW 2053   5.087   6.544   0.038
  385SOL    HW1 2054   4.992   6.575   0.033
  385SOL    HW2 2055   5.142   6.612   0.086
  386SOL     OW 2056   4.154   6.824   5.444
  386SOL    HW1 2057   4.233   6.765   5.426
  386SOL    HW2 2058   4.175   6.885   5.520
  387SOL     OW 2059   0.256   6.861   3.964
  387SOL    HW1 2060   0.231   6.820   3.876
  387SOL    HW2 2061   0.172   6.887   4.013
  388SOL     OW 2062   0.071   2.021   5.009
  388SOL    HW1 2063   0.070   2.011   5.108
  388SOL    HW2 2064   0.067   1.930   4.966
  389SOL     OW 2065   4.344   4.063   1.668
  389SOL    HW1 2066   4.351   3.965   1.687
  389SOL    HW2 2067   4.397   4.113   1.736
  390SOL     OW 2068   3.300   1.196   0.511
  390SOL    HW1 2069   3.394   1.221   0.534
  390SOL    HW2 2070   3.290   1.194   0.411
  391SOL     OW 2071   2.630   4.200   5.510
  391SOL    HW1 2072   2.581   4.128   5.461
  391SOL    HW2 2073   2.565   4.265   5.548
  392SOL     OW 2074   1.259   3.455   2.023
  392SOL    HW1 2075   1.290   3.497   1.938
  392SOL    HW2 2076   1.331   3.399   2.061
  393SOL     OW 2077   1.201   4.316   1.045
  393SOL    HW1 2078   1.149   4.401   1.039
  393SOL    HW2 2079   1.294   4.337   1.074
  394SOL     OW 2080   0.352   3.029   7.020
  394SOL    HW1 2081   0.364   3.083   6.936
  394SOL    HW2 2082   0.442   3.004   0.028
  395SOL     OW 2083   5.562   4.204   2.177
  395SOL    HW1 2084   5.550   4.120   2.231
  395SOL    HW2 2085   5.647   4.249   2.204
  396SOL     OW 2086   2.455   2.076   2.287
  396SOL    HW1 2087   2.546   2.048   2.257
  396SOL    HW2 2088   2.393   2.080   2.208
  397SOL     OW 2089   4.704   1.321   5.753
  397SOL    HW1 2090   4.748   1.387   5.692
  397SOL    HW2 2091   4.707   1.230   5.713
  398SOL     OW 2092   1.363   6.762   4.537
  398SOL    HW1 2093   1.274   6.796   4.567
  398SOL    HW2 2094   1.357   6.733   4.441
  399SOL     OW 2095   5.962   6.432   3.872
  399SOL    HW1 2096   5.905   6.351   3.885
  399SOL    HW2 2097   5.953   6.493   3.950
  400SOL     OW 2098   6.662   0.229   4.657
  400SOL    HW1 2099   6.616   0.296   4.716
  400SOL    HW2 2100   6.593   0.172   4.612
  401SOL     OW 2101   6.511   1.260   6.303
  401SOL    HW1 2102   6.541   1.208   6.223
  401SOL    HW2 2103   6.530   1.207   6.385
  402SOL     OW 2104   6.318   0.624   2.522
  402SOL    HW1 2105   6.230   0.670   2.528
  402SOL    HW2 2106   6.375   0.651   2.599
  403SOL     OW 2107   2.952   0.224   5.971
  403SOL    HW1 2108   2.960   0.125   5.978
  403SOL    HW2 2109   3.015   0.258   5.901
  404SOL     OW 2110   3.587   6.438   5.794
  404SOL    HW1 2111   3.636   6.491   5.863
  404SOL    HW2 2112   3.567   6.347   5.829
  405SOL     OW 2113   1.879   3.974   3.014
  405SOL    HW1 2114   1.933   3.957   3.097
  405SOL    HW2 2115   1.782   3.955   3.033
  406SOL     OW 2116   0.868   4.988   5.035
  406SOL    HW1 2117   0.839   4.907   5.084
  406SOL    HW2 2118   0.939   4.963   4.968
  407SOL     OW 2119   1.635   3.337   3.729
  407SOL    HW1 2120   1.535   3.344   3.737
  407SOL    HW2 2121   1.659   3.255   3.678
  408SOL     OW 2122   3.732   2.120   2.946
  408SOL    HW1 2123   3.811   2.138   2.887
  408SOL    HW2 2124   3.683   2.040   2.912
  409SOL     OW 2125   0.099   3.471   1.874
  409SOL    HW1 2126   0.189   3.436   1.900
  409SOL    HW2 2127   0.078   3.443   1.780
  410SOL     OW 2128   1.738   2.351   1.288
  410SOL    HW1 2129   1.752   2.347   1.387
  410SOL    HW2 2130   1.640   2.363   1.269
  411SOL     OW 2131   0.286   2.314   1.889
  411SOL    HW1 2132   0.341   2.231   1.895
  411SOL    HW2 2133   0.287   2.361   1.977
  412SOL     OW 2134   2.641   4.641   2.973
  412SOL    HW1 2135   2.718   4.628   2.911
  412SOL    HW2 2136   2.632   4.738   2.997
  413SOL     OW 2137   3.416   4.945   2.377
  413SOL    HW1 2138   3.414   5.045   2.377
  413SOL    HW2 2139   3.400   4.911   2.284
  414SOL     OW 2140   3.147   6.976   3.844
  414SOL    HW1 2141   3.204   6.932   3.775
  414SOL    HW2 2142   3.161   0.046   3.842
  415SOL     OW 2143   6.838   1.326   0.348
  415SOL    HW1 2144   6.822   1.405   0.408
  415SOL    HW2 2145   6.848   1.358   0.254
  416SOL     OW 2146   5.314   3.707   4.941
  416SOL    HW1 2147   5.244   3.668   5.001
  416SOL    HW2 2148   5.290   3.802   4.920
  417SOL     OW 2149   2.576   1.784   6.929
  417SOL    HW1 2150   2.586   1.734   6.843
  417SOL    HW2 2151   2.580   1.719   7.005
  418SOL     OW 2152   3.275   6.686   4.657
  418SOL    HW1 2153   3.269   6.677   4.756
  418SOL    HW2 2154   3.266   6.782   4.631
  419SOL     OW 2155   0.199   6.842   1.762
  419SOL    HW1 2156   0.297   6.852   1.747
  419SOL    HW2 2157   0.182   6.755   1.809
  420SOL     OW 2158   5.421   0.885   6.953
  420SOL    HW1 2159   5.350   0.820   6.927
  420SOL    HW2 2160   5.508   0.857   6.911
  421SOL     OW 2161   5.059   4.191   4.667
  421SOL    HW1 2162   5.102   4.105   4.639
  421SOL    HW2 2163   5.029   4.184   4.762
  422SOL     OW 2164   4.819   2.103   1.193
  422SOL    HW1 2165   4.758   2.041   1.143
  422SOL    HW2 2166   4.845   2.062   1.280
  423SOL     OW 2167   2.776   0.959   6.268
  423SOL    HW1 2168   2.755   1.055   6.284
  423SOL    HW2 2169   2.803   0.947   6.172
  424SOL     OW 2170   1.570   4.901   2.964
  424SOL    HW1 2171   1.605   4.888   2.872
  424SOL    HW2 2172   1.470   4.900   2.962
  425SOL     OW 2173   4.837   1.220   4.851
  425SOL    HW1 2174   4.751   1.251   4.809
  425SOL    HW2 2175   4.902   1.193   4.780
  426SOL     OW 2176   2.493   2.243   4.923
  426SOL    HW1 2177   2.496   2.299   5.006
  426SOL    HW2 2178   2.578   2.191   4.916
  427SOL     OW 2179   4.622   1.481   3.564
  427SOL    HW1 2180   4.577   1.429   3.491
  427SOL    HW2 2181   4.700   1.530   3.525
  428SOL     OW 2182   2.870   0.986   4.923
  428SOL    HW1 2183   2.880   0.925   4.844
  428SOL    HW2 2184   2.831   1.073   4.893
  429SOL     OW 2185   0.966   6.050   3.948
  429SOL    HW1 2186   0.939   6.013   3.859
  429SOL    HW2 2187   1.064   6.066   3.949
  430SOL     OW 2188   1.670   6.978   3.937
  430SOL    HW1 2189   1.766   7.004   3.945
  430SOL    HW2 2190   1.612   0.030   3.949
  431SOL     OW 2191   3.155   2.089   1.178
  431SOL    HW1 2192   3.251   2.080   1.201
  431SOL    HW2 2193   3.133   2.186   1.167
  432SOL     OW 2194   4.687   2.395   1.421
  432SOL    HW1 2195   4.639   2.330   1.362
  432SOL    HW2 2196   4.656   2.488   1.400
  433SOL     OW 2197   3.069   6.353   6.604
  433SOL    HW1 2198   3.051   6.419   6.531
  433SOL    HW2 2199   3.019   6.380   6.686
  434SOL     OW 2200   3.665   6.500   3.626
  434SOL    HW1 2201   3.637   6.423   3.568
  434SOL    HW2 2202   3.640   6.586   3.580
  435SOL     OW 2203   3.280   1.699   5.714
  435SOL    HW1 2204   3.374   1.685   5.683
  435SOL    HW2 2205   3.260   1.797   5.716
  436SOL     OW 2206   3.551   6.020   3.447
  436SOL    HW1 2207   3.636   6.073   3.436
  436SOL    HW2 2208   3.521   5.988   3.358
  437SOL     OW 2209   0.168   0.735   4.562
  437SOL    HW1 2210   0.120   0.656   4.522
  437SOL    HW2 2211   0.117   0.818   4.540
  438SOL     OW 2212   0.787   5.118   3.436
  438SOL    HW1 2213   0.753   5.025   3.419
  438SOL    HW2 2214   0.872   5.113   3.489
  439SOL     OW 2215   5.865   0.285   2.552
  439SOL    HW1 2216   5.857   0.378   2.516
  439SOL    HW2 2217   5.936   0.236   2.501
  440SOL     OW 2218   3.629   0.723   0.418
  440SOL    HW1 2219   3.635   0.804   0.360
  440SOL    HW2 2220   3.658   0.746   0.510
  441SOL     OW 2221   6.179   4.834   2.938
  441SOL    HW1 2222   6.139   4.743   2.948
  441SOL    HW2 2223   6.241   4.853   3.015
  442SOL     OW 2224   4.935   3.887   5.678
  442SOL    HW1 2225   5.024   3.901   5.635
  442SOL    HW2 2226   4.892   3.976   5.694
  443SOL     OW 2227   4.905   4.207   3.216
  443SOL    HW1 2228   4.884   4.123   3.267
  443SOL    HW2 2229   4.822   4.237   3.168
  444SOL     OW 2230   4.021   1.150   1.106
  444SOL    HW1 2231   4.015   1.181   1.201
  444SOL    HW2 2232   4.116   1.160   1.073
  445SOL     OW 2233   2.510   5.790   2.934
  445SOL    HW1 2234   2.556   5.704   2.914
  445SOL    HW2 2235   2.449   5.813   2.859
  446SOL     OW 2236   5.565   5.790   2.947
  446SOL    HW1 2237   5.590   5.872   2.999
  446SOL    HW2 2238   5.491   5.813   2.884
  447SOL     OW 2239   5.834   4.431   6.339
  447SOL    HW1 2240   5.759   4.470   6.392
  447SOL    HW2 2241   5.850   4.337   6.369
  448SOL     OW 2242   3.212   1.718   2.495
  448SOL    HW1 2243   3.155   1.670   2.429
  448SOL    HW2 2244   3.265   1.652   2.548
  449SOL     OW 2245   1.742   2.754   3.771
  449SOL    HW1 2246   1.658   2.703   3.751
  449SOL    HW2 2247   1.721   2.851   3.781
  450SOL     OW 2248   0.704   4.700   2.939
  450SOL    HW1 2249   0.685   4.673   2.845
  450SOL    HW2 2250   0.760   4.783   2.939
  451SOL     OW 2251   0.220   2.291   3.601
  451SOL    HW1 2252   0.267   2.203   3.591
  451SOL    HW2 2253   0.197   2.306   3.697
  452SOL     OW 2254   3.832   6.452   3.054
  452SOL    HW1 2255   3.890   6.482   2.978
  452SOL    HW2 2256   3.760   6.392   3.019
  453SOL     OW 2257   4.334   6.987   0.079
  453SOL    HW1 2258   4.321   0.019   0.000
  453SOL    HW2 2259   4.359   6.896   0.047
  454SOL     OW 2260   6.896   4.542   5.925
  454SOL    HW1 2261   6.807   4.550   5.881
  454SOL    HW2 2262   6.925   4.446   5.928
  455SOL     OW 2263   6.704   4.243   5.778
  455SOL    HW1 2264   6.672   4.332   5.811
  455SOL    HW2 2265   6.789   4.219   5.824
  456SOL     OW 2266   2.191   1.208   3.119
  456SOL    HW1 2267   2.219   1.273   3.048
  456SOL    HW2 2268   2.270   1.183   3.175
  457SOL     OW 2269   1.946   5.891   6.043
  457SOL    HW1 2270   1.993   5.824   5.985
  457SOL    HW2 2271   1.988   5.890   6.134
  458SOL     OW 2272   2.486   1.751   3.662
  458SOL    HW1 2273   2.546   1.671   3.670
  458SOL    HW2 2274   2.467   1.769   3.565
  459SOL     OW 2275   2.252   6.958   5.258
  459SOL    HW1 2276   2.324   7.000   5.203
  459SOL    HW2 2277   2.174   6.935   5.200
  460SOL     OW 2278   1.060   1.743   5.449
  460SOL    HW1 2279   1.160   1.746   5.440
  460SOL    HW2 2280   1.024   1.670   5.392
  461SOL     OW 2281   0.162   4.743   5.516
  461SOL    HW1 2282   0.138   4.683   5.592
  461SOL    HW2 2283   0.099   4.820   5.512
  462SOL     OW 2284   3.691   3.696   4.149
  462SOL    HW1 2285   3.663   3.791   4.162
  462SOL    HW2 2286   3.614   3.643   4.115
  463SOL     OW 2287   6.249   6.597   2.565
  463SOL    HW1 2288   6.149   6.603   2.569
  463SOL    HW2 2289   6.281   6.634   2.478
  464SOL     OW 2290   3.365   6.098   6.059
  464SOL    HW1 2291   3.443   6.157   6.079
  464SOL    HW2 2292   3.387   6.040   5.980
  465SOL     OW 2293   1.199   2.079   0.752
  465SOL    HW1 2294   1.209   2.097   0.655
  465SOL    HW2 2295   1.159   2.159   0.797
  466SOL     OW 2296   3.318   6.445   5.058
  466SOL    HW1 2297   3.413   6.441   5.029
  466SOL    HW2 2298   3.275   6.528   5.022
  467SOL     OW 2299   6.998   1.744   2.815
  467SOL    HW1 2300   6.973   1.715   2.908
  467SOL    HW2 2301   6.971   1.839   2.802
  468SOL     OW 2302   4.212   0.875   6.233
  468SOL    HW1 2303   4.263   0.955   6.265
  468SOL    HW2 2304   4.142   0.852   6.300
  469SOL     OW 2305   2.876   4.401   6.132
  469SOL    HW1 2306   2.870   4.379   6.034
  469SOL    HW2 2307   2.862   4.318   6.186
  470SOL     OW 2308   2.468   5.116   3.320
  470SOL    HW1 2309   2.369   5.126   3.308
  470SOL    HW2 2310   2.505   5.062   3.244
  471SOL     OW 2311   2.531   2.435   3.840
  471SOL    HW1 2312   2.596   2.370   3.881
  471SOL    HW2 2313   2.536   2.428   3.740
  472SOL     OW 2314   6.421   4.378   6.091
  472SOL    HW1 2315   6.459   4.297   6.047
  472SOL    HW2 2316   6.393   4.356   6.184
  473SOL     OW 2317   6.923   2.410   2.846
  473SOL    HW1 2318   6.950   2.320   2.880
  473SOL    HW2 2319   6.851   2.400   2.777
  474SOL     OW 2320   6.415   6.142   4.719
  474SOL    HW1 2321   6.376   6.052   4.698
  474SOL    HW2 2322   6.351   6.213   4.690
  475SOL     OW 2323   5.744   1.785   0.257
  475SOL    HW1 2324   5.765   1.875   0.220
  475SOL    HW2 2325   5.819   1.722   0.234
  476SOL     OW 2326   0.887   3.868   1.981
  476SOL    HW1 2327   0.812   3.810   1.949
  476SOL    HW2 2328   0.931   3.825   2.060
  477SOL     OW 2329   2.176   5.918   3.580
  477SOL    HW1 2330   2.206   6.002   3.534
  477SOL    HW2 2331   2.193   5.840   3.520
  478SOL     OW 2332   4.590   5.723   2.883
  478SOL    HW1 2333   4.546   5.658   2.945
  478SOL    HW2 2334   4.520   5.768   2.827
  479SOL     OW 2335   3.975   3.599   3.643
  479SOL    HW1 2336   4.010   3.624   3.733
  479SOL    HW2 2337   4.005   3.666   3.575
  480SOL     OW 2338   1.164   6.822   2.700
  480SOL    HW1 2339   1.148   6.866   2.612
  480SOL    HW2 2340   1.092   6.755   2.718
  481SOL     OW 2341   0.847   6.258   0.395
  481SOL    HW1 2342   0.935   6.244   0.349
  481SOL    HW2 2343   0.808   6.345   0.366
  482SOL     OW 2344   5.296   4.628   2.422
  482SOL    HW1 2345   5.351   4.603   2.343
  482SOL    HW2 2346   5.345   4.606   2.506
  483SOL     OW 2347   5.896   2.183   3.259
  483SOL    HW1 2348   5.841   2.165   3.341
  483SOL    HW2 2349   5.977   2.236   3.285
  484SOL     OW 2350   2.424   4.500   4.649
  484SOL    HW1 2351   2.401   4.465   4.740
  484SOL    HW2 2352   2.522   4.521   4.646
  485SOL     OW 2353   5.476   3.468   2.938
  485SOL    HW1 2354   5.540   3.391   2.933
  485SOL    HW2 2355   5.407   3.450   3.007
  486SOL     OW 2356   6.343   6.479   5.891
  486SOL    HW1 2357   6.381   6.388   5.905
  486SOL    HW2 2358   6.394   6.526   5.819
  487SOL     OW 2359   0.470   6.421   4.075
  487SOL    HW1 2360   0.569   6.408   4.078
  487SOL    HW2 2361   0.439   6.469   4.157
  488SOL     OW 2362   1.861   6.598   3.715
  488SOL    HW1 2363   1.961   6.603   3.717
  488SOL    HW2 2364   1.830   6.583   3.621
  489SOL     OW 2365   6.841   5.777   4.788
  489SOL    HW1 2366   6.777   5.739   4.855
  489SOL    HW2 2367   6.928   5.798   4.833
  490SOL     OW 2368   1.618   5.038   5.845
  490SOL    HW1 2369   1.577   5.109   5.902
  490SOL    HW2 2370   1.656   5.079   5.762
  491SOL     OW 2371   0.436   2.761   0.877
  491SOL    HW1 2372   0.381   2.678   0.874
  491SOL    HW2 2373   0.432   2.808   0.789
  492SOL     OW 2374   1.282   1.457   5.733
  492SOL    HW1 2375   1.188   1.468   5.765
  492SOL    HW2 2376   1.328   1.389   5.789
  493SOL     OW 2377   2.571   6.274   5.028
  493SOL    HW1 2378   2.594   6.223   5.111
  493SOL    HW2 2379   2.518   6.355   5.052
  494SOL     OW 2380   2.218   0.516   5.505
  494SOL    HW1 2381   2.161   0.598   5.505
  494SOL    HW2 2382   2.294   0.528   5.441
  495SOL     OW 2383   4.162   6.037   5.684
  495SOL    HW1 2384   4.144   5.939   5.673
  495SOL    HW2 2385   4.150   6.083   5.596
  496SOL     OW 2386   5.794   2.166   2.827
  496SOL    HW1 2387   5.837   2.116   2.902
  496SOL    HW2 2388   5.829   2.132   2.740
  497SOL     OW 2389   3.266   1.173   6.529
  497SOL    HW1 2390   3.220   1.086   6.508
  497SOL    HW2 2391   3.223   1.215   6.609
  498SOL     OW 2392   0.638   5.496   2.186
  498SOL    HW1 2393   0.573   5.446   2.129
  498SOL    HW2 2394   0.623   5.594   2.177
  499SOL     OW 2395   3.792   4.905   6.904
  499SOL    HW1 2396   3.723   4.900   6.832
  499SOL    HW2 2397   3.748   4.924   6.992
  500SOL     OW 2398   5.968   2.206   6.712
  500SOL    HW1 2399   5.876   2.167   6.700
  500SOL    HW2 2400   5.966   2.273   6.786
  501SOL     OW 2401   0.987   6.740   3.167
  501SOL    HW1 2402   0.961   6.823   3.118
  501SOL    HW2 2403   0.970   6.752   3.265
  502SOL     OW 2404   1.997   4.321   6.772
  502SOL    HW1 2405   1.951   4.367   6.848
  502SOL    HW2 2406   1.952   4.344   6.686
  503SOL     OW 2407   3.521   4.871   6.704
  503SOL    HW1 2408   3.510   4.794   6.641
  503SOL    HW2 2409   3.433   4.892   6.747
  504SOL     OW 2410   6.332   6.168   1.937
  504SOL    HW1 2411   6.244   6.136   1.972
  504SOL    HW2 2412   6.406   6.126   1.990
  505SOL     OW 2413   5.107   6.575   5.353
  505SOL    HW1 2414   5.042   6.627   5.408
  505SOL    HW2 2415   5.134   6.628   5.273
  506SOL     OW 2416   2.853   5.870   3.192
  506SOL    HW1 2417   2.927   5.839   3.133
  506SOL    HW2 2418   2.816   5.792   3.243
  507SOL     OW 2419   4.355   1.260   1.968
  507SOL    HW1 2420   4.270   1.244   2.019
  507SOL    HW2 2421   4.354   1.353   1.930
  508SOL     OW 2422   0.433   4.448   4.622
  508SOL    HW1 2423   0.349   4.489   4.586
  508SOL    HW2 2424   0.475   4.510   4.688
  509SOL     OW 2425   4.386   0.963   6.523
  509SOL    HW1 2426   4.477   0.939   6.556
  509SOL    HW2 2427   4.317   0.915   6.578
  510SOL     OW 2428   6.360   4.663   6.047
  510SOL    HW1 2429   6.409   4.723   6.109
  510SOL    HW2 2430   6.359   4.570   6.084
  511SOL     OW 2431   1.513   1.751   0.744
  511SOL    HW1 2432   1.522   1.666   0.692
  511SOL    HW2 2433   1.424   1.752   0.790
  512SOL     OW 2434   5.441   2.429   0.346
  512SOL    HW1 2435   5.412   2.492   0.274
  512SOL    HW2 2436   5.383   2.347   0.344
  513SOL     OW 2437   5.722   0.543   2.894
  513SOL    HW1 2438   5.811   0.586   2.877
  513SOL    HW2 2439   5.683   0.580   2.978
  514SOL     OW 2440   7.018   6.867   4.059
  514SOL    HW1 2441   6.959   6.879   3.979
  514SOL    HW2 2442   6.962   6.864   4.141
  515SOL     OW 2443   3.223   0.462   6.741
  515SOL    HW1 2444   3.171   0.506   6.668
  515SOL    HW2 2445   3.316   0.444   6.709
  516SOL     OW 2446   3.123   4.987   1.415
  516SOL    HW1 2447   3.178   4.912   1.450
  516SOL    HW2 2448   3.183   5.060   1.382
  517SOL     OW 2449   3.055   5.134   2.508
  517SOL    HW1 2450   3.103   5.161   2.592
  517SOL    HW2 2451   3.084   5.042   2.481
  518SOL     OW 2452   2.174   3.175   3.601
  518SOL    HW1 2453   2.155   3.259   3.651
  518SOL    HW2 2454   2.248   3.125   3.646
  519SOL     OW 2455   6.890   6.582   3.543
  519SOL    HW1 2456   6.849   6.607   3.631
  519SOL    HW2 2457   6.873   6.485   3.525
  520SOL     OW 2458   0.817   3.056   7.011
  520SOL    HW1 2459   0.912   3.079   6.992
  520SOL    HW2 2460   0.794   2.970   6.966
  521SOL     OW 2461   5.061   5.118   4.838
  521SOL    HW1 2462   4.996   5.193   4.845
  521SOL    HW2 2463   5.019   5.043   4.786
  522SOL     OW 2464   4.574   3.626   1.035
  522SOL    HW1 2465   4.558   3.537   1.078
  522SOL    HW2 2466   4.596   3.693   1.106
  523SOL     OW 2467   0.228   6.221   1.467
  523SOL    HW1 2468   0.300   6.153   1.482
  523SOL    HW2 2469   0.195   6.255   1.556
  524SOL     OW 2470   0.376   2.654   2.374
  524SOL    HW1 2471   0.283   2.677   2.345
  524SOL    HW2 2472   0.373   2.574   2.435
  525SOL     OW 2473   0.976   3.785   0.342
  525SOL    HW1 2474   0.981   3.861   0.278
  525SOL    HW2 2475   1.067   3.767   0.380
  526SOL     OW 2476   3.581   0.216   4.692
  526SOL    HW1 2477   3.516   0.273   4.742
  526SOL    HW2 2478   3.546   0.199   4.600
  527SOL     OW 2479   1.218   2.030   6.918
  527SOL    HW1 2480   1.241   2.070   7.006
  527SOL    HW2 2481   1.278   2.067   6.847
  528SOL     OW 2482   0.407   3.722   4.142
  528SOL    HW1 2483   0.362   3.650   4.194
  528SOL    HW2 2484   0.345   3.757   4.072
  529SOL     OW 2485   2.433   6.776   5.705
  529SOL    HW1 2486   2.445   6.805   5.610
  529SOL    HW2 2487   2.402   6.681   5.708
  530SOL     OW 2488   3.802   3.442   1.376
  530SOL    HW1 2489   3.775   3.401   1.463
  530SOL    HW2 2490   3.859   3.378   1.325
  531SOL     OW 2491   2.629   0.736   2.434
  531SOL    HW1 2492   2.572   0.708   2.356
  531SOL    HW2 2493   2.718   0.767   2.401
  532SOL     OW 2494   2.457   3.165   0.115
  532SOL    HW1 2495   2.463   3.229   0.192
  532SOL    HW2 2496   2.547   3.156   0.072
  533SOL     OW 2497   4.305   0.462   3.283
  533SOL    HW1 2498   4.311   0.438   3.380
  533SOL    HW2 2499   4.273   0.384   3.231
  534SOL     OW 2500   0.853   5.565   1.057
  534SOL    HW1 2501   0.945   5.532   1.076
  534SOL    HW2 2502   0.792   5.539   1.132
  535SOL     OW 2503   5.277   4.201   3.036
  535SOL    HW1 2504   5.327   4.171   2.955
  535SOL    HW2 2505   5.338   4.201   3.115
  536SOL     OW 2506   6.767   6.173   3.007
  536SOL    HW1 2507   6.686   6.166   2.949
  536SOL    HW2 2508   6.760   6.107   3.082
  537SOL     OW 2509   3.420   6.976   4.146
  537SOL    HW1 2510   3.444   7.025   4.231
  537SOL    HW2 2511   3.468   7.018   4.069
  538SOL     OW 2512   2.362   4.995   5.421
  538SOL    HW1 2513   2.380   4.938   5.501
  538SOL    HW2 2514   2.344   4.937   5.342
  539SOL     OW 2515   1.267   5.667   0.577
  539SOL    HW1 2516   1.190   5.603   0.588
  539SOL    HW2 2517   1.338   5.623   0.523
  540SOL     OW 2518   1.716   0.875   3.834
  540SOL    HW1 2519   1.701   0.942   3.906
  540SOL    HW2 2520   1.693   0.784   3.867
  541SOL     OW 2521   4.367   6.391   4.220
  541SOL    HW1 2522   4.334   6.467   4.276
  541SOL    HW2 2523   4.337   6.305   4.261
  542SOL     OW 2524   3.270   5.684   6.476
  542SOL    HW1 2525   3.192   5.746   6.466
  542SOL    HW2 2526   3.335   5.700   6.402
  543SOL     OW 2527   5.949   3.372   4.144
  543SOL    HW1 2528   5.987   3.377   4.051
  543SOL    HW2 2529   5.900   3.285   4.154
  544SOL     OW 2530   6.920   4.834   0.178
  544SOL    HW1 2531   6.861   4.780   0.239
  544SOL    HW2 2532   6.864   4.878   0.108
  545SOL     OW 2533   5.274   1.510   0.952
  545SOL    HW1 2534   5.209   1.564   0.900
  545SOL    HW2 2535   5.362   1.508   0.904
  546SOL     OW 2536   0.504   4.377   2.354
  546SOL    HW1 2537   0.477   4.323   2.433
  546SOL    HW2 2538   0.423   4.406   2.303
  547SOL     OW 2539   3.690   1.750   0.313
  547SOL    HW1 2540   3.705   1.848   0.301
  547SOL    HW2 2541   3.769   1.709   0.359
  548SOL     OW 2542   3.744   2.985   0.656
  548SOL    HW1 2543   3.751   3.022   0.563
  548SOL    HW2 2544   3.761   3.057   0.722
  549SOL     OW 2545   5.758   2.566   0.733
  549SOL    HW1 2546   5.713   2.655   0.742
  549SOL    HW2 2547   5.713   2.514   0.660
  550SOL     OW 2548   0.248   4.488   3.166
  550SOL    HW1 2549   0.207   4.432   3.094
  550SOL    HW2 2550   0.267   4.580   3.131
  551SOL     OW 2551   0.154   1.092   0.498
  551SOL    HW1 2552   0.181   1.176   0.449
  551SOL    HW2 2553   0.055   1.083   0.497
  552SOL     OW 2554   5.333   5.541   5.749
  552SOL    HW1 2555   5.375   5.531   5.659
  552SOL    HW2 2556   5.234   5.557   5.739
  553SOL     OW 2557   3.290   0.725   4.656
  553SOL    HW1 2558   3.376   0.759   4.695
  553SOL    HW2 2559   3.239   0.801   4.617
  554SOL     OW 2560   5.732   5.790   0.320
  554SOL    HW1 2561   5.717   5.851   0.242
  554SOL    HW2 2562   5.718   5.841   0.405
  555SOL     OW 2563   3.339   5.496   5.430
  555SOL    HW1 2564   3.317   5.555   5.352
  555SOL    HW2 2565   3.257   5.447   5.460
  556SOL     OW 2566   5.174   2.142   4.257
  556SOL    HW1 2567   5.262   2.101   4.233
  556SOL    HW2 2568   5.176   2.240   4.236
  557SOL     OW 2569   0.060   4.742   5.864
  557SOL    HW1 2570   0.100   4.768   5.952
  557SOL    HW2 2571   0.021   4.650   5.871
  558SOL     OW 2572   4.107   3.738   3.146
  558SOL    HW1 2573   4.150   3.723   3.057
  558SOL    HW2 2574   4.012   3.766   3.132
  559SOL     OW 2575   6.595   6.016   5.439
  559SOL    HW1 2576   6.631   6.101   5.478
  559SOL    HW2 2577   6.504   6.033   5.400
  560SOL     OW 2578   6.729   3.218   3.820
  560SOL    HW1 2579   6.731   3.281   3.898
  560SOL    HW2 2580   6.805   3.239   3.758
  561SOL     OW 2581   0.095   3.576   6.710
  561SOL    HW1 2582   0.169   3.559   6.644
  561SOL    HW2 2583   0.044   3.657   6.682
  562SOL     OW 2584   4.991   6.712   5.564
  562SOL    HW1 2585   4.926   6.789   5.570
  562SOL    HW2 2586   5.083   6.745   5.581
  563SOL     OW 2587   1.478   1.902   4.297
  563SOL    HW1 2588   1.407   1.958   4.340
  563SOL    HW2 2589   1.524   1.847   4.367
  564SOL     OW 2590   0.253   1.169   6.152
  564SOL    HW1 2591   0.339   1.159   6.203
  564SOL    HW2 2592   0.261   1.245   6.089
  565SOL     OW 2593   3.207   3.024   3.455
  565SOL    HW1 2594   3.195   3.064   3.364
  565SOL    HW2 2595   3.161   3.080   3.523
  566SOL     OW 2596   2.781   5.125   2.982
  566SOL    HW1 2597   2.734   5.169   2.905
  566SOL    HW2 2598   2.783   5.188   3.060
  567SOL     OW 2599   2.701   2.900   0.753
  567SOL    HW1 2600   2.747   2.823   0.798
  567SOL    HW2 2601   2.627   2.865   0.695
  568SOL     OW 2602   5.565   6.875   0.558
  568SOL    HW1 2603   5.590   6.954   0.502
  568SOL    HW2 2604   5.625   6.870   0.638
  569SOL     OW 2605   0.617   2.343   0.165
  569SOL    HW1 2606   0.618   2.442   0.177
  569SOL    HW2 2607   0.606   2.321   0.068
  570SOL     OW 2608   2.982   0.446   6.239
  570SOL    HW1 2609   2.972   0.374   6.170
  570SOL    HW2 2610   2.916   0.519   6.221
  571SOL     OW 2611   2.650   5.088   3.516
  571SOL    HW1 2612   2.589   5.093   3.437
  571SOL    HW2 2613   2.698   5.000   3.516
  572SOL     OW 2614   1.621   5.793   4.749
  572SOL    HW1 2615   1.676   5.876   4.748
  572SOL    HW2 2616   1.660   5.727   4.812
  573SOL     OW 2617   6.603   1.896   6.090
  573SOL    HW1 2618   6.687   1.883   6.038
  573SOL    HW2 2619   6.573   1.991   6.080
  574SOL     OW 2620   3.262   1.170   4.714
  574SOL    HW1 2621   3.185   1.213   4.667
  574SOL    HW2 2622   3.239   1.157   4.810
  575SOL     OW 2623   3.980   2.661   0.845
  575SOL    HW1 2624   3.911   2.667   0.917
  575SOL    HW2 2625   3.998   2.752   0.808
  576SOL     OW 2626   2.292   2.763   2.712
  576SOL    HW1 2627   2.211   2.718   2.674
  576SOL    HW2 2628   2.367   2.698   2.717
  577SOL     OW 2629   0.536   0.629   2.203
  577SOL    HW1 2630   0.470   0.702   2.219
  577SOL    HW2 2631   0.492   0.540   2.216
  578SOL     OW 2632   1.513   5.210   0.385
  578SOL    HW1 2633   1.573   5.266   0.328
  578SOL    HW2 2634   1.461   5.148   0.326
  579SOL     OW 2635   2.266   4.749   2.363
  579SOL    HW1 2636   2.306   4.751   2.271
  579SOL    HW2 2637   2.203   4.671   2.369
  580SOL     OW 2638   4.436   5.213   4.978
  580SOL    HW1 2639   4.494   5.148   5.028
  580SOL    HW2 2640   4.387   5.271   5.043
  581SOL     OW 2641   0.702   3.185   3.843
  581SOL    HW1 2642   0.677   3.117   3.913
  581SOL    HW2 2643   0.801   3.199   3.845
  582SOL     OW 2644   4.896   5.833   3.568
  582SOL    HW1 2645   4.841   5.901   3.617
  582SOL    HW2 2646   4.870   5.832   3.471
  583SOL     OW 2647   2.945   5.171   5.375
  583SOL    HW1 2648   2.992   5.248   5.417
  583SOL    HW2 2649   2.948   5.092   5.436
  584SOL     OW 2650   3.379   0.242   6.457
  584SOL    HW1 2651   3.384   0.160   6.513
  584SOL    HW2 2652   3.413   0.320   6.508
  585SOL     OW 2653   3.859   6.764   1.341
  585SOL    HW1 2654   3.821   6.728   1.426
  585SOL    HW2 2655   3.950   6.801   1.359
  586SOL     OW 2656   4.250   0.266   1.236
  586SOL    HW1 2657   4.328   0.327   1.220
  586SOL    HW2 2658   4.261   0.184   1.180
  587SOL     OW 2659   5.415   1.987   1.668
  587SOL    HW1 2660   5.361   1.905   1.684
  587SOL    HW2 2661   5.505   1.962   1.633
  588SOL     OW 2662   1.654   5.101   0.944
  588SOL    HW1 2663   1.713   5.072   0.868
  588SOL    HW2 2664   1.562   5.117   0.910
  589SOL     OW 2665   3.372   5.733   1.334
  589SOL    HW1 2666   3.434   5.801   1.372
  589SOL    HW2 2667   3.358   5.752   1.237
  590SOL     OW 2668   5.630   1.551   0.577
  590SOL    HW1 2669   5.604   1.494   0.500
  590SOL    HW2 2670   5.730   1.553   0.585
  591SOL     OW 2671   4.386   5.947   3.825
  591SOL    HW1 2672   4.365   6.044   3.815
  591SOL    HW2 2673   4.399   5.906   3.735
  592SOL     OW 2674   4.949   0.919   3.623
  592SOL    HW1 2675   4.917   0.974   3.546
  592SOL    HW2 2676   5.049   0.914   3.621
  593SOL     OW 2677   3.995   2.218   4.672
  593SOL    HW1 2678   4.043   2.207   4.760
  593SOL    HW2 2679   4.060   2.248   4.603
  594SOL     OW 2680   6.036   1.925   1.167
  594SOL    HW1 2681   5.977   1.868   1.224
  594SOL    HW2 2682   5.984   2.003   1.131
  595SOL     OW 2683   5.279   6.790   3.440
  595SOL    HW1 2684   5.215   6.800   3.517
  595SOL    HW2 2685   5.272   6.870   3.380
  596SOL     OW 2686   0.055   4.578   3.338
  596SOL    HW1 2687   0.116   4.538   3.270
  596SOL    HW2 2688   0.108   4.629   3.405
  597SOL     OW 2689   3.296   0.130   5.899
  597SOL    HW1 2690   3.327   0.039   5.872
  597SOL    HW2 2691   3.287   0.135   5.998
  598SOL     OW 2692   3.097   3.859   4.927
  598SOL    HW1 2693   3.109   3.775   4.876
  598SOL    HW2 2694   3.009   3.857   4.975
  599SOL     OW 2695   1.942   6.187   2.040
  599SOL    HW1 2696   2.034   6.209   2.074
  599SOL    HW2 2697   1.880   6.175   2.117
  600SOL     OW 2698   0.228   3.512   5.486
  600SOL    HW1 2699   0.304   3.503   5.422
  600SOL    HW2 2700   0.239   3.447   5.561
  601SOL     OW 2701   1.720   1.143   5.402
  601SOL    HW1 2702   1.782   1.171   5.328
  601SOL    HW2 2703   1.681   1.224   5.445
  602SOL     OW 2704   3.290   6.890   5.640
  602SOL    HW1 2705   3.216   6.953   5.618
  602SOL    HW2 2706   3.359   6.892   5.568
  603SOL     OW 2707   1.848   1.358   5.990
  603SOL    HW1 2708   1.891   1.439   5.950
  603SOL    HW2 2709   1.874   1.351   6.086
  604SOL     OW 2710   0.020   2.331   1.788
  604SOL    HW1 2711   0.115   2.312   1.812
  604SOL    HW2 2712   7.014   2.255   1.732
  605SOL     OW 2713   0.763   4.816   2.520
  605SOL    HW1 2714   0.772   4.719   2.543
  605SOL    HW2 2715   0.694   4.858   2.578
  606SOL     OW 2716   4.741   6.851   5.492
  606SOL    HW1 2717   4.679   6.778   5.463
  606SOL    HW2 2718   4.698   6.905   5.564
  607SOL     OW 2719   0.758   5.352   5.450
  607SOL    HW1 2720   0.856   5.358   5.434
  607SOL    HW2 2721   0.731   5.256   5.453
  608SOL     OW 2722   4.039   0.295   6.651
  608SOL    HW1 2723   3.947   0.275   6.618
  608SOL    HW2 2724   4.042   0.286   6.751
  609SOL     OW 2725   3.852   2.268   1.679
  609SOL    HW1 2726   3.916   2.222   1.740
  609SOL    HW2 2727   3.776   2.304   1.732
  610SOL     OW 2728   4.501   2.274   0.406
  610SOL    HW1 2729   4.476   2.339   0.478
  610SOL    HW2 2730   4.469   2.309   0.318
  611SOL     OW 2731   4.055   6.824   2.413
  611SOL    HW1 2732   4.144   6.858   2.443
  611SOL    HW2 2733   4.015   6.888   2.348
  612SOL     OW 2734   2.704   4.713   5.645
  612SOL    HW1 2735   2.714   4.625   5.689
  612SOL    HW2 2736   2.734   4.707   5.550
  613SOL     OW 2737   5.461   5.332   4.900
  613SOL    HW1 2738   5.447   5.428   4.876
  613SOL    HW2 2739   5.513   5.287   4.827
  614SOL     OW 2740   4.801   5.242   5.279
  614SOL    HW1 2741   4.842   5.308   5.342
  614SOL    HW2 2742   4.701   5.255   5.277
  615SOL     OW 2743   6.975   4.342   0.674
  615SOL    HW1 2744   6.967   4.243   0.691
  615SOL    HW2 2745   0.032   4.376   0.712
  616SOL     OW 2746   6.399   3.222   3.363
  616SOL    HW1 2747   6.473   3.279   3.327
  616SOL    HW2 2748   6.394   3.231   3.462
  617SOL     OW 2749   1.616   5.245   6.487
  617SOL    HW1 2750   1.588   5.191   6.408
  617SOL    HW2 2751   1.556   5.324   6.497
  618SOL     OW 2752   1.689   2.166   1.693
  618SOL    HW1 2753   1.621   2.097   1.672
  618SOL    HW2 2754   1.759   2.128   1.754
  619SOL     OW 2755   1.714   1.849   0.901
  619SOL    HW1 2756   1.640   1.814   0.844
  619SOL    HW2 2757   1.699   1.946   0.919
  620SOL     OW 2758   4.620   1.709   0.423
  620SOL    HW1 2759   4.528   1.747   0.413
  620SOL    HW2 2760   4.680   1.778   0.465
  621SOL     OW 2761   6.326   5.256   6.516
  621SOL    HW1 2762   6.385   5.336   6.504
  621SOL    HW2 2763   6.363   5.198   6.588
  622SOL     OW 2764   1.895   1.143   0.480
  622SOL    HW1 2765   1.906   1.181   0.388
  622SOL    HW2 2766   1.977   1.091   0.504
  623SOL     OW 2767   0.557   5.746   5.728
  623SOL    HW1 2768   0.528   5.794   5.646
  623SOL    HW2 2769   0.653   5.766   5.746
  624SOL     OW 2770   0.566   2.763   2.236
  624SOL    HW1 2771   0.553   2.855   2.199
  624SOL    HW2 2772   0.481   2.731   2.279
  625SOL     OW 2773   3.361   1.602   1.479
  625SOL    HW1 2774   3.440   1.652   1.513
  625SOL    HW2 2775   3.309   1.660   1.416
  626SOL     OW 2776   1.768   5.849   3.492
  626SOL    HW1 2777   1.812   5.760   3.483
  626SOL    HW2 2778   1.716   5.868   3.409
  627SOL     OW 2779   5.525   0.316   0.596
  627SOL    HW1 2780   5.602   0.375   0.572
  627SOL    HW2 2781   5.446   0.372   0.621
  628SOL     OW 2782   4.952   5.394   4.503
  628SOL    HW1 2783   5.015   5.325   4.467
  628SOL    HW2 2784   4.944   5.383   4.602
  629SOL     OW 2785   0.680   0.163   1.547
  629SOL    HW1 2786   0.619   0.088   1.571
  629SOL    HW2 2787   0.648   0.206   1.463
  630SOL     OW 2788   4.820   2.170   1.983
  630SOL    HW1 2789   4.763   2.242   1.945
  630SOL    HW2 2790   4.896   2.210   2.033
  631SOL     OW 2791   3.268   0.537   4.989
  631SOL    HW1 2792   3.340   0.536   4.920
  631SOL    HW2 2793   3.188   0.584   4.953
  632SOL     OW 2794   2.355   1.088   0.300
  632SOL    HW1 2795   2.401   1.010   0.258
  632SOL    HW2 2796   2.390   1.172   0.261
  633SOL     OW 2797   3.478   5.336   0.563
  633SOL    HW1 2798   3.378   5.331   0.563
  633SOL    HW2 2799   3.514   5.275   0.633
  634SOL     OW 2800   4.335   4.834   1.682
  634SOL    HW1 2801   4.296   4.760   1.736
  634SOL    HW2 2802   4.357   4.800   1.590
  635SOL     OW 2803   4.358   6.713   3.439
  635SOL    HW1 2804   4.282   6.670   3.487
  635SOL    HW2 2805   4.432   6.646   3.427
  636SOL     OW 2806   5.060   5.489   6.213
  636SOL    HW1 2807   4.973   5.536   6.199
  636SOL    HW2 2808   5.066   5.410   6.151
  637SOL     OW 2809   5.188   5.025   2.084
  637SOL    HW1 2810   5.223   5.000   2.174
  637SOL    HW2 2811   5.194   4.947   2.022
  638SOL     OW 2812   5.020   1.434   2.346
  638SOL    HW1 2813   4.930   1.393   2.359
  638SOL    HW2 2814   5.055   1.407   2.256
  639SOL     OW 2815   4.713   5.037   2.201
  639SOL    HW1 2816   4.765   5.115   2.166
  639SOL    HW2 2817   4.775   4.961   2.220
  640SOL     OW 2818   2.545   4.361   5.832
  640SOL    HW1 2819   2.486   4.289   5.867
  640SOL    HW2 2820   2.533   4.369   5.733
  641SOL     OW 2821   0.661   5.417   4.101
  641SOL    HW1 2822   0.749   5.451   4.132
  641SOL    HW2 2823   0.608   5.384   4.179
  642SOL     OW 2824   0.344   4.766   4.435
  642SOL    HW1 2825   0.433   4.786   4.394
  642SOL    HW2 2826   0.305   4.851   4.471
  643SOL     OW 2827   5.885   5.799   4.608
  643SOL    HW1 2828   5.966   5.834   4.656
  643SOL    HW2 2829   5.912   5.759   4.521
  644SOL     OW 2830   0.763   6.248   2.833
  644SOL    HW1 2831   0.856   6.281   2.850
  644SOL    HW2 2832   0.766   6.171   2.770
  645SOL     OW 2833   4.725   2.410   4.457
  645SOL    HW1 2834   4.641   2.362   4.485
  645SOL    HW2 2835   4.704   2.472   4.382
  646SOL     OW 2836   1.938   1.867   3.550
  646SOL    HW1 2837   1.943   1.863   3.650
  646SOL    HW2 2838   2.031   1.869   3.512
  647SOL     OW 2839   6.009   2.892   6.577
  647SOL    HW1 2840   6.101   2.877   6.541
  647SOL    HW2 2841   5.989   2.990   6.576
  648SOL     OW 2842   5.851   3.935   2.693
  648SOL    HW1 2843   5.915   3.972   2.626
  648SOL    HW2 2844   5.789   3.871   2.648
  649SOL     OW 2845   4.157   4.189   0.487
  649SOL    HW1 2846   4.147   4.090   0.501
  649SOL    HW2 2847   4.178   4.233   0.574
  650SOL     OW 2848   4.862   4.443   0.679
  650SOL    HW1 2849   4.905   4.476   0.595
  650SOL    HW2 2850   4.815   4.519   0.725
  651SOL     OW 2851   0.500   6.061   0.588
  651SOL    HW1 2852   0.547   6.116   0.657
  651SOL    HW2 2853   0.402   6.058   0.609
  652SOL     OW 2854   4.789   6.814   3.231
  652SOL    HW1 2855   4.777   6.762   3.316
  652SOL    HW2 2856   4.773   6.911   3.249
  653SOL     OW 2857   3.353   5.499   4.938
  653SOL    HW1 2858   3.329   5.593   4.963
  653SOL    HW2 2859   3.442   5.476   4.977
  654SOL     OW 2860   0.039   5.180   6.038
  654SOL    HW1 2861   7.016   5.133   5.967
  654SOL    HW2 2862   0.136   5.177   6.017
  655SOL     OW 2863   0.628   6.983   2.097
  655SOL    HW1 2864   0.692   6.935   2.037
  655SOL    HW2 2865   0.678   0.010   2.163
  656SOL     OW 2866   2.062   5.999   2.318
  656SOL    HW1 2867   2.117   5.985   2.236
  656SOL    HW2 2868   1.981   6.054   2.295
  657SOL     OW 2869   2.227   1.725   1.478
  657SOL    HW1 2870   2.208   1.768   1.389
  657SOL    HW2 2871   2.201   1.628   1.474
  658SOL     OW 2872   3.343   3.648   0.023
  658SOL    HW1 2873   3.273   3.701   7.002
  658SOL    HW2 2874   3.381   3.704   0.097
  659SOL     OW 2875   3.043   6.541   6.375
  659SOL    HW1 2876   3.067   6.495   6.290
  659SOL    HW2 2877   2.974   6.611   6.357
  660SOL     OW 2878   3.853   5.800   1.959
  660SOL    HW1 2879   3.929   5.736   1.973
  660SOL    HW2 2880   3.773   5.751   1.926
  661SOL     OW 2881   4.088   6.318   3.555
  661SOL    HW1 2882   4.159   6.258   3.591
  661SOL    HW2 2883   4.112   6.347   3.463
  662SOL     OW 2884   3.429   1.022   5.116
  662SOL    HW1 2885   3.355   0.986   5.060
  662SOL    HW2 2886   3.501   1.059   5.057
  663SOL     OW 2887   1.829   3.973   5.054
  663SOL    HW1 2888   1.927   3.956   5.058
  663SOL    HW2 2889   1.790   3.923   4.976
  664SOL     OW 2890   0.032   6.749   5.738
  664SOL    HW1 2891   0.052   6.652   5.731
  664SOL    HW2 2892   0.076   6.786   5.820
  665SOL     OW 2893   3.615   5.382   3.734
  665SOL    HW1 2894   3.520   5.360   3.713
  665SOL    HW2 2895   3.631   5.370   3.831
  666SOL     OW 2896   4.411   0.505   2.009
  666SOL    HW1 2897   4.441   0.475   1.918
  666SOL    HW2 2898   4.312   0.516   2.009
  667SOL     OW 2899   0.979   5.314   1.756
  667SOL    HW1 2900   0.905   5.343   1.816
  667SOL    HW2 2901   0.977   5.214   1.745
  668SOL     OW 2902   5.665   5.449   6.068
  668SOL    HW1 2903   5.635   5.368   6.018
  668SOL    HW2 2904   5.599   5.471   6.140
  669SOL     OW 2905   5.833   1.290   2.919
  669SOL    HW1 2906   5.906   1.251   2.864
  669SOL    HW2 2907   5.857   1.383   2.945
  670SOL     OW 2908   2.047   1.635   2.301
  670SOL    HW1 2909   2.121   1.568   2.295
  670SOL    HW2 2910   2.085   1.728   2.300
  671SOL     OW 2911   3.168   5.905   1.651
  671SOL    HW1 2912   3.153   5.989   1.702
  671SOL    HW2 2913   3.251   5.915   1.595
  672SOL     OW 2914   6.974   4.990   1.951
  672SOL    HW1 2915   6.939   5.082   1.971
  672SOL    HW2 2916   0.044   4.988   1.968
  673SOL     OW 2917   5.639   0.009   1.171
  673SOL    HW1 2918   5.710   0.044   1.109
  673SOL    HW2 2919   5.669   0.020   1.266
  674SOL     OW 2920   0.563   1.961   4.987
  674SOL    HW1 2921   0.606   1.937   5.074
  674SOL    HW2 2922   0.634   1.988   4.922
  675SOL     OW 2923   6.093   2.324   2.158
  675SOL    HW1 2924   6.050   2.280   2.080
  675SOL    HW2 2925   6.034   2.397   2.193
  676SOL     OW 2926   2.326   4.752   4.743
  676SOL    HW1 2927   2.400   4.687   4.727
  676SOL    HW2 2928   2.344   4.836   4.692
  677SOL     OW 2929   5.336   0.972   1.539
  677SOL    HW1 2930   5.301   0.915   1.464
  677SOL    HW2 2931   5.431   0.947   1.558
  678SOL     OW 2932   2.535   4.552   5.041
  678SOL    HW1 2933   2.632   4.569   5.028
  678SOL    HW2 2934   2.488   4.638   5.060
  679SOL     OW 2935   5.080   1.889   5.101
  679SOL    HW1 2936   5.049   1.843   5.184
  679SOL    HW2 2937   5.117   1.978   5.124
  680SOL     OW 2938   4.914   6.461   4.767
  680SOL    HW1 2939   4.856   6.463   4.685
  680SOL    HW2 2940   4.904   6.373   4.812
  681SOL     OW 2941   4.451   5.846   2.106
  681SOL    HW1 2942   4.543   5.875   2.079
  681SOL    HW2 2943   4.437   5.864   2.203
  682SOL     OW 2944   6.959   1.386   1.627
  682SOL    HW1 2945   6.930   1.334   1.708
  682SOL    HW2 2946   6.883   1.443   1.595
  683SOL     OW 2947   4.616   3.136   1.070
  683SOL    HW1 2948   4.595   3.232   1.050
  683SOL    HW2 2949   4.681   3.101   1.002
  684SOL     OW 2950   6.363   0.483   6.757
  684SOL    HW1 2951   6.281   0.447   6.800
  684SOL    HW2 2952   6.407   0.412   6.702
  685SOL     OW 2953   3.213   1.840   3.698
  685SOL    HW1 2954   3.188   1.908   3.767
  685SOL    HW2 2955   3.280   1.879   3.635
  686SOL     OW 2956   4.468   1.211   3.770
  686SOL    HW1 2957   4.385   1.246   3.813
  686SOL    HW2 2958   4.518   1.154   3.835
  687SOL     OW 2959   0.969   1.591   4.509
  687SOL    HW1 2960   0.878   1.624   4.483
  687SOL    HW2 2961   0.969   1.491   4.511
  688SOL     OW 2962   0.040   0.838   5.836
  688SOL    HW1 2963   0.103   0.761   5.822
  688SOL    HW2 2964   7.008   0.846   5.757
  689SOL     OW 2965   1.605   4.411   6.235
  689SOL    HW1 2966   1.599   4.372   6.327
  689SOL    HW2 2967   1.650   4.345   6.174
  690SOL     OW 2968   6.914   3.786   3.404
  690SOL    HW1 2969   6.979   3.731   3.352
  690SOL    HW2 2970   6.913   3.879   3.367
  691SOL     OW 2971   4.093   1.458   0.416
  691SOL    HW1 2972   4.091   1.466   0.515
  691SOL    HW2 2973   4.105   1.362   0.391
  692SOL     OW 2974   3.228   1.632   5.078
  692SOL    HW1 2975   3.232   1.649   5.176
  692SOL    HW2 2976   3.133   1.613   5.052
  693SOL     OW 2977   4.754   6.478   3.682
  693SOL    HW1 2978   4.690   6.554   3.689
  693SOL    HW2 2979   4.727   6.406   3.745
  694SOL     OW 2980   4.395   5.904   4.140
  694SOL    HW1 2981   4.438   5.937   4.056
  694SOL    HW2 2982   4.297   5.926   4.138
  695SOL     OW 2983   3.546   5.807   4.778
  695SOL    HW1 2984   3.578   5.805   4.873
  695SOL    HW2 2985   3.463   5.863   4.773
  696SOL     OW 2986   5.026   3.994   3.589
  696SOL    HW1 2987   5.032   4.084   3.547
  696SOL    HW2 2988   5.106   3.939   3.564
  697SOL     OW 2989   1.098   3.299   2.259
  697SOL    HW1 2990   1.045   3.243   2.195
  697SOL    HW2 2991   1.148   3.368   2.208
  698SOL     OW 2992   4.854   6.688   1.936
  698SOL    HW1 2993   4.793   6.637   1.997
  698SOL    HW2 2994   4.944   6.644   1.935
  699SOL     OW 2995   2.357   3.574   6.744
  699SOL    HW1 2996   2.311   3.488   6.764
  699SOL    HW2 2997   2.387   3.574   6.648
  700SOL     OW 2998   3.032   0.235   1.881
  700SOL    HW1 2999   3.040   0.136   1.878
  700SOL    HW2 3000   3.017   0.270   1.788
  701SOL     OW 3001   6.528   4.784   1.246
  701SOL    HW1 3002   6.431   4.783   1.269
  701SOL    HW2 3003   6.560   4.878   1.241
  702SOL     OW 3004   2.228   0.060   4.514
  702SOL    HW1 3005   2.210   0.147   4.469
  702SOL    HW2 3006   2.313   0.021   4.480
  703SOL     OW 3007   3.108   3.480   5.453
  703SOL    HW1 3008   3.071   3.388   5.438
  703SOL    HW2 3009   3.187   3.494   5.393
  704SOL     OW 3010   2.059   2.626   6.143
  704SOL    HW1 3011   1.975   2.650   6.194
  704SOL    HW2 3012   2.135   2.682   6.177
  705SOL     OW 3013   6.921   5.963   3.530
  705SOL    HW1 3014   6.930   6.055   3.569
  705SOL    HW2 3015   6.921   5.968   3.430
  706SOL     OW 3016   4.071   1.732   5.256
  706SOL    HW1 3017   4.132   1.668   5.209
  706SOL    HW2 3018   4.021   1.787   5.189
  707SOL     OW 3019   4.011   5.565   3.262
  707SOL    HW1 3020   4.016   5.486   3.323
  707SOL    HW2 3021   4.049   5.541   3.173
  708SOL     OW 3022   2.638   1.913   3.850
  708SOL    HW1 3023   2.659   1.961   3.765
  708SOL    HW2 3024   2.561   1.851   3.835
  709SOL     OW 3025   1.458   6.688   1.596
  709SOL    HW1 3026   1.409   6.602   1.585
  709SOL    HW2 3027   1.483   6.723   1.505
  710SOL     OW 3028   4.942   2.479   1.931
  710SOL    HW1 3029   4.847   2.448   1.927
  710SOL    HW2 3030   4.962   2.537   1.852
  711SOL     OW 3031   6.859   3.163   6.231
  711SOL    HW1 3032   6.830   3.151   6.326
  711SOL    HW2 3033   6.955   3.134   6.222
  712SOL     OW 3034   4.960   2.261   0.666
  712SOL    HW1 3035   4.890   2.332   0.662
  712SOL    HW2 3036   4.943   2.202   0.745
  713SOL     OW 3037   4.331   2.696   5.365
  713SOL    HW1 3038   4.339   2.658   5.458
  713SOL    HW2 3039   4.278   2.633   5.309
  714SOL     OW 3040   5.998   5.194   4.067
  714SOL    HW1 3041   5.963   5.274   4.018
  714SOL    HW2 3042   6.038   5.130   4.002
  715SOL     OW 3043   6.487   5.059   5.421
  715SOL    HW1 3044   6.519   4.966   5.441
  715SOL    HW2 3045   6.417   5.085   5.487
  716SOL     OW 3046   2.254   0.958   3.434
  716SOL    HW1 3047   2.243   0.947   3.533
  716SOL    HW2 3048   2.341   1.003   3.414
  717SOL     OW 3049   6.098   4.769   4.015
  717SOL    HW1 3050   6.197   4.784   4.009
  717SOL    HW2 3051   6.062   4.817   4.095
  718SOL     OW 3052   5.183   3.105   4.863
  718SOL    HW1 3053   5.239   3.188   4.865
  718SOL    HW2 3054   5.140   3.092   4.952
  719SOL     OW 3055   6.138   0.235   2.279
  719SOL    HW1 3056   6.120   0.155   2.336
  719SOL    HW2 3057   6.237   0.252   2.274
  720SOL     OW 3058   2.623   0.198   5.924
  720SOL    HW1 3059   2.720   0.213   5.942
  720SOL    HW2 3060   2.594   0.253   5.846
  721SOL     OW 3061   0.784   1.449   2.146
  721SOL    HW1 3062   0.800   1.410   2.056
  721SOL    HW2 3063   0.771   1.375   2.213
  722SOL     OW 3064   3.400   0.786   6.619
  722SOL    HW1 3065   3.334   0.732   6.567
  722SOL    HW2 3066   3.418   0.742   6.707
  723SOL     OW 3067   1.963   6.280   3.800
  723SOL    HW1 3068   1.919   6.322   3.720
  723SOL    HW2 3069   2.061   6.274   3.784
  724SOL     OW 3070   6.815   1.049   3.582
  724SOL    HW1 3071   6.760   1.130   3.560
  724SOL    HW2 3072   6.911   1.076   3.594
  725SOL     OW 3073   1.723   4.693   2.356
  725SOL    HW1 3074   1.686   4.630   2.424
  725SOL    HW2 3075   1.648   4.739   2.308
  726SOL     OW 3076   2.590   5.131   1.181
  726SOL    HW1 3077   2.679   5.085   1.175
  726SOL    HW2 3078   2.546   5.107   1.268
  727SOL     OW 3079   4.683   5.142   5.754
  727SOL    HW1 3080   4.717   5.104   5.841
  727SOL    HW2 3081   4.759   5.183   5.704
  728SOL     OW 3082   0.080   3.156   4.691
  728SOL    HW1 3083   0.179   3.165   4.702
  728SOL    HW2 3084   0.039   3.248   4.686
  729SOL     OW 3085   0.648   2.852   1.207
  729SOL    HW1 3086   0.560   2.886   1.174
  729SOL    HW2 3087   0.680   2.908   1.283
  730SOL     OW 3088   5.393   0.952   3.115
  730SOL    HW1 3089   5.431   1.016   3.049
  730SOL    HW2 3090   5.293   0.959   3.115
  731SOL     OW 3091   4.654   4.340   6.394
  731SOL    HW1 3092   4.745   4.338   6.435
  731SOL    HW2 3093   4.634   4.432   6.362
  732SOL     OW 3094   5.380   2.031   2.471
  732SOL    HW1 3095   5.420   2.122   2.483
  732SOL    HW2 3096   5.391   1.978   2.555
  733SOL     OW 3097   5.697   0.503   4.378
  733SOL    HW1 3098   5.748   0.577   4.335
  733SOL    HW2 3099   5.636   0.462   4.310
  734SOL     OW 3100   6.141   4.469   2.770
  734SOL    HW1 3101   6.086   4.443   2.849
  734SOL    HW2 3102   6.220   4.523   2.800
  735SOL     OW 3103   5.250   0.557   1.741
  735SOL    HW1 3104   5.322   0.626   1.734
  735SOL    HW2 3105   5.187   0.582   1.815
  736SOL     OW 3106   1.157   1.541   3.871
  736SOL    HW1 3107   1.160   1.453   3.918
  736SOL    HW2 3108   1.249   1.576   3.860
  737SOL     OW 3109   5.905   1.929   5.753
  737SOL    HW1 3110   5.914   1.836   5.716
  737SOL    HW2 3111   5.865   1.925   5.844
  738SOL     OW 3112   2.637   4.022   1.285
  738SOL    HW1 3113   2.725   4.051   1.246
  738SOL    HW2 3114   2.570   4.096   1.275
  739SOL     OW 3115   3.720   0.197   5.357
  739SOL    HW1 3116   3.655   0.162   5.289
  739SOL    HW2 3117   3.757   0.284   5.325
  740SOL     OW 3118   6.085   1.933   2.652
  740SOL    HW1 3119   6.084   1.862   2.581
  740SOL    HW2 3120   6.080   1.889   2.742
  741SOL     OW 3121   1.864   1.112   4.844
  741SOL    HW1 3122   1.896   1.192   4.793
  741SOL    HW2 3123   1.925   1.035   4.827
  742SOL     OW 3124   2.333   5.776   1.323
  742SOL    HW1 3125   2.421   5.814   1.294
  742SOL    HW2 3126   2.335   5.763   1.422
  743SOL     OW 3127   0.585   6.446   3.048
  743SOL    HW1 3128   0.505   6.466   3.105
  743SOL    HW2 3129   0.618   6.354   3.069
  744SOL     OW 3130   6.646   0.821   0.199
  744SOL    HW1 3131   6.547   0.828   0.210
  744SOL    HW2 3132   6.682   0.910   0.169
  745SOL     OW 3133   2.268   6.228   5.448
  745SOL    HW1 3134   2.204   6.153   5.430
  745SOL    HW2 3135   2.299   6.268   5.362
  746SOL     OW 3136   5.911   4.149   5.166
  746SOL    HW1 3137   5.937   4.081   5.096
  746SOL    HW2 3138   5.880   4.233   5.121
  747SOL     OW 3139   5.394   5.697   4.049
  747SOL    HW1 3140   5.400   5.599   4.033
  747SOL    HW2 3141   5.329   5.714   4.123
  748SOL     OW 3142   5.047   5.038   2.452
  748SOL    HW1 3143   5.009   5.128   2.429
  748SOL    HW2 3144   5.140   5.031   2.417
  749SOL     OW 3145   5.257   3.492   3.392
  749SOL    HW1 3146   5.303   3.404   3.381
  749SOL    HW2 3147   5.322   3.560   3.426
  750SOL     OW 3148   3.543   0.713   1.188
  750SOL    HW1 3149   3.598   0.791   1.218
  750SOL    HW2 3150   3.487   0.680   1.265
  751SOL     OW 3151   5.042   1.886   1.156
  751SOL    HW1 3152   5.034   1.966   1.215
  751SOL    HW2 3153   5.117   1.899   1.091
  752SOL     OW 3154   3.590   2.517   6.183
  752SOL    HW1 3155   3.491   2.507   6.174
  752SOL    HW2 3156   3.636   2.450   6.125
  753SOL     OW 3157   2.792   3.348   5.380
  753SOL    HW1 3158   2.783   3.446   5.359
  753SOL    HW2 3159   2.702   3.305   5.377
  754SOL     OW 3160   5.250   1.041   0.094
  754SOL    HW1 3161   5.239   1.033   0.193
  754SOL    HW2 3162   5.313   0.970   0.062
  755SOL     OW 3163   2.964   4.311   5.350
  755SOL    HW1 3164   3.048   4.333   5.400
  755SOL    HW2 3165   2.951   4.377   5.276
  756SOL     OW 3166   3.431   4.934   0.014
  756SOL    HW1 3167   3.515   4.893   0.049
  756SOL    HW2 3168   3.372   4.960   0.091
  757SOL     OW 3169   2.142   6.909   2.662
  757SOL    HW1 3170   2.176   6.914   2.568
  757SOL    HW2 3171   2.065   6.972   2.673
  758SOL     OW 3172   3.399   1.241   3.726
  758SOL    HW1 3173   3.474   1.242   3.659
  758SOL    HW2 3174   3.432   1.280   3.812
  759SOL     OW 3175   0.421   2.159   3.206
  759SOL    HW1 3176   0.505   2.174   3.154
  759SOL    HW2 3177   0.359   2.237   3.193
  760SOL     OW 3178   6.246   6.781   3.695
  760SOL    HW1 3179   6.337   6.815   3.670
  760SOL    HW2 3180   6.218   6.824   3.781
  761SOL     OW 3181   5.818   4.814   5.396
  761SOL    HW1 3182   5.789   4.756   5.319
  761SOL    HW2 3183   5.910   4.789   5.425
  762SOL     OW 3184   2.826   6.489   5.972
  762SOL    HW1 3185   2.737   6.448   5.952
  762SOL    HW2 3186   2.861   6.452   6.058
  763SOL     OW 3187   5.119   0.390   6.280
  763SOL    HW1 3188   5.141   0.381   6.183
  763SOL    HW2 3189   5.158   0.313   6.331
  764SOL     OW 3190   6.006   1.422   5.304
  764SOL    HW1 3191   5.939   1.415   5.230
  764SOL    HW2 3192   6.066   1.342   5.302
  765SOL     OW 3193   1.341   6.612   0.636
  765SOL    HW1 3194   1.247   6.629   0.607
  765SOL    HW2 3195   1.353   6.644   0.730
  766SOL     OW 3196   2.524   2.191   5.498
  766SOL    HW1 3197   2.578   2.134   5.437
  766SOL    HW2 3198   2.443   2.141   5.529
  767SOL     OW 3199   6.619   6.542   3.990
  767SOL    HW1 3200   6.663   6.564   3.903
  767SOL    HW2 3201   6.665   6.462   4.030
  768SOL     OW 3202   2.038   6.819   2.900
  768SOL    HW1 3203   2.046   6.910   2.940
  768SOL    HW2 3204   2.063   6.823   2.804
  769SOL     OW 3205   3.657   1.571   5.171
  769SOL    HW1 3206   3.587   1.548   5.103
  769SOL    HW2 3207   3.734   1.509   5.162
  770SOL     OW 3208   1.756   4.594   4.606
  770SOL    HW1 3209   1.831   4.646   4.566
  770SOL    HW2 3210   1.743   4.623   4.701
  771SOL     OW 3211   1.087   5.831   3.083
  771SOL    HW1 3212   1.079   5.735   3.111
  771SOL    HW2 3213   1.009   5.882   3.119
  772SOL     OW 3214   5.484   5.116   6.537
  772SOL    HW1 3215   5.541   5.176   6.593
  772SOL    HW2 3216   5.431   5.055   6.597
  773SOL     OW 3217   1.448   3.471   2.822
  773SOL    HW1 3218   1.356   3.433   2.810
  773SOL    HW2 3219   1.512   3.398   2.844
  774SOL     OW 3220   2.251   1.681   3.434
  774SOL    HW1 3221   2.198   1.765   3.418
  774SOL    HW2 3222   2.345   1.696   3.405
  775SOL     OW 3223   1.895   3.026   4.083
  775SOL    HW1 3224   1.928   3.007   3.990
  775SOL    HW2 3225   1.849   3.115   4.084
  776SOL     OW 3226   6.686   6.204   6.227
  776SOL    HW1 3227   6.744   6.285   6.219
  776SOL    HW2 3228   6.743   6.122   6.217
  777SOL     OW 3229   1.559   3.357   0.465
  777SOL    HW1 3230   1.535   3.428   0.531
  777SOL    HW2 3231   1.475   3.320   0.424
  778SOL     OW 3232   2.737   6.874   1.697
  778SOL    HW1 3233   2.826   6.856   1.655
  778SOL    HW2 3234   2.721   6.973   1.702
  779SOL     OW 3235   0.421   2.670   1.655
  779SOL    HW1 3236   0.491   2.739   1.641
  779SOL    HW2 3237   0.336   2.714   1.685
  780SOL     OW 3238   1.259   2.667   4.260
  780SOL    HW1 3239   1.185   2.695   4.321
  780SOL    HW2 3240   1.336   2.634   4.314
  781SOL     OW 3241   6.726   5.248   6.788
  781SOL    HW1 3242   6.810   5.242   6.842
  781SOL    HW2 3243   6.749   5.241   6.691
  782SOL     OW 3244   2.142   4.278   5.525
  782SOL    HW1 3245   2.205   4.223   5.470
  782SOL    HW2 3246   2.176   4.371   5.532
  783SOL     OW 3247   5.588   5.500   6.864
  783SOL    HW1 3248   5.642   5.502   6.948
  783SOL    HW2 3249   5.495   5.468   6.885
  784SOL     OW 3250   2.451   5.836   2.067
  784SOL    HW1 3251   2.523   5.776   2.035
  784SOL    HW2 3252   2.447   5.834   2.167
  785SOL     OW 3253   0.125   0.682   3.882
  785SOL    HW1 3254   0.039   0.729   3.898
  785SOL    HW2 3255   0.174   0.726   3.807
  786SOL     OW 3256   6.454   0.478   3.351
  786SOL    HW1 3257   6.369   0.452   3.304
  786SOL    HW2 3258   6.442   0.468   3.450
  787SOL     OW 3259   2.171   0.442   0.109
  787SOL    HW1 3260   2.165   0.365   0.173
  787SOL    HW2 3261   2.265   0.477   0.108
  788SOL     OW 3262   3.941   2.935   1.444
  788SOL    HW1 3263   3.976   2.845   1.419
  788SOL    HW2 3264   3.926   2.939   1.543
  789SOL     OW 3265   4.291   5.505   1.876
  789SOL    HW1 3266   4.355   5.487   1.951
  789SOL    HW2 3267   4.242   5.590   1.893
  790SOL     OW 3268   1.346   2.182   1.908
  790SOL    HW1 3269   1.349   2.279   1.935
  790SOL    HW2 3270   1.342   2.175   1.809
  791SOL     OW 3271   2.630   6.005   5.762
  791SOL    HW1 3272   2.693   5.991   5.685
  791SOL    HW2 3273   2.639   6.098   5.796
  792SOL     OW 3274   0.667   1.520   0.909
  792SOL    HW1 3275   0.624   1.597   0.956
  792SOL    HW2 3276   0.711   1.460   0.975
  793SOL     OW 3277   5.107   5.990   4.375
  793SOL    HW1 3278   5.074   6.065   4.433
  793SOL    HW2 3279   5.030   5.931   4.350
  794SOL     OW 3280   3.463   3.507   4.723
  794SOL    HW1 3281   3.536   3.574   4.708
  794SOL    HW2 3282   3.486   3.422   4.675
  795SOL     OW 3283   3.933   0.473   5.583
  795SOL    HW1 3284   3.939   0.551   5.645
  795SOL    HW2 3285   3.955   0.389   5.632
  796SOL     OW 3286   1.604   2.810   6.708
  796SOL    HW1 3287   1.673   2.789   6.777
  796SOL    HW2 3288   1.647   2.860   6.632
  797SOL     OW 3289   3.998   6.997   0.732
  797SOL    HW1 3290   4.022   0.063   0.750
  797SOL    HW2 3291   3.938   6.963   0.805
  798SOL     OW 3292   3.041   6.247   1.632
  798SOL    HW1 3293   3.107   6.296   1.690
  798SOL    HW2 3294   3.044   6.285   1.539
  799SOL     OW 3295   0.096   2.153   6.261
  799SOL    HW1 3296   0.146   2.224   6.311
  799SOL    HW2 3297   0.038   2.102   6.325
  800SOL     OW 3298   6.775   1.284   2.265
  800SOL    HW1 3299   6.721   1.231   2.200
  800SOL    HW2 3300   6.723   1.295   2.350
  801SOL     OW 3301   2.491   5.162   5.262
  801SOL    HW1 3302   2.428   5.110   5.320
  801SOL    HW2 3303   2.446   5.244   5.229
  802SOL     OW 3304   4.659   2.307   6.204
  802SOL    HW1 3305   4.635   2.274   6.295
  802SOL    HW2 3306   4.672   2.229   6.143
  803SOL     OW 3307   2.468   6.790   6.000
  803SOL    HW1 3308   2.468   6.814   5.903
  803SOL    HW2 3309   2.451   6.872   6.055
  804SOL     OW 3310   6.286   6.833   1.200
  804SOL    HW1 3311   6.255   6.918   1.243
  804SOL    HW2 3312   6.241   6.755   1.244
  805SOL     OW 3313   1.997   0.072   3.752
  805SOL    HW1 3314   2.076   0.133   3.758
  805SOL    HW2 3315   1.994   0.013   3.832
  806SOL     OW 3316   0.402   0.391   5.684
  806SOL    HW1 3317   0.353   0.305   5.667
  806SOL    HW2 3318   0.454   0.417   5.603
  807SOL     OW 3319   0.580   6.917   4.552
  807SOL    HW1 3320   0.559   6.959   4.464
  807SOL    HW2 3321   0.504   6.930   4.614
  808SOL     OW 3322   5.925   2.897   0.497
  808SOL    HW1 3323   5.945   2.817   0.441
  808SOL    HW2 3324   5.866   2.869   0.573
  809SOL     OW 3325   0.438   5.491   6.995
  809SOL    HW1 3326   0.341   5.469   6.999
  809SOL    HW2 3327   0.492   5.407   7.006
  810SOL     OW 3328   2.825   3.567   0.790
  810SOL    HW1 3329   2.894   3.639   0.795
  810SOL    HW2 3330   2.759   3.590   0.718
  811SOL     OW 3331   5.521   5.008   4.613
  811SOL    HW1 3332   5.579   5.061   4.551
  811SOL    HW2 3333   5.439   5.060   4.636
  812SOL     OW 3334   0.504   2.206   2.596
  812SOL    HW1 3335   0.533   2.283   2.539
  812SOL    HW2 3336   0.484   2.127   2.539
  813SOL     OW 3337   2.443   0.537   3.911
  813SOL    HW1 3338   2.538   0.519   3.887
  813SOL    HW2 3339   2.409   0.465   3.971
  814SOL     OW 3340   6.470   5.699   2.036
  814SOL    HW1 3341   6.462   5.665   2.130
  814SOL    HW2 3342   6.393   5.760   2.016
  815SOL     OW 3343   4.918   2.903   3.700
  815SOL    HW1 3344   5.014   2.876   3.708
  815SOL    HW2 3345   4.882   2.926   3.790
  816SOL     OW 3346   5.163   4.056   0.669
  816SOL    HW1 3347   5.087   4.120   0.662
  816SOL    HW2 3348   5.177   4.031   0.765
  817SOL     OW 3349   1.279   5.294   1.182
  817SOL    HW1 3350   1.269   5.195   1.170
  817SOL    HW2 3351   1.300   5.336   1.093
  818SOL     OW 3352   5.386   2.866   3.757
  818SOL    HW1 3353   5.325   2.919   3.699
  818SOL    HW2 3354   5.450   2.814   3.699
  819SOL     OW 3355   5.818   2.594   1.262
  819SOL    HW1 3356   5.900   2.618   1.314
  819SOL    HW2 3357   5.757   2.540   1.320
  820SOL     OW 3358   2.752   2.059   4.634
  820SOL    HW1 3359   2.786   2.041   4.541
  820SOL    HW2 3360   2.781   2.149   4.664
  821SOL     OW 3361   5.972   5.181   4.709
  821SOL    HW1 3362   5.989   5.143   4.618
  821SOL    HW2 3363   6.030   5.261   4.723
  822SOL     OW 3364   0.258   4.344   3.404
  822SOL    HW1 3365   0.302   4.413   3.461
  822SOL    HW2 3366   0.230   4.385   3.317
  823SOL     OW 3367   0.335   3.968   5.699
  823SOL    HW1 3368   0.363   4.015   5.783
  823SOL    HW2 3369   0.399   3.990   5.626
  824SOL     OW 3370   5.720   1.327   5.372
  824SOL    HW1 3371   5.681   1.236   5.386
  824SOL    HW2 3372   5.660   1.380   5.311
  825SOL     OW 3373   6.405   6.094   0.768
  825SOL    HW1 3374   6.412   6.184   0.725
  825SOL    HW2 3375   6.423   6.102   0.866
  826SOL     OW 3376   3.850   2.230   6.175
  826SOL    HW1 3377   3.867   2.246   6.078
  826SOL    HW2 3378   3.899   2.148   6.204
  827SOL     OW 3379   3.202   4.023   5.132
  827SOL    HW1 3380   3.189   3.972   5.217
  827SOL    HW2 3381   3.169   3.969   5.055
  828SOL     OW 3382   6.085   5.577   4.967
  828SOL    HW1 3383   6.130   5.489   4.952
  828SOL    HW2 3384   6.060   5.585   5.064
  829SOL     OW 3385   3.836   3.011   2.006
  829SOL    HW1 3386   3.909   2.962   1.958
  829SOL    HW2 3387   3.847   3.000   2.105
  830SOL     OW 3388   5.897   5.242   6.463
  830SOL    HW1 3389   5.874   5.145   6.456
  830SOL    HW2 3390   5.960   5.256   6.539
  831SOL     OW 3391   5.827   6.608   1.483
  831SOL    HW1 3392   5.877   6.687   1.448
  831SOL    HW2 3393   5.820   6.538   1.412
  832SOL     OW 3394   4.274   1.420   4.404
  832SOL    HW1 3395   4.314   1.328   4.404
  832SOL    HW2 3396   4.347   1.488   4.400
  833SOL     OW 3397   1.001   3.766   6.658
  833SOL    HW1 3398   1.056   3.685   6.635
  833SOL    HW2 3399   0.930   3.778   6.588
  834SOL     OW 3400   4.678   3.469   6.755
  834SOL    HW1 3401   4.760   3.480   6.698
  834SOL    HW2 3402   4.606   3.529   6.722
  835SOL     OW 3403   2.167   0.776   5.008
  835SOL    HW1 3404   2.089   0.753   5.066
  835SOL    HW2 3405   2.236   0.823   5.062
  836SOL     OW 3406   3.143   1.515   5.562
  836SOL    HW1 3407   3.168   1.584   5.629
  836SOL    HW2 3408   3.075   1.552   5.499
  837SOL     OW 3409   1.390   0.229   1.570
  837SOL    HW1 3410   1.338   0.164   1.516
  837SOL    HW2 3411   1.464   0.267   1.514
  838SOL     OW 3412   1.943   6.096   4.507
  838SOL    HW1 3413   1.971   6.187   4.476
  838SOL    HW2 3414   2.011   6.028   4.479
  839SOL     OW 3415   2.599   1.408   1.715
  839SOL    HW1 3416   2.645   1.495   1.695
  839SOL    HW2 3417   2.541   1.383   1.638
  840SOL     OW 3418   5.941   5.631   0.193
  840SOL    HW1 3419   5.889   5.699   0.246
  840SOL    HW2 3420   5.979   5.563   0.255
  841SOL     OW 3421   4.106   5.463   6.069
  841SOL    HW1 3422   4.112   5.456   5.969
  841SOL    HW2 3423   4.196   5.443   6.109
  842SOL     OW 3424   3.166   6.467   0.101
  842SOL    HW1 3425   3.260   6.483   0.132
  842SOL    HW2 3426   3.133   6.547   0.053
  843SOL     OW 3427   2.354   2.076   2.043
  843SOL    HW1 3428   2.363   2.019   1.962
  843SOL    HW2 3429   2.295   2.154   2.022
  844SOL     OW 3430   0.302   6.485   1.341
  844SOL    HW1 3431   0.378   6.537   1.381
  844SOL    HW2 3432   0.283   6.406   1.399
  845SOL     OW 3433   4.227   2.160   3.395
  845SOL    HW1 3434   4.171   2.195   3.319
  845SOL    HW2 3435   4.274   2.236   3.439
  846SOL     OW 3436   2.971   1.419   5.764
  846SOL    HW1 3437   2.877   1.395   5.739
  846SOL    HW2 3438   3.028   1.423   5.682
  847SOL     OW 3439   2.254   3.188   1.800
  847SOL    HW1 3440   2.229   3.221   1.891
  847SOL    HW2 3441   2.309   3.257   1.753
  848SOL     OW 3442   6.526   6.690   5.780
  848SOL    HW1 3443   6.471   6.772   5.795
  848SOL    HW2 3444   6.604   6.690   5.842
  849SOL     OW 3445   6.042   3.341   0.396
  849SOL    HW1 3446   6.082   3.418   0.446
  849SOL    HW2 3447   5.967   3.302   0.449
  850SOL     OW 3448   0.305   0.711   4.918
  850SOL    HW1 3449   0.310   0.794   4.862
  850SOL    HW2 3450   0.258   0.732   5.004
  851SOL     OW 3451   6.752   3.417   6.876
  851SOL    HW1 3452   6.772   3.348   6.805
  851SOL    HW2 3453   6.659   3.404   6.909
  852SOL     OW 3454   0.273   4.874   0.834
  852SOL    HW1 3455   0.184   4.829   0.835
  852SOL    HW2 3456   0.323   4.847   0.752
  853SOL     OW 3457   2.186   4.080   6.161
  853SOL    HW1 3458   2.232   4.030   6.235
  853SOL    HW2 3459   2.187   4.024   6.078
  854SOL     OW 3460   5.959   6.542   0.070
  854SOL    HW1 3461   6.022   6.490   0.013
  854SOL    HW2 3462   5.916   6.614   0.016
  855SOL     OW 3463   6.812   0.604   6.942
  855SOL    HW1 3464   6.837   0.561   7.028
  855SOL    HW2 3465   6.714   0.590   6.924
  856SOL     OW 3466   1.453   6.672   6.209
  856SOL    HW1 3467   1.359   6.655   6.179
  856SOL    HW2 3468   1.494   6.586   6.239
  857SOL     OW 3469   0.223   4.699   2.770
  857SOL    HW1 3470   0.277   4.724   2.690
  857SOL    HW2 3471   0.164   4.621   2.747
  858SOL     OW 3472   3.036   3.785   1.275
  858SOL    HW1 3473   2.963   3.796   1.343
  858SOL    HW2 3474   3.018   3.704   1.219
  859SOL     OW 3475   4.646   5.938   5.522
  859SOL    HW1 3476   4.680   6.008   5.460
  859SOL    HW2 3477   4.603   5.982   5.601
  860SOL     OW 3478   5.566   3.105   6.524
  860SOL    HW1 3479   5.593   3.014   6.495
  860SOL    HW2 3480   5.473   3.102   6.562
  861SOL     OW 3481   1.863   5.575   3.111
  861SOL    HW1 3482   1.776   5.528   3.094
  861SOL    HW2 3483   1.925   5.514   3.159
  862SOL     OW 3484   2.088   4.888   3.689
  862SOL    HW1 3485   2.026   4.923   3.759
  862SOL    HW2 3486   2.157   4.957   3.667
  863SOL     OW 3487   6.141   0.978   5.996
  863SOL    HW1 3488   6.215   1.023   5.948
  863SOL    HW2 3489   6.064   1.042   6.006
  864SOL     OW 3490   5.000   0.134   5.388
  864SOL    HW1 3491   5.081   0.191   5.398
  864SOL    HW2 3492   4.948   0.134   5.473
  865SOL     OW 3493   1.814   6.963   5.543
  865SOL    HW1 3494   1.874   6.896   5.587
  865SOL    HW2 3495   1.868   7.022   5.484
  866SOL     OW 3496   3.583   6.558   0.824
  866SOL    HW1 3497   3.594   6.593   0.731
  866SOL    HW2 3498   3.556   6.462   0.821
  867SOL     OW 3499   5.733   2.868   0.694
  867SOL    HW1 3500   5.646   2.903   0.658
  867SOL    HW2 3501   5.761   2.924   0.772
  868SOL     OW 3502   0.126   2.566   2.864
  868SOL    HW1 3503   0.201   2.510   2.828
  868SOL    HW2 3504   0.040   2.517   2.851
  869SOL     OW 3505   0.208   3.738   3.944
  869SOL    HW1 3506   0.208   3.793   3.860
  869SOL    HW2 3507   0.131   3.675   3.942
  870SOL     OW 3508   4.214   4.611   1.045
  870SOL    HW1 3509   4.305   4.638   1.013
  870SOL    HW2 3510   4.224   4.543   1.118
  871SOL     OW 3511   5.080   1.888   4.242
  871SOL    HW1 3512   5.084   1.854   4.336
  871SOL    HW2 3513   5.104   1.985   4.240
  872SOL     OW 3514   0.046   2.056   4.473
  872SOL    HW1 3515   0.046   1.989   4.399
  872SOL    HW2 3516   0.060   2.008   4.560
  873SOL     OW 3517   4.529   6.554   5.642
  873SOL    HW1 3518   4.486   6.471   5.608
  873SOL    HW2 3519   4.564   6.608   5.565
  874SOL     OW 3520   6.034   4.273   6.746
  874SOL    HW1 3521   6.006   4.361   6.785
  874SOL    HW2 3522   5.976   4.200   6.784
  875SOL     OW 3523   5.353   6.185   0.634
  875SOL    HW1 3524   5.325   6.093   0.662
  875SOL    HW2 3525   5.420   6.221   0.699
  876SOL     OW 3526   0.696   5.330   1.904
  876SOL    HW1 3527   0.664   5.239   1.877
  876SOL    HW2 3528   0.745   5.324   1.990
  877SOL     OW 3529   3.097   4.096   6.215
  877SOL    HW1 3530   3.002   4.065   6.213
  877SOL    HW2 3531   3.117   4.148   6.132
  878SOL     OW 3532   4.562   7.018   3.878
  878SOL    HW1 3533   4.513   6.937   3.908
  878SOL    HW2 3534   4.646   6.991   3.830
  879SOL     OW 3535   3.400   0.334   1.463
  879SOL    HW1 3536   3.485   0.357   1.418
  879SOL    HW2 3537   3.324   0.379   1.417
  880SOL     OW 3538   4.069   3.822   3.964
  880SOL    HW1 3539   4.138   3.753   3.943
  880SOL    HW2 3540   4.030   3.857   3.879
  881SOL     OW 3541   5.174   3.417   4.844
  881SOL    HW1 3542   5.086   3.415   4.890
  881SOL    HW2 3543   5.161   3.423   4.745
  882SOL     OW 3544   1.028   2.950   4.099
  882SOL    HW1 3545   1.117   2.929   4.059
  882SOL    HW2 3546   0.970   2.869   4.096
  883SOL     OW 3547   3.569   0.975   1.723
  883SOL    HW1 3548   3.523   0.903   1.671
  883SOL    HW2 3549   3.535   1.064   1.695
  884SOL     OW 3550   5.593   3.540   6.159
  884SOL    HW1 3551   5.554   3.621   6.114
  884SOL    HW2 3552   5.596   3.464   6.093
  885SOL     OW 3553   3.464   1.498   4.983
  885SOL    HW1 3554   3.471   1.419   5.045
  885SOL    HW2 3555   3.381   1.549   5.005
  886SOL     OW 3556   3.747   7.017   0.253
  886SOL    HW1 3557   3.660   0.032   0.278
  886SOL    HW2 3558   3.756   6.930   0.301
  887SOL     OW 3559   3.772   7.019   4.247
  887SOL    HW1 3560   3.747   6.954   4.319
  887SOL    HW2 3561   3.691   0.042   4.219
  888SOL     OW 3562   0.165   6.397   3.009
  888SOL    HW1 3563   0.131   6.415   2.917
  888SOL    HW2 3564   0.095   6.346   3.061
  889SOL     OW 3565   0.050   3.820   0.774
  889SOL    HW1 3566   0.028   3.742   0.715
  889SOL    HW2 3567   0.022   3.799   0.868
  890SOL     OW 3568   1.321   5.782   2.927
  890SOL    HW1 3569   1.234   5.767   2.973
  890SOL    HW2 3570   1.305   5.820   2.836
  891SOL     OW 3571   5.478   5.420   0.432
  891SOL    HW1 3572   5.509   5.333   0.469
  891SOL    HW2 3573   5.449   5.408   0.337
  892SOL     OW 3574   2.309   3.686   5.280
  892SOL    HW1 3575   2.336   3.773   5.240
  892SOL    HW2 3576   2.390   3.629   5.296
  893SOL     OW 3577   1.944   6.563   2.593
  893SOL    HW1 3578   2.040   6.558   2.620
  893SOL    HW2 3579   1.889   6.591   2.671
  894SOL     OW 3580   0.979   3.127   2.073
  894SOL    HW1 3581   1.077   3.119   2.056
  894SOL    HW2 3582   0.950   3.056   2.138
  895SOL     OW 3583   0.344   4.749   3.742
  895SOL    HW1 3584   0.347   4.789   3.833
  895SOL    HW2 3585   0.263   4.782   3.693
  896SOL     OW 3586   5.318   5.038   0.688
  896SOL    HW1 3587   5.301   4.966   0.621
  896SOL    HW2 3588   5.373   5.002   0.763
  897SOL     OW 3589   4.123   1.678   6.963
  897SOL    HW1 3590   4.126   1.724   0.023
  897SOL    HW2 3591   4.084   1.586   6.975
  898SOL     OW 3592   2.669   6.111   2.805
  898SOL    HW1 3593   2.642   6.061   2.888
  898SOL    HW2 3594   2.611   6.083   2.729
  899SOL     OW 3595   0.179   6.302   6.441
  899SOL    HW1 3596   0.230   6.357   6.507
  899SOL    HW2 3597   0.242   6.241   6.393
  900SOL     OW 3598   5.848   6.804   0.628
  900SOL    HW1 3599   5.874   6.900   0.618
  900SOL    HW2 3600   5.929   6.746   0.621
  901SOL     OW 3601   2.211   6.633   3.245
  901SOL    HW1 3602   2.277   6.667   3.178
  901SOL    HW2 3603   2.153   6.708   3.276
  902SOL     OW 3604   0.775   2.384   0.802
  902SOL    HW1 3605   0.788   2.331   0.719
  902SOL    HW2 3606   0.850   2.450   0.812
  903SOL     OW 3607   0.082   2.522   6.972
  903SOL    HW1 3608   7.025   2.565   7.001
  903SOL    HW2 3609   0.104   2.554   6.880
  904SOL     OW 3610   2.514   2.015   2.822
  904SOL    HW1 3611   2.479   2.024   2.728
  904SOL    HW2 3612   2.554   1.924   2.834
  905SOL     OW 3613   5.181   1.798   6.849
  905SOL    HW1 3614   5.143   1.794   6.757
  905SOL    HW2 3615   5.138   1.727   6.906
  906SOL     OW 3616   6.887   1.983   6.139
  906SOL    HW1 3617   6.914   1.889   6.160
  906SOL    HW2 3618   6.968   2.037   6.115
  907SOL     OW 3619   5.300   3.556   0.872
  907SOL    HW1 3620   5.383   3.574   0.819
  907SOL    HW2 3621   5.268   3.641   0.914
  908SOL     OW 3622   2.591   4.554   2.558
  908SOL    HW1 3623   2.588   4.460   2.592
  908SOL    HW2 3624   2.595   4.553   2.458
  909SOL     OW 3625   4.729   5.570   0.964
  909SOL    HW1 3626   4.696   5.587   1.057
  909SOL    HW2 3627   4.678   5.627   0.900
  910SOL     OW 3628   3.084   2.331   1.036
  910SOL    HW1 3629   3.005   2.285   0.996
  910SOL    HW2 3630   3.114   2.405   0.976
  911SOL     OW 3631   1.021   6.039   6.514
  911SOL    HW1 3632   0.973   5.992   6.588
  911SOL    HW2 3633   0.963   6.111   6.477
  912SOL     OW 3634   6.549   1.959   2.763
  912SOL    HW1 3635   6.498   1.923   2.685
  912SOL    HW2 3636   6.546   2.059   2.762
  913SOL     OW 3637   4.678   6.725   3.004
  913SOL    HW1 3638   4.695   6.758   3.097
  913SOL    HW2 3639   4.741   6.650   2.983
  914SOL     OW 3640   2.458   6.966   6.810
  914SOL    HW1 3641   2.423   6.904   6.740
  914SOL    HW2 3642   2.454   0.031   6.776
  915SOL     OW 3643   5.944   4.539   6.824
  915SOL    HW1 3644   5.958   4.638   6.816
  915SOL    HW2 3645   5.864   4.522   6.882
  916SOL     OW 3646   1.796   2.676   2.124
  916SOL    HW1 3647   1.846   2.717   2.048
  916SOL    HW2 3648   1.764   2.585   2.097
  917SOL     OW 3649   0.456   6.390   0.400
  917SOL    HW1 3650   0.527   6.363   0.464
  917SOL    HW2 3651   0.498   6.425   0.316
  918SOL     OW 3652   2.875   0.202   0.509
  918SOL    HW1 3653   2.870   0.158   0.419
  918SOL    HW2 3654   2.949   0.161   0.562
  919SOL     OW 3655   5.559   1.505   3.368
  919SOL    HW1 3656   5.460   1.491   3.376
  919SOL    HW2 3657   5.580   1.551   3.282
  920SOL     OW 3658   2.591   4.011   1.577
  920SOL    HW1 3659   2.605   4.019   1.478
  920SOL    HW2 3660   2.554   4.096   1.613
  921SOL     OW 3661   4.674   6.272   3.859
  921SOL    HW1 3662   4.629   6.309   3.940
  921SOL    HW2 3663   4.764   6.236   3.884
  922SOL     OW 3664   3.873   3.609   4.350
  922SOL    HW1 3665   3.799   3.654   4.300
  922SOL    HW2 3666   3.837   3.566   4.433
  923SOL     OW 3667   2.731   3.151   6.878
  923SOL    HW1 3668   2.765   3.191   6.963
  923SOL    HW2 3669   2.663   3.213   6.837
  924SOL     OW 3670   6.275   3.964   1.847
  924SOL    HW1 3671   6.251   3.875   1.810
  924SOL    HW2 3672   6.308   4.024   1.774
  925SOL     OW 3673   0.177   2.790   0.076
  925SOL    HW1 3674   0.242   2.715   0.086
  925SOL    HW2 3675   0.224   2.871   0.042
  926SOL     OW 3676   6.740   0.854   0.951
  926SOL    HW1 3677   6.685   0.936   0.970
  926SOL    HW2 3678   6.833   0.881   0.928
  927SOL     OW 3679   5.481   3.831   3.780
  927SOL    HW1 3680   5.470   3.929   3.792
  927SOL    HW2 3681   5.411   3.782   3.833
  928SOL     OW 3682   2.652   5.839   0.791
  928SOL    HW1 3683   2.746   5.835   0.760
  928SOL    HW2 3684   2.596   5.885   0.722
  929SOL     OW 3685   0.075   0.351   6.814
  929SOL    HW1 3686   0.024   0.344   6.729
  929SOL    HW2 3687   0.072   0.446   6.847
  930SOL     OW 3688   4.618   5.446   6.408
  930SOL    HW1 3689   4.528   5.404   6.415
  930SOL    HW2 3690   4.608   5.546   6.406
  931SOL     OW 3691   6.482   2.061   4.314
  931SOL    HW1 3692   6.512   2.083   4.406
  931SOL    HW2 3693   6.559   2.026   4.261
  932SOL     OW 3694   2.515   1.756   3.360
  932SOL    HW1 3695   2.510   1.769   3.261
  932SOL    HW2 3696   2.590   1.810   3.398
  933SOL     OW 3697   1.583   5.505   3.044
  933SOL    HW1 3698   1.562   5.537   2.951
  933SOL    HW2 3699   1.521   5.430   3.068
  934SOL     OW 3700   2.542   5.840   5.959
  934SOL    HW1 3701   2.516   5.751   5.921
  934SOL    HW2 3702   2.590   5.893   5.889
  935SOL     OW 3703   5.040   4.189   3.864
  935SOL    HW1 3704   5.073   4.175   3.771
  935SOL    HW2 3705   5.026   4.101   3.908
  936SOL     OW 3706   1.261   6.949   6.208
  936SOL    HW1 3707   1.206   6.912   6.283
  936SOL    HW2 3708   1.357   6.924   6.223
  937SOL     OW 3709   5.152   1.829   5.604
  937SOL    HW1 3710   5.136   1.880   5.519
  937SOL    HW2 3711   5.127   1.733   5.591
  938SOL     OW 3712   6.351   5.489   4.349
  938SOL    HW1 3713   6.270   5.437   4.323
  938SOL    HW2 3714   6.424   5.425   4.375
  939SOL     OW 3715   0.535   6.987   4.288
  939SOL    HW1 3716   0.531   0.057   4.303
  939SOL    HW2 3717   0.548   6.969   4.190
  940SOL     OW 3718   0.554   4.353   0.645
  940SOL    HW1 3719   0.602   4.267   0.629
  940SOL    HW2 3720   0.607   4.410   0.707
  941SOL     OW 3721   4.981   0.736   6.640
  941SOL    HW1 3722   4.893   0.689   6.629
  941SOL    HW2 3723   5.035   0.723   6.557
  942SOL     OW 3724   6.248   6.323   1.475
  942SOL    HW1 3725   6.272   6.255   1.544
  942SOL    HW2 3726   6.330   6.349   1.423
  943SOL     OW 3727   2.097   4.914   2.716
  943SOL    HW1 3728   2.119   4.817   2.706
  943SOL    HW2 3729   2.065   4.950   2.628
  944SOL     OW 3730   0.744   5.104   4.523
  944SOL    HW1 3731   0.721   5.166   4.448
  944SOL    HW2 3732   0.673   5.109   4.593
  945SOL     OW 3733   0.516   4.970   5.390
  945SOL    HW1 3734   0.512   4.969   5.490
  945SOL    HW2 3735   0.475   4.886   5.354
  946SOL     OW 3736   4.728   4.909   4.364
  946SOL    HW1 3737   4.810   4.886   4.311
  946SOL    HW2 3738   4.687   4.992   4.328
  947SOL     OW 3739   3.761   3.209   3.505
  947SOL    HW1 3740   3.846   3.186   3.458
  947SOL    HW2 3741   3.772   3.297   3.552
  948SOL     OW 3742   5.123   0.982   2.363
  948SOL    HW1 3743   5.050   1.043   2.334
  948SOL    HW2 3744   5.159   1.012   2.451
  949SOL     OW 3745   3.351   6.107   0.238
  949SOL    HW1 3746   3.307   6.179   0.291
  949SOL    HW2 3747   3.296   6.086   0.157
  950SOL     OW 3748   5.638   5.682   2.532
  950SOL    HW1 3749   5.585   5.626   2.596
  950SOL    HW2 3750   5.666   5.767   2.578
  951SOL     OW 3751   1.090   0.198   3.696
  951SOL    HW1 3752   1.030   0.217   3.774
  951SOL    HW2 3753   1.168   0.260   3.699
  952SOL     OW 3754   4.332   1.921   2.581
  952SOL    HW1 3755   4.288   1.952   2.497
  952SOL    HW2 3756   4.425   1.891   2.561
  953SOL     OW 3757   5.874   5.940   4.986
  953SOL    HW1 3758   5.845   5.844   4.992
  953SOL    HW2 3759   5.906   5.970   5.076
  954SOL     OW 3760   4.282   5.990   2.525
  954SOL    HW1 3761   4.261   6.087   2.538
  954SOL    HW2 3762   4.210   5.947   2.471
  955SOL     OW 3763   1.503   4.392   6.948
  955SOL    HW1 3764   1.524   4.332   7.025
  955SOL    HW2 3765   1.520   4.487   6.974
  956SOL     OW 3766   6.906   0.777   1.243
  956SOL    HW1 3767   6.923   0.733   1.155
  956SOL    HW2 3768   6.848   0.857   1.229
  957SOL     OW 3769   6.196   1.147   1.900
  957SOL    HW1 3770   6.294   1.153   1.878
  957SOL    HW2 3771   6.153   1.080   1.840
  958SOL     OW 3772   5.117   6.157   2.280
  958SOL    HW1 3773   5.202   6.180   2.328
  958SOL    HW2 3774   5.059   6.239   2.274
  959SOL     OW 3775   3.717   6.470   4.495
  959SOL    HW1 3776   3.684   6.520   4.575
  959SOL    HW2 3777   3.671   6.381   4.490
  960SOL     OW 3778   1.238   0.787   0.963
  960SOL    HW1 3779   1.212   0.693   0.943
  960SOL    HW2 3780   1.336   0.799   0.943
  961SOL     OW 3781   3.953   6.636   3.251
  961SOL    HW1 3782   3.978   6.715   3.195
  961SOL    HW2 3783   3.901   6.571   3.194
  962SOL     OW 3784   6.018   0.920   4.373
  962SOL    HW1 3785   6.075   1.000   4.356
  962SOL    HW2 3786   5.926   0.949   4.401
  963SOL     OW 3787   4.769   1.344   0.963
  963SOL    HW1 3788   4.812   1.386   0.883
  963SOL    HW2 3789   4.824   1.265   0.992
  964SOL     OW 3790   4.420   5.082   5.406
  964SOL    HW1 3791   4.460   5.163   5.365
  964SOL    HW2 3792   4.415   5.094   5.505
  965SOL     OW 3793   6.238   1.942   2.167
  965SOL    HW1 3794   6.144   1.965   2.192
  965SOL    HW2 3795   6.237   1.869   2.098
  966SOL     OW 3796   4.913   2.561   3.431
  966SOL    HW1 3797   4.980   2.630   3.403
  966SOL    HW2 3798   4.940   2.523   3.519
  967SOL     OW 3799   3.174   5.040   6.562
  967SOL    HW1 3800   3.255   5.097   6.574
  967SOL    HW2 3801   3.124   5.069   6.480
  968SOL     OW 3802   3.875   0.024   1.249
  968SOL    HW1 3803   3.849   6.963   1.285
  968SOL    HW2 3804   3.938   0.068   1.313
  969SOL     OW 3805   2.538   5.427   5.544
  969SOL    HW1 3806   2.450   5.395   5.508
  969SOL    HW2 3807   2.610   5.409   5.476
  970SOL     OW 3808   5.906   1.134   6.024
  970SOL    HW1 3809   5.904   1.209   5.958
  970SOL    HW2 3810   5.957   1.162   6.105
  971SOL     OW 3811   0.158   3.387   3.145
  971SOL    HW1 3812   0.131   3.463   3.085
  971SOL    HW2 3813   0.210   3.423   3.222
  972SOL     OW 3814   6.821   2.665   1.782
  972SOL    HW1 3815   6.789   2.744   1.729
  972SOL    HW2 3816   6.873   2.697   1.861
  973SOL     OW 3817   0.264   4.473   6.631
  973SOL    HW1 3818   0.225   4.558   6.665
  973SOL    HW2 3819   0.219   4.395   6.676
  974SOL     OW 3820   0.896   5.235   2.438
  974SOL    HW1 3821   0.940   5.149   2.462
  974SOL    HW2 3822   0.918   5.304   2.507
  975SOL     OW 3823   2.963   6.939   0.544
  975SOL    HW1 3824   2.966   6.854   0.597
  975SOL    HW2 3825   3.053   6.981   0.543
  976SOL     OW 3826   6.490   3.843   1.527
  976SOL    HW1 3827   6.479   3.925   1.582
  976SOL    HW2 3828   6.449   3.858   1.436
  977SOL     OW 3829   0.710   1.000   2.424
  977SOL    HW1 3830   0.721   0.953   2.512
  977SOL    HW2 3831   0.743   0.941   2.350
  978SOL     OW 3832   5.504   1.720   1.076
  978SOL    HW1 3833   5.489   1.624   1.101
  978SOL    HW2 3834   5.415   1.767   1.071
  979SOL     OW 3835   0.331   2.819   6.520
  979SOL    HW1 3836   0.373   2.905   6.490
  979SOL    HW2 3837   0.263   2.839   6.591
  980SOL     OW 3838   4.082   1.131   4.546
  980SOL    HW1 3839   4.095   1.138   4.645
  980SOL    HW2 3840   4.045   1.041   4.523
  981SOL     OW 3841   0.721   0.403   5.285
  981SOL    HW1 3842   0.741   0.313   5.247
  981SOL    HW2 3843   0.805   0.444   5.320
  982SOL     OW 3844   0.747   1.657   5.551
  982SOL    HW1 3845   0.734   1.594   5.475
  982SOL    HW2 3846   0.748   1.751   5.517
  983SOL     OW 3847   6.781   3.081   3.150
  983SOL    HW1 3848   6.707   3.038   3.203
  983SOL    HW2 3849   6.751   3.095   3.056
  984SOL     OW 3850   1.652   2.214   3.128
  984SOL    HW1 3851   1.691   2.289   3.182
  984SOL    HW2 3852   1.576   2.173   3.179
  985SOL     OW 3853   6.487   4.285   4.431
  985SOL    HW1 3854   6.522   4.212   4.490
  985SOL    HW2 3855   6.424   4.246   4.365
  986SOL     OW 3856   4.805   4.720   1.306
  986SOL    HW1 3857   4.800   4.810   1.264
  986SOL    HW2 3858   4.713   4.684   1.321
  987SOL     OW 3859   5.636   6.447   3.329
  987SOL    HW1 3860   5.718   6.418   3.378
  987SOL    HW2 3861   5.663   6.491   3.243
  988SOL     OW 3862   3.301   3.850   2.370
  988SOL    HW1 3863   3.263   3.933   2.328
  988SOL    HW2 3864   3.357   3.876   2.448
  989SOL     OW 3865   6.868   2.303   0.387
  989SOL    HW1 3866   6.883   2.242   0.309
  989SOL    HW2 3867   6.946   2.295   0.450
  990SOL     OW 3868   3.542   0.079   3.003
  990SOL    HW1 3869   3.621   0.020   3.023
  990SOL    HW2 3870   3.458   0.027   3.017
  991SOL     OW 3871   6.623   4.676   3.302
  991SOL    HW1 3872   6.702   4.735   3.295
  991SOL    HW2 3873   6.648   4.583   3.274
  992SOL     OW 3874   1.110   2.910   1.411
  992SOL    HW1 3875   1.031   2.947   1.361
  992SOL    HW2 3876   1.193   2.958   1.385
  993SOL     OW 3877   0.716   4.078   0.928
  993SOL    HW1 3878   0.660   4.138   0.869
  993SOL    HW2 3879   0.813   4.092   0.906
  994SOL     OW 3880   3.953   5.504   1.140
  994SOL    HW1 3881   3.902   5.546   1.065
  994SOL    HW2 3882   3.889   5.482   1.215
  995SOL     OW 3883   4.274   3.575   5.567
  995SOL    HW1 3884   4.202   3.601   5.504
  995SOL    HW2 3885   4.291   3.476   5.560
  996SOL     OW 3886   3.929   5.536   5.268
  996SOL    HW1 3887   3.949   5.580   5.355
  996SOL    HW2 3888   3.915   5.438   5.282
  997SOL     OW 3889   1.092   6.731   3.615
  997SOL    HW1 3890   1.017   6.670   3.590
  997SOL    HW2 3891   1.069   6.824   3.587
  998SOL     OW 3892   6.714   0.511   5.841
  998SOL    HW1 3893   6.748   0.422   5.873
  998SOL    HW2 3894   6.665   0.556   5.916
  999SOL     OW 3895   5.010   3.794   1.876
  999SOL    HW1 3896   5.084   3.729   1.891
  999SOL    HW2 3897   5.046   3.875   1.829
 1000SOL     OW 3898   4.649   1.302   1.702
 1000SOL    HW1 3899   4.704   1.218   1.708
 1000SOL    HW2 3900   4.616   1.313   1.608
 1001SOL     OW 3901   2.978   6.069   2.154
 1001SOL    HW1 3902   3.029   5.988   2.183
 1001SOL    HW2 3903   2.919   6.099   2.230
 1002SOL     OW 3904   5.965   1.833   1.571
 1002SOL    HW1 3905   5.948   1.735   1.572
 1002SOL    HW2 3906   6.015   1.858   1.488
 1003SOL     OW 3907   1.575   6.189   2.574
 1003SOL    HW1 3908   1.666   6.229   2.568
 1003SOL    HW2 3909   1.508   6.259   2.595
 1004SOL     OW 3910   6.056   0.764   2.595
 1004SOL    HW1 3911   5.980   0.807   2.546
 1004SOL    HW2 3912   6.022   0.725   2.681
 1005SOL     OW 3913   1.748   4.685   3.817
 1005SOL    HW1 3914   1.830   4.639   3.850
 1005SOL    HW2 3915   1.735   4.665   3.720
 1006SOL     OW 3916   2.270   3.900   0.352
 1006SOL    HW1 3917   2.188   3.941   0.312
 1006SOL    HW2 3918   2.247   3.811   0.391
 1007SOL     OW 3919   4.579   1.495   6.612
 1007SOL    HW1 3920   4.663   1.550   6.613
 1007SOL    HW2 3921   4.501   1.554   6.629
 1008SOL     OW 3922   0.351   3.706   5.151
 1008SOL    HW1 3923   0.359   3.806   5.158
 1008SOL    HW2 3924   0.280   3.683   5.084
 1009SOL     OW 3925   6.189   4.795   5.245
 1009SOL    HW1 3926   6.136   4.788   5.329
 1009SOL    HW2 3927   6.160   4.876   5.194
 1010SOL     OW 3928   2.698   2.422   1.512
 1010SOL    HW1 3929   2.777   2.388   1.461
 1010SOL    HW2 3930   2.728   2.459   1.599
 1011SOL     OW 3931   0.180   5.593   2.875
 1011SOL    HW1 3932   0.235   5.642   2.808
 1011SOL    HW2 3933   0.162   5.652   2.954
 1012SOL     OW 3934   6.675   0.035   2.545
 1012SOL    HW1 3935   6.678   0.000   2.639
 1012SOL    HW2 3936   6.690   6.989   2.481
 1013SOL     OW 3937   6.970   1.394   6.129
 1013SOL    HW1 3938   6.983   1.401   6.228
 1013SOL    HW2 3939   6.932   1.304   6.107
 1014SOL     OW 3940   1.047   4.011   4.807
 1014SOL    HW1 3941   1.114   3.973   4.872
 1014SOL    HW2 3942   0.959   3.965   4.819
 1015SOL     OW 3943   2.693   0.807   6.521
 1015SOL    HW1 3944   2.627   0.736   6.496
 1015SOL    HW2 3945   2.728   0.851   6.438
 1016SOL     OW 3946   4.987   4.616   1.505
 1016SOL    HW1 3947   5.003   4.518   1.497
 1016SOL    HW2 3948   4.923   4.645   1.433
 1017SOL     OW 3949   3.009   1.602   1.398
 1017SOL    HW1 3950   3.035   1.549   1.478
 1017SOL    HW2 3951   3.088   1.654   1.365
 1018SOL     OW 3952   6.804   4.462   3.307
 1018SOL    HW1 3953   6.819   4.390   3.240
 1018SOL    HW2 3954   6.873   4.533   3.296
 1019SOL     OW 3955   6.625   4.928   0.215
 1019SOL    HW1 3956   6.535   4.951   0.177
 1019SOL    HW2 3957   6.646   4.832   0.195
 1020SOL     OW 3958   6.243   0.805   0.912
 1020SOL    HW1 3959   6.217   0.890   0.958
 1020SOL    HW2 3960   6.178   0.784   0.840
 1021SOL     OW 3961   6.453   5.972   2.489
 1021SOL    HW1 3962   6.475   5.902   2.557
 1021SOL    HW2 3963   6.390   5.934   2.421
 1022SOL     OW 3964   2.720   5.961   6.147
 1022SOL    HW1 3965   2.679   5.902   6.078
 1022SOL    HW2 3966   2.760   6.042   6.103
 1023SOL     OW 3967   6.839   0.403   2.271
 1023SOL    HW1 3968   6.806   0.493   2.244
 1023SOL    HW2 3969   6.823   0.388   2.368
 1024SOL     OW 3970   0.485   1.278   3.984
 1024SOL    HW1 3971   0.402   1.306   4.031
 1024SOL    HW2 3972   0.556   1.348   3.998
 1025SOL     OW 3973   4.616   3.246   0.477
 1025SOL    HW1 3974   4.637   3.230   0.573
 1025SOL    HW2 3975   4.644   3.339   0.452
 1026SOL     OW 3976   3.129   2.384   1.696
 1026SOL    HW1 3977   3.050   2.381   1.758
 1026SOL    HW2 3978   3.097   2.376   1.602
 1027SOL     OW 3979   1.733   6.766   1.687
 1027SOL    HW1 3980   1.790   6.736   1.764
 1027SOL    HW2 3981   1.658   6.702   1.673
 1028SOL     OW 3982   1.336   6.493   3.246
 1028SOL    HW1 3983   1.288   6.574   3.279
 1028SOL    HW2 3984   1.341   6.425   3.320
 1029SOL     OW 3985   1.387   2.015   6.148
 1029SOL    HW1 3986   1.480   1.985   6.131
 1029SOL    HW2 3987   1.385   2.113   6.166
 1030SOL     OW 3988   3.485   3.144   1.675
 1030SOL    HW1 3989   3.503   3.108   1.583
 1030SOL    HW2 3990   3.555   3.110   1.738
 1031SOL     OW 3991   4.160   3.219   1.446
 1031SOL    HW1 3992   4.179   3.163   1.366
 1031SOL    HW2 3993   4.131   3.160   1.522
 1032SOL     OW 3994   2.566   1.010   4.983
 1032SOL    HW1 3995   2.598   0.931   5.035
 1032SOL    HW2 3996   2.609   1.093   5.019
 1033SOL     OW 3997   1.807   6.326   2.555
 1033SOL    HW1 3998   1.880   6.291   2.496
 1033SOL    HW2 3999   1.826   6.421   2.581
 1034SOL     OW 4000   2.098   6.354   4.541
 1034SOL    HW1 4001   2.116   6.452   4.551
 1034SOL    HW2 4002   2.079   6.333   4.445
 1035SOL     OW 4003   0.665   2.188   6.126
 1035SOL    HW1 4004   0.679   2.282   6.093
 1035SOL    HW2 4005   0.747   2.158   6.176
 1036SOL     OW 4006   4.687   1.016   1.710
 1036SOL    HW1 4007   4.644   0.929   1.684
 1036SOL    HW2 4008   4.724   1.009   1.802
 1037SOL     OW 4009   0.986   1.873   3.027
 1037SOL    HW1 4010   1.057   1.923   3.077
 1037SOL    HW2 4011   1.002   1.882   2.929
 1038SOL     OW 4012   1.508   1.324   6.790
 1038SOL    HW1 4013   1.515   1.303   6.887
 1038SOL    HW2 4014   1.591   1.295   6.743
 1039SOL     OW 4015   3.006   3.177   3.576
 1039SOL    HW1 4016   3.049   3.194   3.665
 1039SOL    HW2 4017   2.910   3.154   3.589
 1040SOL     OW 4018   4.831   1.062   3.017
 1040SOL    HW1 4019   4.775   1.055   2.934
 1040SOL    HW2 4020   4.927   1.071   2.991
 1041SOL     OW 4021   6.772   6.654   3.789
 1041SOL    HW1 4022   6.791   6.752   3.795
 1041SOL    HW2 4023   6.840   6.604   3.842
 1042SOL     OW 4024   5.017   5.118   2.897
 1042SOL    HW1 4025   5.055   5.037   2.854
 1042SOL    HW2 4026   4.998   5.099   2.994
 1043SOL     OW 4027   3.932   2.165   3.489
 1043SOL    HW1 4028   3.833   2.156   3.498
 1043SOL    HW2 4029   3.958   2.149   3.394
 1044SOL     OW 4030   6.229   5.603   1.368
 1044SOL    HW1 4031   6.186   5.518   1.337
 1044SOL    HW2 4032   6.299   5.630   1.302
 1045SOL     OW 4033   3.027   7.010   2.882
 1045SOL    HW1 4034   2.969   0.062   2.887
 1045SOL    HW2 4035   2.974   6.928   2.904
 1046SOL     OW 4036   2.500   1.170   0.811
 1046SOL    HW1 4037   2.549   1.083   0.800
 1046SOL    HW2 4038   2.512   1.203   0.904
 1047SOL     OW 4039   3.120   0.276   4.222
 1047SOL    HW1 4040   3.101   0.181   4.244
 1047SOL    HW2 4041   3.145   0.283   4.125
 1048SOL     OW 4042   3.196   5.139   2.781
 1048SOL    HW1 4043   3.264   5.077   2.742
 1048SOL    HW2 4044   3.133   5.087   2.839
 1049SOL     OW 4045   4.764   0.050   3.647
 1049SOL    HW1 4046   4.843   0.109   3.631
 1049SOL    HW2 4047   4.683   0.106   3.664
 1050SOL     OW 4048   3.952   5.467   2.760
 1050SOL    HW1 4049   3.856   5.493   2.743
 1050SOL    HW2 4050   3.955   5.380   2.808
 1051SOL     OW 4051   0.320   5.658   0.382
 1051SOL    HW1 4052   0.406   5.670   0.332
 1051SOL    HW2 4053   0.264   5.588   0.338
 1052SOL     OW 4054   4.899   1.019   5.327
 1052SOL    HW1 4055   4.947   1.040   5.413
 1052SOL    HW2 4056   4.801   1.017   5.343
 1053SOL     OW 4057   6.134   4.030   2.363
 1053SOL    HW1 4058   6.173   3.939   2.380
 1053SOL    HW2 4059   6.138   4.084   2.446
 1054SOL     OW 4060   2.978   3.508   1.181
 1054SOL    HW1 4061   3.001   3.439   1.250
 1054SOL    HW2 4062   2.900   3.477   1.127
 1055SOL     OW 4063   4.959   6.237   6.550
 1055SOL    HW1 4064   4.918   6.321   6.587
 1055SOL    HW2 4065   4.886   6.174   6.523
 1056SOL     OW 4066   1.369   3.978   0.356
 1056SOL    HW1 4067   1.305   4.027   0.297
 1056SOL    HW2 4068   1.393   3.890   0.315
 1057SOL     OW 4069   3.695   1.991   1.814
 1057SOL    HW1 4070   3.793   2.009   1.815
 1057SOL    HW2 4071   3.647   2.061   1.868
 1058SOL     OW 4072   4.492   2.516   3.290
 1058SOL    HW1 4073   4.542   2.433   3.265
 1058SOL    HW2 4074   4.449   2.556   3.209
 1059SOL     OW 4075   2.157   6.651   2.143
 1059SOL    HW1 4076   2.082   6.610   2.194
 1059SOL    HW2 4077   2.239   6.653   2.200
 1060SOL     OW 4078   0.045   4.710   3.844
 1060SOL    HW1 4079   0.118   4.672   3.788
 1060SOL    HW2 4080   6.998   4.739   3.786
 1061SOL     OW 4081   6.651   3.611   6.687
 1061SOL    HW1 4082   6.719   3.623   6.614
 1061SOL    HW2 4083   6.698   3.595   6.774
 1062SOL     OW 4084   3.767   6.279   5.512
 1062SOL    HW1 4085   3.752   6.207   5.579
 1062SOL    HW2 4086   3.802   6.361   5.558
 1063SOL     OW 4087   0.429   6.928   6.582
 1063SOL    HW1 4088   0.405   6.988   6.659
 1063SOL    HW2 4089   0.460   6.840   6.618
 1064SOL     OW 4090   0.440   4.281   1.961
 1064SOL    HW1 4091   0.399   4.242   1.879
 1064SOL    HW2 4092   0.517   4.340   1.936
 1065SOL     OW 4093   3.192   0.594   3.923
 1065SOL    HW1 4094   3.276   0.641   3.949
 1065SOL    HW2 4095   3.115   0.635   3.973
 1066SOL     OW 4096   4.509   6.774   2.032
 1066SOL    HW1 4097   4.470   6.791   2.123
 1066SOL    HW2 4098   4.564   6.853   2.004
 1067SOL     OW 4099   2.786   1.413   6.799
 1067SOL    HW1 4100   2.740   1.499   6.780
 1067SOL    HW2 4101   2.764   1.346   6.728
 1068SOL     OW 4102   5.975   3.876   1.013
 1068SOL    HW1 4103   6.031   3.864   1.095
 1068SOL    HW2 4104   6.029   3.856   0.932
 1069SOL     OW 4105   5.374   5.471   1.166
 1069SOL    HW1 4106   5.379   5.495   1.263
 1069SOL    HW2 4107   5.464   5.483   1.124
 1070SOL     OW 4108   2.296   6.968   2.411
 1070SOL    HW1 4109   2.393   6.980   2.429
 1070SOL    HW2 4110   2.282   6.885   2.357
 1071SOL     OW 4111   0.582   1.767   4.581
 1071SOL    HW1 4112   0.636   1.794   4.660
 1071SOL    HW2 4113   0.491   1.737   4.612
 1072SOL     OW 4114   1.784   0.467   1.549
 1072SOL    HW1 4115   1.760   0.511   1.635
 1072SOL    HW2 4116   1.712   0.486   1.482
 1073SOL     OW 4117   5.713   2.059   3.431
 1073SOL    HW1 4118   5.657   1.981   3.460
 1073SOL    HW2 4119   5.671   2.144   3.465
 1074SOL     OW 4120   2.858   5.072   1.232
 1074SOL    HW1 4121   2.928   5.132   1.192
 1074SOL    HW2 4122   2.867   5.074   1.332
 1075SOL     OW 4123   6.428   1.541   4.439
 1075SOL    HW1 4124   6.506   1.523   4.499
 1075SOL    HW2 4125   6.382   1.625   4.468
 1076SOL     OW 4126   1.810   3.234   5.748
 1076SOL    HW1 4127   1.852   3.321   5.720
 1076SOL    HW2 4128   1.879   3.172   5.784
 1077SOL     OW 4129   0.072   6.563   0.113
 1077SOL    HW1 4130   0.167   6.547   0.087
 1077SOL    HW2 4131   0.035   6.638   0.059
 1078SOL     OW 4132   6.290   0.121   2.977
 1078SOL    HW1 4133   6.370   0.098   3.032
 1078SOL    HW2 4134   6.300   0.079   2.886
 1079SOL     OW 4135   1.607   5.604   1.817
 1079SOL    HW1 4136   1.584   5.664   1.894
 1079SOL    HW2 4137   1.523   5.568   1.776
 1080SOL     OW 4138   2.296   5.668   5.090
 1080SOL    HW1 4139   2.359   5.721   5.034
 1080SOL    HW2 4140   2.214   5.647   5.037
 1081SOL     OW 4141   0.117   5.693   4.165
 1081SOL    HW1 4142   0.120   5.689   4.065
 1081SOL    HW2 4143   0.186   5.758   4.198
 1082SOL     OW 4144   6.305   1.859   6.047
 1082SOL    HW1 4145   6.393   1.837   6.005
 1082SOL    HW2 4146   6.321   1.907   6.134
 1083SOL     OW 4147   4.906   3.447   0.484
 1083SOL    HW1 4148   4.912   3.534   0.435
 1083SOL    HW2 4149   4.970   3.447   0.561
 1084SOL     OW 4150   7.029   6.530   6.331
 1084SOL    HW1 4151   0.041   6.460   6.390
 1084SOL    HW2 4152   0.001   6.618   6.377
 1085SOL     OW 4153   2.059   3.417   3.657
 1085SOL    HW1 4154   1.992   3.463   3.599
 1085SOL    HW2 4155   2.079   3.474   3.736
 1086SOL     OW 4156   6.559   5.003   6.518
 1086SOL    HW1 4157   6.617   5.066   6.467
 1086SOL    HW2 4158   6.479   4.979   6.462
 1087SOL     OW 4159   0.997   1.561   5.667
 1087SOL    HW1 4160   1.025   1.626   5.596
 1087SOL    HW2 4161   0.898   1.565   5.679
 1088SOL     OW 4162   0.123   5.015   3.096
 1088SOL    HW1 4163   0.191   4.944   3.116
 1088SOL    HW2 4164   0.131   5.044   3.001
 1089SOL     OW 4165   0.352   5.743   5.144
 1089SOL    HW1 4166   0.319   5.656   5.109
 1089SOL    HW2 4167   0.284   5.814   5.126
 1090SOL     OW 4168   5.237   1.848   3.636
 1090SOL    HW1 4169   5.152   1.897   3.657
 1090SOL    HW2 4170   5.226   1.751   3.659
 1091SOL     OW 4171   2.107   3.563   3.332
 1091SOL    HW1 4172   2.074   3.597   3.420
 1091SOL    HW2 4173   2.076   3.469   3.320
 1092SOL     OW 4174   0.832   4.992   0.656
 1092SOL    HW1 4175   0.759   4.960   0.596
 1092SOL    HW2 4176   0.846   5.090   0.643
 1093SOL     OW 4177   3.122   6.799   1.678
 1093SOL    HW1 4178   3.052   6.728   1.667
 1093SOL    HW2 4179   3.107   6.871   1.610
 1094SOL     OW 4180   0.913   6.949   2.827
 1094SOL    HW1 4181   0.994   6.973   2.774
 1094SOL    HW2 4182   0.839   6.924   2.765
 1095SOL     OW 4183   0.822   2.807   6.541
 1095SOL    HW1 4184   0.732   2.765   6.527
 1095SOL    HW2 4185   0.855   2.843   6.454
 1096SOL     OW 4186   3.148   4.650   1.000
 1096SOL    HW1 4187   3.081   4.577   1.010
 1096SOL    HW2 4188   3.106   4.737   1.027
 1097SOL     OW 4189   1.941   5.749   2.888
 1097SOL    HW1 4190   1.951   5.675   2.821
 1097SOL    HW2 4191   1.948   5.710   2.981
 1098SOL     OW 4192   5.559   4.259   6.660
 1098SOL    HW1 4193   5.608   4.227   6.742
 1098SOL    HW2 4194   5.611   4.233   6.579
 1099SOL     OW 4195   4.901   1.342   6.620
 1099SOL    HW1 4196   4.842   1.422   6.625
 1099SOL    HW2 4197   4.987   1.361   6.667
 1100SOL     OW 4198   3.507   0.982   4.110
 1100SOL    HW1 4199   3.592   1.030   4.130
 1100SOL    HW2 4200   3.460   0.960   4.196
 1101SOL     OW 4201   5.538   3.728   5.118
 1101SOL    HW1 4202   5.472   3.753   5.048
 1101SOL    HW2 4203   5.599   3.657   5.081
 1102SOL     OW 4204   2.606   0.892   4.254
 1102SOL    HW1 4205   2.610   0.850   4.164
 1102SOL    HW2 4206   2.626   0.990   4.246
 1103SOL     OW 4207   2.485   1.337   0.227
 1103SOL    HW1 4208   2.570   1.352   0.277
 1103SOL    HW2 4209   2.500   1.353   0.130
 1104SOL     OW 4210   1.556   4.369   3.649
 1104SOL    HW1 4211   1.655   4.375   3.633
 1104SOL    HW2 4212   1.529   4.441   3.714
 1105SOL     OW 4213   5.032   2.702   4.477
 1105SOL    HW1 4214   5.102   2.762   4.438
 1105SOL    HW2 4215   4.945   2.718   4.431
 1106SOL     OW 4216   0.277   1.526   0.580
 1106SOL    HW1 4217   0.298   1.453   0.516
 1106SOL    HW2 4218   0.321   1.507   0.668
 1107SOL     OW 4219   0.882   0.376   0.351
 1107SOL    HW1 4220   0.972   0.420   0.349
 1107SOL    HW2 4221   0.869   0.323   0.267
 1108SOL     OW 4222   3.869   6.359   4.860
 1108SOL    HW1 4223   3.894   6.435   4.802
 1108SOL    HW2 4224   3.825   6.288   4.805
 1109SOL     OW 4225   5.656   1.781   3.947
 1109SOL    HW1 4226   5.580   1.757   3.886
 1109SOL    HW2 4227   5.637   1.746   4.039
 1110SOL     OW 4228   3.340   0.639   3.055
 1110SOL    HW1 4229   3.411   0.683   3.110
 1110SOL    HW2 4230   3.368   0.637   2.959
 1111SOL     OW 4231   5.596   4.222   6.358
 1111SOL    HW1 4232   5.534   4.168   6.415
 1111SOL    HW2 4233   5.543   4.293   6.311
 1112SOL     OW 4234   6.503   0.096   3.478
 1112SOL    HW1 4235   6.521   0.181   3.528
 1112SOL    HW2 4236   6.584   0.071   3.425
 1113SOL     OW 4237   6.249   4.499   1.582
 1113SOL    HW1 4238   6.203   4.588   1.579
 1113SOL    HW2 4239   6.347   4.512   1.593
 1114SOL     OW 4240   3.837   2.655   5.863
 1114SOL    HW1 4241   3.875   2.646   5.955
 1114SOL    HW2 4242   3.852   2.748   5.829
 1115SOL     OW 4243   4.033   4.064   5.301
 1115SOL    HW1 4244   4.028   4.024   5.209
 1115SOL    HW2 4245   4.114   4.030   5.348
 1116SOL     OW 4246   5.093   0.436   6.835
 1116SOL    HW1 4247   5.143   0.422   6.920
 1116SOL    HW2 4248   5.158   0.437   6.758
 1117SOL     OW 4249   1.020   2.390   1.534
 1117SOL    HW1 4250   1.022   2.331   1.454
 1117SOL    HW2 4251   0.925   2.403   1.563
 1118SOL     OW 4252   2.303   5.356   0.139
 1118SOL    HW1 4253   2.367   5.350   0.061
 1118SOL    HW2 4254   2.344   5.411   0.211
 1119SOL     OW 4255   4.174   4.677   1.863
 1119SOL    HW1 4256   4.079   4.646   1.865
 1119SOL    HW2 4257   4.215   4.663   1.954
 1120SOL     OW 4258   6.227   6.143   1.188
 1120SOL    HW1 4259   6.281   6.117   1.268
 1120SOL    HW2 4260   6.151   6.080   1.177
 1121SOL     OW 4261   0.861   4.589   4.732
 1121SOL    HW1 4262   0.852   4.688   4.745
 1121SOL    HW2 4263   0.786   4.556   4.675
 1122SOL     OW 4264   6.109   2.832   2.075
 1122SOL    HW1 4265   6.040   2.804   2.008
 1122SOL    HW2 4266   6.157   2.751   2.109
 1123SOL     OW 4267   4.386   2.164   3.774
 1123SOL    HW1 4268   4.407   2.067   3.761
 1123SOL    HW2 4269   4.400   2.213   3.688
 1124SOL     OW 4270   0.918   3.456   5.779
 1124SOL    HW1 4271   0.868   3.399   5.713
 1124SOL    HW2 4272   1.013   3.465   5.749
 1125SOL     OW 4273   1.741   2.922   4.526
 1125SOL    HW1 4274   1.816   2.861   4.550
 1125SOL    HW2 4275   1.759   3.013   4.563
 1126SOL     OW 4276   4.399   5.795   5.146
 1126SOL    HW1 4277   4.490   5.836   5.140
 1126SOL    HW2 4278   4.332   5.855   5.102
 1127SOL     OW 4279   5.529   6.902   4.747
 1127SOL    HW1 4280   5.608   6.843   4.764
 1127SOL    HW2 4281   5.461   6.853   4.692
 1128SOL     OW 4282   5.905   1.633   5.036
 1128SOL    HW1 4283   5.849   1.637   5.118
 1128SOL    HW2 4284   5.867   1.693   4.966
 1129SOL     OW 4285   1.785   0.070   0.340
 1129SOL    HW1 4286   1.727   7.024   0.372
 1129SOL    HW2 4287   1.736   0.156   0.350
 1130SOL     OW 4288   1.776   5.556   1.613
 1130SOL    HW1 4289   1.866   5.533   1.651
 1130SOL    HW2 4290   1.715   5.584   1.688
 1131SOL     OW 4291   1.824   0.775   4.691
 1131SOL    HW1 4292   1.762   0.853   4.697
 1131SOL    HW2 4293   1.830   0.745   4.596
 1132SOL     OW 4294   4.660   0.314   2.545
 1132SOL    HW1 4295   4.741   0.317   2.487
 1132SOL    HW2 4296   4.662   0.390   2.610
 1133SOL     OW 4297   1.185   0.244   7.026
 1133SOL    HW1 4298   1.250   0.316   0.020
 1133SOL    HW2 4299   1.214   0.200   6.941
 1134SOL     OW 4300   5.674   6.759   2.202
 1134SOL    HW1 4301   5.577   6.778   2.211
 1134SOL    HW2 4302   5.726   6.842   2.223
 1135SOL     OW 4303   2.297   6.433   3.868
 1135SOL    HW1 4304   2.290   6.370   3.790
 1135SOL    HW2 4305   2.317   6.381   3.951
 1136SOL     OW 4306   3.420   5.171   3.141
 1136SOL    HW1 4307   3.473   5.125   3.213
 1136SOL    HW2 4308   3.352   5.108   3.104
 1137SOL     OW 4309   0.990   6.335   6.405
 1137SOL    HW1 4310   0.938   6.417   6.427
 1137SOL    HW2 4311   0.991   6.322   6.306
 1138SOL     OW 4312   1.588   2.142   5.175
 1138SOL    HW1 4313   1.549   2.190   5.253
 1138SOL    HW2 4314   1.640   2.062   5.207
 1139SOL     OW 4315   2.534   4.557   4.250
 1139SOL    HW1 4316   2.523   4.568   4.151
 1139SOL    HW2 4317   2.628   4.580   4.276
 1140SOL     OW 4318   2.283   0.548   2.419
 1140SOL    HW1 4319   2.279   0.449   2.433
 1140SOL    HW2 4320   2.352   0.570   2.350
 1141SOL     OW 4321   6.395   5.539   6.420
 1141SOL    HW1 4322   6.366   5.573   6.330
 1141SOL    HW2 4323   6.348   5.590   6.491
 1142SOL     OW 4324   2.546   6.915   3.464
 1142SOL    HW1 4325   2.500   6.895   3.551
 1142SOL    HW2 4326   2.572   7.011   3.462
 1143SOL     OW 4327   1.449   2.770   2.363
 1143SOL    HW1 4328   1.367   2.767   2.420
 1143SOL    HW2 4329   1.527   2.802   2.419
 1144SOL     OW 4330   5.542   4.634   2.594
 1144SOL    HW1 4331   5.572   4.624   2.689
 1144SOL    HW2 4332   5.514   4.546   2.558
 1145SOL     OW 4333   1.159   2.597   0.381
 1145SOL    HW1 4334   1.090   2.669   0.393
 1145SOL    HW2 4335   1.179   2.555   0.469
 1146SOL     OW 4336   0.511   2.226   1.184
 1146SOL    HW1 4337   0.553   2.316   1.180
 1146SOL    HW2 4338   0.439   2.225   1.253
 1147SOL     OW 4339   3.143   6.136   0.712
 1147SOL    HW1 4340   3.145   6.036   0.714
 1147SOL    HW2 4341   3.136   6.167   0.617
 1148SOL     OW 4342   3.977   6.259   1.655
 1148SOL    HW1 4343   3.930   6.245   1.567
 1148SOL    HW2 4344   3.924   6.217   1.728
 1149SOL     OW 4345   6.191   3.211   1.752
 1149SOL    HW1 4346   6.177   3.191   1.655
 1149SOL    HW2 4347   6.242   3.137   1.795
 1150SOL     OW 4348   0.748   4.331   0.077
 1150SOL    HW1 4349   0.709   4.346   0.168
 1150SOL    HW2 4350   0.706   4.250   0.036
 1151SOL     OW 4351   5.545   5.214   4.399
 1151SOL    HW1 4352   5.475   5.143   4.391
 1151SOL    HW2 4353   5.634   5.177   4.374
 1152SOL     OW 4354   4.441   6.498   6.507
 1152SOL    HW1 4355   4.424   6.596   6.519
 1152SOL    HW2 4356   4.467   6.481   6.412
 1153SOL     OW 4357   6.943   0.170   1.322
 1153SOL    HW1 4358   6.865   0.136   1.374
 1153SOL    HW2 4359   6.952   0.268   1.336
 1154SOL     OW 4360   0.749   4.009   1.220
 1154SOL    HW1 4361   0.692   4.049   1.148
 1154SOL    HW2 4362   0.845   4.012   1.193
 1155SOL     OW 4363   2.315   6.363   5.204
 1155SOL    HW1 4364   2.370   6.440   5.238
 1155SOL    HW2 4365   2.236   6.398   5.154
 1156SOL     OW 4366   4.263   1.597   5.040
 1156SOL    HW1 4367   4.237   1.604   4.943
 1156SOL    HW2 4368   4.278   1.501   5.063
 1157SOL     OW 4369   5.469   1.106   5.712
 1157SOL    HW1 4370   5.426   1.122   5.623
 1157SOL    HW2 4371   5.411   1.144   5.784
 1158SOL     OW 4372   6.019   6.015   4.216
 1158SOL    HW1 4373   5.925   6.046   4.207
 1158SOL    HW2 4374   6.069   6.035   4.132
 1159SOL     OW 4375   6.022   6.752   3.264
 1159SOL    HW1 4376   5.964   6.762   3.346
 1159SOL    HW2 4377   6.071   6.837   3.248
 1160SOL     OW 4378   4.008   5.545   2.081
 1160SOL    HW1 4379   4.013   5.554   2.181
 1160SOL    HW2 4380   3.987   5.450   2.058
 1161SOL     OW 4381   6.833   5.661   6.254
 1161SOL    HW1 4382   6.746   5.709   6.248
 1161SOL    HW2 4383   6.817   5.566   6.281
 1162SOL     OW 4384   2.499   2.245   6.047
 1162SOL    HW1 4385   2.448   2.163   6.074
 1162SOL    HW2 4386   2.484   2.316   6.116
 1163SOL     OW 4387   5.962   4.968   1.696
 1163SOL    HW1 4388   6.013   4.942   1.614
 1163SOL    HW2 4389   5.900   4.893   1.722
 1164SOL     OW 4390   5.360   2.462   4.955
 1164SOL    HW1 4391   5.274   2.480   4.907
 1164SOL    HW2 4392   5.405   2.549   4.976
 1165SOL     OW 4393   4.257   5.901   3.059
 1165SOL    HW1 4394   4.168   5.944   3.078
 1165SOL    HW2 4395   4.330   5.969   3.070
 1166SOL     OW 4396   1.957   6.111   0.077
 1166SOL    HW1 4397   1.973   6.203   0.041
 1166SOL    HW2 4398   1.862   6.085   0.060
 1167SOL     OW 4399   5.026   4.355   1.539
 1167SOL    HW1 4400   5.001   4.267   1.498
 1167SOL    HW2 4401   5.117   4.347   1.580
 1168SOL     OW 4402   6.231   2.405   1.633
 1168SOL    HW1 4403   6.202   2.310   1.643
 1168SOL    HW2 4404   6.326   2.408   1.601
 1169SOL     OW 4405   5.741   1.834   5.477
 1169SOL    HW1 4406   5.678   1.875   5.542
 1169SOL    HW2 4407   5.830   1.820   5.521
 1170SOL     OW 4408   4.707   6.967   2.862
 1170SOL    HW1 4409   4.683   6.893   2.925
 1170SOL    HW2 4410   4.754   0.011   2.912
 1171SOL     OW 4411   2.552   0.294   0.048
 1171SOL    HW1 4412   2.611   0.357   0.098
 1171SOL    HW2 4413   2.576   0.200   0.071
 1172SOL     OW 4414   4.829   4.224   1.022
 1172SOL    HW1 4415   4.834   4.126   1.000
 1172SOL    HW2 4416   4.751   4.240   1.083
 1173SOL     OW 4417   2.740   1.208   1.807
 1173SOL    HW1 4418   2.689   1.279   1.759
 1173SOL    HW2 4419   2.680   1.130   1.824
 1174SOL     OW 4420   3.395   3.940   1.863
 1174SOL    HW1 4421   3.436   4.008   1.924
 1174SOL    HW2 4422   3.324   3.889   1.913
 1175SOL     OW 4423   4.748   3.437   5.773
 1175SOL    HW1 4424   4.754   3.415   5.675
 1175SOL    HW2 4425   4.656   3.472   5.793
 1176SOL     OW 4426   5.256   3.661   6.521
 1176SOL    HW1 4427   5.341   3.704   6.491
 1176SOL    HW2 4428   5.275   3.593   6.591
 1177SOL     OW 4429   6.980   3.991   4.661
 1177SOL    HW1 4430   0.022   3.990   4.590
 1177SOL    HW2 4431   7.001   4.062   4.728
 1178SOL     OW 4432   2.805   3.432   0.421
 1178SOL    HW1 4433   2.752   3.486   0.356
 1178SOL    HW2 4434   2.744   3.369   0.469
 1179SOL     OW 4435   2.678   5.431   0.683
 1179SOL    HW1 4436   2.733   5.480   0.616
 1179SOL    HW2 4437   2.585   5.468   0.683
 1180SOL     OW 4438   2.445   5.893   3.389
 1180SOL    HW1 4439   2.494   5.871   3.474
 1180SOL    HW2 4440   2.435   5.993   3.382
 1181SOL     OW 4441   0.542   5.312   5.731
 1181SOL    HW1 4442   0.467   5.370   5.701
 1181SOL    HW2 4443   0.519   5.271   5.820
 1182SOL     OW 4444   4.051   5.302   3.394
 1182SOL    HW1 4445   3.986   5.282   3.467
 1182SOL    HW2 4446   4.090   5.216   3.360
 1183SOL     OW 4447   2.197   4.284   7.017
 1183SOL    HW1 4448   2.297   4.289   7.015
 1183SOL    HW2 4449   2.161   4.300   6.925
 1184SOL     OW 4450   0.250   0.953   4.743
 1184SOL    HW1 4451   0.189   1.032   4.746
 1184SOL    HW2 4452   0.245   0.910   4.653
 1185SOL     OW 4453   0.022   1.549   0.492
 1185SOL    HW1 4454   6.997   1.633   0.500
 1185SOL    HW2 4455   0.114   1.563   0.527
 1186SOL     OW 4456   5.152   6.306   5.509
 1186SOL    HW1 4457   5.249   6.285   5.506
 1186SOL    HW2 4458   5.119   6.328   5.418
 1187SOL     OW 4459   6.202   6.524   6.683
 1187SOL    HW1 4460   6.266   6.497   6.612
 1187SOL    HW2 4461   6.246   6.590   6.744
 1188SOL     OW 4462   3.634   5.835   5.359
 1188SOL    HW1 4463   3.635   5.744   5.400
 1188SOL    HW2 4464   3.644   5.904   5.431
 1189SOL     OW 4465   6.329   2.426   2.515
 1189SOL    HW1 4466   6.319   2.521   2.543
 1189SOL    HW2 4467   6.349   2.422   2.417
 1190SOL     OW 4468   2.651   5.702   4.262
 1190SOL    HW1 4469   2.701   5.741   4.340
 1190SOL    HW2 4470   2.562   5.748   4.253
 1191SOL     OW 4471   4.608   5.040   3.961
 1191SOL    HW1 4472   4.567   5.002   3.878
 1191SOL    HW2 4473   4.601   5.140   3.959
 1192SOL     OW 4474   4.107   5.461   2.995
 1192SOL    HW1 4475   4.131   5.369   2.964
 1192SOL    HW2 4476   4.026   5.493   2.947
 1193SOL     OW 4477   6.692   3.465   4.623
 1193SOL    HW1 4478   6.670   3.447   4.719
 1193SOL    HW2 4479   6.644   3.400   4.565
 1194SOL     OW 4480   5.636   7.027   1.740
 1194SOL    HW1 4481   5.570   6.966   1.783
 1194SOL    HW2 4482   5.728   6.991   1.752
 1195SOL     OW 4483   6.409   4.481   1.060
 1195SOL    HW1 4484   6.393   4.577   1.038
 1195SOL    HW2 4485   6.492   4.472   1.115
 1196SOL     OW 4486   6.883   5.744   2.953
 1196SOL    HW1 4487   6.972   5.744   2.999
 1196SOL    HW2 4488   6.811   5.762   3.020
 1197SOL     OW 4489   4.274   0.883   5.489
 1197SOL    HW1 4490   4.263   0.794   5.445
 1197SOL    HW2 4491   4.262   0.956   5.421
 1198SOL     OW 4492   1.046   2.862   2.425
 1198SOL    HW1 4493   1.081   2.845   2.333
 1198SOL    HW2 4494   1.051   2.959   2.445
 1199SOL     OW 4495   3.972   4.602   1.679
 1199SOL    HW1 4496   4.040   4.533   1.657
 1199SOL    HW2 4497   4.011   4.693   1.666
 1200SOL     OW 4498   3.241   3.408   3.884
 1200SOL    HW1 4499   3.158   3.352   3.882
 1200SOL    HW2 4500   3.315   3.358   3.838
 1201SOL     OW 4501   1.244   0.763   4.383
 1201SOL    HW1 4502   1.234   0.689   4.450
 1201SOL    HW2 4503   1.153   0.797   4.358
 1202SOL     OW 4504   0.811   5.876   5.825
 1202SOL    HW1 4505   0.861   5.872   5.911
 1202SOL    HW2 4506   0.781   5.970   5.808
 1203SOL     OW 4507   5.962   6.589   0.339
 1203SOL    HW1 4508   5.978   6.574   0.241
 1203SOL    HW2 4509   5.874   6.551   0.365
 1204SOL     OW 4510   3.199   6.455   1.751
 1204SOL    HW1 4511   3.265   6.453   1.826
 1204SOL    HW2 4512   3.247   6.481   1.666
 1205SOL     OW 4513   5.200   3.814   1.369
 1205SOL    HW1 4514   5.172   3.735   1.423
 1205SOL    HW2 4515   5.213   3.893   1.428
 1206SOL     OW 4516   2.924   2.821   5.353
 1206SOL    HW1 4517   2.918   2.799   5.450
 1206SOL    HW2 4518   2.832   2.829   5.314
 1207SOL     OW 4519   2.158   6.292   1.737
 1207SOL    HW1 4520   2.136   6.334   1.825
 1207SOL    HW2 4521   2.161   6.362   1.666
 1208SOL     OW 4522   3.153   3.566   0.964
 1208SOL    HW1 4523   3.102   3.541   1.046
 1208SOL    HW2 4524   3.244   3.597   0.990
 1209SOL     OW 4525   4.480   0.802   4.571
 1209SOL    HW1 4526   4.541   0.863   4.621
 1209SOL    HW2 4527   4.396   0.851   4.547
 1210SOL     OW 4528   2.745   0.628   3.402
 1210SOL    HW1 4529   2.751   0.540   3.355
 1210SOL    HW2 4530   2.695   0.693   3.345
 1211SOL     OW 4531   0.895   3.213   1.814
 1211SOL    HW1 4532   0.906   3.155   1.895
 1211SOL    HW2 4533   0.920   3.307   1.837
 1212SOL     OW 4534   6.491   0.290   6.607
 1212SOL    HW1 4535   6.536   0.215   6.559
 1212SOL    HW2 4536   6.512   0.284   6.705
 1213SOL     OW 4537   6.847   2.060   0.595
 1213SOL    HW1 4538   6.846   2.068   0.495
 1213SOL    HW2 4539   6.787   1.986   0.624
 1214SOL     OW 4540   0.649   3.183   0.420
 1214SOL    HW1 4541   0.596   3.263   0.393
 1214SOL    HW2 4542   0.596   3.100   0.404
 1215SOL     OW 4543   1.575   4.377   4.067
 1215SOL    HW1 4544   1.578   4.438   3.988
 1215SOL    HW2 4545   1.612   4.288   4.042
 1216SOL     OW 4546   4.975   0.564   1.236
 1216SOL    HW1 4547   5.069   0.584   1.207
 1216SOL    HW2 4548   4.964   0.587   1.333
 1217SOL     OW 4549   1.354   4.789   0.471
 1217SOL    HW1 4550   1.410   4.812   0.391
 1217SOL    HW2 4551   1.262   4.762   0.441
 1218SOL     OW 4552   2.266   4.079   4.368
 1218SOL    HW1 4553   2.291   4.093   4.272
 1218SOL    HW2 4554   2.225   3.988   4.379
 1219SOL     OW 4555   5.668   5.855   1.639
 1219SOL    HW1 4556   5.617   5.785   1.589
 1219SOL    HW2 4557   5.653   5.944   1.596
 1220SOL     OW 4558   1.146   5.035   3.267
 1220SOL    HW1 4559   1.067   5.069   3.216
 1220SOL    HW2 4560   1.121   5.017   3.361
 1221SOL     OW 4561   5.795   3.863   6.041
 1221SOL    HW1 4562   5.754   3.779   6.003
 1221SOL    HW2 4563   5.747   3.942   6.005
 1222SOL     OW 4564   6.478   6.981   6.314
 1222SOL    HW1 4565   6.489   6.941   6.223
 1222SOL    HW2 4566   6.408   0.024   6.311
 1223SOL     OW 4567   4.092   0.637   0.510
 1223SOL    HW1 4568   4.155   0.567   0.544
 1223SOL    HW2 4569   4.019   0.651   0.577
 1224SOL     OW 4570   2.762   6.163   0.498
 1224SOL    HW1 4571   2.676   6.148   0.548
 1224SOL    HW2 4572   2.748   6.233   0.428
 1225SOL     OW 4573   3.569   3.728   6.645
 1225SOL    HW1 4574   3.562   3.688   6.553
 1225SOL    HW2 4575   3.486   3.707   6.696
 1226SOL     OW 4576   2.344   5.417   1.078
 1226SOL    HW1 4577   2.375   5.506   1.044
 1226SOL    HW2 4578   2.246   5.408   1.062
 1227SOL     OW 4579   6.400   3.876   6.993
 1227SOL    HW1 4580   6.308   3.879   0.004
 1227SOL    HW2 4581   6.467   3.869   0.037
 1228SOL     OW 4582   4.565   2.917   7.018
 1228SOL    HW1 4583   4.595   3.011   0.002
 1228SOL    HW2 4584   4.589   2.863   0.070
 1229SOL     OW 4585   3.496   4.817   5.874
 1229SOL    HW1 4586   3.452   4.743   5.824
 1229SOL    HW2 4587   3.595   4.812   5.861
 1230SOL     OW 4588   4.495   6.979   3.257
 1230SOL    HW1 4589   4.584   7.010   3.289
 1230SOL    HW2 4590   4.476   6.887   3.293
 1231SOL     OW 4591   1.356   3.714   4.281
 1231SOL    HW1 4592   1.288   3.691   4.212
 1231SOL    HW2 4593   1.421   3.780   4.243
 1232SOL     OW 4594   0.798   2.481   6.353
 1232SOL    HW1 4595   0.881   2.465   6.406
 1232SOL    HW2 4596   0.820   2.539   6.274
 1233SOL     OW 4597   0.961   3.142   4.259
 1233SOL    HW1 4598   1.002   3.068   4.206
 1233SOL    HW2 4599   1.031   3.184   4.317
 1234SOL     OW 4600   6.474   4.378   5.082
 1234SOL    HW1 4601   6.403   4.429   5.035
 1234SOL    HW2 4602   6.534   4.334   5.015
 1235SOL     OW 4603   6.898   5.788   2.626
 1235SOL    HW1 4604   6.843   5.811   2.546
 1235SOL    HW2 4605   6.843   5.735   2.690
 1236SOL     OW 4606   5.091   1.390   6.817
 1236SOL    HW1 4607   5.068   1.460   6.885
 1236SOL    HW2 4608   5.090   1.300   6.860
 1237SOL     OW 4609   2.790   5.120   5.763
 1237SOL    HW1 4610   2.740   5.118   5.677
 1237SOL    HW2 4611   2.801   5.026   5.798
 1238SOL     OW 4612   2.180   1.088   0.558
 1238SOL    HW1 4613   2.174   0.997   0.517
 1238SOL    HW2 4614   2.249   1.142   0.510
 1239SOL     OW 4615   0.033   6.731   6.549
 1239SOL    HW1 4616   0.073   6.796   6.484
 1239SOL    HW2 4617   0.051   6.762   6.643
 1240SOL     OW 4618   5.462   5.590   2.171
 1240SOL    HW1 4619   5.447   5.530   2.093
 1240SOL    HW2 4620   5.512   5.541   2.242
 1241SOL     OW 4621   6.457   4.042   3.941
 1241SOL    HW1 4622   6.491   4.126   3.899
 1241SOL    HW2 4623   6.505   3.963   3.903
 1242SOL     OW 4624   0.962   3.631   1.523
 1242SOL    HW1 4625   0.893   3.700   1.546
 1242SOL    HW2 4626   0.973   3.627   1.423
 1243SOL     OW 4627   1.054   6.341   5.493
 1243SOL    HW1 4628   0.960   6.358   5.463
 1243SOL    HW2 4629   1.112   6.323   5.414
 1244SOL     OW 4630   0.307   6.321   3.436
 1244SOL    HW1 4631   0.405   6.322   3.455
 1244SOL    HW2 4632   0.260   6.377   3.503
 1245SOL     OW 4633   4.699   4.050   6.424
 1245SOL    HW1 4634   4.656   3.985   6.487
 1245SOL    HW2 4635   4.641   4.131   6.416
 1246SOL     OW 4636   2.078   6.276   2.451
 1246SOL    HW1 4637   2.140   6.213   2.403
 1246SOL    HW2 4638   2.077   6.364   2.404
 1247SOL     OW 4639   2.678   0.367   6.643
 1247SOL    HW1 4640   2.743   0.403   6.576
 1247SOL    HW2 4641   2.609   0.437   6.663
 1248SOL     OW 4642   2.450   6.826   4.539
 1248SOL    HW1 4643   2.474   6.825   4.442
 1248SOL    HW2 4644   2.379   6.758   4.556
 1249SOL     OW 4645   5.442   2.112   2.048
 1249SOL    HW1 4646   5.347   2.134   2.070
 1249SOL    HW2 4647   5.450   2.014   2.029
 1250SOL     OW 4648   6.977   4.630   4.698
 1250SOL    HW1 4649   6.927   4.709   4.735
 1250SOL    HW2 4650   7.003   4.569   4.774
 1251SOL     OW 4651   3.050   0.097   4.636
 1251SOL    HW1 4652   3.115   0.037   4.682
 1251SOL    HW2 4653   3.025   0.057   4.548
 1252SOL     OW 4654   3.525   3.824   6.165
 1252SOL    HW1 4655   3.625   3.826   6.155
 1252SOL    HW2 4656   3.486   3.904   6.118
 1253SOL     OW 4657   3.474   5.422   1.423
 1253SOL    HW1 4658   3.448   5.396   1.516
 1253SOL    HW2 4659   3.423   5.503   1.396
 1254SOL     OW 4660   6.491   3.108   2.586
 1254SOL    HW1 4661   6.551   3.029   2.571
 1254SOL    HW2 4662   6.494   3.167   2.505
 1255SOL     OW 4663   6.779   1.518   4.433
 1255SOL    HW1 4664   6.791   1.592   4.367
 1255SOL    HW2 4665   6.835   1.535   4.514
 1256SOL     OW 4666   6.947   6.987   2.933
 1256SOL    HW1 4667   6.973   6.957   2.841
 1256SOL    HW2 4668   7.007   6.944   3.001
 1257SOL     OW 4669   6.535   6.764   3.561
 1257SOL    HW1 4670   6.544   6.840   3.626
 1257SOL    HW2 4671   6.606   6.771   3.491
 1258SOL     OW 4672   0.606   5.325   3.460
 1258SOL    HW1 4673   0.660   5.257   3.511
 1258SOL    HW2 4674   0.537   5.278   3.406
 1259SOL     OW 4675   3.194   2.200   4.352
 1259SOL    HW1 4676   3.194   2.258   4.434
 1259SOL    HW2 4677   3.283   2.155   4.344
 1260SOL     OW 4678   1.065   1.387   6.954
 1260SOL    HW1 4679   1.118   1.355   0.004
 1260SOL    HW2 4680   1.059   1.486   6.957
 1261SOL     OW 4681   0.035   5.936   6.255
 1261SOL    HW1 4682   0.049   5.846   6.295
 1261SOL    HW2 4683   0.043   6.006   6.327
 1262SOL     OW 4684   5.261   5.038   1.749
 1262SOL    HW1 4685   5.175   5.033   1.798
 1262SOL    HW2 4686   5.292   4.945   1.727
 1263SOL     OW 4687   0.233   1.117   2.617
 1263SOL    HW1 4688   0.168   1.130   2.543
 1263SOL    HW2 4689   0.314   1.069   2.583
 1264SOL     OW 4690   0.520   3.918   6.672
 1264SOL    HW1 4691   0.573   3.860   6.733
 1264SOL    HW2 4692   0.577   3.992   6.637
 1265SOL     OW 4693   6.548   5.284   4.402
 1265SOL    HW1 4694   6.618   5.241   4.459
 1265SOL    HW2 4695   6.546   5.239   4.312
 1266SOL     OW 4696   0.836   0.283   4.524
 1266SOL    HW1 4697   0.835   0.254   4.428
 1266SOL    HW2 4698   0.791   0.214   4.580
 1267SOL     OW 4699   5.019   0.840   1.741
 1267SOL    HW1 4700   5.032   0.830   1.839
 1267SOL    HW2 4701   5.076   0.915   1.708
 1268SOL     OW 4702   3.332   2.522   6.084
 1268SOL    HW1 4703   3.348   2.610   6.039
 1268SOL    HW2 4704   3.357   2.448   6.022
 1269SOL     OW 4705   5.418   3.052   4.260
 1269SOL    HW1 4706   5.368   3.065   4.174
 1269SOL    HW2 4707   5.509   3.018   4.240
 1270SOL     OW 4708   2.036   4.668   2.079
 1270SOL    HW1 4709   2.049   4.763   2.050
 1270SOL    HW2 4710   1.946   4.636   2.049
 1271SOL     OW 4711   2.680   0.965   1.563
 1271SOL    HW1 4712   2.679   1.057   1.522
 1271SOL    HW2 4713   2.640   0.900   1.499
 1272SOL     OW 4714   6.350   4.314   6.355
 1272SOL    HW1 4715   6.258   4.353   6.346
 1272SOL    HW2 4716   6.346   4.230   6.409
 1273SOL     OW 4717   1.671   3.819   5.215
 1273SOL    HW1 4718   1.655   3.724   5.190
 1273SOL    HW2 4719   1.743   3.858   5.156
 1274SOL     OW 4720   0.035   4.792   1.678
 1274SOL    HW1 4721   0.047   4.826   1.585
 1274SOL    HW2 4722   6.968   4.772   1.694
 1275SOL     OW 4723   2.697   0.151   3.476
 1275SOL    HW1 4724   2.753   0.196   3.546
 1275SOL    HW2 4725   2.749   0.140   3.392
 1276SOL     OW 4726   5.192   4.767   4.678
 1276SOL    HW1 4727   5.289   4.772   4.702
 1276SOL    HW2 4728   5.168   4.672   4.654
 1277SOL     OW 4729   1.314   5.199   0.139
 1277SOL    HW1 4730   1.253   5.168   0.067
 1277SOL    HW2 4731   1.364   5.280   0.108
 1278SOL     OW 4732   1.372   6.987   4.156
 1278SOL    HW1 4733   1.347   0.019   4.231
 1278SOL    HW2 4734   1.355   0.004   4.069
 1279SOL     OW 4735   2.308   3.668   6.148
 1279SOL    HW1 4736   2.235   3.612   6.187
 1279SOL    HW2 4737   2.285   3.693   6.054
 1280SOL     OW 4738   3.607   0.535   3.496
 1280SOL    HW1 4739   3.546   0.482   3.437
 1280SOL    HW2 4740   3.553   0.592   3.558
 1281SOL     OW 4741   2.885   5.740   4.153
 1281SOL    HW1 4742   2.793   5.725   4.188
 1281SOL    HW2 4743   2.949   5.680   4.202
 1282SOL     OW 4744   0.186   2.793   0.597
 1282SOL    HW1 4745   0.092   2.806   0.627
 1282SOL    HW2 4746   0.244   2.863   0.640
 1283SOL     OW 4747   6.743   4.369   5.268
 1283SOL    HW1 4748   6.758   4.416   5.181
 1283SOL    HW2 4749   6.727   4.272   5.251
 1284SOL     OW 4750   4.079   0.456   1.289
 1284SOL    HW1 4751   4.142   0.393   1.244
 1284SOL    HW2 4752   4.068   0.429   1.385
 1285SOL     OW 4753   3.676   1.146   5.825
 1285SOL    HW1 4754   3.606   1.186   5.883
 1285SOL    HW2 4755   3.734   1.219   5.788
 1286SOL     OW 4756   4.892   2.624   0.866
 1286SOL    HW1 4757   4.836   2.551   0.827
 1286SOL    HW2 4758   4.906   2.695   0.798
 1287SOL     OW 4759   5.367   4.479   5.528
 1287SOL    HW1 4760   5.292   4.507   5.469
 1287SOL    HW2 4761   5.428   4.557   5.544
 1288SOL     OW 4762   4.256   4.185   5.909
 1288SOL    HW1 4763   4.247   4.240   5.992
 1288SOL    HW2 4764   4.350   4.188   5.877
 1289SOL     OW 4765   6.771   0.758   1.998
 1289SOL    HW1 4766   6.793   0.701   1.919
 1289SOL    HW2 4767   6.769   0.854   1.971
 1290SOL     OW 4768   1.283   0.305   1.251
 1290SOL    HW1 4769   1.297   0.366   1.329
 1290SOL    HW2 4770   1.366   0.250   1.237
 1291SOL     OW 4771   6.549   5.002   4.246
 1291SOL    HW1 4772   6.561   4.920   4.303
 1291SOL    HW2 4773   6.460   5.043   4.266
 1292SOL     OW 4774   0.291   5.526   2.308
 1292SOL    HW1 4775   0.210   5.526   2.366
 1292SOL    HW2 4776   0.353   5.599   2.337
 1293SOL     OW 4777   2.275   2.221   0.537
 1293SOL    HW1 4778   2.369   2.220   0.504
 1293SOL    HW2 4779   2.222   2.286   0.482
 1294SOL     OW 4780   1.561   4.077   6.200
 1294SOL    HW1 4781   1.611   4.129   6.130
 1294SOL    HW2 4782   1.620   4.063   6.280
 1295SOL     OW 4783   6.951   3.601   1.296
 1295SOL    HW1 4784   6.929   3.541   1.373
 1295SOL    HW2 4785   6.954   3.546   1.212
 1296SOL     OW 4786   4.868   0.120   5.626
 1296SOL    HW1 4787   4.772   0.137   5.604
 1296SOL    HW2 4788   4.874   0.070   5.713
 1297SOL     OW 4789   0.917   6.333   1.408
 1297SOL    HW1 4790   0.984   6.270   1.371
 1297SOL    HW2 4791   0.826   6.311   1.372
 1298SOL     OW 4792   5.199   6.545   3.475
 1298SOL    HW1 4793   5.119   6.544   3.535
 1298SOL    HW2 4794   5.221   6.640   3.451
 1299SOL     OW 4795   1.998   2.973   3.813
 1299SOL    HW1 4796   1.964   3.036   3.743
 1299SOL    HW2 4797   2.098   2.973   3.813
 1300SOL     OW 4798   1.845   3.798   1.446
 1300SOL    HW1 4799   1.933   3.759   1.472
 1300SOL    HW2 4800   1.780   3.725   1.427
 1301SOL     OW 4801   0.444   6.717   1.932
 1301SOL    HW1 4802   0.449   6.804   1.883
 1301SOL    HW2 4803   0.510   6.653   1.894
 1302SOL     OW 4804   5.428   0.436   5.453
 1302SOL    HW1 4805   5.411   0.534   5.441
 1302SOL    HW2 4806   5.510   0.424   5.509
 1303SOL     OW 4807   4.352   0.291   1.487
 1303SOL    HW1 4808   4.442   0.249   1.495
 1303SOL    HW2 4809   4.312   0.270   1.398
 1304SOL     OW 4810   1.629   1.141   1.366
 1304SOL    HW1 4811   1.689   1.210   1.405
 1304SOL    HW2 4812   1.609   1.164   1.271
 1305SOL     OW 4813   5.717   4.626   6.027
 1305SOL    HW1 4814   5.698   4.684   6.107
 1305SOL    HW2 4815   5.815   4.607   6.023
 1306SOL     OW 4816   1.074   5.566   4.467
 1306SOL    HW1 4817   1.014   5.601   4.539
 1306SOL    HW2 4818   1.125   5.642   4.427
 1307SOL     OW 4819   1.811   3.481   3.900
 1307SOL    HW1 4820   1.777   3.557   3.955
 1307SOL    HW2 4821   1.737   3.446   3.842
 1308SOL     OW 4822   6.668   6.629   6.124
 1308SOL    HW1 4823   6.697   6.683   6.045
 1308SOL    HW2 4824   6.725   6.547   6.131
 1309SOL     OW 4825   5.299   4.570   5.803
 1309SOL    HW1 4826   5.223   4.597   5.862
 1309SOL    HW2 4827   5.263   4.535   5.716
 1310SOL     OW 4828   0.755   4.006   3.720
 1310SOL    HW1 4829   0.703   3.933   3.676
 1310SOL    HW2 4830   0.696   4.054   3.786
 1311SOL     OW 4831   6.582   5.792   6.258
 1311SOL    HW1 4832   6.583   5.840   6.346
 1311SOL    HW2 4833   6.489   5.795   6.220
 1312SOL     OW 4834   1.875   0.773   6.845
 1312SOL    HW1 4835   1.942   0.817   6.785
 1312SOL    HW2 4836   1.921   0.728   6.921
 1313SOL     OW 4837   6.573   5.174   2.697
 1313SOL    HW1 4838   6.532   5.259   2.731
 1313SOL    HW2 4839   6.594   5.114   2.774
 1314SOL     OW 4840   3.115   1.554   4.345
 1314SOL    HW1 4841   3.085   1.647   4.326
 1314SOL    HW2 4842   3.087   1.494   4.270
 1315SOL     OW 4843   7.000   0.967   4.253
 1315SOL    HW1 4844   6.973   1.042   4.193
 1315SOL    HW2 4845   6.920   0.913   4.278
 1316SOL     OW 4846   3.904   0.063   5.026
 1316SOL    HW1 4847   3.808   0.070   5.000
 1316SOL    HW2 4848   3.949   7.022   4.969
 1317SOL     OW 4849   2.047   4.680   5.249
 1317SOL    HW1 4850   1.972   4.637   5.199
 1317SOL    HW2 4851   2.121   4.615   5.259
 1318SOL     OW 4852   1.392   2.916   6.541
 1318SOL    HW1 4853   1.480   2.891   6.582
 1318SOL    HW2 4854   1.389   2.884   6.446
 1319SOL     OW 4855   0.096   5.893   6.717
 1319SOL    HW1 4856   0.022   5.945   6.675
 1319SOL    HW2 4857   0.148   5.953   6.778
 1320SOL     OW 4858   3.179   2.938   6.690
 1320SOL    HW1 4859   3.231   2.918   6.608
 1320SOL    HW2 4860   3.115   3.013   6.671
 1321SOL     OW 4861   4.742   2.420   6.512
 1321SOL    HW1 4862   4.805   2.418   6.434
 1321SOL    HW2 4863   4.675   2.347   6.503
 1322SOL     OW 4864   3.767   1.106   4.291
 1322SOL    HW1 4865   3.794   1.021   4.336
 1322SOL    HW2 4866   3.846   1.168   4.287
 1323SOL     OW 4867   3.745   6.258   0.943
 1323SOL    HW1 4868   3.651   6.259   0.909
 1323SOL    HW2 4869   3.808   6.279   0.869
 1324SOL     OW 4870   1.365   3.766   0.607
 1324SOL    HW1 4871   1.325   3.726   0.525
 1324SOL    HW2 4872   1.384   3.863   0.591
 1325SOL     OW 4873   4.217   6.544   5.221
 1325SOL    HW1 4874   4.146   6.580   5.161
 1325SOL    HW2 4875   4.190   6.556   5.316
 1326SOL     OW 4876   4.742   4.108   5.314
 1326SOL    HW1 4877   4.706   4.195   5.348
 1326SOL    HW2 4878   4.837   4.120   5.286
 1327SOL     OW 4879   0.445   6.416   0.983
 1327SOL    HW1 4880   0.369   6.480   0.970
 1327SOL    HW2 4881   0.460   6.401   1.080
 1328SOL     OW 4882   1.544   3.151   6.440
 1328SOL    HW1 4883   1.544   3.206   6.356
 1328SOL    HW2 4884   1.462   3.094   6.442
 1329SOL     OW 4885   0.322   1.933   2.912
 1329SOL    HW1 4886   0.273   1.985   2.982
 1329SOL    HW2 4887   0.274   1.846   2.896
 1330SOL     OW 4888   0.376   2.110   0.986
 1330SOL    HW1 4889   0.409   2.156   0.903
 1330SOL    HW2 4890   0.430   2.138   1.064
 1331SOL     OW 4891   4.500   2.390   2.418
 1331SOL    HW1 4892   4.505   2.291   2.413
 1331SOL    HW2 4893   4.412   2.417   2.456
 1332SOL     OW 4894   2.332   6.787   0.451
 1332SOL    HW1 4895   2.303   6.811   0.544
 1332SOL    HW2 4896   2.262   6.812   0.385
 1333SOL     OW 4897   2.994   3.798   2.883
 1333SOL    HW1 4898   2.977   3.701   2.902
 1333SOL    HW2 4899   3.004   3.811   2.784
 1334SOL     OW 4900   6.450   2.259   3.395
 1334SOL    HW1 4901   6.447   2.226   3.490
 1334SOL    HW2 4902   6.394   2.341   3.387
 1335SOL     OW 4903   1.870   1.928   2.338
 1335SOL    HW1 4904   1.815   1.864   2.392
 1335SOL    HW2 4905   1.881   1.893   2.245
 1336SOL     OW 4906   3.657   1.915   5.565
 1336SOL    HW1 4907   3.618   1.982   5.503
 1336SOL    HW2 4908   3.750   1.892   5.535
 1337SOL     OW 4909   6.569   1.390   2.743
 1337SOL    HW1 4910   6.584   1.304   2.792
 1337SOL    HW2 4911   6.553   1.464   2.808
 1338SOL     OW 4912   0.088   4.676   4.302
 1338SOL    HW1 4913   0.169   4.729   4.326
 1338SOL    HW2 4914   0.028   4.669   4.382
 1339SOL     OW 4915   0.066   0.611   6.899
 1339SOL    HW1 4916   6.998   0.613   6.923
 1339SOL    HW2 4917   0.116   0.559   6.967
 1340SOL     OW 4918   5.396   1.740   2.934
 1340SOL    HW1 4919   5.372   1.818   2.875
 1340SOL    HW2 4920   5.418   1.661   2.877
 1341SOL     OW 4921   4.133   6.434   0.478
 1341SOL    HW1 4922   4.079   6.515   0.501
 1341SOL    HW2 4923   4.200   6.457   0.408
 1342SOL     OW 4924   3.238   4.969   6.208
 1342SOL    HW1 4925   3.193   5.022   6.137
 1342SOL    HW2 4926   3.313   5.023   6.248
 1343SOL     OW 4927   5.794   5.390   2.751
 1343SOL    HW1 4928   5.819   5.338   2.833
 1343SOL    HW2 4929   5.779   5.327   2.675
 1344SOL     OW 4930   0.675   6.212   4.304
 1344SOL    HW1 4931   0.661   6.280   4.232
 1344SOL    HW2 4932   0.744   6.146   4.274
 1345SOL     OW 4933   0.835   4.573   2.227
 1345SOL    HW1 4934   0.882   4.582   2.314
 1345SOL    HW2 4935   0.792   4.660   2.203
 1346SOL     OW 4936   1.482   5.215   6.070
 1346SOL    HW1 4937   1.472   5.309   6.099
 1346SOL    HW2 4938   1.520   5.160   6.145
 1347SOL     OW 4939   1.497   6.719   6.722
 1347SOL    HW1 4940   1.569   6.651   6.728
 1347SOL    HW2 4941   1.477   6.739   6.626
 1348SOL     OW 4942   0.465   6.599   5.221
 1348SOL    HW1 4943   0.375   6.593   5.177
 1348SOL    HW2 4944   0.454   6.599   5.320
 1349SOL     OW 4945   5.450   2.623   4.208
 1349SOL    HW1 4946   5.507   2.565   4.150
 1349SOL    HW2 4947   5.392   2.681   4.151
 1350SOL     OW 4948   4.404   4.830   6.640
 1350SOL    HW1 4949   4.369   4.751   6.590
 1350SOL    HW2 4950   4.427   4.903   6.576
 1351SOL     OW 4951   5.897   2.738   4.132
 1351SOL    HW1 4952   5.996   2.753   4.133
 1351SOL    HW2 4953   5.865   2.718   4.225
 1352SOL     OW 4954   6.960   6.619   3.119
 1352SOL    HW1 4955   6.987   6.584   3.209
 1352SOL    HW2 4956   6.879   6.676   3.129
 1353SOL     OW 4957   1.185   1.735   0.500
 1353SOL    HW1 4958   1.093   1.732   0.461
 1353SOL    HW2 4959   1.206   1.828   0.530
 1354SOL     OW 4960   6.953   3.589   2.318
 1354SOL    HW1 4961   7.027   3.618   2.258
 1354SOL    HW2 4962   6.922   3.498   2.291
 1355SOL     OW 4963   6.242   3.555   4.277
 1355SOL    HW1 4964   6.251   3.459   4.252
 1355SOL    HW2 4965   6.328   3.587   4.317
 1356SOL     OW 4966   3.589   2.930   1.908
 1356SOL    HW1 4967   3.684   2.942   1.936
 1356SOL    HW2 4968   3.529   2.934   1.989
 1357SOL     OW 4969   6.494   4.148   5.975
 1357SOL    HW1 4970   6.564   4.083   6.002
 1357SOL    HW2 4971   6.406   4.101   5.967
 1358SOL     OW 4972   5.920   0.016   0.529
 1358SOL    HW1 4973   5.871   0.033   0.443
 1358SOL    HW2 4974   5.995   0.081   0.538
 1359SOL     OW 4975   6.879   4.959   2.220
 1359SOL    HW1 4976   6.814   5.026   2.183
 1359SOL    HW2 4977   6.845   4.867   2.203
 1360SOL     OW 4978   3.358   3.365   0.092
 1360SOL    HW1 4979   3.398   3.406   0.174
 1360SOL    HW2 4980   3.317   3.436   0.035
 1361SOL     OW 4981   0.094   4.774   5.014
 1361SOL    HW1 4982   0.033   4.781   4.936
 1361SOL    HW2 4983   0.058   4.707   5.079
 1362SOL     OW 4984   3.716   3.819   2.788
 1362SOL    HW1 4985   3.737   3.730   2.748
 1362SOL    HW2 4986   3.638   3.811   2.849
 1363SOL     OW 4987   0.083   5.258   4.214
 1363SOL    HW1 4988   0.023   5.252   4.134
 1363SOL    HW2 4989   0.163   5.313   4.192
 1364SOL     OW 4990   4.368   4.119   0.326
 1364SOL    HW1 4991   4.437   4.184   0.359
 1364SOL    HW2 4992   4.279   4.143   0.365
 1365SOL     OW 4993   0.325   4.536   6.983
 1365SOL    HW1 4994   0.421   4.535   6.955
 1365SOL    HW2 4995   0.276   4.463   6.935
 1366SOL     OW 4996   1.910   6.559   5.648
 1366SOL    HW1 4997   1.981   6.510   5.598
 1366SOL    HW2 4998   1.948   6.642   5.688
 1367SOL     OW 4999   1.673   0.921   2.396
 1367SOL    HW1 5000   1.765   0.932   2.432
 1367SOL    HW2 5001   1.644   0.826   2.407
 1368SOL     OW 5002   5.445   6.827   5.091
 1368SOL    HW1 5003   5.475   6.820   4.996
 1368SOL    HW2 5004   5.486   6.909   5.133
 1369SOL     OW 5005   1.436   6.088   2.941
 1369SOL    HW1 5006   1.461   6.147   3.018
 1369SOL    HW2 5007   1.517   6.071   2.885
 1370SOL     OW 5008   3.519   0.820   1.517
 1370SOL    HW1 5009   3.445   0.843   1.453
 1370SOL    HW2 5010   3.556   0.729   1.494
 1371SOL     OW 5011   4.626   1.173   4.654
 1371SOL    HW1 5012   4.660   1.092   4.606
 1371SOL    HW2 5013   4.653   1.256   4.604
 1372SOL     OW 5014   1.881   2.729   1.064
 1372SOL    HW1 5015   1.906   2.633   1.051
 1372SOL    HW2 5016   1.812   2.737   1.135
 1373SOL     OW 5017   6.338   4.715   0.466
 1373SOL    HW1 5018   6.412   4.657   0.501
 1373SOL    HW2 5019   6.303   4.676   0.381
 1374SOL     OW 5020   4.532   2.343   0.935
 1374SOL    HW1 5021   4.538   2.259   0.989
 1374SOL    HW2 5022   4.471   2.328   0.857
 1375SOL     OW 5023   0.010   4.947   5.557
 1375SOL    HW1 5024   6.988   4.949   5.643
 1375SOL    HW2 5025   6.977   4.969   5.481
 1376SOL     OW 5026   4.681   2.645   3.955
 1376SOL    HW1 5027   4.601   2.588   3.971
 1376SOL    HW2 5028   4.688   2.666   3.857
 1377SOL     OW 5029   0.589   4.448   5.464
 1377SOL    HW1 5030   0.595   4.514   5.539
 1377SOL    HW2 5031   0.658   4.378   5.476
 1378SOL     OW 5032   1.186   2.460   6.217
 1378SOL    HW1 5033   1.114   2.404   6.174
 1378SOL    HW2 5034   1.153   2.497   6.304
 1379SOL     OW 5035   3.292   6.159   3.101
 1379SOL    HW1 5036   3.358   6.234   3.101
 1379SOL    HW2 5037   3.229   6.170   3.178
 1380SOL     OW 5038   6.639   6.612   2.043
 1380SOL    HW1 5039   6.630   6.527   2.095
 1380SOL    HW2 5040   6.715   6.665   2.079
 1381SOL     OW 5041   5.764   3.001   0.138
 1381SOL    HW1 5042   5.798   3.063   0.209
 1381SOL    HW2 5043   5.667   2.980   0.156
 1382SOL     OW 5044   5.990   5.599   5.811
 1382SOL    HW1 5045   6.078   5.644   5.801
 1382SOL    HW2 5046   5.987   5.550   5.898
 1383SOL     OW 5047   0.778   0.696   0.284
 1383SOL    HW1 5048   0.708   0.661   0.346
 1383SOL    HW2 5049   0.791   0.632   0.209
 1384SOL     OW 5050   3.532   1.448   3.479
 1384SOL    HW1 5051   3.538   1.496   3.392
 1384SOL    HW2 5052   3.491   1.358   3.465
 1385SOL     OW 5053   6.313   2.674   3.109
 1385SOL    HW1 5054   6.252   2.595   3.104
 1385SOL    HW2 5055   6.306   2.716   3.200
 1386SOL     OW 5056   2.024   3.176   4.507
 1386SOL    HW1 5057   2.059   3.159   4.416
 1386SOL    HW2 5058   2.085   3.238   4.556
 1387SOL     OW 5059   3.522   0.568   4.235
 1387SOL    HW1 5060   3.587   0.492   4.243
 1387SOL    HW2 5061   3.468   0.574   4.318
 1388SOL     OW 5062   6.633   0.466   4.251
 1388SOL    HW1 5063   6.688   0.431   4.327
 1388SOL    HW2 5064   6.678   0.546   4.211
 1389SOL     OW 5065   6.396   0.116   4.182
 1389SOL    HW1 5066   6.339   0.131   4.263
 1389SOL    HW2 5067   6.389   0.021   4.152
 1390SOL     OW 5068   4.616   1.743   1.288
 1390SOL    HW1 5069   4.635   1.645   1.279
 1390SOL    HW2 5070   4.597   1.764   1.384
 1391SOL     OW 5071   6.781   0.442   4.915
 1391SOL    HW1 5072   6.817   0.500   4.988
 1391SOL    HW2 5073   6.792   0.490   4.827
 1392SOL     OW 5074   4.528   6.014   6.393
 1392SOL    HW1 5075   4.528   5.951   6.315
 1392SOL    HW2 5076   4.618   6.059   6.398
 1393SOL     OW 5077   6.709   1.634   6.503
 1393SOL    HW1 5078   6.660   1.657   6.419
 1393SOL    HW2 5079   6.706   1.535   6.518
 1394SOL     OW 5080   4.188   6.803   3.653
 1394SOL    HW1 5081   4.094   6.778   3.632
 1394SOL    HW2 5082   4.204   6.898   3.626
 1395SOL     OW 5083   1.300   4.814   3.196
 1395SOL    HW1 5084   1.246   4.895   3.220
 1395SOL    HW2 5085   1.381   4.810   3.255
 1396SOL     OW 5086   1.981   1.345   4.741
 1396SOL    HW1 5087   1.973   1.343   4.641
 1396SOL    HW2 5088   2.075   1.324   4.767
 1397SOL     OW 5089   0.639   4.821   4.734
 1397SOL    HW1 5090   0.610   4.829   4.638
 1397SOL    HW2 5091   0.640   4.912   4.776
 1398SOL     OW 5092   1.148   1.585   0.837
 1398SOL    HW1 5093   1.212   1.584   0.761
 1398SOL    HW2 5094   1.128   1.679   0.863
 1399SOL     OW 5095   3.977   6.956   0.440
 1399SOL    HW1 5096   3.989   0.020   0.405
 1399SOL    HW2 5097   3.958   6.960   0.538
 1400SOL     OW 5098   6.323   0.764   4.372
 1400SOL    HW1 5099   6.269   0.819   4.307
 1400SOL    HW2 5100   6.420   0.786   4.361
 1401SOL     OW 5101   5.180   0.764   3.389
 1401SOL    HW1 5102   5.095   0.764   3.441
 1401SOL    HW2 5103   5.220   0.672   3.391
 1402SOL     OW 5104   5.770   3.669   0.975
 1402SOL    HW1 5105   5.826   3.752   0.970
 1402SOL    HW2 5106   5.788   3.622   1.061
 1403SOL     OW 5107   3.943   2.981   6.937
 1403SOL    HW1 5108   3.927   2.918   6.861
 1403SOL    HW2 5109   3.859   2.992   6.990
 1404SOL     OW 5110   4.252   6.910   0.824
 1404SOL    HW1 5111   4.315   6.987   0.825
 1404SOL    HW2 5112   4.163   6.939   0.790
 1405SOL     OW 5113   2.391   3.517   0.941
 1405SOL    HW1 5114   2.443   3.457   0.880
 1405SOL    HW2 5115   2.294   3.494   0.937
 1406SOL     OW 5116   2.332   3.205   0.935
 1406SOL    HW1 5117   2.397   3.268   0.892
 1406SOL    HW2 5118   2.378   3.120   0.958
 1407SOL     OW 5119   0.714   2.925   1.848
 1407SOL    HW1 5120   0.717   3.002   1.784
 1407SOL    HW2 5121   0.679   2.956   1.936
 1408SOL     OW 5122   5.603   5.937   6.227
 1408SOL    HW1 5123   5.561   6.019   6.266
 1408SOL    HW2 5124   5.701   5.936   6.248
 1409SOL     OW 5125   6.765   1.017   5.858
 1409SOL    HW1 5126   6.700   1.079   5.812
 1409SOL    HW2 5127   6.792   0.945   5.794
 1410SOL     OW 5128   2.912   2.798   5.616
 1410SOL    HW1 5129   2.946   2.809   5.709
 1410SOL    HW2 5130   2.913   2.702   5.591
 1411SOL     OW 5131   3.942   5.849   0.035
 1411SOL    HW1 5132   3.928   5.848   0.134
 1411SOL    HW2 5133   3.857   5.872   7.018
 1412SOL     OW 5134   1.278   2.553   0.628
 1412SOL    HW1 5135   1.211   2.502   0.683
 1412SOL    HW2 5136   1.367   2.509   0.634
 1413SOL     OW 5137   1.352   1.680   5.434
 1413SOL    HW1 5138   1.377   1.721   5.522
 1413SOL    HW2 5139   1.362   1.580   5.441
 1414SOL     OW 5140   0.595   3.270   2.118
 1414SOL    HW1 5141   0.545   3.346   2.077
 1414SOL    HW2 5142   0.671   3.305   2.172
 1415SOL     OW 5143   2.693   2.226   3.897
 1415SOL    HW1 5144   2.612   2.195   3.947
 1415SOL    HW2 5145   2.723   2.155   3.834
 1416SOL     OW 5146   4.301   0.080   5.721
 1416SOL    HW1 5147   4.350   0.105   5.805
 1416SOL    HW2 5148   4.223   0.023   5.744
 1417SOL     OW 5149   3.325   2.944   6.006
 1417SOL    HW1 5150   3.353   3.029   5.962
 1417SOL    HW2 5151   3.332   2.953   6.105
 1418SOL     OW 5152   3.651   3.478   0.019
 1418SOL    HW1 5153   3.707   3.551   7.008
 1418SOL    HW2 5154   3.557   3.486   7.013
 1419SOL     OW 5155   1.925   5.352   3.593
 1419SOL    HW1 5156   1.988   5.348   3.670
 1419SOL    HW2 5157   1.836   5.316   3.621
 1420SOL     OW 5158   3.978   5.104   3.167
 1420SOL    HW1 5159   3.913   5.163   3.216
 1420SOL    HW2 5160   3.968   5.120   3.069
 1421SOL     OW 5161   0.805   5.395   5.828
 1421SOL    HW1 5162   0.714   5.360   5.808
 1421SOL    HW2 5163   0.873   5.344   5.776
 1422SOL     OW 5164   2.721   3.600   5.901
 1422SOL    HW1 5165   2.707   3.642   5.811
 1422SOL    HW2 5166   2.811   3.558   5.905
 1423SOL     OW 5167   4.437   0.529   4.544
 1423SOL    HW1 5168   4.361   0.489   4.594
 1423SOL    HW2 5169   4.464   0.615   4.588
 1424SOL     OW 5170   5.760   3.241   6.673
 1424SOL    HW1 5171   5.850   3.202   6.651
 1424SOL    HW2 5172   5.693   3.208   6.606
 1425SOL     OW 5173   3.706   6.597   4.221
 1425SOL    HW1 5174   3.724   6.565   4.313
 1425SOL    HW2 5175   3.613   6.632   4.214
 1426SOL     OW 5176   2.620   2.085   0.236
 1426SOL    HW1 5177   2.570   2.115   0.154
 1426SOL    HW2 5178   2.610   2.154   0.308
 1427SOL     OW 5179   0.930   1.278   3.017
 1427SOL    HW1 5180   0.835   1.304   3.001
 1427SOL    HW2 5181   0.941   1.253   3.114
 1428SOL     OW 5182   6.662   3.615   3.411
 1428SOL    HW1 5183   6.585   3.635   3.472
 1428SOL    HW2 5184   6.738   3.677   3.432
 1429SOL     OW 5185   5.972   1.489   0.420
 1429SOL    HW1 5186   5.945   1.531   0.334
 1429SOL    HW2 5187   5.953   1.551   0.496
 1430SOL     OW 5188   2.238   3.008   3.119
 1430SOL    HW1 5189   2.218   3.079   3.187
 1430SOL    HW2 5190   2.153   2.965   3.089
 1431SOL     OW 5191   2.699   1.562   6.455
 1431SOL    HW1 5192   2.729   1.471   6.485
 1431SOL    HW2 5193   2.653   1.554   6.366
 1432SOL     OW 5194   2.748   1.283   0.996
 1432SOL    HW1 5195   2.783   1.193   0.969
 1432SOL    HW2 5196   2.663   1.272   1.047
 1433SOL     OW 5197   2.781   0.356   4.478
 1433SOL    HW1 5198   2.809   0.331   4.571
 1433SOL    HW2 5199   2.799   0.280   4.416
 1434SOL     OW 5200   6.963   3.027   6.723
 1434SOL    HW1 5201   6.986   3.119   6.691
 1434SOL    HW2 5202   6.887   3.032   6.788
 1435SOL     OW 5203   1.074   6.997   4.997
 1435SOL    HW1 5204   1.169   6.988   4.967
 1435SOL    HW2 5205   1.013   6.978   4.921
 1436SOL     OW 5206   5.822   1.881   0.504
 1436SOL    HW1 5207   5.801   1.785   0.484
 1436SOL    HW2 5208   5.791   1.904   0.596
 1437SOL     OW 5209   4.206   1.621   6.096
 1437SOL    HW1 5210   4.265   1.552   6.055
 1437SOL    HW2 5211   4.112   1.608   6.064
 1438SOL     OW 5212   2.309   1.063   1.834
 1438SOL    HW1 5213   2.281   0.967   1.839
 1438SOL    HW2 5214   2.235   1.116   1.792
 1439SOL     OW 5215   6.949   5.215   6.948
 1439SOL    HW1 5216   6.967   5.303   6.992
 1439SOL    HW2 5217   6.901   5.155   7.012
 1440SOL     OW 5218   3.330   2.898   3.183
 1440SOL    HW1 5219   3.426   2.897   3.156
 1440SOL    HW2 5220   3.322   2.872   3.279
 1441SOL     OW 5221   0.078   2.849   4.425
 1441SOL    HW1 5222   0.016   2.879   4.498
 1441SOL    HW2 5223   0.038   2.869   4.336
 1442SOL     OW 5224   4.879   3.954   0.221
 1442SOL    HW1 5225   4.873   3.921   0.315
 1442SOL    HW2 5226   4.840   4.046   0.215
 1443SOL     OW 5227   0.829   1.401   3.539
 1443SOL    HW1 5228   0.782   1.368   3.622
 1443SOL    HW2 5229   0.924   1.370   3.540
 1444SOL     OW 5230   4.552   0.610   3.505
 1444SOL    HW1 5231   4.491   0.685   3.481
 1444SOL    HW2 5232   4.506   0.549   3.570
 1445SOL     OW 5233   6.563   2.199   1.838
 1445SOL    HW1 5234   6.466   2.206   1.818
 1445SOL    HW2 5235   6.579   2.119   1.896
 1446SOL     OW 5236   4.306   2.073   1.506
 1446SOL    HW1 5237   4.362   2.014   1.564
 1446SOL    HW2 5238   4.219   2.092   1.552
 1447SOL     OW 5239   6.293   1.243   5.043
 1447SOL    HW1 5240   6.269   1.157   5.089
 1447SOL    HW2 5241   6.319   1.311   5.111
 1448SOL     OW 5242   5.452   1.240   6.484
 1448SOL    HW1 5243   5.472   1.166   6.421
 1448SOL    HW2 5244   5.501   1.323   6.456
 1449SOL     OW 5245   5.308   5.857   1.066
 1449SOL    HW1 5246   5.277   5.942   1.109
 1449SOL    HW2 5247   5.249   5.782   1.096
 1450SOL     OW 5248   5.493   3.041   2.953
 1450SOL    HW1 5249   5.496   3.110   2.880
 1450SOL    HW2 5250   5.587   3.015   2.977
 1451SOL     OW 5251   1.739   6.720   2.941
 1451SOL    HW1 5252   1.838   6.714   2.927
 1451SOL    HW2 5253   1.705   6.807   2.905
 1452SOL     OW 5254   5.088   0.587   5.067
 1452SOL    HW1 5255   5.168   0.526   5.066
 1452SOL    HW2 5256   5.119   0.682   5.065
 1453SOL     OW 5257   5.084   4.200   4.971
 1453SOL    HW1 5258   5.167   4.193   4.916
 1453SOL    HW2 5259   5.106   4.242   5.059
 1454SOL     OW 5260   5.117   2.649   2.075
 1454SOL    HW1 5261   5.196   2.600   2.112
 1454SOL    HW2 5262   5.058   2.585   2.025
 1455SOL     OW 5263   1.078   0.939   2.110
 1455SOL    HW1 5264   1.103   0.861   2.053
 1455SOL    HW2 5265   1.159   0.994   2.130
 1456SOL     OW 5266   0.138   6.675   4.199
 1456SOL    HW1 5267   0.097   6.677   4.291
 1456SOL    HW2 5268   0.097   6.746   4.143
 1457SOL     OW 5269   2.105   0.549   4.051
 1457SOL    HW1 5270   2.142   0.631   4.008
 1457SOL    HW2 5271   2.033   0.575   4.116
 1458SOL     OW 5272   5.275   6.440   6.028
 1458SOL    HW1 5273   5.299   6.470   5.936
 1458SOL    HW2 5274   5.183   6.473   6.051
 1459SOL     OW 5275   2.891   6.056   0.061
 1459SOL    HW1 5276   2.925   6.145   0.032
 1459SOL    HW2 5277   2.869   6.000   7.009
 1460SOL     OW 5278   1.233   6.284   7.028
 1460SOL    HW1 5279   1.274   6.293   0.090
 1460SOL    HW2 5280   1.141   6.324   0.000
 1461SOL     OW 5281   5.752   4.386   2.671
 1461SOL    HW1 5282   5.736   4.376   2.573
 1461SOL    HW2 5283   5.802   4.306   2.705
 1462SOL     OW 5284   6.224   0.795   0.332
 1462SOL    HW1 5285   6.177   0.877   0.365
 1462SOL    HW2 5286   6.159   0.719   0.325
 1463SOL     OW 5287   1.323   0.661   5.012
 1463SOL    HW1 5288   1.332   0.713   5.097
 1463SOL    HW2 5289   1.376   0.705   4.940
 1464SOL     OW 5290   0.204   6.320   0.495
 1464SOL    HW1 5291   0.252   6.251   0.548
 1464SOL    HW2 5292   0.269   6.369   0.437
 1465SOL     OW 5293   0.359   0.328   4.578
 1465SOL    HW1 5294   0.382   0.318   4.481
 1465SOL    HW2 5295   0.261   0.339   4.588
 1466SOL     OW 5296   5.823   5.649   3.227
 1466SOL    HW1 5297   5.889   5.711   3.271
 1466SOL    HW2 5298   5.733   5.660   3.269
 1467SOL     OW 5299   0.770   1.061   3.389
 1467SOL    HW1 5300   0.755   1.004   3.309
 1467SOL    HW2 5301   0.700   1.042   3.458
 1468SOL     OW 5302   5.323   5.797   3.618
 1468SOL    HW1 5303   5.352   5.752   3.702
 1468SOL    HW2 5304   5.403   5.811   3.559
 1469SOL     OW 5305   0.737   0.484   2.573
 1469SOL    HW1 5306   0.723   0.421   2.649
 1469SOL    HW2 5307   0.834   0.485   2.549
 1470SOL     OW 5308   1.082   0.920   2.944
 1470SOL    HW1 5309   1.076   0.882   3.036
 1470SOL    HW2 5310   0.993   0.956   2.917
 1471SOL     OW 5311   0.412   0.307   6.692
 1471SOL    HW1 5312   0.501   0.341   6.662
 1471SOL    HW2 5313   0.346   0.382   6.693
 1472SOL     OW 5314   5.063   0.630   5.997
 1472SOL    HW1 5315   5.163   0.636   5.991
 1472SOL    HW2 5316   5.023   0.720   5.979
 1473SOL     OW 5317   5.952   4.976   2.947
 1473SOL    HW1 5318   6.047   4.959   2.975
 1473SOL    HW2 5319   5.929   4.918   2.870
 1474SOL     OW 5320   5.937   5.492   4.436
 1474SOL    HW1 5321   5.838   5.490   4.450
 1474SOL    HW2 5322   5.964   5.581   4.399
 1475SOL     OW 5323   6.755   0.621   2.520
 1475SOL    HW1 5324   6.764   0.637   2.422
 1475SOL    HW2 5325   6.840   0.584   2.556
 1476SOL     OW 5326   0.887   1.586   2.372
 1476SOL    HW1 5327   0.840   1.554   2.290
 1476SOL    HW2 5328   0.838   1.663   2.411
 1477SOL     OW 5329   2.945   6.768   5.379
 1477SOL    HW1 5330   3.018   6.710   5.345
 1477SOL    HW2 5331   2.982   6.832   5.447
 1478SOL     OW 5332   5.993   5.022   1.308
 1478SOL    HW1 5333   5.969   5.103   1.253
 1478SOL    HW2 5334   5.911   4.985   1.351
 1479SOL     OW 5335   2.152   4.608   0.659
 1479SOL    HW1 5336   2.113   4.523   0.694
 1479SOL    HW2 5337   2.078   4.666   0.624
 1480SOL     OW 5338   2.254   1.743   0.386
 1480SOL    HW1 5339   2.251   1.687   0.303
 1480SOL    HW2 5340   2.255   1.840   0.361
 1481SOL     OW 5341   6.005   2.065   6.218
 1481SOL    HW1 5342   6.049   2.120   6.147
 1481SOL    HW2 5343   6.018   2.109   6.307
 1482SOL     OW 5344   5.786   0.609   0.000
 1482SOL    HW1 5345   5.713   0.592   6.963
 1482SOL    HW2 5346   5.792   0.707   0.018
 1483SOL     OW 5347   6.507   2.735   0.147
 1483SOL    HW1 5348   6.543   2.823   0.117
 1483SOL    HW2 5349   6.557   2.705   0.229
 1484SOL     OW 5350   0.113   4.946   2.254
 1484SOL    HW1 5351   0.016   4.954   2.231
 1484SOL    HW2 5352   0.147   5.035   2.284
 1485SOL     OW 5353   5.391   2.819   4.018
 1485SOL    HW1 5354   5.372   2.827   3.920
 1485SOL    HW2 5355   5.320   2.866   4.070
 1486SOL     OW 5356   4.682   2.229   3.084
 1486SOL    HW1 5357   4.587   2.232   3.115
 1486SOL    HW2 5358   4.728   2.314   3.108
 1487SOL     OW 5359   5.725   1.622   5.830
 1487SOL    HW1 5360   5.717   1.715   5.867
 1487SOL    HW2 5361   5.658   1.563   5.873
 1488SOL     OW 5362   4.730   1.308   3.102
 1488SOL    HW1 5363   4.634   1.295   3.126
 1488SOL    HW2 5364   4.770   1.220   3.075
 1489SOL     OW 5365   4.000   4.924   4.793
 1489SOL    HW1 5366   3.910   4.953   4.761
 1489SOL    HW2 5367   4.042   4.865   4.724
 1490SOL     OW 5368   1.036   2.044   0.179
 1490SOL    HW1 5369   0.972   2.014   0.108
 1490SOL    HW2 5370   0.987   2.099   0.246
 1491SOL     OW 5371   0.290   3.451   3.903
 1491SOL    HW1 5372   0.233   3.523   3.864
 1491SOL    HW2 5373   0.239   3.365   3.907
 1492SOL     OW 5374   5.067   1.746   1.532
 1492SOL    HW1 5375   5.053   1.692   1.450
 1492SOL    HW2 5376   4.981   1.789   1.560
 1493SOL     OW 5377   4.762   0.265   5.291
 1493SOL    HW1 5378   4.740   0.355   5.329
 1493SOL    HW2 5379   4.856   0.240   5.316
 1494SOL     OW 5380   4.076   2.430   5.997
 1494SOL    HW1 5381   4.152   2.368   5.977
 1494SOL    HW2 5382   3.991   2.391   5.962
 1495SOL     OW 5383   0.790   3.117   2.860
 1495SOL    HW1 5384   0.758   3.022   2.857
 1495SOL    HW2 5385   0.875   3.123   2.912
 1496SOL     OW 5386   6.728   0.155   2.065
 1496SOL    HW1 5387   6.715   0.187   2.159
 1496SOL    HW2 5388   6.826   0.152   2.045
 1497SOL     OW 5389   6.876   5.089   3.809
 1497SOL    HW1 5390   6.777   5.086   3.821
 1497SOL    HW2 5391   6.910   4.997   3.789
 1498SOL     OW 5392   1.944   4.370   6.507
 1498SOL    HW1 5393   2.000   4.362   6.425
 1498SOL    HW2 5394   1.849   4.351   6.484
 1499SOL     OW 5395   1.068   3.712   4.943
 1499SOL    HW1 5396   1.120   3.628   4.926
 1499SOL    HW2 5397   1.125   3.791   4.925
 1500SOL     OW 5398   5.279   6.973   0.027
 1500SOL    HW1 5399   5.219   0.001   7.000
 1500SOL    HW2 5400   5.365   6.957   7.007
 1501SOL     OW 5401   4.134   0.502   6.530
 1501SOL    HW1 5402   4.112   0.415   6.574
 1501SOL    HW2 5403   4.216   0.492   6.474
 1502SOL     OW 5404   6.275   6.530   0.003
 1502SOL    HW1 5405   6.342   6.457   0.015
 1502SOL    HW2 5406   6.239   6.557   0.092
 1503SOL     OW 5407   3.064   2.887   7.015
 1503SOL    HW1 5408   2.982   2.832   0.005
 1503SOL    HW2 5409   3.075   2.957   0.056
 1504SOL     OW 5410   3.502   6.731   5.315
 1504SOL    HW1 5411   3.504   6.807   5.381
 1504SOL    HW2 5412   3.534   6.763   5.226
 1505SOL     OW 5413   5.760   6.461   5.544
 1505SOL    HW1 5414   5.665   6.443   5.516
 1505SOL    HW2 5415   5.774   6.430   5.638
 1506SOL     OW 5416   0.952   5.679   3.779
 1506SOL    HW1 5417   1.024   5.661   3.846
 1506SOL    HW2 5418   0.864   5.689   3.826
 1507SOL     OW 5419   1.586   1.528   5.737
 1507SOL    HW1 5420   1.518   1.601   5.735
 1507SOL    HW2 5421   1.573   1.472   5.819
 1508SOL     OW 5422   4.231   0.014   0.527
 1508SOL    HW1 5423   4.161   6.978   0.558
 1508SOL    HW2 5424   4.209   0.044   0.434
 1509SOL     OW 5425   4.494   2.866   6.546
 1509SOL    HW1 5426   4.525   2.832   6.635
 1509SOL    HW2 5427   4.514   2.797   6.476
 1510SOL     OW 5428   6.858   2.194   4.094
 1510SOL    HW1 5429   6.946   2.162   4.058
 1510SOL    HW2 5430   6.817   2.258   4.029
 1511SOL     OW 5431   2.949   1.879   0.407
 1511SOL    HW1 5432   2.956   1.976   0.429
 1511SOL    HW2 5433   2.859   1.845   0.435
 1512SOL     OW 5434   0.292   0.513   1.615
 1512SOL    HW1 5435   0.378   0.561   1.633
 1512SOL    HW2 5436   0.291   0.425   1.664
 1513SOL     OW 5437   3.140   6.994   4.165
 1513SOL    HW1 5438   3.236   7.016   4.145
 1513SOL    HW2 5439   3.096   6.959   4.082
 1514SOL     OW 5440   5.737   1.836   4.957
 1514SOL    HW1 5441   5.677   1.882   4.892
 1514SOL    HW2 5442   5.832   1.859   4.937
 1515SOL     OW 5443   0.309   4.399   5.359
 1515SOL    HW1 5444   0.340   4.397   5.263
 1515SOL    HW2 5445   0.387   4.422   5.418
 1516SOL     OW 5446   0.593   1.654   0.678
 1516SOL    HW1 5447   0.620   1.580   0.739
 1516SOL    HW2 5448   0.620   1.742   0.717
 1517SOL     OW 5449   4.462   6.339   3.614
 1517SOL    HW1 5450   4.425   6.429   3.639
 1517SOL    HW2 5451   4.435   6.272   3.683
 1518SOL     OW 5452   6.563   4.445   0.834
 1518SOL    HW1 5453   6.514   4.438   0.921
 1518SOL    HW2 5454   6.652   4.489   0.849
 1519SOL     OW 5455   6.245   4.750   1.307
 1519SOL    HW1 5456   6.188   4.677   1.271
 1519SOL    HW2 5457   6.202   4.788   1.390
 1520SOL     OW 5458   1.993   3.266   2.704
 1520SOL    HW1 5459   1.953   3.257   2.613
 1520SOL    HW2 5460   2.043   3.183   2.727
 1521SOL     OW 5461   1.707   3.071   6.804
 1521SOL    HW1 5462   1.741   3.135   6.873
 1521SOL    HW2 5463   1.746   2.981   6.820
 1522SOL     OW 5464   5.891   1.889   6.432
 1522SOL    HW1 5465   5.988   1.881   6.410
 1522SOL    HW2 5466   5.846   1.801   6.415
 1523SOL     OW 5467   6.158   2.477   1.099
 1523SOL    HW1 5468   6.256   2.461   1.092
 1523SOL    HW2 5469   6.126   2.528   1.019
 1524SOL     OW 5470   0.301   1.253   1.374
 1524SOL    HW1 5471   0.350   1.241   1.288
 1524SOL    HW2 5472   0.367   1.265   1.448
 1525SOL     OW 5473   3.726   1.962   5.988
 1525SOL    HW1 5474   3.656   1.999   5.926
 1525SOL    HW2 5475   3.809   1.942   5.937
 1526SOL     OW 5476   0.423   1.995   1.630
 1526SOL    HW1 5477   0.400   2.055   1.553
 1526SOL    HW2 5478   0.480   1.920   1.598
 1527SOL     OW 5479   3.321   2.033   5.249
 1527SOL    HW1 5480   3.329   2.131   5.269
 1527SOL    HW2 5481   3.232   2.015   5.206
 1528SOL     OW 5482   4.356   6.534   3.074
 1528SOL    HW1 5483   4.441   6.519   3.023
 1528SOL    HW2 5484   4.342   6.632   3.087
 1529SOL     OW 5485   3.701   0.666   6.579
 1529SOL    HW1 5486   3.797   0.682   6.598
 1529SOL    HW2 5487   3.646   0.739   6.620
 1530SOL     OW 5488   2.480   6.481   2.103
 1530SOL    HW1 5489   2.460   6.383   2.111
 1530SOL    HW2 5490   2.411   6.525   2.046
 1531SOL     OW 5491   6.881   6.930   3.827
 1531SOL    HW1 5492   6.968   6.979   3.817
 1531SOL    HW2 5493   6.810   6.994   3.854
 1532SOL     OW 5494   3.364   2.290   5.318
 1532SOL    HW1 5495   3.286   2.337   5.277
 1532SOL    HW2 5496   3.435   2.357   5.339
 1533SOL     OW 5497   6.233   3.473   0.075
 1533SOL    HW1 5498   6.170   3.426   0.137
 1533SOL    HW2 5499   6.283   3.543   0.125
 1534SOL     OW 5500   1.118   5.812   0.787
 1534SOL    HW1 5501   1.143   5.741   0.721
 1534SOL    HW2 5502   1.136   5.902   0.747
 1535SOL     OW 5503   5.130   4.626   4.359
 1535SOL    HW1 5504   5.224   4.597   4.343
 1535SOL    HW2 5505   5.093   4.575   4.437
 1536SOL     OW 5506   2.107   5.885   4.345
 1536SOL    HW1 5507   2.156   5.798   4.345
 1536SOL    HW2 5508   2.035   5.884   4.276
 1537SOL     OW 5509   2.425   5.602   4.718
 1537SOL    HW1 5510   2.348   5.650   4.678
 1537SOL    HW2 5511   2.454   5.649   4.801
 1538SOL     OW 5512   2.513   4.885   0.112
 1538SOL    HW1 5513   2.453   4.899   0.191
 1538SOL    HW2 5514   2.563   4.800   0.123
 1539SOL     OW 5515   3.387   4.602   1.609
 1539SOL    HW1 5516   3.369   4.506   1.627
 1539SOL    HW2 5517   3.435   4.643   1.686
 1540SOL     OW 5518   0.995   0.410   5.307
 1540SOL    HW1 5519   1.050   0.387   5.227
 1540SOL    HW2 5520   0.993   0.331   5.369
 1541SOL     OW 5521   4.620   2.804   0.988
 1541SOL    HW1 5522   4.546   2.870   1.000
 1541SOL    HW2 5523   4.582   2.714   0.965
 1542SOL     OW 5524   0.425   6.070   1.572
 1542SOL    HW1 5525   0.505   6.079   1.632
 1542SOL    HW2 5526   0.417   5.975   1.541
 1543SOL     OW 5527   3.361   3.634   3.696
 1543SOL    HW1 5528   3.304   3.557   3.724
 1543SOL    HW2 5529   3.387   3.624   3.600
 1544SOL     OW 5530   3.267   4.109   2.506
 1544SOL    HW1 5531   3.224   4.153   2.585
 1544SOL    HW2 5532   3.349   4.060   2.536
 1545SOL     OW 5533   6.393   0.696   5.060
 1545SOL    HW1 5534   6.385   0.750   4.976
 1545SOL    HW2 5535   6.349   0.607   5.048
 1546SOL     OW 5536   6.491   6.248   5.905
 1546SOL    HW1 5537   6.580   6.292   5.898
 1546SOL    HW2 5538   6.492   6.181   5.979
 1547SOL     OW 5539   3.006   4.956   2.907
 1547SOL    HW1 5540   2.915   4.995   2.921
 1547SOL    HW2 5541   2.999   4.873   2.851
 1548SOL     OW 5542   4.461   4.378   5.323
 1548SOL    HW1 5543   4.407   4.346   5.401
 1548SOL    HW2 5544   4.400   4.397   5.246
 1549SOL     OW 5545   6.477   2.677   1.451
 1549SOL    HW1 5546   6.469   2.580   1.475
 1549SOL    HW2 5547   6.548   2.688   1.381
 1550SOL     OW 5548   2.011   5.912   4.916
 1550SOL    HW1 5549   2.086   5.927   4.852
 1550SOL    HW2 5550   2.003   5.814   4.935
 1551SOL     OW 5551   1.635   3.395   0.865
 1551SOL    HW1 5552   1.648   3.318   0.928
 1551SOL    HW2 5553   1.718   3.408   0.811
 1552SOL     OW 5554   1.264   0.522   1.465
 1552SOL    HW1 5555   1.324   0.590   1.506
 1552SOL    HW2 5556   1.212   0.476   1.536
 1553SOL     OW 5557   5.853   2.163   7.002
 1553SOL    HW1 5558   5.800   2.103   0.034
 1553SOL    HW2 5559   5.926   2.111   6.959
 1554SOL     OW 5560   4.727   1.975   2.613
 1554SOL    HW1 5561   4.666   1.929   2.678
 1554SOL    HW2 5562   4.760   2.060   2.653
 1555SOL     OW 5563   4.546   1.480   4.803
 1555SOL    HW1 5564   4.471   1.513   4.747
 1555SOL    HW2 5565   4.516   1.398   4.853
 1556SOL     OW 5566   3.617   0.503   0.744
 1556SOL    HW1 5567   3.546   0.562   0.705
 1556SOL    HW2 5568   3.604   0.498   0.843
 1557SOL     OW 5569   1.859   1.832   1.129
 1557SOL    HW1 5570   1.901   1.921   1.112
 1557SOL    HW2 5571   1.775   1.824   1.074
 1558SOL     OW 5572   6.155   3.512   5.257
 1558SOL    HW1 5573   6.253   3.491   5.264
 1558SOL    HW2 5574   6.133   3.536   5.163
 1559SOL     OW 5575   1.166   4.259   2.632
 1559SOL    HW1 5576   1.175   4.328   2.704
 1559SOL    HW2 5577   1.073   4.261   2.595
 1560SOL     OW 5578   4.250   1.291   1.016
 1560SOL    HW1 5579   4.300   1.338   0.943
 1560SOL    HW2 5580   4.300   1.208   1.042
 1561SOL     OW 5581   5.410   6.271   2.183
 1561SOL    HW1 5582   5.505   6.242   2.182
 1561SOL    HW2 5583   5.377   6.275   2.277
 1562SOL     OW 5584   2.752   0.295   2.036
 1562SOL    HW1 5585   2.830   0.313   1.976
 1562SOL    HW2 5586   2.733   0.197   2.036
 1563SOL     OW 5587   3.205   2.169   4.648
 1563SOL    HW1 5588   3.182   2.118   4.565
 1563SOL    HW2 5589   3.121   2.198   4.693
 1564SOL     OW 5590   0.851   1.885   2.440
 1564SOL    HW1 5591   0.924   1.884   2.371
 1564SOL    HW2 5592   0.767   1.919   2.398
 1565SOL     OW 5593   3.453   6.716   4.222
 1565SOL    HW1 5594   3.431   6.811   4.197
 1565SOL    HW2 5595   3.427   6.656   4.146
 1566SOL     OW 5596   4.751   4.215   3.495
 1566SOL    HW1 5597   4.811   4.288   3.461
 1566SOL    HW2 5598   4.662   4.254   3.519
 1567SOL     OW 5599   5.511   5.545   5.509
 1567SOL    HW1 5600   5.610   5.535   5.493
 1567SOL    HW2 5601   5.462   5.475   5.456
 1568SOL     OW 5602   2.059   6.499   2.976
 1568SOL    HW1 5603   2.092   6.470   3.066
 1568SOL    HW2 5604   2.047   6.599   2.976
 1569SOL     OW 5605   2.597   7.018   2.772
 1569SOL    HW1 5606   2.498   7.008   2.780
 1569SOL    HW2 5607   2.640   6.992   2.858
 1570SOL     OW 5608   3.372   0.317   7.011
 1570SOL    HW1 5609   3.387   0.257   0.060
 1570SOL    HW2 5610   3.280   0.304   6.975
 1571SOL     OW 5611   1.248   2.646   3.795
 1571SOL    HW1 5612   1.174   2.606   3.849
 1571SOL    HW2 5613   1.320   2.680   3.856
 1572SOL     OW 5614   1.861   5.001   1.605
 1572SOL    HW1 5615   1.952   4.984   1.566
 1572SOL    HW2 5616   1.825   5.087   1.570
 1573SOL     OW 5617   4.486   5.064   1.335
 1573SOL    HW1 5618   4.454   5.114   1.416
 1573SOL    HW2 5619   4.503   4.969   1.359
 1574SOL     OW 5620   6.218   3.432   1.937
 1574SOL    HW1 5621   6.219   3.341   1.896
 1574SOL    HW2 5622   6.228   3.501   1.865
 1575SOL     OW 5623   1.060   1.127   0.952
 1575SOL    HW1 5624   1.028   1.222   0.947
 1575SOL    HW2 5625   1.155   1.122   0.923
 1576SOL     OW 5626   0.264   5.910   1.967
 1576SOL    HW1 5627   0.203   5.986   1.944
 1576SOL    HW2 5628   0.220   5.851   2.035
 1577SOL     OW 5629   3.793   0.202   6.517
 1577SOL    HW1 5630   3.827   0.152   6.438
 1577SOL    HW2 5631   3.780   0.298   6.494
 1578SOL     OW 5632   4.534   1.123   0.241
 1578SOL    HW1 5633   4.606   1.179   0.283
 1578SOL    HW2 5634   4.534   1.032   0.283
 1579SOL     OW 5635   1.792   2.395   1.605
 1579SOL    HW1 5636   1.707   2.433   1.641
 1579SOL    HW2 5637   1.784   2.295   1.599
 1580SOL     OW 5638   3.181   4.032   2.809
 1580SOL    HW1 5639   3.257   4.061   2.869
 1580SOL    HW2 5640   3.134   3.955   2.851
 1581SOL     OW 5641   0.326   4.522   6.086
 1581SOL    HW1 5642   0.285   4.464   6.157
 1581SOL    HW2 5643   0.367   4.602   6.128
 1582SOL     OW 5644   4.784   6.470   5.890
 1582SOL    HW1 5645   4.725   6.549   5.871
 1582SOL    HW2 5646   4.859   6.467   5.823
 1583SOL     OW 5647   1.148   5.932   5.016
 1583SOL    HW1 5648   1.074   5.959   5.078
 1583SOL    HW2 5649   1.110   5.877   4.941
 1584SOL     OW 5650   0.721   5.452   6.541
 1584SOL    HW1 5651   0.627   5.421   6.523
 1584SOL    HW2 5652   0.736   5.540   6.498
 1585SOL     OW 5653   3.931   0.443   2.875
 1585SOL    HW1 5654   3.903   0.370   2.937
 1585SOL    HW2 5655   4.029   0.437   2.858
 1586SOL     OW 5656   2.811   5.817   4.562
 1586SOL    HW1 5657   2.881   5.790   4.496
 1586SOL    HW2 5658   2.764   5.736   4.596
 1587SOL     OW 5659   1.599   6.149   6.268
 1587SOL    HW1 5660   1.539   6.086   6.219
 1587SOL    HW2 5661   1.695   6.127   6.247
 1588SOL     OW 5662   5.970   0.262   2.063
 1588SOL    HW1 5663   6.035   0.246   2.138
 1588SOL    HW2 5664   5.980   0.356   2.030
 1589SOL     OW 5665   6.780   4.369   2.724
 1589SOL    HW1 5666   6.812   4.449   2.674
 1589SOL    HW2 5667   6.702   4.394   2.782
 1590SOL     OW 5668   5.996   2.341   3.621
 1590SOL    HW1 5669   5.905   2.363   3.654
 1590SOL    HW2 5670   6.061   2.343   3.697
 1591SOL     OW 5671   0.286   5.921   1.345
 1591SOL    HW1 5672   0.339   5.853   1.395
 1591SOL    HW2 5673   0.341   5.961   1.272
 1592SOL     OW 5674   1.164   4.034   6.854
 1592SOL    HW1 5675   1.190   3.971   6.927
 1592SOL    HW2 5676   1.205   4.124   6.872
 1593SOL     OW 5677   0.895   0.155   6.573
 1593SOL    HW1 5678   0.953   0.088   6.619
 1593SOL    HW2 5679   0.824   0.107   6.521
 1594SOL     OW 5680   0.015   0.707   2.191
 1594SOL    HW1 5681   6.974   0.657   2.140
 1594SOL    HW2 5682   0.017   0.802   2.160
 1595SOL     OW 5683   1.145   4.038   6.594
 1595SOL    HW1 5684   1.140   4.043   6.694
 1595SOL    HW2 5685   1.068   3.984   6.560
 1596SOL     OW 5686   5.721   4.330   2.399
 1596SOL    HW1 5687   5.740   4.397   2.327
 1596SOL    HW2 5688   5.765   4.243   2.375
 1597SOL     OW 5689   3.292   5.860   1.078
 1597SOL    HW1 5690   3.361   5.923   1.112
 1597SOL    HW2 5691   3.321   5.821   0.991
 1598SOL     OW 5692   1.880   5.814   0.239
 1598SOL    HW1 5693   1.916   5.722   0.256
 1598SOL    HW2 5694   1.846   5.820   0.145
 1599SOL     OW 5695   3.756   5.391   4.261
 1599SOL    HW1 5696   3.855   5.375   4.261
 1599SOL    HW2 5697   3.708   5.304   4.255
 1600SOL     OW 5698   3.066   0.454   2.838
 1600SOL    HW1 5699   3.154   0.501   2.827
 1600SOL    HW2 5700   3.039   0.414   2.750
 1601SOL     OW 5701   6.513   6.698   4.351
 1601SOL    HW1 5702   6.429   6.747   4.376
 1601SOL    HW2 5703   6.564   6.752   4.285
 1602SOL     OW 5704   4.632   5.466   3.984
 1602SOL    HW1 5705   4.714   5.520   4.006
 1602SOL    HW2 5706   4.656   5.393   3.921
 1603SOL     OW 5707   2.941   5.995   4.260
 1603SOL    HW1 5708   2.967   5.906   4.223
 1603SOL    HW2 5709   2.842   6.007   4.251
 1604SOL     OW 5710   4.088   4.968   2.009
 1604SOL    HW1 5711   4.007   4.947   1.953
 1604SOL    HW2 5712   4.077   4.927   2.099
 1605SOL     OW 5713   5.000   5.438   2.011
 1605SOL    HW1 5714   4.974   5.460   2.105
 1605SOL    HW2 5715   5.097   5.457   1.997
 1606SOL     OW 5716   4.283   6.206   3.794
 1606SOL    HW1 5717   4.206   6.148   3.818
 1606SOL    HW2 5718   4.275   6.294   3.840
 1607SOL     OW 5719   4.485   6.746   2.762
 1607SOL    HW1 5720   4.570   6.757   2.813
 1607SOL    HW2 5721   4.429   6.828   2.773
 1608SOL     OW 5722   6.835   0.851   2.823
 1608SOL    HW1 5723   6.873   0.891   2.739
 1608SOL    HW2 5724   6.823   0.922   2.891
 1609SOL     OW 5725   3.221   6.346   0.921
 1609SOL    HW1 5726   3.246   6.432   0.876
 1609SOL    HW2 5727   3.160   6.294   0.861
 1610SOL     OW 5728   3.541   6.351   6.922
 1610SOL    HW1 5729   3.490   6.390   6.846
 1610SOL    HW2 5730   3.544   6.251   6.913
 1611SOL     OW 5731   1.078   3.837   1.335
 1611SOL    HW1 5732   1.160   3.846   1.391
 1611SOL    HW2 5733   1.003   3.887   1.376
 1612SOL     OW 5734   3.069   5.685   1.111
 1612SOL    HW1 5735   3.072   5.645   1.019
 1612SOL    HW2 5736   3.143   5.752   1.121
 1613SOL     OW 5737   0.675   5.523   2.450
 1613SOL    HW1 5738   0.654   5.516   2.352
 1613SOL    HW2 5739   0.613   5.589   2.492
 1614SOL     OW 5740   5.524   2.667   6.617
 1614SOL    HW1 5741   5.501   2.680   6.520
 1614SOL    HW2 5742   5.440   2.652   6.669
 1615SOL     OW 5743   0.359   5.442   6.647
 1615SOL    HW1 5744   0.329   5.527   6.604
 1615SOL    HW2 5745   0.408   5.386   6.581
 1616SOL     OW 5746   3.407   0.622   5.573
 1616SOL    HW1 5747   3.468   0.670   5.636
 1616SOL    HW2 5748   3.405   0.670   5.485
 1617SOL     OW 5749   4.658   6.896   3.495
 1617SOL    HW1 5750   4.617   6.829   3.557
 1617SOL    HW2 5751   4.718   6.957   3.547
 1618SOL     OW 5752   1.691   6.072   2.797
 1618SOL    HW1 5753   1.762   6.120   2.849
 1618SOL    HW2 5754   1.710   6.079   2.699
 1619SOL     OW 5755   1.074   5.150   6.793
 1619SOL    HW1 5756   1.069   5.102   6.705
 1619SOL    HW2 5757   1.107   5.088   6.863
 1620SOL     OW 5758   3.481   5.155   0.788
 1620SOL    HW1 5759   3.545   5.083   0.761
 1620SOL    HW2 5760   3.473   5.158   0.888
 1621SOL     OW 5761   5.936   6.220   1.102
 1621SOL    HW1 5762   6.032   6.248   1.096
 1621SOL    HW2 5763   5.931   6.122   1.121
 1622SOL     OW 5764   1.089   3.727   5.531
 1622SOL    HW1 5765   1.022   3.793   5.564
 1622SOL    HW2 5766   1.077   3.712   5.433
 1623SOL     OW 5767   0.763   2.339   5.206
 1623SOL    HW1 5768   0.731   2.425   5.246
 1623SOL    HW2 5769   0.801   2.357   5.115
 1624SOL     OW 5770   3.535   1.286   0.622
 1624SOL    HW1 5771   3.615   1.342   0.648
 1624SOL    HW2 5772   3.470   1.284   0.698
 1625SOL     OW 5773   2.340   5.097   0.586
 1625SOL    HW1 5774   2.312   5.010   0.625
 1625SOL    HW2 5775   2.437   5.095   0.564
 1626SOL     OW 5776   3.104   1.826   1.726
 1626SOL    HW1 5777   3.041   1.748   1.732
 1626SOL    HW2 5778   3.087   1.875   1.640
 1627SOL     OW 5779   5.143   2.432   4.492
 1627SOL    HW1 5780   5.085   2.359   4.456
 1627SOL    HW2 5781   5.096   2.519   4.485
 1628SOL     OW 5782   4.834   5.754   6.472
 1628SOL    HW1 5783   4.786   5.704   6.544
 1628SOL    HW2 5784   4.928   5.774   6.502
 1629SOL     OW 5785   3.143   2.155   3.028
 1629SOL    HW1 5786   3.140   2.229   3.095
 1629SOL    HW2 5787   3.238   2.129   3.011
 1630SOL     OW 5788   0.025   4.622   0.366
 1630SOL    HW1 5789   7.014   4.531   0.350
 1630SOL    HW2 5790   0.112   4.629   0.318
 1631SOL     OW 5791   6.936   3.406   1.088
 1631SOL    HW1 5792   6.856   3.355   1.121
 1631SOL    HW2 5793   6.909   3.461   1.009
 1632SOL     OW 5794   5.521   4.980   2.301
 1632SOL    HW1 5795   5.577   4.973   2.218
 1632SOL    HW2 5796   5.576   4.955   2.381
 1633SOL     OW 5797   4.978   3.966   4.014
 1633SOL    HW1 5798   4.935   3.954   4.103
 1633SOL    HW2 5799   4.920   3.926   3.943
 1634SOL     OW 5800   4.249   0.430   4.746
 1634SOL    HW1 5801   4.195   0.355   4.784
 1634SOL    HW2 5802   4.193   0.512   4.740
 1635SOL     OW 5803   3.580   4.579   5.722
 1635SOL    HW1 5804   3.578   4.512   5.796
 1635SOL    HW2 5805   3.658   4.640   5.736
 1636SOL     OW 5806   4.243   5.939   1.223
 1636SOL    HW1 5807   4.204   5.996   1.296
 1636SOL    HW2 5808   4.210   5.845   1.232
 1637SOL     OW 5809   0.080   6.704   2.924
 1637SOL    HW1 5810   0.035   6.673   3.007
 1637SOL    HW2 5811   0.178   6.686   2.930
 1638SOL     OW 5812   6.574   3.269   1.928
 1638SOL    HW1 5813   6.545   3.174   1.924
 1638SOL    HW2 5814   6.574   3.308   1.836
 1639SOL     OW 5815   6.234   4.083   2.109
 1639SOL    HW1 5816   6.305   4.019   2.080
 1639SOL    HW2 5817   6.197   4.054   2.198
 1640SOL     OW 5818   5.745   0.575   1.029
 1640SOL    HW1 5819   5.777   0.586   1.123
 1640SOL    HW2 5820   5.679   0.500   1.024
 1641SOL     OW 5821   6.920   2.441   3.606
 1641SOL    HW1 5822   6.860   2.362   3.610
 1641SOL    HW2 5823   6.918   2.489   3.693
 1642SOL     OW 5824   6.100   2.457   6.219
 1642SOL    HW1 5825   6.178   2.509   6.183
 1642SOL    HW2 5826   6.079   2.488   6.312
 1643SOL     OW 5827   3.314   4.899   4.105
 1643SOL    HW1 5828   3.384   4.832   4.128
 1643SOL    HW2 5829   3.235   4.886   4.164
 1644SOL     OW 5830   5.902   3.143   0.656
 1644SOL    HW1 5831   5.921   3.115   0.750
 1644SOL    HW2 5832   5.933   3.072   0.593
 1645SOL     OW 5833   2.992   0.777   6.335
 1645SOL    HW1 5834   2.970   0.731   6.249
 1645SOL    HW2 5835   2.961   0.872   6.332
 1646SOL     OW 5836   1.562   5.808   7.007
 1646SOL    HW1 5837   1.603   5.877   6.947
 1646SOL    HW2 5838   1.579   5.717   6.969
 1647SOL     OW 5839   6.284   2.985   3.943
 1647SOL    HW1 5840   6.242   2.928   3.872
 1647SOL    HW2 5841   6.213   3.019   4.005
 1648SOL     OW 5842   5.164   6.383   0.523
 1648SOL    HW1 5843   5.196   6.294   0.555
 1648SOL    HW2 5844   5.230   6.421   0.458
 1649SOL     OW 5845   3.104   0.098   3.532
 1649SOL    HW1 5846   3.134   0.155   3.455
 1649SOL    HW2 5847   3.117   0.002   3.509
 1650SOL     OW 5848   2.027   4.913   6.437
 1650SOL    HW1 5849   2.031   4.940   6.341
 1650SOL    HW2 5850   1.952   4.848   6.450
 1651SOL     OW 5851   0.419   2.503   3.706
 1651SOL    HW1 5852   0.489   2.572   3.689
 1651SOL    HW2 5853   0.438   2.422   3.649
 1652SOL     OW 5854   1.353   2.814   1.624
 1652SOL    HW1 5855   1.327   2.905   1.590
 1652SOL    HW2 5856   1.270   2.762   1.645
 1653SOL     OW 5857   0.430   5.377   2.106
 1653SOL    HW1 5858   0.371   5.426   2.171
 1653SOL    HW2 5859   0.386   5.373   2.017
 1654SOL     OW 5860   0.626   2.815   1.545
 1654SOL    HW1 5861   0.662   2.908   1.555
 1654SOL    HW2 5862   0.699   2.754   1.515
 1655SOL     OW 5863   6.905   1.207   4.581
 1655SOL    HW1 5864   6.990   1.258   4.599
 1655SOL    HW2 5865   6.870   1.232   4.490
 1656SOL     OW 5866   2.073   5.439   4.538
 1656SOL    HW1 5867   2.039   5.363   4.483
 1656SOL    HW2 5868   2.153   5.409   4.591
 1657SOL     OW 5869   0.183   0.978   5.209
 1657SOL    HW1 5870   0.238   1.009   5.287
 1657SOL    HW2 5871   0.209   0.884   5.186
 1658SOL     OW 5872   7.011   6.803   0.370
 1658SOL    HW1 5873   6.938   6.829   0.307
 1658SOL    HW2 5874   7.014   6.703   0.379
 1659SOL     OW 5875   4.316   0.135   6.669
 1659SOL    HW1 5876   4.393   0.141   6.605
 1659SOL    HW2 5877   4.245   0.199   6.642
 1660SOL     OW 5878   1.397   6.408   1.861
 1660SOL    HW1 5879   1.441   6.390   1.773
 1660SOL    HW2 5880   1.299   6.417   1.847
 1661SOL     OW 5881   2.616   4.588   2.255
 1661SOL    HW1 5882   2.598   4.683   2.281
 1661SOL    HW2 5883   2.687   4.586   2.185
 1662SOL     OW 5884   6.833   1.741   5.498
 1662SOL    HW1 5885   6.891   1.676   5.546
 1662SOL    HW2 5886   6.769   1.783   5.562
 1663SOL     OW 5887   4.907   5.179   2.073
 1663SOL    HW1 5888   4.934   5.254   2.013
 1663SOL    HW2 5889   4.980   5.111   2.076
 1664SOL     OW 5890   0.616   6.918   5.190
 1664SOL    HW1 5891   0.622   6.988   5.119
 1664SOL    HW2 5892   0.708   6.896   5.223
 1665SOL     OW 5893   1.681   3.700   0.909
 1665SOL    HW1 5894   1.777   3.698   0.938
 1665SOL    HW2 5895   1.668   3.636   0.834
 1666SOL     OW 5896   5.506   6.961   6.575
 1666SOL    HW1 5897   5.533   6.883   6.631
 1666SOL    HW2 5898   5.568   0.009   6.594
 1667SOL     OW 5899   0.148   6.585   0.914
 1667SOL    HW1 5900   0.070   6.621   0.863
 1667SOL    HW2 5901   0.176   6.652   0.984
 1668SOL     OW 5902   5.048   4.999   3.921
 1668SOL    HW1 5903   4.971   4.939   3.944
 1668SOL    HW2 5904   5.014   5.093   3.908
 1669SOL     OW 5905   0.166   4.299   5.646
 1669SOL    HW1 5906   0.213   4.218   5.610
 1669SOL    HW2 5907   0.231   4.356   5.697
 1670SOL     OW 5908   1.633   4.925   5.525
 1670SOL    HW1 5909   1.586   4.880   5.449
 1670SOL    HW2 5910   1.682   5.005   5.490
 1671SOL     OW 5911   5.010   1.848   2.856
 1671SOL    HW1 5912   4.972   1.935   2.884
 1671SOL    HW2 5913   4.980   1.776   2.918
 1672SOL     OW 5914   1.067   3.405   0.101
 1672SOL    HW1 5915   1.103   3.346   0.029
 1672SOL    HW2 5916   0.997   3.466   0.064
 1673SOL     OW 5917   2.163   1.944   4.311
 1673SOL    HW1 5918   2.074   1.938   4.355
 1673SOL    HW2 5919   2.191   2.040   4.304
 1674SOL     OW 5920   5.538   2.674   2.413
 1674SOL    HW1 5921   5.519   2.718   2.325
 1674SOL    HW2 5922   5.476   2.596   2.425
 1675SOL     OW 5923   5.391   0.826   1.186
 1675SOL    HW1 5924   5.292   0.828   1.203
 1675SOL    HW2 5925   5.412   0.754   1.120
 1676SOL     OW 5926   2.067   2.165   2.786
 1676SOL    HW1 5927   2.131   2.117   2.847
 1676SOL    HW2 5928   1.974   2.156   2.822
 1677SOL     OW 5929   3.844   3.838   3.106
 1677SOL    HW1 5930   3.786   3.916   3.131
 1677SOL    HW2 5931   3.797   3.782   3.038
 1678SOL     OW 5932   0.656   6.341   0.603
 1678SOL    HW1 5933   0.660   6.294   0.691
 1678SOL    HW2 5934   0.740   6.323   0.551
 1679SOL     OW 5935   1.656   1.403   5.516
 1679SOL    HW1 5936   1.565   1.417   5.477
 1679SOL    HW2 5937   1.658   1.440   5.609
 1680SOL     OW 5938   5.492   3.080   4.660
 1680SOL    HW1 5939   5.484   3.179   4.671
 1680SOL    HW2 5940   5.515   3.059   4.565
 1681SOL     OW 5941   1.659   5.814   4.310
 1681SOL    HW1 5942   1.661   5.743   4.380
 1681SOL    HW2 5943   1.656   5.904   4.354
 1682SOL     OW 5944   3.121   0.273   5.735
 1682SOL    HW1 5945   3.174   0.206   5.788
 1682SOL    HW2 5946   3.182   0.320   5.671
 1683SOL     OW 5947   5.732   5.259   2.499
 1683SOL    HW1 5948   5.692   5.169   2.480
 1683SOL    HW2 5949   5.800   5.281   2.429
 1684SOL     OW 5950   1.321   4.491   2.047
 1684SOL    HW1 5951   1.308   4.470   2.144
 1684SOL    HW2 5952   1.233   4.494   2.001
 1685SOL     OW 5953   1.446   1.493   5.996
 1685SOL    HW1 5954   1.534   1.533   6.022
 1685SOL    HW2 5955   1.372   1.554   6.028
 1686SOL     OW 5956   4.900   6.318   3.459
 1686SOL    HW1 5957   4.866   6.389   3.521
 1686SOL    HW2 5958   4.996   6.299   3.479
 1687SOL     OW 5959   0.270   3.896   1.802
 1687SOL    HW1 5960   0.355   3.871   1.850
 1687SOL    HW2 5961   0.192   3.852   1.848
 1688SOL     OW 5962   1.810   2.129   3.405
 1688SOL    HW1 5963   1.857   2.090   3.325
 1688SOL    HW2 5964   1.846   2.088   3.488
 1689SOL     OW 5965   6.914   1.280   1.863
 1689SOL    HW1 5966   6.999   1.277   1.915
 1689SOL    HW2 5967   6.847   1.336   1.912
 1690SOL     OW 5968   0.795   3.849   3.999
 1690SOL    HW1 5969   0.857   3.772   3.985
 1690SOL    HW2 5970   0.832   3.930   3.952
 1691SOL     OW 5971   4.910   3.341   4.312
 1691SOL    HW1 5972   4.823   3.293   4.325
 1691SOL    HW2 5973   4.921   3.366   4.216
 1692SOL     OW 5974   5.847   5.636   1.451
 1692SOL    HW1 5975   5.892   5.573   1.388
 1692SOL    HW2 5976   5.759   5.664   1.413
 1693SOL     OW 5977   6.891   1.576   4.680
 1693SOL    HW1 5978   6.891   1.666   4.723
 1693SOL    HW2 5979   6.913   1.506   4.749
 1694SOL     OW 5980   5.741   1.326   4.650
 1694SOL    HW1 5981   5.735   1.398   4.719
 1694SOL    HW2 5982   5.728   1.237   4.694
 1695SOL     OW 5983   3.461   0.668   6.871
 1695SOL    HW1 5984   3.429   0.688   6.964
 1695SOL    HW2 5985   3.504   0.578   6.870
 1696SOL     OW 5986   4.407   5.778   0.474
 1696SOL    HW1 5987   4.354   5.790   0.558
 1696SOL    HW2 5988   4.468   5.856   0.462
 1697SOL     OW 5989   5.963   2.514   0.898
 1697SOL    HW1 5990   5.894   2.544   0.833
 1697SOL    HW2 5991   5.922   2.502   0.988
 1698SOL     OW 5992   3.845   0.955   1.830
 1698SOL    HW1 5993   3.766   0.948   1.769
 1698SOL    HW2 5994   3.838   0.885   1.901
 1699SOL     OW 5995   2.693   1.548   6.136
 1699SOL    HW1 5996   2.680   1.612   6.060
 1699SOL    HW2 5997   2.747   1.469   6.105
 1700SOL     OW 5998   5.687   3.289   3.494
 1700SOL    HW1 5999   5.634   3.271   3.411
 1700SOL    HW2 6000   5.746   3.368   3.478
 1701SOL     OW 6001   6.497   4.934   4.779
 1701SOL    HW1 6002   6.405   4.927   4.740
 1701SOL    HW2 6003   6.564   4.943   4.705
 1702SOL     OW 6004   1.746   0.990   6.548
 1702SOL    HW1 6005   1.724   0.995   6.645
 1702SOL    HW2 6006   1.669   0.951   6.498
 1703SOL     OW 6007   3.272   1.560   6.081
 1703SOL    HW1 6008   3.367   1.585   6.058
 1703SOL    HW2 6009   3.213   1.640   6.066
 1704SOL     OW 6010   1.960   1.374   0.333
 1704SOL    HW1 6011   1.922   1.467   0.325
 1704SOL    HW2 6012   2.012   1.368   0.418
 1705SOL     OW 6013   3.908   1.541   1.885
 1705SOL    HW1 6014   3.834   1.605   1.864
 1705SOL    HW2 6015   3.950   1.510   1.800
 1706SOL     OW 6016   4.302   1.809   0.720
 1706SOL    HW1 6017   4.352   1.723   0.712
 1706SOL    HW2 6018   4.219   1.794   0.773
 1707SOL     OW 6019   4.878   2.027   3.041
 1707SOL    HW1 6020   4.820   1.946   3.044
 1707SOL    HW2 6021   4.821   2.109   3.044
 1708SOL     OW 6022   3.443   5.216   2.101
 1708SOL    HW1 6023   3.365   5.205   2.162
 1708SOL    HW2 6024   3.427   5.292   2.038
 1709SOL     OW 6025   4.903   5.975   0.736
 1709SOL    HW1 6026   4.944   5.928   0.658
 1709SOL    HW2 6027   4.853   6.056   0.704
 1710SOL     OW 6028   4.630   5.211   3.535
 1710SOL    HW1 6029   4.561   5.140   3.551
 1710SOL    HW2 6030   4.665   5.203   3.442
 1711SOL     OW 6031   3.434   5.913   5.795
 1711SOL    HW1 6032   3.403   5.830   5.748
 1711SOL    HW2 6033   3.439   5.988   5.729
 1712SOL     OW 6034   0.180   2.291   4.475
 1712SOL    HW1 6035   0.240   2.283   4.555
 1712SOL    HW2 6036   0.115   2.215   4.475
 1713SOL     OW 6037   3.743   0.981   3.094
 1713SOL    HW1 6038   3.831   0.938   3.117
 1713SOL    HW2 6039   3.759   1.054   3.028
 1714SOL     OW 6040   3.839   2.131   6.556
 1714SOL    HW1 6041   3.898   2.051   6.550
 1714SOL    HW2 6042   3.800   2.137   6.648
 1715SOL     OW 6043   1.605   6.073   2.078
 1715SOL    HW1 6044   1.634   6.116   1.992
 1715SOL    HW2 6045   1.585   5.976   2.062
 1716SOL     OW 6046   4.829   0.316   4.301
 1716SOL    HW1 6047   4.798   0.228   4.266
 1716SOL    HW2 6048   4.812   0.320   4.399
 1717SOL     OW 6049   3.872   6.304   5.260
 1717SOL    HW1 6050   3.822   6.275   5.341
 1717SOL    HW2 6051   3.866   6.404   5.251
 1718SOL     OW 6052   2.399   1.990   2.548
 1718SOL    HW1 6053   2.301   1.980   2.533
 1718SOL    HW2 6054   2.444   2.011   2.461
 1719SOL     OW 6055   1.212   4.511   1.321
 1719SOL    HW1 6056   1.300   4.463   1.311
 1719SOL    HW2 6057   1.164   4.510   1.233
 1720SOL     OW 6058   0.144   2.911   5.926
 1720SOL    HW1 6059   0.078   2.861   5.980
 1720SOL    HW2 6060   0.237   2.891   5.958
 1721SOL     OW 6061   1.396   0.405   2.142
 1721SOL    HW1 6062   1.332   0.415   2.218
 1721SOL    HW2 6063   1.354   0.436   2.057
 1722SOL     OW 6064   3.478   2.124   2.791
 1722SOL    HW1 6065   3.554   2.188   2.799
 1722SOL    HW2 6066   3.510   2.038   2.750
 1723SOL     OW 6067   4.736   2.282   6.779
 1723SOL    HW1 6068   4.692   2.369   6.756
 1723SOL    HW2 6069   4.804   2.260   6.710
 1724SOL     OW 6070   6.515   2.401   1.507
 1724SOL    HW1 6071   6.535   2.326   1.445
 1724SOL    HW2 6072   6.600   2.439   1.543
 1725SOL     OW 6073   1.883   4.624   6.797
 1725SOL    HW1 6074   1.878   4.638   6.896
 1725SOL    HW2 6075   1.979   4.620   6.769
 1726SOL     OW 6076   5.664   4.619   3.682
 1726SOL    HW1 6077   5.658   4.550   3.754
 1726SOL    HW2 6078   5.722   4.694   3.712
 1727SOL     OW 6079   3.490   3.424   3.249
 1727SOL    HW1 6080   3.430   3.474   3.311
 1727SOL    HW2 6081   3.454   3.332   3.234
 1728SOL     OW 6082   5.045   4.161   5.311
 1728SOL    HW1 6083   5.069   4.125   5.401
 1728SOL    HW2 6084   5.100   4.115   5.241
 1729SOL     OW 6085   1.776   3.968   1.636
 1729SOL    HW1 6086   1.862   3.974   1.687
 1729SOL    HW2 6087   1.786   3.903   1.561
 1730SOL     OW 6088   2.452   5.699   5.517
 1730SOL    HW1 6089   2.468   5.605   5.548
 1730SOL    HW2 6090   2.374   5.738   5.568
 1731SOL     OW 6091   4.951   4.831   4.243
 1731SOL    HW1 6092   4.981   4.736   4.253
 1731SOL    HW2 6093   4.920   4.846   4.149
 1732SOL     OW 6094   1.918   3.959   6.426
 1732SOL    HW1 6095   1.950   4.040   6.475
 1732SOL    HW2 6096   1.946   3.877   6.476
 1733SOL     OW 6097   2.582   4.050   0.302
 1733SOL    HW1 6098   2.535   4.014   0.383
 1733SOL    HW2 6099   2.679   4.027   0.308
 1734SOL     OW 6100   6.641   3.074   1.603
 1734SOL    HW1 6101   6.736   3.096   1.580
 1734SOL    HW2 6102   6.585   3.156   1.598
 1735SOL     OW 6103   4.809   5.418   6.659
 1735SOL    HW1 6104   4.760   5.455   6.580
 1735SOL    HW2 6105   4.794   5.478   6.738
 1736SOL     OW 6106   4.736   3.557   1.709
 1736SOL    HW1 6107   4.726   3.578   1.612
 1736SOL    HW2 6108   4.668   3.489   1.736
 1737SOL     OW 6109   5.012   1.088   4.628
 1737SOL    HW1 6110   5.057   1.005   4.662
 1737SOL    HW2 6111   5.048   1.111   4.538
 1738SOL     OW 6112   1.822   3.983   4.162
 1738SOL    HW1 6113   1.858   4.058   4.216
 1738SOL    HW2 6114   1.825   3.899   4.216
 1739SOL     OW 6115   5.490   0.377   3.834
 1739SOL    HW1 6116   5.501   0.282   3.804
 1739SOL    HW2 6117   5.403   0.413   3.800
 1740SOL     OW 6118   6.878   2.360   4.875
 1740SOL    HW1 6119   6.971   2.370   4.910
 1740SOL    HW2 6120   6.818   2.425   4.922
 1741SOL     OW 6121   1.688   1.797   4.474
 1741SOL    HW1 6122   1.785   1.813   4.454
 1741SOL    HW2 6123   1.667   1.833   4.565
 1742SOL     OW 6124   6.183   6.906   5.936
 1742SOL    HW1 6125   6.218   6.828   5.987
 1742SOL    HW2 6126   6.257   6.946   5.881
 1743SOL     OW 6127   1.107   1.370   3.492
 1743SOL    HW1 6128   1.089   1.456   3.539
 1743SOL    HW2 6129   1.201   1.341   3.510
 1744SOL     OW 6130   5.187   2.323   3.652
 1744SOL    HW1 6131   5.241   2.305   3.734
 1744SOL    HW2 6132   5.239   2.295   3.571
 1745SOL     OW 6133   6.097   6.502   1.169
 1745SOL    HW1 6134   6.025   6.447   1.127
 1745SOL    HW2 6135   6.180   6.497   1.113
 1746SOL     OW 6136   1.866   3.748   3.575
 1746SOL    HW1 6137   1.847   3.657   3.541
 1746SOL    HW2 6138   1.963   3.767   3.568
 1747SOL     OW 6139   3.464   1.574   1.955
 1747SOL    HW1 6140   3.409   1.495   1.928
 1747SOL    HW2 6141   3.408   1.656   1.949
 1748SOL     OW 6142   6.518   1.761   4.687
 1748SOL    HW1 6143   6.439   1.797   4.637
 1748SOL    HW2 6144   6.489   1.685   4.745
 1749SOL     OW 6145   2.773   5.632   1.114
 1749SOL    HW1 6146   2.790   5.538   1.144
 1749SOL    HW2 6147   2.857   5.684   1.118
 1750SOL     OW 6148   4.182   0.966   5.063
 1750SOL    HW1 6149   4.207   0.881   5.110
 1750SOL    HW2 6150   4.221   1.044   5.112
 1751SOL     OW 6151   6.465   2.734   4.862
 1751SOL    HW1 6152   6.542   2.796   4.877
 1751SOL    HW2 6153   6.427   2.706   4.951
 1752SOL     OW 6154   6.234   1.632   0.833
 1752SOL    HW1 6155   6.222   1.534   0.815
 1752SOL    HW2 6156   6.168   1.662   0.901
 1753SOL     OW 6157   6.785   1.591   1.568
 1753SOL    HW1 6158   6.835   1.655   1.625
 1753SOL    HW2 6159   6.757   1.636   1.483
 1754SOL     OW 6160   3.022   6.197   5.721
 1754SOL    HW1 6161   3.035   6.251   5.637
 1754SOL    HW2 6162   3.087   6.121   5.722
 1755SOL     OW 6163   6.263   0.236   5.137
 1755SOL    HW1 6164   6.211   0.157   5.106
 1755SOL    HW2 6165   6.275   0.232   5.236
 1756SOL     OW 6166   5.489   0.486   6.100
 1756SOL    HW1 6167   5.563   0.446   6.046
 1756SOL    HW2 6168   5.471   0.429   6.180
 1757SOL     OW 6169   2.462   5.484   4.354
 1757SOL    HW1 6170   2.532   5.552   4.329
 1757SOL    HW2 6171   2.506   5.398   4.378
 1758SOL     OW 6172   1.887   0.135   5.108
 1758SOL    HW1 6173   1.899   0.185   5.193
 1758SOL    HW2 6174   1.878   0.200   5.032
 1759SOL     OW 6175   1.532   6.308   6.914
 1759SOL    HW1 6176   1.452   6.288   6.969
 1759SOL    HW2 6177   1.510   6.294   6.817
 1760SOL     OW 6178   6.069   0.535   4.738
 1760SOL    HW1 6179   5.970   0.541   4.728
 1760SOL    HW2 6180   6.110   0.625   4.723
 1761SOL     OW 6181   0.113   2.158   1.353
 1761SOL    HW1 6182   0.062   2.237   1.318
 1761SOL    HW2 6183   0.102   2.081   1.291
 1762SOL     OW 6184   0.768   1.592   5.277
 1762SOL    HW1 6185   0.701   1.524   5.307
 1762SOL    HW2 6186   0.799   1.569   5.184
 1763SOL     OW 6187   1.117   3.499   4.679
 1763SOL    HW1 6188   1.145   3.582   4.633
 1763SOL    HW2 6189   1.197   3.453   4.717
 1764SOL     OW 6190   1.795   4.603   1.996
 1764SOL    HW1 6191   1.769   4.520   2.045
 1764SOL    HW2 6192   1.742   4.611   1.912
 1765SOL     OW 6193   5.106   2.911   2.014
 1765SOL    HW1 6194   5.056   2.940   1.933
 1765SOL    HW2 6195   5.134   2.816   2.004
 1766SOL     OW 6196   4.245   4.741   3.998
 1766SOL    HW1 6197   4.146   4.745   3.991
 1766SOL    HW2 6198   4.282   4.834   3.993
 1767SOL     OW 6199   6.991   5.487   2.240
 1767SOL    HW1 6200   0.003   5.421   2.176
 1767SOL    HW2 6201   6.999   5.452   2.333
 1768SOL     OW 6202   4.611   6.338   1.984
 1768SOL    HW1 6203   4.700   6.364   2.022
 1768SOL    HW2 6204   4.570   6.416   1.937
 1769SOL     OW 6205   5.961   0.233   6.739
 1769SOL    HW1 6206   6.044   0.213   6.686
 1769SOL    HW2 6207   5.900   0.291   6.685
 1770SOL     OW 6208   1.920   4.478   5.456
 1770SOL    HW1 6209   1.896   4.508   5.548
 1770SOL    HW2 6210   1.970   4.391   5.461
 1771SOL     OW 6211   0.862   3.580   0.009
 1771SOL    HW1 6212   0.821   3.618   0.092
 1771SOL    HW2 6213   0.797   3.517   6.994
 1772SOL     OW 6214   2.740   4.800   3.871
 1772SOL    HW1 6215   2.800   4.857   3.927
 1772SOL    HW2 6216   2.772   4.801   3.776
 1773SOL     OW 6217   1.032   0.275   5.050
 1773SOL    HW1 6218   1.044   0.179   5.076
 1773SOL    HW2 6219   0.937   0.289   5.020
 1774SOL     OW 6220   5.967   6.110   1.899
 1774SOL    HW1 6221   6.029   6.173   1.945
 1774SOL    HW2 6222   6.008   6.080   1.813
 1775SOL     OW 6223   1.737   5.397   6.820
 1775SOL    HW1 6224   1.708   5.301   6.818
 1775SOL    HW2 6225   1.830   5.402   6.856
 1776SOL     OW 6226   4.258   1.170   5.276
 1776SOL    HW1 6227   4.358   1.164   5.285
 1776SOL    HW2 6228   4.217   1.184   5.366
 1777SOL     OW 6229   4.334   6.244   6.549
 1777SOL    HW1 6230   4.241   6.259   6.584
 1777SOL    HW2 6231   4.378   6.331   6.532
 1778SOL     OW 6232   5.860   0.875   3.915
 1778SOL    HW1 6233   5.859   0.890   3.816
 1778SOL    HW2 6234   5.909   0.790   3.936
 1779SOL     OW 6235   5.839   0.049   4.525
 1779SOL    HW1 6236   5.910   0.028   4.592
 1779SOL    HW2 6237   5.795   6.993   4.495
 1780SOL     OW 6238   1.465   5.460   5.026
 1780SOL    HW1 6239   1.498   5.394   4.958
 1780SOL    HW2 6240   1.388   5.511   4.988
 1781SOL     OW 6241   4.153   0.501   3.879
 1781SOL    HW1 6242   4.115   0.533   3.965
 1781SOL    HW2 6243   4.177   0.404   3.886
 1782SOL     OW 6244   1.793   1.883   2.771
 1782SOL    HW1 6245   1.710   1.827   2.768
 1782SOL    HW2 6246   1.864   1.842   2.714
 1783SOL     OW 6247   2.058   4.018   5.560
 1783SOL    HW1 6248   2.052   3.989   5.465
 1783SOL    HW2 6249   2.057   4.117   5.565
 1784SOL     OW 6250   2.510   0.439   1.028
 1784SOL    HW1 6251   2.423   0.465   0.987
 1784SOL    HW2 6252   2.504   0.448   1.128
 1785SOL     OW 6253   0.324   6.621   4.720
 1785SOL    HW1 6254   0.397   6.555   4.704
 1785SOL    HW2 6255   0.364   6.709   4.747
 1786SOL     OW 6256   2.000   5.830   0.760
 1786SOL    HW1 6257   1.991   5.828   0.660
 1786SOL    HW2 6258   1.931   5.770   0.800
 1787SOL     OW 6259   2.011   3.076   5.839
 1787SOL    HW1 6260   2.052   3.095   5.928
 1787SOL    HW2 6261   1.982   2.980   5.835
 1788SOL     OW 6262   5.060   3.828   0.848
 1788SOL    HW1 6263   5.090   3.804   0.756
 1788SOL    HW2 6264   5.138   3.826   0.910
 1789SOL     OW 6265   6.861   3.552   1.862
 1789SOL    HW1 6266   6.946   3.501   1.873
 1789SOL    HW2 6267   6.819   3.567   1.952
 1790SOL     OW 6268   2.706   2.383   4.171
 1790SOL    HW1 6269   2.633   2.315   4.169
 1790SOL    HW2 6270   2.776   2.360   4.104
 1791SOL     OW 6271   6.145   0.264   3.587
 1791SOL    HW1 6272   6.108   0.175   3.612
 1791SOL    HW2 6273   6.154   0.270   3.488
 1792SOL     OW 6274   6.316   1.974   5.204
 1792SOL    HW1 6275   6.334   2.025   5.288
 1792SOL    HW2 6276   6.266   1.890   5.226
 1793SOL     OW 6277   0.336   1.107   5.431
 1793SOL    HW1 6278   0.404   1.137   5.365
 1793SOL    HW2 6279   0.312   1.184   5.491
 1794SOL     OW 6280   7.016   0.387   6.043
 1794SOL    HW1 6281   7.017   0.468   6.102
 1794SOL    HW2 6282   0.038   0.313   6.087
 1795SOL     OW 6283   6.115   4.379   0.230
 1795SOL    HW1 6284   6.150   4.313   0.163
 1795SOL    HW2 6285   6.086   4.330   0.313
 1796SOL     OW 6286   0.907   0.137   5.380
 1796SOL    HW1 6287   0.834   0.144   5.448
 1796SOL    HW2 6288   0.890   0.058   5.321
 1797SOL     OW 6289   2.637   6.286   4.749
 1797SOL    HW1 6290   2.616   6.254   4.842
 1797SOL    HW2 6291   2.584   6.233   4.683
 1798SOL     OW 6292   3.265   3.791   4.634
 1798SOL    HW1 6293   3.226   3.726   4.699
 1798SOL    HW2 6294   3.284   3.744   4.548
 1799SOL     OW 6295   3.291   1.183   0.201
 1799SOL    HW1 6296   3.281   1.161   0.104
 1799SOL    HW2 6297   3.353   1.261   0.211
 1800SOL     OW 6298   5.000   3.751   4.459
 1800SOL    HW1 6299   4.927   3.784   4.519
 1800SOL    HW2 6300   5.061   3.692   4.512
 1801SOL     OW 6301   1.114   1.571   2.214
 1801SOL    HW1 6302   1.081   1.584   2.120
 1801SOL    HW2 6303   1.036   1.562   2.275
 1802SOL     OW 6304   6.305   4.801   3.734
 1802SOL    HW1 6305   6.379   4.763   3.677
 1802SOL    HW2 6306   6.331   4.794   3.830
 1803SOL     OW 6307   0.667   6.482   2.724
 1803SOL    HW1 6308   0.664   6.556   2.791
 1803SOL    HW2 6309   0.709   6.401   2.764
 1804SOL     OW 6310   2.689   3.481   6.318
 1804SOL    HW1 6311   2.726   3.452   6.230
 1804SOL    HW2 6312   2.606   3.535   6.303
 1805SOL     OW 6313   0.344   6.306   6.044
 1805SOL    HW1 6314   0.390   6.237   5.988
 1805SOL    HW2 6315   0.248   6.311   6.018
 1806SOL     OW 6316   6.984   2.545   2.508
 1806SOL    HW1 6317   0.048   2.537   2.472
 1806SOL    HW2 6318   6.975   2.629   2.561
 1807SOL     OW 6319   6.371   4.124   1.640
 1807SOL    HW1 6320   6.468   4.145   1.635
 1807SOL    HW2 6321   6.321   4.180   1.574
 1808SOL     OW 6322   5.517   2.400   5.805
 1808SOL    HW1 6323   5.589   2.462   5.836
 1808SOL    HW2 6324   5.557   2.328   5.748
 1809SOL     OW 6325   3.907   2.157   5.104
 1809SOL    HW1 6326   3.923   2.133   5.200
 1809SOL    HW2 6327   3.832   2.101   5.069
 1810SOL     OW 6328   0.508   6.986   4.002
 1810SOL    HW1 6329   0.564   6.932   3.940
 1810SOL    HW2 6330   0.413   6.955   3.997
 1811SOL     OW 6331   3.735   5.106   2.674
 1811SOL    HW1 6332   3.705   5.059   2.591
 1811SOL    HW2 6333   3.833   5.092   2.687
 1812SOL     OW 6334   4.559   0.278   6.151
 1812SOL    HW1 6335   4.561   0.200   6.213
 1812SOL    HW2 6336   4.589   0.360   6.200
 1813SOL     OW 6337   4.324   4.851   2.709
 1813SOL    HW1 6338   4.393   4.900   2.655
 1813SOL    HW2 6339   4.266   4.798   2.647
 1814SOL     OW 6340   0.717   6.497   0.301
 1814SOL    HW1 6341   0.643   6.515   0.237
 1814SOL    HW2 6342   0.772   6.579   0.313
 1815SOL     OW 6343   5.667   5.850   2.308
 1815SOL    HW1 6344   5.633   5.831   2.400
 1815SOL    HW2 6345   5.763   5.878   2.312
 1816SOL     OW 6346   3.797   5.919   5.884
 1816SOL    HW1 6347   3.873   5.952   5.939
 1816SOL    HW2 6348   3.832   5.875   5.802
 1817SOL     OW 6349   1.778   1.325   3.448
 1817SOL    HW1 6350   1.722   1.255   3.493
 1817SOL    HW2 6351   1.720   1.402   3.421
 1818SOL     OW 6352   2.456   6.542   0.325
 1818SOL    HW1 6353   2.467   6.611   0.396
 1818SOL    HW2 6354   2.490   6.454   0.359
 1819SOL     OW 6355   1.999   4.823   2.970
 1819SOL    HW1 6356   2.045   4.830   2.881
 1819SOL    HW2 6357   1.924   4.757   2.964
 1820SOL     OW 6358   3.870   0.683   3.744
 1820SOL    HW1 6359   3.803   0.608   3.746
 1820SOL    HW2 6360   3.823   0.770   3.753
 1821SOL     OW 6361   4.483   1.394   2.210
 1821SOL    HW1 6362   4.544   1.342   2.150
 1821SOL    HW2 6363   4.519   1.487   2.220
 1822SOL     OW 6364   0.334   3.377   1.939
 1822SOL    HW1 6365   0.307   3.302   1.999
 1822SOL    HW2 6366   0.394   3.440   1.988
 1823SOL     OW 6367   3.605   6.189   2.343
 1823SOL    HW1 6368   3.670   6.146   2.406
 1823SOL    HW2 6369   3.513   6.155   2.362
 1824SOL     OW 6370   4.312   3.672   1.104
 1824SOL    HW1 6371   4.280   3.583   1.137
 1824SOL    HW2 6372   4.407   3.662   1.072
 1825SOL     OW 6373   1.639   1.683   5.174
 1825SOL    HW1 6374   1.563   1.630   5.137
 1825SOL    HW2 6375   1.700   1.623   5.226
 1826SOL     OW 6376   3.211   2.090   1.754
 1826SOL    HW1 6377   3.208   1.995   1.723
 1826SOL    HW2 6378   3.223   2.151   1.676
 1827SOL     OW 6379   5.844   4.752   0.238
 1827SOL    HW1 6380   5.889   4.841   0.227
 1827SOL    HW2 6381   5.819   4.716   0.148
 1828SOL     OW 6382   1.540   3.167   5.760
 1828SOL    HW1 6383   1.532   3.107   5.680
 1828SOL    HW2 6384   1.633   3.202   5.766
 1829SOL     OW 6385   3.243   1.008   3.809
 1829SOL    HW1 6386   3.292   1.094   3.822
 1829SOL    HW2 6387   3.309   0.935   3.791
 1830SOL     OW 6388   5.917   6.820   4.769
 1830SOL    HW1 6389   5.831   6.831   4.818
 1830SOL    HW2 6390   5.957   6.910   4.750
 1831SOL     OW 6391   4.956   5.688   2.855
 1831SOL    HW1 6392   5.043   5.640   2.845
 1831SOL    HW2 6393   4.909   5.689   2.767
 1832SOL     OW 6394   2.534   3.341   0.788
 1832SOL    HW1 6395   2.611   3.277   0.798
 1832SOL    HW2 6396   2.551   3.401   0.710
 1833SOL     OW 6397   4.940   0.358   1.476
 1833SOL    HW1 6398   4.849   0.333   1.441
 1833SOL    HW2 6399   4.999   0.278   1.476
 1834SOL     OW 6400   2.302   2.925   0.186
 1834SOL    HW1 6401   2.322   3.018   0.155
 1834SOL    HW2 6402   2.348   2.907   0.272
 1835SOL     OW 6403   0.173   5.104   1.448
 1835SOL    HW1 6404   0.117   5.128   1.527
 1835SOL    HW2 6405   0.210   5.011   1.460
 1836SOL     OW 6406   5.616   1.815   1.376
 1836SOL    HW1 6407   5.617   1.914   1.367
 1836SOL    HW2 6408   5.524   1.780   1.359
 1837SOL     OW 6409   2.952   1.710   6.340
 1837SOL    HW1 6410   2.893   1.629   6.350
 1837SOL    HW2 6411   2.975   1.745   6.431
 1838SOL     OW 6412   6.162   1.361   0.816
 1838SOL    HW1 6413   6.063   1.349   0.823
 1838SOL    HW2 6414   6.186   1.371   0.719
 1839SOL     OW 6415   5.444   1.394   6.893
 1839SOL    HW1 6416   5.378   1.360   6.825
 1839SOL    HW2 6417   5.537   1.379   6.859
 1840SOL     OW 6418   4.076   6.916   2.842
 1840SOL    HW1 6419   4.014   6.933   2.766
 1840SOL    HW2 6420   4.104   6.820   2.842
 1841SOL     OW 6421   2.370   1.045   2.255
 1841SOL    HW1 6422   2.401   1.135   2.224
 1841SOL    HW2 6423   2.442   1.003   2.311
 1842SOL     OW 6424   1.926   5.091   0.549
 1842SOL    HW1 6425   2.005   5.149   0.525
 1842SOL    HW2 6426   1.884   5.056   0.465
 1843SOL     OW 6427   3.063   1.341   4.560
 1843SOL    HW1 6428   3.082   1.377   4.468
 1843SOL    HW2 6429   3.085   1.411   4.628
 1844SOL     OW 6430   4.820   1.653   6.625
 1844SOL    HW1 6431   4.783   1.670   6.716
 1844SOL    HW2 6432   4.836   1.740   6.579
 1845SOL     OW 6433   2.204   1.418   3.543
 1845SOL    HW1 6434   2.186   1.390   3.449
 1845SOL    HW2 6435   2.207   1.518   3.548
 1846SOL     OW 6436   4.225   1.400   2.550
 1846SOL    HW1 6437   4.218   1.344   2.467
 1846SOL    HW2 6438   4.318   1.392   2.587
 1847SOL     OW 6439   2.004   0.347   4.656
 1847SOL    HW1 6440   2.067   0.275   4.686
 1847SOL    HW2 6441   2.025   0.374   4.562
 1848SOL     OW 6442   2.222   5.627   4.335
 1848SOL    HW1 6443   2.303   5.569   4.330
 1848SOL    HW2 6444   2.148   5.577   4.380
 1849SOL     OW 6445   4.650   2.456   2.187
 1849SOL    HW1 6446   4.577   2.460   2.256
 1849SOL    HW2 6447   4.673   2.549   2.159
 1850SOL     OW 6448   5.202   2.124   2.172
 1850SOL    HW1 6449   5.180   2.026   2.176
 1850SOL    HW2 6450   5.119   2.176   2.148
 1851SOL     OW 6451   6.786   3.227   5.575
 1851SOL    HW1 6452   6.856   3.172   5.529
 1851SOL    HW2 6453   6.789   3.320   5.540
 1852SOL     OW 6454   1.509   5.203   1.794
 1852SOL    HW1 6455   1.540   5.193   1.888
 1852SOL    HW2 6456   1.411   5.224   1.793
 1853SOL     OW 6457   0.815   2.875   4.900
 1853SOL    HW1 6458   0.836   2.918   4.812
 1853SOL    HW2 6459   0.719   2.848   4.903
 1854SOL     OW 6460   0.558   6.003   3.267
 1854SOL    HW1 6461   0.510   5.961   3.345
 1854SOL    HW2 6462   0.506   6.083   3.236
 1855SOL     OW 6463   4.963   3.351   5.044
 1855SOL    HW1 6464   4.890   3.420   5.043
 1855SOL    HW2 6465   4.922   3.260   5.053
 1856SOL     OW 6466   3.693   2.992   0.062
 1856SOL    HW1 6467   3.690   2.892   0.055
 1856SOL    HW2 6468   3.658   3.020   0.151
 1857SOL     OW 6469   5.041   0.631   0.234
 1857SOL    HW1 6470   5.021   0.543   0.276
 1857SOL    HW2 6471   5.121   0.621   0.174
 1858SOL     OW 6472   4.451   2.438   4.254
 1858SOL    HW1 6473   4.512   2.359   4.243
 1858SOL    HW2 6474   4.458   2.473   4.347
 1859SOL     OW 6475   5.488   2.204   4.435
 1859SOL    HW1 6476   5.488   2.270   4.510
 1859SOL    HW2 6477   5.413   2.139   4.449
 1860SOL     OW 6478   1.339   1.517   5.049
 1860SOL    HW1 6479   1.292   1.465   4.977
 1860SOL    HW2 6480   1.333   1.614   5.030
 1861SOL     OW 6481   6.626   0.392   3.163
 1861SOL    HW1 6482   6.629   0.294   3.182
 1861SOL    HW2 6483   6.573   0.439   3.234
 1862SOL     OW 6484   2.339   6.446   6.552
 1862SOL    HW1 6485   2.351   6.530   6.499
 1862SOL    HW2 6486   2.383   6.456   6.641
 1863SOL     OW 6487   0.132   3.215   1.389
 1863SOL    HW1 6488   0.143   3.214   1.290
 1863SOL    HW2 6489   0.166   3.301   1.426
 1864SOL     OW 6490   3.106   6.121   2.887
 1864SOL    HW1 6491   3.174   6.136   2.960
 1864SOL    HW2 6492   3.030   6.184   2.900
 1865SOL     OW 6493   5.187   1.588   6.324
 1865SOL    HW1 6494   5.207   1.523   6.397
 1865SOL    HW2 6495   5.256   1.661   6.325
 1866SOL     OW 6496   0.694   4.707   3.641
 1866SOL    HW1 6497   0.681   4.612   3.612
 1866SOL    HW2 6498   0.644   4.723   3.726
 1867SOL     OW 6499   2.674   2.406   1.145
 1867SOL    HW1 6500   2.736   2.482   1.163
 1867SOL    HW2 6501   2.586   2.424   1.190
 1868SOL     OW 6502   5.754   4.656   5.728
 1868SOL    HW1 6503   5.807   4.577   5.698
 1868SOL    HW2 6504   5.740   4.651   5.827
 1869SOL     OW 6505   4.636   2.242   4.228
 1869SOL    HW1 6506   4.625   2.240   4.129
 1869SOL    HW2 6507   4.634   2.149   4.264
 1870SOL     OW 6508   1.322   4.720   4.030
 1870SOL    HW1 6509   1.311   4.774   4.113
 1870SOL    HW2 6510   1.416   4.730   3.996
 1871SOL     OW 6511   0.973   6.358   0.059
 1871SOL    HW1 6512   0.873   6.359   0.048
 1871SOL    HW2 6513   0.998   6.290   0.127
 1872SOL     OW 6514   2.881   2.476   0.880
 1872SOL    HW1 6515   2.814   2.442   0.947
 1872SOL    HW2 6516   2.889   2.575   0.889
 1873SOL     OW 6517   6.662   1.040   0.003
 1873SOL    HW1 6518   6.694   0.972   6.965
 1873SOL    HW2 6519   6.562   1.040   0.004
 1874SOL     OW 6520   1.395   6.012   0.027
 1874SOL    HW1 6521   1.441   5.924   0.018
 1874SOL    HW2 6522   1.341   6.031   6.973
 1875SOL     OW 6523   6.083   5.231   6.866
 1875SOL    HW1 6524   6.087   5.297   6.792
 1875SOL    HW2 6525   5.989   5.223   6.900
 1876SOL     OW 6526   6.413   6.113   6.379
 1876SOL    HW1 6527   6.449   6.206   6.389
 1876SOL    HW2 6528   6.478   6.048   6.419
 1877SOL     OW 6529   0.333   1.098   2.181
 1877SOL    HW1 6530   0.322   1.134   2.274
 1877SOL    HW2 6531   0.262   1.137   2.122
 1878SOL     OW 6532   0.365   4.591   3.484
 1878SOL    HW1 6533   0.396   4.643   3.563
 1878SOL    HW2 6534   0.406   4.630   3.401
 1879SOL     OW 6535   3.546   5.465   5.164
 1879SOL    HW1 6536   3.635   5.501   5.134
 1879SOL    HW2 6537   3.557   5.370   5.191
 1880SOL     OW 6538   0.087   2.062   3.238
 1880SOL    HW1 6539   0.127   1.970   3.235
 1880SOL    HW2 6540   0.052   2.086   3.147
 1881SOL     OW 6541   0.998   1.761   3.963
 1881SOL    HW1 6542   0.899   1.756   3.948
 1881SOL    HW2 6543   1.041   1.677   3.929
 1882SOL     OW 6544   1.489   5.423   0.092
 1882SOL    HW1 6545   1.440   5.505   0.122
 1882SOL    HW2 6546   1.565   5.405   0.153
 1883SOL     OW 6547   1.386   3.035   3.099
 1883SOL    HW1 6548   1.362   3.117   3.151
 1883SOL    HW2 6549   1.478   3.046   3.060
 1884SOL     OW 6550   2.852   0.986   0.574
 1884SOL    HW1 6551   2.780   1.049   0.545
 1884SOL    HW2 6552   2.842   0.899   0.525
 1885SOL     OW 6553   0.353   2.493   0.981
 1885SOL    HW1 6554   0.447   2.478   1.011
 1885SOL    HW2 6555   0.297   2.520   1.060
 1886SOL     OW 6556   2.462   2.454   0.060
 1886SOL    HW1 6557   2.484   2.551   0.054
 1886SOL    HW2 6558   2.378   2.435   0.009
 1887SOL     OW 6559   1.531   5.852   5.706
 1887SOL    HW1 6560   1.565   5.801   5.627
 1887SOL    HW2 6561   1.499   5.942   5.677
 1888SOL     OW 6562   1.903   1.927   6.446
 1888SOL    HW1 6563   1.954   2.009   6.419
 1888SOL    HW2 6564   1.830   1.953   6.508
 1889SOL     OW 6565   4.591   3.158   0.199
 1889SOL    HW1 6566   4.597   3.188   0.294
 1889SOL    HW2 6567   4.656   3.209   0.143
 1890SOL     OW 6568   0.269   5.988   6.039
 1890SOL    HW1 6569   0.246   6.036   6.124
 1890SOL    HW2 6570   0.262   5.890   6.053
 1891SOL     OW 6571   5.740   3.317   5.675
 1891SOL    HW1 6572   5.777   3.376   5.603
 1891SOL    HW2 6573   5.713   3.229   5.636
 1892SOL     OW 6574   3.526   5.222   1.689
 1892SOL    HW1 6575   3.428   5.240   1.681
 1892SOL    HW2 6576   3.540   5.129   1.722
 1893SOL     OW 6577   3.895   2.147   4.085
 1893SOL    HW1 6578   3.863   2.205   4.010
 1893SOL    HW2 6579   3.828   2.076   4.104
 1894SOL     OW 6580   4.629   3.843   1.204
 1894SOL    HW1 6581   4.720   3.816   1.238
 1894SOL    HW2 6582   4.568   3.857   1.281
 1895SOL     OW 6583   6.238   0.864   3.262
 1895SOL    HW1 6584   6.321   0.836   3.311
 1895SOL    HW2 6585   6.184   0.783   3.239
 1896SOL     OW 6586   6.544   1.431   4.705
 1896SOL    HW1 6587   6.583   1.344   4.674
 1896SOL    HW2 6588   6.600   1.468   4.779
 1897SOL     OW 6589   5.815   4.707   2.424
 1897SOL    HW1 6590   5.862   4.687   2.510
 1897SOL    HW2 6591   5.758   4.789   2.435
 1898SOL     OW 6592   5.157   5.031   1.183
 1898SOL    HW1 6593   5.199   5.051   1.272
 1898SOL    HW2 6594   5.129   5.116   1.139
 1899SOL     OW 6595   0.537   3.013   3.041
 1899SOL    HW1 6596   0.460   2.962   3.078
 1899SOL    HW2 6597   0.580   2.961   2.967
 1900SOL     OW 6598   1.444   5.505   6.055
 1900SOL    HW1 6599   1.390   5.568   5.999
 1900SOL    HW2 6600   1.541   5.525   6.044
 1901SOL     OW 6601   1.839   0.470   0.093
 1901SOL    HW1 6602   1.903   0.400   0.061
 1901SOL    HW2 6603   1.878   0.561   0.076
 1902SOL     OW 6604   0.856   3.043   4.606
 1902SOL    HW1 6605   0.766   3.075   4.576
 1902SOL    HW2 6606   0.915   3.122   4.624
 1903SOL     OW 6607   6.018   3.799   3.028
 1903SOL    HW1 6608   5.997   3.884   3.075
 1903SOL    HW2 6609   6.074   3.741   3.087
 1904SOL     OW 6610   6.665   0.104   4.170
 1904SOL    HW1 6611   6.692   0.045   4.246
 1904SOL    HW2 6612   6.566   0.117   4.171
 1905SOL     OW 6613   0.352   1.880   4.149
 1905SOL    HW1 6614   0.418   1.867   4.223
 1905SOL    HW2 6615   0.398   1.919   4.070
 1906SOL     OW 6616   2.342   0.079   6.526
 1906SOL    HW1 6617   2.425   0.094   6.472
 1906SOL    HW2 6618   2.343   7.017   6.565
 1907SOL     OW 6619   3.073   6.192   3.301
 1907SOL    HW1 6620   3.048   6.251   3.378
 1907SOL    HW2 6621   3.092   6.100   3.335
 1908SOL     OW 6622   3.967   1.629   5.679
 1908SOL    HW1 6623   4.066   1.632   5.681
 1908SOL    HW2 6624   3.937   1.562   5.609
 1909SOL     OW 6625   2.091   4.676   4.609
 1909SOL    HW1 6626   2.161   4.746   4.601
 1909SOL    HW2 6627   2.101   4.628   4.697
 1910SOL     OW 6628   5.681   2.266   6.045
 1910SOL    HW1 6629   5.767   2.317   6.034
 1910SOL    HW2 6630   5.691   2.198   6.117
 1911SOL     OW 6631   6.496   2.512   5.266
 1911SOL    HW1 6632   6.575   2.507   5.327
 1911SOL    HW2 6633   6.447   2.597   5.281
 1912SOL     OW 6634   3.700   6.981   2.355
 1912SOL    HW1 6635   3.654   7.018   2.436
 1912SOL    HW2 6636   3.709   6.882   2.365
 1913SOL     OW 6637   0.881   5.661   5.305
 1913SOL    HW1 6638   0.822   5.580   5.295
 1913SOL    HW2 6639   0.966   5.634   5.351
 1914SOL     OW 6640   2.982   2.339   6.069
 1914SOL    HW1 6641   3.062   2.352   6.010
 1914SOL    HW2 6642   2.914   2.284   6.021
 1915SOL     OW 6643   3.870   0.512   6.015
 1915SOL    HW1 6644   3.786   0.468   6.048
 1915SOL    HW2 6645   3.860   0.611   6.022
 1916SOL     OW 6646   3.123   5.840   2.161
 1916SOL    HW1 6647   3.041   5.832   2.218
 1916SOL    HW2 6648   3.107   5.795   2.073
 1917SOL     OW 6649   2.992   3.787   4.197
 1917SOL    HW1 6650   2.990   3.718   4.126
 1917SOL    HW2 6651   3.045   3.866   4.166
 1918SOL     OW 6652   5.497   6.068   5.805
 1918SOL    HW1 6653   5.482   6.130   5.882
 1918SOL    HW2 6654   5.442   5.985   5.817
 1919SOL     OW 6655   0.661   6.207   2.238
 1919SOL    HW1 6656   0.660   6.258   2.324
 1919SOL    HW2 6657   0.574   6.160   2.226
 1920SOL     OW 6658   0.112   5.662   3.899
 1920SOL    HW1 6659   0.193   5.715   3.875
 1920SOL    HW2 6660   0.054   5.652   3.819
 1921SOL     OW 6661   1.620   5.840   6.590
 1921SOL    HW1 6662   1.645   5.743   6.591
 1921SOL    HW2 6663   1.696   5.893   6.552
 1922SOL     OW 6664   3.802   3.713   1.266
 1922SOL    HW1 6665   3.833   3.716   1.171
 1922SOL    HW2 6666   3.833   3.628   1.308
 1923SOL     OW 6667   1.992   1.173   1.073
 1923SOL    HW1 6668   1.958   1.262   1.042
 1923SOL    HW2 6669   2.031   1.124   0.995
 1924SOL     OW 6670   6.905   3.942   1.928
 1924SOL    HW1 6671   6.956   3.859   1.951
 1924SOL    HW2 6672   6.961   4.022   1.948
 1925SOL     OW 6673   3.579   3.776   1.734
 1925SOL    HW1 6674   3.660   3.833   1.744
 1925SOL    HW2 6675   3.502   3.819   1.780
 1926SOL     OW 6676   1.515   0.336   4.490
 1926SOL    HW1 6677   1.605   0.361   4.527
 1926SOL    HW2 6678   1.486   0.405   4.423
 1927SOL     OW 6679   4.226   3.749   6.902
 1927SOL    HW1 6680   4.181   3.828   6.861
 1927SOL    HW2 6681   4.195   3.665   6.857
 1928SOL     OW 6682   6.235   4.084   5.633
 1928SOL    HW1 6683   6.278   3.997   5.657
 1928SOL    HW2 6684   6.219   4.086   5.534
 1929SOL     OW 6685   1.246   5.861   1.016
 1929SOL    HW1 6686   1.255   5.960   1.007
 1929SOL    HW2 6687   1.190   5.825   0.941
 1930SOL     OW 6688   5.970   4.590   6.116
 1930SOL    HW1 6689   6.045   4.540   6.074
 1930SOL    HW2 6690   5.932   4.536   6.191
 1931SOL     OW 6691   0.991   3.684   3.498
 1931SOL    HW1 6692   0.906   3.713   3.542
 1931SOL    HW2 6693   1.032   3.609   3.550
 1932SOL     OW 6694   4.881   4.093   1.979
 1932SOL    HW1 6695   4.838   4.119   2.066
 1932SOL    HW2 6696   4.825   4.127   1.903
 1933SOL     OW 6697   2.576   4.541   0.590
 1933SOL    HW1 6698   2.505   4.529   0.520
 1933SOL    HW2 6699   2.616   4.453   0.613
 1934SOL     OW 6700   0.926   6.817   5.979
 1934SOL    HW1 6701   0.947   6.915   5.988
 1934SOL    HW2 6702   0.837   6.806   5.934
 1935SOL     OW 6703   2.239   6.923   4.057
 1935SOL    HW1 6704   2.293   7.004   4.078
 1935SOL    HW2 6705   2.277   6.876   3.978
 1936SOL     OW 6706   5.423   6.366   4.665
 1936SOL    HW1 6707   5.324   6.369   4.671
 1936SOL    HW2 6708   5.451   6.337   4.573
 1937SOL     OW 6709   3.933   6.560   1.895
 1937SOL    HW1 6710   3.835   6.539   1.895
 1937SOL    HW2 6711   3.966   6.565   1.801
 1938SOL     OW 6712   4.018   1.296   3.322
 1938SOL    HW1 6713   4.059   1.310   3.412
 1938SOL    HW2 6714   4.005   1.384   3.277
 1939SOL     OW 6715   1.683   1.118   3.995
 1939SOL    HW1 6716   1.662   1.183   3.922
 1939SOL    HW2 6717   1.699   1.167   4.081
 1940SOL     OW 6718   6.784   5.143   0.108
 1940SOL    HW1 6719   6.732   5.227   0.124
 1940SOL    HW2 6720   6.735   5.065   0.144
 1941SOL     OW 6721   6.086   3.645   2.805
 1941SOL    HW1 6722   6.047   3.706   2.874
 1941SOL    HW2 6723   6.186   3.641   2.816
 1942SOL     OW 6724   6.629   5.571   2.478
 1942SOL    HW1 6725   6.686   5.507   2.529
 1942SOL    HW2 6726   6.551   5.598   2.534
 1943SOL     OW 6727   2.316   4.675   2.868
 1943SOL    HW1 6728   2.374   4.704   2.791
 1943SOL    HW2 6729   2.337   4.730   2.948
 1944SOL     OW 6730   5.797   1.318   6.555
 1944SOL    HW1 6731   5.779   1.326   6.457
 1944SOL    HW2 6732   5.859   1.391   6.584
 1945SOL     OW 6733   4.555   5.139   3.262
 1945SOL    HW1 6734   4.462   5.176   3.254
 1945SOL    HW2 6735   4.550   5.039   3.270
 1946SOL     OW 6736   1.596   6.911   0.367
 1946SOL    HW1 6737   1.511   6.898   0.419
 1946SOL    HW2 6738   1.584   6.874   0.275
 1947SOL     OW 6739   5.722   6.848   4.407
 1947SOL    HW1 6740   5.714   6.763   4.458
 1947SOL    HW2 6741   5.650   6.911   4.436
 1948SOL     OW 6742   6.851   5.586   4.014
 1948SOL    HW1 6743   6.827   5.658   4.080
 1948SOL    HW2 6744   6.949   5.590   3.995
 1949SOL     OW 6745   4.466   4.303   6.162
 1949SOL    HW1 6746   4.462   4.303   6.262
 1949SOL    HW2 6747   4.551   4.346   6.132
 1950SOL     OW 6748   3.568   3.416   6.531
 1950SOL    HW1 6749   3.556   3.378   6.623
 1950SOL    HW2 6750   3.519   3.359   6.465
 1951SOL     OW 6751   5.370   1.766   0.097
 1951SOL    HW1 6752   5.347   1.766   0.194
 1951SOL    HW2 6753   5.336   1.851   0.055
 1952SOL     OW 6754   3.846   1.845   1.033
 1952SOL    HW1 6755   3.798   1.882   1.113
 1952SOL    HW2 6756   3.943   1.867   1.039
 1953SOL     OW 6757   0.095   2.272   6.581
 1953SOL    HW1 6758   0.058   2.359   6.614
 1953SOL    HW2 6759   0.133   2.221   6.658
 1954SOL     OW 6760   4.772   1.899   3.662
 1954SOL    HW1 6761   4.705   1.888   3.588
 1954SOL    HW2 6762   4.725   1.896   3.750
 1955SOL     OW 6763   0.844   6.721   2.204
 1955SOL    HW1 6764   0.831   6.796   2.269
 1955SOL    HW2 6765   0.830   6.755   2.111
 1956SOL     OW 6766   5.345   5.839   2.750
 1956SOL    HW1 6767   5.291   5.764   2.710
 1956SOL    HW2 6768   5.294   5.879   2.826
 1957SOL     OW 6769   0.235   5.586   4.631
 1957SOL    HW1 6770   0.313   5.553   4.684
 1957SOL    HW2 6771   0.243   5.555   4.536
 1958SOL     OW 6772   5.187   3.343   5.220
 1958SOL    HW1 6773   5.111   3.370   5.162
 1958SOL    HW2 6774   5.180   3.390   5.308
 1959SOL     OW 6775   1.274   2.478   5.652
 1959SOL    HW1 6776   1.191   2.431   5.621
 1959SOL    HW2 6777   1.263   2.576   5.639
 1960SOL     OW 6778   6.181   5.186   0.517
 1960SOL    HW1 6779   6.194   5.228   0.607
 1960SOL    HW2 6780   6.265   5.140   0.489
 1961SOL     OW 6781   5.831   4.773   3.835
 1961SOL    HW1 6782   5.834   4.859   3.885
 1961SOL    HW2 6783   5.902   4.712   3.869
 1962SOL     OW 6784   1.232   6.100   3.289
 1962SOL    HW1 6785   1.195   6.177   3.341
 1962SOL    HW2 6786   1.225   6.119   3.191
 1963SOL     OW 6787   0.547   0.381   2.398
 1963SOL    HW1 6788   0.451   0.396   2.423
 1963SOL    HW2 6789   0.607   0.417   2.469
 1964SOL     OW 6790   4.728   2.797   1.828
 1964SOL    HW1 6791   4.639   2.785   1.783
 1964SOL    HW2 6792   4.751   2.894   1.831
 1965SOL     OW 6793   0.164   3.673   2.228
 1965SOL    HW1 6794   0.170   3.772   2.225
 1965SOL    HW2 6795   0.213   3.639   2.308
 1966SOL     OW 6796   7.009   5.151   4.442
 1966SOL    HW1 6797   0.007   5.187   4.353
 1966SOL    HW2 6798   6.914   5.177   4.461
 1967SOL     OW 6799   5.514   2.838   6.090
 1967SOL    HW1 6800   5.495   2.936   6.093
 1967SOL    HW2 6801   5.501   2.804   5.996
 1968SOL     OW 6802   2.886   5.450   0.023
 1968SOL    HW1 6803   2.800   5.478   0.066
 1968SOL    HW2 6804   2.962   5.468   0.086
 1969SOL     OW 6805   0.183   2.756   1.721
 1969SOL    HW1 6806   0.213   2.797   1.807
 1969SOL    HW2 6807   0.129   2.823   1.669
 1970SOL     OW 6808   1.224   0.695   6.073
 1970SOL    HW1 6809   1.147   0.699   6.137
 1970SOL    HW2 6810   1.211   0.765   6.002
 1971SOL     OW 6811   0.133   0.216   6.220
 1971SOL    HW1 6812   0.223   0.224   6.263
 1971SOL    HW2 6813   0.063   0.248   6.283
 1972SOL     OW 6814   0.982   3.663   3.960
 1972SOL    HW1 6815   1.050   3.710   3.904
 1972SOL    HW2 6816   0.980   3.566   3.936
 1973SOL     OW 6817   3.841   2.884   1.685
 1973SOL    HW1 6818   3.797   2.959   1.734
 1973SOL    HW2 6819   3.788   2.800   1.698
 1974SOL     OW 6820   5.758   6.305   4.707
 1974SOL    HW1 6821   5.673   6.285   4.658
 1974SOL    HW2 6822   5.788   6.398   4.685
 1975SOL     OW 6823   2.175   0.578   4.550
 1975SOL    HW1 6824   2.239   0.593   4.475
 1975SOL    HW2 6825   2.206   0.627   4.631
 1976SOL     OW 6826   0.618   6.099   0.357
 1976SOL    HW1 6827   0.691   6.167   0.365
 1976SOL    HW2 6828   0.570   6.091   0.444
 1977SOL     OW 6829   0.809   2.870   4.300
 1977SOL    HW1 6830   0.839   2.964   4.281
 1977SOL    HW2 6831   0.759   2.869   4.387
 1978SOL     OW 6832   0.742   1.199   4.307
 1978SOL    HW1 6833   0.719   1.204   4.210
 1978SOL    HW2 6834   0.661   1.174   4.359
 1979SOL     OW 6835   0.060   4.421   4.876
 1979SOL    HW1 6836   0.086   4.344   4.818
 1979SOL    HW2 6837   0.140   4.477   4.895
 1980SOL     OW 6838   3.290   0.471   0.708
 1980SOL    HW1 6839   3.278   0.485   0.806
 1980SOL    HW2 6840   3.309   0.374   0.691
 1981SOL     OW 6841   5.494   2.174   2.798
 1981SOL    HW1 6842   5.582   2.191   2.843
 1981SOL    HW2 6843   5.434   2.253   2.812
 1982SOL     OW 6844   6.170   5.315   4.966
 1982SOL    HW1 6845   6.078   5.275   4.962
 1982SOL    HW2 6846   6.235   5.253   4.923
 1983SOL     OW 6847   1.500   2.393   2.997
 1983SOL    HW1 6848   1.423   2.399   3.061
 1983SOL    HW2 6849   1.575   2.344   3.041
 1984SOL     OW 6850   4.526   1.454   6.193
 1984SOL    HW1 6851   4.549   1.401   6.274
 1984SOL    HW2 6852   4.508   1.549   6.220
 1985SOL     OW 6853   0.820   0.945   1.907
 1985SOL    HW1 6854   0.885   0.889   1.958
 1985SOL    HW2 6855   0.771   1.005   1.970
 1986SOL     OW 6856   1.261   1.708   6.925
 1986SOL    HW1 6857   1.257   1.807   6.916
 1986SOL    HW2 6858   1.350   1.675   6.891
 1987SOL     OW 6859   2.693   3.080   1.699
 1987SOL    HW1 6860   2.785   3.052   1.727
 1987SOL    HW2 6861   2.672   3.040   1.609
 1988SOL     OW 6862   4.853   4.231   0.181
 1988SOL    HW1 6863   4.849   4.259   0.085
 1988SOL    HW2 6864   4.810   4.301   0.237
 1989SOL     OW 6865   2.119   0.125   4.746
 1989SOL    HW1 6866   2.033   0.083   4.778
 1989SOL    HW2 6867   2.148   0.080   4.662
 1990SOL     OW 6868   2.795   0.876   1.112
 1990SOL    HW1 6869   2.783   0.842   1.205
 1990SOL    HW2 6870   2.736   0.824   1.050
 1991SOL     OW 6871   3.417   5.692   5.642
 1991SOL    HW1 6872   3.413   5.645   5.554
 1991SOL    HW2 6873   3.401   5.627   5.716
 1992SOL     OW 6874   2.455   6.900   5.475
 1992SOL    HW1 6875   2.477   6.992   5.440
 1992SOL    HW2 6876   2.403   6.851   5.406
 1993SOL     OW 6877   4.033   3.619   5.436
 1993SOL    HW1 6878   4.035   3.717   5.459
 1993SOL    HW2 6879   3.981   3.605   5.352
 1994SOL     OW 6880   0.437   2.073   1.936
 1994SOL    HW1 6881   0.535   2.088   1.953
 1994SOL    HW2 6882   0.420   2.074   1.837
 1995SOL     OW 6883   6.318   2.176   2.015
 1995SOL    HW1 6884   6.396   2.222   2.059
 1995SOL    HW2 6885   6.301   2.089   2.062
 1996SOL     OW 6886   3.801   3.180   0.874
 1996SOL    HW1 6887   3.787   3.233   0.790
 1996SOL    HW2 6888   3.792   3.240   0.953
 1997SOL     OW 6889   5.987   1.103   5.029
 1997SOL    HW1 6890   5.954   1.189   5.066
 1997SOL    HW2 6891   5.910   1.051   4.991
 1998SOL     OW 6892   2.929   3.802   6.435
 1998SOL    HW1 6893   2.996   3.815   6.362
 1998SOL    HW2 6894   2.910   3.704   6.447
 1999SOL     OW 6895   2.136   0.299   2.075
 1999SOL    HW1 6896   2.124   0.242   2.157
 1999SOL    HW2 6897   2.047   0.334   2.047
 2000SOL     OW 6898   4.220   1.653   4.770
 2000SOL    HW1 6899   4.167   1.585   4.719
 2000SOL    HW2 6900   4.168   1.738   4.776
 2001SOL     OW 6901   3.618   1.702   1.541
 2001SOL    HW1 6902   3.631   1.717   1.639
 2001SOL    HW2 6903   3.699   1.734   1.491
 2002SOL     OW 6904   1.892   6.642   6.278
 2002SOL    HW1 6905   1.871   6.705   6.352
 2002SOL    HW2 6906   1.905   6.693   6.193
 2003SOL     OW 6907   5.139   0.293   3.491
 2003SOL    HW1 6908   5.111   0.210   3.442
 2003SOL    HW2 6909   5.167   0.362   3.425
 2004SOL     OW 6910   4.346   1.052   4.487
 2004SOL    HW1 6911   4.254   1.084   4.509
 2004SOL    HW2 6912   4.387   1.113   4.419
 2005SOL     OW 6913   1.840   6.024   6.675
 2005SOL    HW1 6914   1.919   6.065   6.629
 2005SOL    HW2 6915   1.869   5.938   6.719
 2006SOL     OW 6916   4.746   4.171   3.767
 2006SOL    HW1 6917   4.790   4.091   3.806
 2006SOL    HW2 6918   4.759   4.172   3.668
 2007SOL     OW 6919   5.027   5.157   6.955
 2007SOL    HW1 6920   5.125   5.135   6.954
 2007SOL    HW2 6921   4.976   5.083   6.998
 2008SOL     OW 6922   6.468   6.273   3.867
 2008SOL    HW1 6923   6.374   6.308   3.870
 2008SOL    HW2 6924   6.518   6.318   3.793
 2009SOL     OW 6925   6.553   0.268   1.867
 2009SOL    HW1 6926   6.626   0.224   1.919
 2009SOL    HW2 6927   6.495   0.320   1.931
 2010SOL     OW 6928   1.365   1.191   1.186
 2010SOL    HW1 6929   1.406   1.112   1.140
 2010SOL    HW2 6930   1.361   1.269   1.123
 2011SOL     OW 6931   6.680   2.580   5.071
 2011SOL    HW1 6932   6.765   2.564   5.121
 2011SOL    HW2 6933   6.603   2.538   5.120
 2012SOL     OW 6934   1.352   3.830   1.437
 2012SOL    HW1 6935   1.406   3.745   1.441
 2012SOL    HW2 6936   1.315   3.850   1.527
 2013SOL     OW 6937   5.171   1.642   3.192
 2013SOL    HW1 6938   5.131   1.581   3.261
 2013SOL    HW2 6939   5.199   1.727   3.235
 2014SOL     OW 6940   0.856   5.942   3.222
 2014SOL    HW1 6941   0.760   5.920   3.235
 2014SOL    HW2 6942   0.892   5.989   3.303
 2015SOL     OW 6943   3.680   1.193   0.382
 2015SOL    HW1 6944   3.655   1.219   0.475
 2015SOL    HW2 6945   3.603   1.147   0.338
 2016SOL     OW 6946   0.904   5.543   4.166
 2016SOL    HW1 6947   0.949   5.529   4.255
 2016SOL    HW2 6948   0.970   5.529   4.093
 2017SOL     OW 6949   2.854   6.609   3.480
 2017SOL    HW1 6950   2.823   6.518   3.509
 2017SOL    HW2 6951   2.833   6.676   3.551
 2018SOL     OW 6952   6.772   5.526   5.080
 2018SOL    HW1 6953   6.731   5.550   5.168
 2018SOL    HW2 6954   6.703   5.535   5.008
 2019SOL     OW 6955   5.505   2.618   0.947
 2019SOL    HW1 6956   5.465   2.585   0.862
 2019SOL    HW2 6957   5.455   2.699   0.979
 2020SOL     OW 6958   1.481   5.064   4.840
 2020SOL    HW1 6959   1.495   5.163   4.838
 2020SOL    HW2 6960   1.523   5.023   4.759
 2021SOL     OW 6961   1.795   0.570   2.655
 2021SOL    HW1 6962   1.784   0.588   2.752
 2021SOL    HW2 6963   1.727   0.621   2.603
 2022SOL     OW 6964   2.053   3.417   1.735
 2022SOL    HW1 6965   2.142   3.373   1.725
 2022SOL    HW2 6966   2.052   3.472   1.819
 2023SOL     OW 6967   0.050   1.361   6.948
 2023SOL    HW1 6968   0.142   1.397   6.937
 2023SOL    HW2 6969   0.008   1.400   0.001
 2024SOL     OW 6970   6.469   0.746   3.344
 2024SOL    HW1 6971   6.487   0.648   3.346
 2024SOL    HW2 6972   6.555   0.797   3.348
 2025SOL     OW 6973   1.127   1.989   1.665
 2025SOL    HW1 6974   1.217   2.029   1.649
 2025SOL    HW2 6975   1.138   1.901   1.711
 2026SOL     OW 6976   2.065   2.143   6.317
 2026SOL    HW1 6977   2.164   2.151   6.308
 2026SOL    HW2 6978   2.023   2.233   6.308
 2027SOL     OW 6979   0.318   0.818   2.206
 2027SOL    HW1 6980   0.244   0.777   2.153
 2027SOL    HW2 6981   0.321   0.916   2.189
 2028SOL     OW 6982   3.886   1.212   0.893
 2028SOL    HW1 6983   3.939   1.190   0.974
 2028SOL    HW2 6984   3.947   1.213   0.813
 2029SOL     OW 6985   1.141   0.645   6.741
 2029SOL    HW1 6986   1.102   0.689   6.822
 2029SOL    HW2 6987   1.219   0.589   6.767
 2030SOL     OW 6988   2.213   2.466   3.558
 2030SOL    HW1 6989   2.257   2.377   3.570
 2030SOL    HW2 6990   2.115   2.457   3.578
 2031SOL     OW 6991   5.342   5.931   2.080
 2031SOL    HW1 6992   5.302   5.886   2.000
 2031SOL    HW2 6993   5.273   5.987   2.125
 2032SOL     OW 6994   4.997   6.729   1.137
 2032SOL    HW1 6995   4.975   6.655   1.073
 2032SOL    HW2 6996   4.952   6.712   1.224
 2033SOL     OW 6997   4.176   4.795   6.262
 2033SOL    HW1 6998   4.189   4.891   6.287
 2033SOL    HW2 6999   4.165   4.788   6.162
 2034SOL     OW 7000   1.861   6.334   3.559
 2034SOL    HW1 7001   1.869   6.245   3.514
 2034SOL    HW2 7002   1.879   6.406   3.492
 2035SOL     OW 7003   6.701   1.731   2.608
 2035SOL    HW1 7004   6.717   1.693   2.699
 2035SOL    HW2 7005   6.604   1.725   2.585
 2036SOL     OW 7006   0.444   5.758   1.503
 2036SOL    HW1 7007   0.495   5.770   1.588
 2036SOL    HW2 7008   0.392   5.673   1.507
 2037SOL     OW 7009   7.013   2.209   5.626
 2037SOL    HW1 7010   0.024   2.167   5.544
 2037SOL    HW2 7011   0.044   2.281   5.659
 2038SOL     OW 7012   1.266   1.744   6.085
 2038SOL    HW1 7013   1.196   1.717   6.019
 2038SOL    HW2 7014   1.273   1.844   6.088
 2039SOL     OW 7015   0.138   6.007   3.709
 2039SOL    HW1 7016   0.220   6.061   3.725
 2039SOL    HW2 7017   0.082   6.007   3.792
 2040SOL     OW 7018   3.425   2.955   3.947
 2040SOL    HW1 7019   3.400   3.039   3.996
 2040SOL    HW2 7020   3.389   2.959   3.854
 2041SOL     OW 7021   5.961   5.413   6.015
 2041SOL    HW1 7022   5.890   5.349   5.983
 2041SOL    HW2 7023   5.973   5.402   6.114
 2042SOL     OW 7024   5.741   5.367   0.798
 2042SOL    HW1 7025   5.757   5.271   0.776
 2042SOL    HW2 7026   5.705   5.375   0.891
 2043SOL     OW 7027   6.253   5.359   2.161
 2043SOL    HW1 7028   6.338   5.364   2.108
 2043SOL    HW2 7029   6.208   5.449   2.159
 2044SOL     OW 7030   5.941   6.991   2.035
 2044SOL    HW1 7031   5.896   6.970   1.948
 2044SOL    HW2 7032   5.946   0.061   2.047
 2045SOL     OW 7033   2.056   4.785   5.509
 2045SOL    HW1 7034   2.081   4.752   5.418
 2045SOL    HW2 7035   2.076   4.882   5.516
 2046SOL     OW 7036   6.975   0.503   4.655
 2046SOL    HW1 7037   0.008   0.505   4.734
 2046SOL    HW2 7038   7.015   0.445   4.584
 2047SOL     OW 7039   4.549   2.099   1.070
 2047SOL    HW1 7040   4.518   2.125   1.161
 2047SOL    HW2 7041   4.475   2.054   1.020
 2048SOL     OW 7042   3.489   6.479   0.151
 2048SOL    HW1 7043   3.540   6.565   0.163
 2048SOL    HW2 7044   3.525   6.430   0.072
 2049SOL     OW 7045   4.616   2.168   6.454
 2049SOL    HW1 7046   4.554   2.173   6.532
 2049SOL    HW2 7047   4.683   2.095   6.469
 2050SOL     OW 7048   6.121   3.184   3.645
 2050SOL    HW1 7049   6.209   3.220   3.676
 2050SOL    HW2 7050   6.049   3.251   3.665
 2051SOL     OW 7051   0.394   5.053   6.629
 2051SOL    HW1 7052   0.336   5.114   6.683
 2051SOL    HW2 7053   0.343   4.971   6.606
 2052SOL     OW 7054   0.436   3.445   0.023
 2052SOL    HW1 7055   0.505   3.456   6.980
 2052SOL    HW2 7056   0.346   3.432   7.009
 2053SOL     OW 7057   6.050   0.193   0.286
 2053SOL    HW1 7058   6.023   0.236   0.372
 2053SOL    HW2 7059   6.141   0.225   0.259
 2054SOL     OW 7060   5.916   2.771   1.030
 2054SOL    HW1 7061   5.850   2.701   1.058
 2054SOL    HW2 7062   5.990   2.775   1.097
 2055SOL     OW 7063   5.472   2.797   3.169
 2055SOL    HW1 7064   5.541   2.855   3.124
 2055SOL    HW2 7065   5.476   2.705   3.131
 2056SOL     OW 7066   2.047   1.569   2.804
 2056SOL    HW1 7067   1.987   1.592   2.880
 2056SOL    HW2 7068   2.034   1.636   2.731
 2057SOL     OW 7069   5.584   2.207   3.961
 2057SOL    HW1 7070   5.647   2.147   3.912
 2057SOL    HW2 7071   5.565   2.169   4.052
 2058SOL     OW 7072   0.795   1.704   3.136
 2058SOL    HW1 7073   0.723   1.763   3.175
 2058SOL    HW2 7074   0.859   1.761   3.085
 2059SOL     OW 7075   2.543   7.021   0.077
 2059SOL    HW1 7076   2.533   7.013   7.007
 2059SOL    HW2 7077   2.571   6.933   0.115
 2060SOL     OW 7078   6.973   4.270   1.226
 2060SOL    HW1 7079   6.990   4.357   1.272
 2060SOL    HW2 7080   7.007   4.195   1.284
 2061SOL     OW 7081   0.260   1.311   2.364
 2061SOL    HW1 7082   0.352   1.310   2.403
 2061SOL    HW2 7083   0.209   1.387   2.402
 2062SOL     OW 7084   5.126   6.987   2.946
 2062SOL    HW1 7085   5.056   0.012   2.900
 2062SOL    HW2 7086   5.083   6.927   3.013
 2063SOL     OW 7087   1.124   1.073   6.857
 2063SOL    HW1 7088   1.037   1.122   6.861
 2063SOL    HW2 7089   1.199   1.138   6.849
 2064SOL     OW 7090   0.767   2.426   5.987
 2064SOL    HW1 7091   0.702   2.448   5.914
 2064SOL    HW2 7092   0.772   2.503   6.051
 2065SOL     OW 7093   5.858   3.519   2.256
 2065SOL    HW1 7094   5.937   3.554   2.206
 2065SOL    HW2 7095   5.839   3.425   2.225
 2066SOL     OW 7096   0.643   5.474   4.480
 2066SOL    HW1 7097   0.664   5.571   4.484
 2066SOL    HW2 7098   0.644   5.435   4.572
 2067SOL     OW 7099   6.921   6.504   0.671
 2067SOL    HW1 7100   7.017   6.509   0.643
 2067SOL    HW2 7101   6.863   6.494   0.589
 2068SOL     OW 7102   2.049   1.286   5.575
 2068SOL    HW1 7103   1.985   1.362   5.580
 2068SOL    HW2 7104   2.071   1.266   5.479
 2069SOL     OW 7105   0.728   2.738   2.476
 2069SOL    HW1 7106   0.680   2.773   2.395
 2069SOL    HW2 7107   0.733   2.638   2.471
 2070SOL     OW 7108   1.677   0.349   2.171
 2070SOL    HW1 7109   1.578   0.363   2.163
 2070SOL    HW2 7110   1.722   0.379   2.088
 2071SOL     OW 7111   0.649   6.644   4.392
 2071SOL    HW1 7112   0.643   6.742   4.375
 2071SOL    HW2 7113   0.653   6.627   4.491
 2072SOL     OW 7114   4.780   5.899   1.809
 2072SOL    HW1 7115   4.786   5.800   1.800
 2072SOL    HW2 7116   4.754   5.922   1.903
 2073SOL     OW 7117   3.689   6.810   4.427
 2073SOL    HW1 7118   3.774   6.841   4.469
 2073SOL    HW2 7119   3.711   6.746   4.353
 2074SOL     OW 7120   0.428   2.057   6.677
 2074SOL    HW1 7121   0.366   2.046   6.600
 2074SOL    HW2 7122   0.428   1.973   6.732
 2075SOL     OW 7123   4.803   3.120   1.484
 2075SOL    HW1 7124   4.894   3.161   1.488
 2075SOL    HW2 7125   4.794   3.064   1.402
 2076SOL     OW 7126   5.621   6.143   6.982
 2076SOL    HW1 7127   5.596   6.240   6.980
 2076SOL    HW2 7128   5.651   6.114   6.891
 2077SOL     OW 7129   5.353   2.458   2.098
 2077SOL    HW1 7130   5.323   2.364   2.112
 2077SOL    HW2 7131   5.411   2.486   2.174
 2078SOL     OW 7132   2.530   6.009   6.353
 2078SOL    HW1 7133   2.580   5.991   6.268
 2078SOL    HW2 7134   2.497   6.103   6.353
 2079SOL     OW 7135   5.520   1.115   3.757
 2079SOL    HW1 7136   5.472   1.183   3.703
 2079SOL    HW2 7137   5.570   1.053   3.696
 2080SOL     OW 7138   2.517   1.457   4.848
 2080SOL    HW1 7139   2.459   1.395   4.794
 2080SOL    HW2 7140   2.485   1.459   4.942
 2081SOL     OW 7141   1.403   5.859   5.257
 2081SOL    HW1 7142   1.353   5.886   5.339
 2081SOL    HW2 7143   1.359   5.899   5.177
 2082SOL     OW 7144   5.978   0.497   1.724
 2082SOL    HW1 7145   6.021   0.407   1.711
 2082SOL    HW2 7146   5.882   0.484   1.748
 2083SOL     OW 7147   4.009   4.484   6.623
 2083SOL    HW1 7148   4.078   4.540   6.577
 2083SOL    HW2 7149   4.011   4.391   6.586
 2084SOL     OW 7150   0.089   3.257   3.891
 2084SOL    HW1 7151   0.097   3.159   3.912
 2084SOL    HW2 7152   0.029   3.269   3.813
 2085SOL     OW 7153   5.350   1.126   6.815
 2085SOL    HW1 7154   5.263   1.147   6.859
 2085SOL    HW2 7155   5.371   1.029   6.828
 2086SOL     OW 7156   2.813   5.746   6.320
 2086SOL    HW1 7157   2.801   5.837   6.281
 2086SOL    HW2 7158   2.904   5.712   6.298
 2087SOL     OW 7159   4.743   6.304   1.728
 2087SOL    HW1 7160   4.829   6.274   1.770
 2087SOL    HW2 7161   4.679   6.331   1.799
 2088SOL     OW 7162   3.185   5.873   0.666
 2088SOL    HW1 7163   3.273   5.847   0.705
 2088SOL    HW2 7164   3.178   5.839   0.572
 2089SOL     OW 7165   4.180   1.249   0.152
 2089SOL    HW1 7166   4.128   1.304   0.087
 2089SOL    HW2 7167   4.276   1.247   0.126
 2090SOL     OW 7168   4.144   3.335   4.408
 2090SOL    HW1 7169   4.116   3.398   4.336
 2090SOL    HW2 7170   4.166   3.246   4.367
 2091SOL     OW 7171   0.592   6.258   0.043
 2091SOL    HW1 7172   0.502   6.248   0.086
 2091SOL    HW2 7173   0.655   6.191   0.081
 2092SOL     OW 7174   5.282   5.829   0.514
 2092SOL    HW1 7175   5.334   5.880   0.446
 2092SOL    HW2 7176   5.302   5.864   0.605
 2093SOL     OW 7177   1.276   1.773   1.760
 2093SOL    HW1 7178   1.328   1.705   1.708
 2093SOL    HW2 7179   1.333   1.809   1.833
 2094SOL     OW 7180   5.913   1.222   1.694
 2094SOL    HW1 7181   6.002   1.186   1.721
 2094SOL    HW2 7182   5.924   1.289   1.621
 2095SOL     OW 7183   5.848   0.280   3.930
 2095SOL    HW1 7184   5.878   0.200   3.879
 2095SOL    HW2 7185   5.785   0.252   4.003
 2096SOL     OW 7186   4.802   4.108   2.788
 2096SOL    HW1 7187   4.783   4.043   2.861
 2096SOL    HW2 7188   4.851   4.061   2.714
 2097SOL     OW 7189   1.230   3.120   6.242
 2097SOL    HW1 7190   1.260   3.176   6.165
 2097SOL    HW2 7191   1.226   3.024   6.213
 2098SOL     OW 7192   3.639   5.969   3.756
 2098SOL    HW1 7193   3.616   5.959   3.659
 2098SOL    HW2 7194   3.717   5.911   3.778
 2099SOL     OW 7195   2.192   1.676   4.896
 2099SOL    HW1 7196   2.092   1.680   4.897
 2099SOL    HW2 7197   2.222   1.594   4.847
 2100SOL     OW 7198   3.707   3.597   6.396
 2100SOL    HW1 7199   3.708   3.550   6.308
 2100SOL    HW2 7200   3.659   3.540   6.463
 2101SOL     OW 7201   1.025   6.553   2.031
 2101SOL    HW1 7202   0.968   6.588   2.106
 2101SOL    HW2 7203   0.979   6.475   1.987
 2102SOL     OW 7204   0.602   5.054   1.887
 2102SOL    HW1 7205   0.541   5.077   1.811
 2102SOL    HW2 7206   0.550   5.013   1.962
 2103SOL     OW 7207   2.560   3.814   0.046
 2103SOL    HW1 7208   2.479   3.871   0.059
 2103SOL    HW2 7209   2.634   3.870   0.009
 2104SOL     OW 7210   1.571   3.830   6.815
 2104SOL    HW1 7211   1.615   3.768   6.749
 2104SOL    HW2 7212   1.634   3.847   6.891
 2105SOL     OW 7213   5.219   5.163   3.677
 2105SOL    HW1 7214   5.301   5.121   3.717
 2105SOL    HW2 7215   5.145   5.163   3.744
 2106SOL     OW 7216   4.028   5.630   0.419
 2106SOL    HW1 7217   4.124   5.611   0.399
 2106SOL    HW2 7218   3.970   5.561   0.376
 2107SOL     OW 7219   4.297   3.286   5.553
 2107SOL    HW1 7220   4.278   3.267   5.457
 2107SOL    HW2 7221   4.380   3.238   5.581
 2108SOL     OW 7222   6.258   6.152   5.721
 2108SOL    HW1 7223   6.350   6.166   5.756
 2108SOL    HW2 7224   6.196   6.132   5.797
 2109SOL     OW 7225   5.056   6.904   3.572
 2109SOL    HW1 7226   4.994   6.831   3.598
 2109SOL    HW2 7227   5.059   6.973   3.644
 2110SOL     OW 7228   3.015   3.776   5.994
 2110SOL    HW1 7229   3.056   3.764   6.085
 2110SOL    HW2 7230   2.993   3.687   5.955
 2111SOL     OW 7231   0.566   1.899   6.446
 2111SOL    HW1 7232   0.521   1.912   6.534
 2111SOL    HW2 7233   0.641   1.833   6.456
 2112SOL     OW 7234   4.528   1.825   1.541
 2112SOL    HW1 7235   4.436   1.801   1.570
 2112SOL    HW2 7236   4.559   1.905   1.592
 2113SOL     OW 7237   1.107   0.119   4.166
 2113SOL    HW1 7238   1.175   0.132   4.238
 2113SOL    HW2 7239   1.116   0.028   4.127
 2114SOL     OW 7240   1.498   2.949   0.599
 2114SOL    HW1 7241   1.409   2.912   0.624
 2114SOL    HW2 7242   1.507   2.949   0.499
 2115SOL     OW 7243   2.062   4.011   2.801
 2115SOL    HW1 7244   1.982   4.020   2.860
 2115SOL    HW2 7245   2.123   4.089   2.814
 2116SOL     OW 7246   6.970   4.033   3.349
 2116SOL    HW1 7247   0.032   4.044   3.387
 2116SOL    HW2 7248   6.971   4.058   3.252
 2117SOL     OW 7249   6.768   4.632   1.790
 2117SOL    HW1 7250   6.714   4.635   1.706
 2117SOL    HW2 7251   6.708   4.612   1.868
 2118SOL     OW 7252   0.286   3.357   2.767
 2118SOL    HW1 7253   0.285   3.299   2.686
 2118SOL    HW2 7254   0.271   3.300   2.849
 2119SOL     OW 7255   2.201   5.607   0.825
 2119SOL    HW1 7256   2.137   5.660   0.770
 2119SOL    HW2 7257   2.196   5.639   0.920
 2120SOL     OW 7258   0.005   5.327   3.246
 2120SOL    HW1 7259   0.009   5.426   3.245
 2120SOL    HW2 7260   0.017   5.294   3.340
 2121SOL     OW 7261   1.309   4.514   5.614
 2121SOL    HW1 7262   1.315   4.520   5.713
 2121SOL    HW2 7263   1.255   4.591   5.579
 2122SOL     OW 7264   6.342   4.116   5.188
 2122SOL    HW1 7265   6.437   4.110   5.219
 2122SOL    HW2 7266   6.322   4.211   5.161
 2123SOL     OW 7267   0.421   4.400   2.764
 2123SOL    HW1 7268   0.335   4.361   2.729
 2123SOL    HW2 7269   0.410   4.423   2.861
 2124SOL     OW 7270   2.121   1.229   1.546
 2124SOL    HW1 7271   2.190   1.173   1.501
 2124SOL    HW2 7272   2.051   1.170   1.586
 2125SOL     OW 7273   1.433   0.502   0.794
 2125SOL    HW1 7274   1.418   0.403   0.801
 2125SOL    HW2 7275   1.398   0.535   0.706
 2126SOL     OW 7276   2.975   0.572   1.101
 2126SOL    HW1 7277   2.978   0.487   1.049
 2126SOL    HW2 7278   2.894   0.624   1.074
 2127SOL     OW 7279   6.235   3.209   4.640
 2127SOL    HW1 7280   6.333   3.225   4.654
 2127SOL    HW2 7281   6.193   3.291   4.603
 2128SOL     OW 7282   0.176   4.362   4.366
 2128SOL    HW1 7283   0.105   4.397   4.304
 2128SOL    HW2 7284   0.180   4.420   4.447
 2129SOL     OW 7285   4.438   2.864   5.687
 2129SOL    HW1 7286   4.405   2.782   5.640
 2129SOL    HW2 7287   4.366   2.932   5.691
 2130SOL     OW 7288   4.847   6.739   2.715
 2130SOL    HW1 7289   4.799   6.825   2.734
 2130SOL    HW2 7290   4.944   6.749   2.738
 2131SOL     OW 7291   7.006   0.954   0.854
 2131SOL    HW1 7292   0.033   1.029   0.889
 2131SOL    HW2 7293   0.036   0.882   0.819
 2132SOL     OW 7294   4.248   3.011   1.280
 2132SOL    HW1 7295   4.344   2.987   1.266
 2132SOL    HW2 7296   4.202   2.936   1.329
 2133SOL     OW 7297   2.983   2.349   5.401
 2133SOL    HW1 7298   3.047   2.364   5.326
 2133SOL    HW2 7299   2.893   2.383   5.376
 2134SOL     OW 7300   0.086   2.023   0.874
 2134SOL    HW1 7301   0.117   1.951   0.812
 2134SOL    HW2 7302   0.163   2.052   0.932
 2135SOL     OW 7303   0.423   4.332   4.243
 2135SOL    HW1 7304   0.426   4.412   4.184
 2135SOL    HW2 7305   0.356   4.347   4.316
 2136SOL     OW 7306   2.794   5.054   2.486
 2136SOL    HW1 7307   2.731   5.126   2.517
 2136SOL    HW2 7308   2.888   5.085   2.497
 2137SOL     OW 7309   3.107   5.034   5.163
 2137SOL    HW1 7310   3.145   5.119   5.199
 2137SOL    HW2 7311   3.066   5.052   5.073
 2138SOL     OW 7312   6.305   0.841   2.911
 2138SOL    HW1 7313   6.401   0.834   2.938
 2138SOL    HW2 7314   6.299   0.877   2.818
 2139SOL     OW 7315   3.903   0.564   4.539
 2139SOL    HW1 7316   3.962   0.608   4.606
 2139SOL    HW2 7317   3.854   0.633   4.487
 2140SOL     OW 7318   3.464   6.945   4.540
 2140SOL    HW1 7319   3.558   6.914   4.524
 2140SOL    HW2 7320   3.439   7.013   4.470
 2141SOL     OW 7321   6.567   3.616   2.395
 2141SOL    HW1 7322   6.472   3.613   2.362
 2141SOL    HW2 7323   6.584   3.536   2.453
 2142SOL     OW 7324   0.957   1.843   3.474
 2142SOL    HW1 7325   0.970   1.767   3.410
 2142SOL    HW2 7326   1.044   1.865   3.518
 2143SOL     OW 7327   2.079   5.346   1.067
 2143SOL    HW1 7328   1.994   5.296   1.086
 2143SOL    HW2 7329   2.088   5.359   0.968
 2144SOL     OW 7330   0.341   5.107   4.279
 2144SOL    HW1 7331   0.363   5.073   4.187
 2144SOL    HW2 7332   0.241   5.118   4.287
 2145SOL     OW 7333   3.970   6.688   4.183
 2145SOL    HW1 7334   4.024   6.696   4.267
 2145SOL    HW2 7335   3.873   6.693   4.204
 2146SOL     OW 7336   1.957   2.085   1.066
 2146SOL    HW1 7337   1.952   2.119   0.972
 2146SOL    HW2 7338   2.010   2.149   1.121
 2147SOL     OW 7339   6.755   1.557   6.176
 2147SOL    HW1 7340   6.827   1.493   6.149
 2147SOL    HW2 7341   6.665   1.517   6.154
 2148SOL     OW 7342   7.007   3.431   6.200
 2148SOL    HW1 7343   6.954   3.346   6.194
 2148SOL    HW2 7344   6.945   3.509   6.205
 2149SOL     OW 7345   1.423   1.475   1.295
 2149SOL    HW1 7346   1.440   1.391   1.346
 2149SOL    HW2 7347   1.475   1.473   1.210
 2150SOL     OW 7348   2.747   2.543   1.738
 2150SOL    HW1 7349   2.662   2.532   1.790
 2150SOL    HW2 7350   2.822   2.499   1.787
 2151SOL     OW 7351   0.938   6.101   6.869
 2151SOL    HW1 7352   1.024   6.052   6.857
 2151SOL    HW2 7353   0.939   6.184   6.814
 2152SOL     OW 7354   3.674   4.962   2.457
 2152SOL    HW1 7355   3.735   4.918   2.390
 2152SOL    HW2 7356   3.579   4.947   2.429
 2153SOL     OW 7357   4.888   1.729   2.634
 2153SOL    HW1 7358   4.934   1.758   2.718
 2153SOL    HW2 7359   4.897   1.801   2.565
 2154SOL     OW 7360   2.869   6.881   3.878
 2154SOL    HW1 7361   2.836   6.863   3.785
 2154SOL    HW2 7362   2.954   6.932   3.875
 2155SOL     OW 7363   4.191   6.707   1.028
 2155SOL    HW1 7364   4.175   6.610   1.010
 2155SOL    HW2 7365   4.222   6.752   0.945
 2156SOL     OW 7366   6.780   0.377   4.482
 2156SOL    HW1 7367   6.766   0.303   4.547
 2156SOL    HW2 7368   6.834   0.449   4.526
 2157SOL     OW 7369   4.760   5.879   3.852
 2157SOL    HW1 7370   4.690   5.898   3.783
 2157SOL    HW2 7371   4.750   5.944   3.928
 2158SOL     OW 7372   4.124   6.407   0.991
 2158SOL    HW1 7373   4.210   6.383   0.946
 2158SOL    HW2 7374   4.050   6.405   0.924
 2159SOL     OW 7375   1.893   0.694   5.142
 2159SOL    HW1 7376   1.829   0.699   5.065
 2159SOL    HW2 7377   1.847   0.726   5.225
 2160SOL     OW 7378   5.011   5.256   6.665
 2160SOL    HW1 7379   5.019   5.244   6.764
 2160SOL    HW2 7380   4.932   5.313   6.644
 2161SOL     OW 7381   6.935   4.248   2.441
 2161SOL    HW1 7382   0.005   4.234   2.440
 2161SOL    HW2 7383   6.891   4.181   2.383
 2162SOL     OW 7384   2.707   6.924   2.998
 2162SOL    HW1 7385   2.632   6.923   3.064
 2162SOL    HW2 7386   2.756   6.837   3.002
 2163SOL     OW 7387   1.753   3.818   0.305
 2163SOL    HW1 7388   1.782   3.801   0.399
 2163SOL    HW2 7389   1.805   3.760   0.242
 2164SOL     OW 7390   2.466   2.730   0.089
 2164SOL    HW1 7391   2.390   2.775   0.136
 2164SOL    HW2 7392   2.519   2.797   0.038
 2165SOL     OW 7393   0.632   1.757   4.123
 2165SOL    HW1 7394   0.563   1.751   4.051
 2165SOL    HW2 7395   0.599   1.815   4.197
 2166SOL     OW 7396   0.201   4.268   3.949
 2166SOL    HW1 7397   0.127   4.318   3.994
 2166SOL    HW2 7398   0.235   4.322   3.871
 2167SOL     OW 7399   0.635   2.908   3.918
 2167SOL    HW1 7400   0.635   2.856   4.003
 2167SOL    HW2 7401   0.644   2.845   3.840
 2168SOL     OW 7402   0.735   2.113   2.762
 2168SOL    HW1 7403   0.700   2.151   2.677
 2168SOL    HW2 7404   0.667   2.050   2.800
 2169SOL     OW 7405   0.065   0.361   0.914
 2169SOL    HW1 7406   7.017   0.332   0.972
 2169SOL    HW2 7407   0.104   0.282   0.868
 2170SOL     OW 7408   6.931   4.284   4.403
 2170SOL    HW1 7409   0.000   4.263   4.411
 2170SOL    HW2 7410   6.880   4.198   4.396
 2171SOL     OW 7411   0.711   5.976   1.463
 2171SOL    HW1 7412   0.674   6.055   1.415
 2171SOL    HW2 7413   0.650   5.897   1.451
 2172SOL     OW 7414   2.197   1.759   5.938
 2172SOL    HW1 7415   2.180   1.842   5.992
 2172SOL    HW2 7416   2.295   1.746   5.928
 2173SOL     OW 7417   5.137   0.360   5.948
 2173SOL    HW1 7418   5.080   0.442   5.949
 2173SOL    HW2 7419   5.128   0.314   5.860
 2174SOL     OW 7420   6.935   6.516   4.904
 2174SOL    HW1 7421   6.972   6.608   4.918
 2174SOL    HW2 7422   7.011   6.451   4.893
 2175SOL     OW 7423   1.894   2.713   4.724
 2175SOL    HW1 7424   1.920   2.619   4.746
 2175SOL    HW2 7425   1.961   2.776   4.763
 2176SOL     OW 7426   5.195   2.208   1.327
 2176SOL    HW1 7427   5.168   2.264   1.249
 2176SOL    HW2 7428   5.157   2.247   1.411
 2177SOL     OW 7429   6.427   0.490   2.050
 2177SOL    HW1 7430   6.330   0.505   2.031
 2177SOL    HW2 7431   6.459   0.559   2.115
 2178SOL     OW 7432   1.287   1.141   2.191
 2178SOL    HW1 7433   1.319   1.161   2.284
 2178SOL    HW2 7434   1.276   1.227   2.141
 2179SOL     OW 7435   1.903   3.127   6.221
 2179SOL    HW1 7436   1.876   3.223   6.220
 2179SOL    HW2 7437   2.002   3.121   6.207
 2180SOL     OW 7438   1.752   3.383   1.954
 2180SOL    HW1 7439   1.848   3.391   1.980
 2180SOL    HW2 7440   1.745   3.342   1.863
 2181SOL     OW 7441   4.609   5.116   4.242
 2181SOL    HW1 7442   4.616   5.088   4.147
 2181SOL    HW2 7443   4.660   5.201   4.256
 2182SOL     OW 7444   0.944   4.802   3.706
 2182SOL    HW1 7445   1.000   4.784   3.625
 2182SOL    HW2 7446   0.853   4.763   3.692
 2183SOL     OW 7447   2.425   4.021   0.570
 2183SOL    HW1 7448   2.370   4.089   0.617
 2183SOL    HW2 7449   2.375   3.984   0.492
 2184SOL     OW 7450   4.279   0.186   6.287
 2184SOL    HW1 7451   4.360   0.133   6.261
 2184SOL    HW2 7452   4.213   0.184   6.212
 2185SOL     OW 7453   1.330   0.877   6.883
 2185SOL    HW1 7454   1.366   0.862   6.791
 2185SOL    HW2 7455   1.235   0.910   6.877
 2186SOL     OW 7456   6.203   5.899   6.133
 2186SOL    HW1 7457   6.155   5.923   6.048
 2186SOL    HW2 7458   6.248   5.810   6.122
 2187SOL     OW 7459   0.197   6.191   2.427
 2187SOL    HW1 7460   0.267   6.226   2.365
 2187SOL    HW2 7461   0.164   6.103   2.393
 2188SOL     OW 7462   2.165   5.176   5.771
 2188SOL    HW1 7463   2.119   5.159   5.684
 2188SOL    HW2 7464   2.097   5.196   5.842
 2189SOL     OW 7465   1.806   0.678   1.995
 2189SOL    HW1 7466   1.758   0.672   1.908
 2189SOL    HW2 7467   1.741   0.663   2.070
 2190SOL     OW 7468   6.686   3.650   2.038
 2190SOL    HW1 7469   6.641   3.680   1.954
 2190SOL    HW2 7470   6.712   3.730   2.092
 2191SOL     OW 7471   2.882   1.396   5.443
 2191SOL    HW1 7472   2.968   1.370   5.400
 2191SOL    HW2 7473   2.819   1.318   5.442
 2192SOL     OW 7474   5.318   0.235   2.692
 2192SOL    HW1 7475   5.365   0.186   2.765
 2192SOL    HW2 7476   5.225   0.201   2.683
 2193SOL     OW 7477   6.531   0.263   5.973
 2193SOL    HW1 7478   6.502   0.240   5.880
 2193SOL    HW2 7479   6.630   0.249   5.981
 2194SOL     OW 7480   0.707   4.103   5.977
 2194SOL    HW1 7481   0.806   4.109   5.973
 2194SOL    HW2 7482   0.678   4.010   5.955
 2195SOL     OW 7483   0.173   6.698   5.391
 2195SOL    HW1 7484   0.163   6.624   5.325
 2195SOL    HW2 7485   0.256   6.684   5.445
 2196SOL     OW 7486   3.184   6.657   5.314
 2196SOL    HW1 7487   3.243   6.645   5.234
 2196SOL    HW2 7488   3.221   6.605   5.391
 2197SOL     OW 7489   2.950   3.536   6.338
 2197SOL    HW1 7490   2.972   3.486   6.255
 2197SOL    HW2 7491   2.853   3.523   6.360
 2198SOL     OW 7492   6.422   7.003   1.028
 2198SOL    HW1 7493   6.350   6.996   0.959
 2198SOL    HW2 7494   6.412   6.928   1.094
 2199SOL     OW 7495   5.306   0.353   5.024
 2199SOL    HW1 7496   5.342   0.380   4.934
 2199SOL    HW2 7497   5.378   0.306   5.075
 2200SOL     OW 7498   2.552   1.501   4.071
 2200SOL    HW1 7499   2.551   1.405   4.099
 2200SOL    HW2 7500   2.460   1.529   4.043
 2201SOL     OW 7501   6.204   2.918   2.829
 2201SOL    HW1 7502   6.295   2.942   2.864
 2201SOL    HW2 7503   6.183   2.823   2.855
 2202SOL     OW 7504   3.292   5.454   2.262
 2202SOL    HW1 7505   3.235   5.481   2.341
 2202SOL    HW2 7506   3.235   5.454   2.180
 2203SOL     OW 7507   2.627   3.563   1.535
 2203SOL    HW1 7508   2.620   3.482   1.477
 2203SOL    HW2 7509   2.555   3.560   1.605
 2204SOL     OW 7510   4.672   2.662   0.634
 2204SOL    HW1 7511   4.680   2.741   0.573
 2204SOL    HW2 7512   4.603   2.681   0.704
 2205SOL     OW 7513   1.414   0.361   0.078
 2205SOL    HW1 7514   1.437   0.419   0.156
 2205SOL    HW2 7515   1.483   0.371   0.007
 2206SOL     OW 7516   2.124   4.303   6.290
 2206SOL    HW1 7517   2.204   4.307   6.349
 2206SOL    HW2 7518   2.113   4.210   6.255
 2207SOL     OW 7519   3.643   4.998   0.404
 2207SOL    HW1 7520   3.692   4.919   0.368
 2207SOL    HW2 7521   3.571   4.967   0.466
 2208SOL     OW 7522   0.461   5.417   2.923
 2208SOL    HW1 7523   0.422   5.508   2.908
 2208SOL    HW2 7524   0.557   5.416   2.896
 2209SOL     OW 7525   2.905   6.176   4.786
 2209SOL    HW1 7526   2.823   6.231   4.768
 2209SOL    HW2 7527   2.930   6.125   4.704
 2210SOL     OW 7528   6.502   5.666   2.935
 2210SOL    HW1 7529   6.567   5.637   3.006
 2210SOL    HW2 7530   6.535   5.750   2.892
 2211SOL     OW 7531   6.269   0.760   0.617
 2211SOL    HW1 7532   6.364   0.753   0.589
 2211SOL    HW2 7533   6.220   0.821   0.554
 2212SOL     OW 7534   1.992   5.379   6.884
 2212SOL    HW1 7535   2.027   5.386   6.977
 2212SOL    HW2 7536   2.046   5.437   6.823
 2213SOL     OW 7537   4.444   2.586   5.602
 2213SOL    HW1 7538   4.525   2.529   5.587
 2213SOL    HW2 7539   4.386   2.544   5.671
 2214SOL     OW 7540   2.932   3.470   4.826
 2214SOL    HW1 7541   2.962   3.379   4.855
 2214SOL    HW2 7542   2.832   3.471   4.816
 2215SOL     OW 7543   5.807   1.638   6.433
 2215SOL    HW1 7544   5.778   1.554   6.386
 2215SOL    HW2 7545   5.746   1.655   6.511
 2216SOL     OW 7546   6.984   0.465   5.559
 2216SOL    HW1 7547   6.948   0.558   5.548
 2216SOL    HW2 7548   0.036   0.454   5.502
 2217SOL     OW 7549   4.327   7.024   2.885
 2217SOL    HW1 7550   4.343   0.077   2.831
 2217SOL    HW2 7551   4.232   6.994   2.872
 2218SOL     OW 7552   7.023   5.086   6.729
 2218SOL    HW1 7553   6.994   5.121   6.817
 2218SOL    HW2 7554   0.085   5.122   6.707
 2219SOL     OW 7555   6.420   2.371   1.045
 2219SOL    HW1 7556   6.396   2.277   1.070
 2219SOL    HW2 7557   6.425   2.378   0.945
 2220SOL     OW 7558   1.512   5.620   5.514
 2220SOL    HW1 7559   1.479   5.610   5.421
 2220SOL    HW2 7560   1.601   5.575   5.524
 2221SOL     OW 7561   6.741   1.780   5.127
 2221SOL    HW1 7562   6.711   1.822   5.213
 2221SOL    HW2 7563   6.710   1.836   5.050
 2222SOL     OW 7564   6.150   0.159   0.576
 2222SOL    HW1 7565   6.161   0.253   0.544
 2222SOL    HW2 7566   6.224   0.103   0.540
 2223SOL     OW 7567   6.302   1.563   6.433
 2223SOL    HW1 7568   6.249   1.479   6.420
 2223SOL    HW2 7569   6.350   1.559   6.521
 2224SOL     OW 7570   6.095   3.282   2.232
 2224SOL    HW1 7571   6.121   3.310   2.140
 2224SOL    HW2 7572   6.005   3.238   2.230
 2225SOL     OW 7573   6.792   6.793   3.395
 2225SOL    HW1 7574   6.844   6.732   3.455
 2225SOL    HW2 7575   6.854   6.862   3.356
 2226SOL     OW 7576   3.993   5.661   0.691
 2226SOL    HW1 7577   4.015   5.566   0.713
 2226SOL    HW2 7578   3.991   5.672   0.592
 2227SOL     OW 7579   4.999   2.667   1.736
 2227SOL    HW1 7580   4.944   2.672   1.653
 2227SOL    HW2 7581   4.953   2.716   1.810
 2228SOL     OW 7582   4.051   5.267   0.284
 2228SOL    HW1 7583   4.130   5.233   0.335
 2228SOL    HW2 7584   3.972   5.271   0.345
 2229SOL     OW 7585   3.681   3.327   4.930
 2229SOL    HW1 7586   3.666   3.283   5.018
 2229SOL    HW2 7587   3.749   3.275   4.878
 2230SOL     OW 7588   5.454   6.274   0.921
 2230SOL    HW1 7589   5.425   6.282   1.016
 2230SOL    HW2 7590   5.510   6.192   0.910
 2231SOL     OW 7591   0.730   0.489   0.060
 2231SOL    HW1 7592   0.645   0.457   0.018
 2231SOL    HW2 7593   0.794   0.520   7.018
 2232SOL     OW 7594   1.108   1.522   5.174
 2232SOL    HW1 7595   1.201   1.504   5.141
 2232SOL    HW2 7596   1.043   1.510   5.099
 2233SOL     OW 7597   2.712   3.149   0.879
 2233SOL    HW1 7598   2.701   3.073   0.816
 2233SOL    HW2 7599   2.695   3.117   0.973
 2234SOL     OW 7600   3.291   1.263   0.809
 2234SOL    HW1 7601   3.250   1.238   0.721
 2234SOL    HW2 7602   3.220   1.273   0.878
 2235SOL     OW 7603   2.644   0.129   1.760
 2235SOL    HW1 7604   2.660   0.108   1.856
 2235SOL    HW2 7605   2.547   0.150   1.746
 2236SOL     OW 7606   1.850   3.419   6.324
 2236SOL    HW1 7607   1.798   3.500   6.294
 2236SOL    HW2 7608   1.860   3.422   6.423
 2237SOL     OW 7609   6.075   4.799   4.466
 2237SOL    HW1 7610   5.993   4.749   4.493
 2237SOL    HW2 7611   6.149   4.735   4.446
 2238SOL     OW 7612   4.470   5.208   2.541
 2238SOL    HW1 7613   4.476   5.117   2.500
 2238SOL    HW2 7614   4.414   5.267   2.483
 2239SOL     OW 7615   4.695   6.033   4.101
 2239SOL    HW1 7616   4.686   6.130   4.078
 2239SOL    HW2 7617   4.776   6.019   4.158
 2240SOL     OW 7618   3.677   5.255   3.002
 2240SOL    HW1 7619   3.604   5.187   3.010
 2240SOL    HW2 7620   3.699   5.290   3.093
 2241SOL     OW 7621   6.914   6.490   1.838
 2241SOL    HW1 7622   6.829   6.542   1.826
 2241SOL    HW2 7623   6.926   6.467   1.935
 2242SOL     OW 7624   4.933   3.576   2.813
 2242SOL    HW1 7625   4.911   3.633   2.733
 2242SOL    HW2 7626   5.011   3.517   2.791
 2243SOL     OW 7627   2.280   6.956   7.008
 2243SOL    HW1 7628   2.251   0.017   0.014
 2243SOL    HW2 7629   2.347   6.969   6.936
 2244SOL     OW 7630   3.101   7.009   1.878
 2244SOL    HW1 7631   3.147   6.987   1.964
 2244SOL    HW2 7632   3.115   6.934   1.813
 2245SOL     OW 7633   0.551   1.623   1.298
 2245SOL    HW1 7634   0.511   1.677   1.372
 2245SOL    HW2 7635   0.537   1.526   1.315
 2246SOL     OW 7636   2.156   1.049   4.269
 2246SOL    HW1 7637   2.199   1.062   4.358
 2246SOL    HW2 7638   2.205   0.977   4.219
 2247SOL     OW 7639   2.862   3.533   3.361
 2247SOL    HW1 7640   2.817   3.497   3.442
 2247SOL    HW2 7641   2.921   3.463   3.321
 2248SOL     OW 7642   6.130   3.633   4.642
 2248SOL    HW1 7643   6.157   3.607   4.549
 2248SOL    HW2 7644   6.204   3.684   4.685
 2249SOL     OW 7645   5.037   6.674   3.935
 2249SOL    HW1 7646   4.982   6.750   3.901
 2249SOL    HW2 7647   5.115   6.709   3.987
 2250SOL     OW 7648   3.222   3.784   5.295
 2250SOL    HW1 7649   3.176   3.822   5.376
 2250SOL    HW2 7650   3.320   3.776   5.313
 2251SOL     OW 7651   4.842   0.324   6.263
 2251SOL    HW1 7652   4.830   0.243   6.205
 2251SOL    HW2 7653   4.932   0.321   6.306
 2252SOL     OW 7654   4.763   1.582   3.147
 2252SOL    HW1 7655   4.745   1.483   3.144
 2252SOL    HW2 7656   4.846   1.602   3.096
 2253SOL     OW 7657   0.051   3.274   0.036
 2253SOL    HW1 7658   0.121   3.245   0.101
 2253SOL    HW2 7659   7.008   3.205   0.030
 2254SOL     OW 7660   3.147   3.126   4.221
 2254SOL    HW1 7661   3.067   3.185   4.216
 2254SOL    HW2 7662   3.146   3.074   4.307
 2255SOL     OW 7663   3.438   3.638   5.967
 2255SOL    HW1 7664   3.465   3.718   6.020
 2255SOL    HW2 7665   3.485   3.638   5.879
 2256SOL     OW 7666   5.430   6.968   2.452
 2256SOL    HW1 7667   5.471   6.887   2.495
 2256SOL    HW2 7668   5.497   0.014   2.452
 2257SOL     OW 7669   0.455   1.540   4.341
 2257SOL    HW1 7670   0.537   1.594   4.362
 2257SOL    HW2 7671   0.454   1.458   4.398
 2258SOL     OW 7672   1.272   5.630   4.921
 2258SOL    HW1 7673   1.302   5.705   4.863
 2258SOL    HW2 7674   1.262   5.547   4.866
 2259SOL     OW 7675   5.653   2.708   5.260
 2259SOL    HW1 7676   5.730   2.685   5.201
 2259SOL    HW2 7677   5.572   2.655   5.233
 2260SOL     OW 7678   0.275   3.664   1.032
 2260SOL    HW1 7679   0.254   3.568   1.013
 2260SOL    HW2 7680   0.206   3.702   1.093
 2261SOL     OW 7681   6.510   5.101   0.587
 2261SOL    HW1 7682   6.551   5.177   0.636
 2261SOL    HW2 7683   6.513   5.119   0.489
 2262SOL     OW 7684   6.007   0.035   2.763
 2262SOL    HW1 7685   5.959   0.087   2.834
 2262SOL    HW2 7686   6.106   0.048   2.774
 2263SOL     OW 7687   2.339   6.137   0.292
 2263SOL    HW1 7688   2.320   6.127   0.194
 2263SOL    HW2 7689   2.253   6.147   0.342
 2264SOL     OW 7690   3.067   6.209   6.373
 2264SOL    HW1 7691   3.073   6.246   6.466
 2264SOL    HW2 7692   3.159   6.185   6.340
 2265SOL     OW 7693   1.912   0.902   4.414
 2265SOL    HW1 7694   1.987   0.949   4.366
 2265SOL    HW2 7695   1.928   0.803   4.410
 2266SOL     OW 7696   5.014   1.999   6.173
 2266SOL    HW1 7697   5.039   2.065   6.102
 2266SOL    HW2 7698   5.028   1.906   6.139
 2267SOL     OW 7699   4.868   3.094   5.192
 2267SOL    HW1 7700   4.905   3.149   5.267
 2267SOL    HW2 7701   4.907   3.002   5.196
 2268SOL     OW 7702   6.113   4.430   6.369
 2268SOL    HW1 7703   6.014   4.429   6.359
 2268SOL    HW2 7704   6.141   4.508   6.425
 2269SOL     OW 7705   0.736   3.511   5.289
 2269SOL    HW1 7706   0.726   3.575   5.212
 2269SOL    HW2 7707   0.750   3.563   5.373
 2270SOL     OW 7708   4.111   2.872   5.885
 2270SOL    HW1 7709   4.142   2.786   5.845
 2270SOL    HW2 7710   4.059   2.924   5.817
 2271SOL     OW 7711   5.690   4.609   6.887
 2271SOL    HW1 7712   5.711   4.554   6.968
 2271SOL    HW2 7713   5.677   4.704   6.915
 2272SOL     OW 7714   5.765   1.087   6.989
 2272SOL    HW1 7715   5.854   1.133   6.979
 2272SOL    HW2 7716   5.707   1.109   6.910
 2273SOL     OW 7717   1.194   1.992   2.044
 2273SOL    HW1 7718   1.230   2.050   1.971
 2273SOL    HW2 7719   1.251   1.911   2.054
 2274SOL     OW 7720   0.406   1.712   6.608
 2274SOL    HW1 7721   0.336   1.672   6.666
 2274SOL    HW2 7722   0.379   1.703   6.512
 2275SOL     OW 7723   6.292   6.908   3.142
 2275SOL    HW1 7724   6.378   6.943   3.107
 2275SOL    HW2 7725   6.302   6.884   3.239
 2276SOL     OW 7726   2.305   5.705   1.881
 2276SOL    HW1 7727   2.331   5.771   1.951
 2276SOL    HW2 7728   2.313   5.612   1.918
 2277SOL     OW 7729   3.644   4.146   4.489
 2277SOL    HW1 7730   3.634   4.157   4.390
 2277SOL    HW2 7731   3.729   4.097   4.508
 2278SOL     OW 7732   5.809   3.137   4.083
 2278SOL    HW1 7733   5.731   3.074   4.085
 2278SOL    HW2 7734   5.863   3.121   4.000
 2279SOL     OW 7735   5.806   0.205   5.171
 2279SOL    HW1 7736   5.798   0.116   5.216
 2279SOL    HW2 7737   5.832   0.274   5.238
 2280SOL     OW 7738   6.629   7.006   4.404
 2280SOL    HW1 7739   6.529   7.013   4.395
 2280SOL    HW2 7740   6.650   6.960   4.491
 2281SOL     OW 7741   3.737   0.707   1.928
 2281SOL    HW1 7742   3.644   0.690   1.961
 2281SOL    HW2 7743   3.736   0.713   1.829
 2282SOL     OW 7744   5.383   6.405   5.690
 2282SOL    HW1 7745   5.435   6.397   5.605
 2282SOL    HW2 7746   5.289   6.375   5.674
 2283SOL     OW 7747   1.758   0.037   1.611
 2283SOL    HW1 7748   1.771   6.972   1.643
 2283SOL    HW2 7749   1.734   0.096   1.689
 2284SOL     OW 7750   1.267   3.322   6.785
 2284SOL    HW1 7751   1.305   3.240   6.829
 2284SOL    HW2 7752   1.320   3.402   6.815
 2285SOL     OW 7753   0.970   2.810   0.483
 2285SOL    HW1 7754   0.993   2.906   0.465
 2285SOL    HW2 7755   0.939   2.800   0.577
 2286SOL     OW 7756   5.465   0.096   3.336
 2286SOL    HW1 7757   5.545   0.038   3.327
 2286SOL    HW2 7758   5.402   0.078   3.260
 2287SOL     OW 7759   2.204   0.277   3.770
 2287SOL    HW1 7760   2.294   0.239   3.793
 2287SOL    HW2 7761   2.215   0.356   3.711
 2288SOL     OW 7762   6.161   5.062   3.868
 2288SOL    HW1 7763   6.120   5.125   3.801
 2288SOL    HW2 7764   6.153   4.968   3.834
 2289SOL     OW 7765   0.013   5.116   0.785
 2289SOL    HW1 7766   0.026   5.031   0.733
 2289SOL    HW2 7767   0.069   5.112   0.868
 2290SOL     OW 7768   0.549   3.742   1.302
 2290SOL    HW1 7769   0.583   3.740   1.208
 2290SOL    HW2 7770   0.495   3.825   1.316
 2291SOL     OW 7771   2.475   2.386   5.814
 2291SOL    HW1 7772   2.378   2.379   5.793
 2291SOL    HW2 7773   2.496   2.330   5.894
 2292SOL     OW 7774   1.074   2.025   4.546
 2292SOL    HW1 7775   1.134   2.065   4.616
 2292SOL    HW2 7776   1.075   1.925   4.555
 2293SOL     OW 7777   5.002   6.584   1.684
 2293SOL    HW1 7778   4.943   6.582   1.765
 2293SOL    HW2 7779   5.061   6.664   1.689
 2294SOL     OW 7780   3.136   0.782   0.256
 2294SOL    HW1 7781   3.161   0.786   0.352
 2294SOL    HW2 7782   3.119   0.875   0.222
 2295SOL     OW 7783   0.560   1.843   2.607
 2295SOL    HW1 7784   0.588   1.872   2.516
 2295SOL    HW2 7785   0.472   1.883   2.629
 2296SOL     OW 7786   3.715   5.895   0.590
 2296SOL    HW1 7787   3.654   5.958   0.543
 2296SOL    HW2 7788   3.712   5.806   0.546
 2297SOL     OW 7789   3.758   4.416   5.325
 2297SOL    HW1 7790   3.746   4.416   5.226
 2297SOL    HW2 7791   3.753   4.322   5.359
 2298SOL     OW 7792   4.211   2.866   1.703
 2298SOL    HW1 7793   4.122   2.900   1.675
 2298SOL    HW2 7794   4.279   2.939   1.695
 2299SOL     OW 7795   5.261   6.939   6.712
 2299SOL    HW1 7796   5.344   6.953   6.657
 2299SOL    HW2 7797   5.222   6.850   6.691
 2300SOL     OW 7798   2.734   4.672   1.524
 2300SOL    HW1 7799   2.788   4.715   1.596
 2300SOL    HW2 7800   2.771   4.698   1.435
 2301SOL     OW 7801   3.062   3.301   3.351
 2301SOL    HW1 7802   3.091   3.228   3.289
 2301SOL    HW2 7803   3.060   3.266   3.444
 2302SOL     OW 7804   3.743   6.675   1.561
 2302SOL    HW1 7805   3.813   6.611   1.592
 2302SOL    HW2 7806   3.723   6.740   1.634
 2303SOL     OW 7807   1.890   3.446   6.612
 2303SOL    HW1 7808   1.816   3.378   6.605
 2303SOL    HW2 7809   1.893   3.482   6.705
 2304SOL     OW 7810   3.157   0.178   3.274
 2304SOL    HW1 7811   3.165   0.143   3.181
 2304SOL    HW2 7812   3.179   0.276   3.275
 2305SOL     OW 7813   2.879   6.244   2.917
 2305SOL    HW1 7814   2.860   6.339   2.892
 2305SOL    HW2 7815   2.808   6.184   2.878
 2306SOL     OW 7816   2.134   4.974   2.060
 2306SOL    HW1 7817   2.079   5.046   2.103
 2306SOL    HW2 7818   2.124   4.978   1.961
 2307SOL     OW 7819   1.621   3.686   2.425
 2307SOL    HW1 7820   1.602   3.619   2.497
 2307SOL    HW2 7821   1.667   3.765   2.464
 2308SOL     OW 7822   1.741   6.755   6.972
 2308SOL    HW1 7823   1.693   6.673   6.941
 2308SOL    HW2 7824   1.787   6.797   6.895
 2309SOL     OW 7825   3.065   6.684   6.980
 2309SOL    HW1 7826   3.130   6.700   6.905
 2309SOL    HW2 7827   3.030   6.771   7.013
 2310SOL     OW 7828   5.700   6.119   1.819
 2310SOL    HW1 7829   5.703   6.096   1.722
 2310SOL    HW2 7830   5.792   6.116   1.858
 2311SOL     OW 7831   2.632   6.324   2.530
 2311SOL    HW1 7832   2.698   6.292   2.462
 2311SOL    HW2 7833   2.582   6.246   2.568
 2312SOL     OW 7834   3.966   6.233   4.118
 2312SOL    HW1 7835   3.884   6.193   4.077
 2312SOL    HW2 7836   3.991   6.316   4.068
 2313SOL     OW 7837   5.219   5.261   2.364
 2313SOL    HW1 7838   5.249   5.357   2.370
 2313SOL    HW2 7839   5.132   5.257   2.315
 2314SOL     OW 7840   5.459   0.910   4.364
 2314SOL    HW1 7841   5.487   0.820   4.332
 2314SOL    HW2 7842   5.502   0.981   4.307
 2315SOL     OW 7843   5.076   3.619   5.082
 2315SOL    HW1 7844   5.051   3.656   5.172
 2315SOL    HW2 7845   4.994   3.611   5.026
 2316SOL     OW 7846   3.124   0.490   4.636
 2316SOL    HW1 7847   3.161   0.583   4.634
 2316SOL    HW2 7848   3.030   0.492   4.669
 2317SOL     OW 7849   6.317   6.193   3.307
 2317SOL    HW1 7850   6.335   6.202   3.209
 2317SOL    HW2 7851   6.235   6.246   3.330
 2318SOL     OW 7852   2.158   3.343   4.263
 2318SOL    HW1 7853   2.159   3.245   4.240
 2318SOL    HW2 7854   2.122   3.395   4.186
 2319SOL     OW 7855   3.059   5.217   4.926
 2319SOL    HW1 7856   3.011   5.151   4.868
 2319SOL    HW2 7857   3.145   5.244   4.881
 2320SOL     OW 7858   1.483   2.313   5.351
 2320SOL    HW1 7859   1.460   2.406   5.321
 2320SOL    HW2 7860   1.438   2.294   5.438
 2321SOL     OW 7861   1.761   5.048   0.341
 2321SOL    HW1 7862   1.678   5.081   0.386
 2321SOL    HW2 7863   1.766   5.087   0.250
 2322SOL     OW 7864   1.929   4.441   2.849
 2322SOL    HW1 7865   1.846   4.395   2.819
 2322SOL    HW2 7866   1.906   4.529   2.891
 2323SOL     OW 7867   3.124   4.833   1.681
 2323SOL    HW1 7868   3.155   4.747   1.640
 2323SOL    HW2 7869   3.165   4.844   1.771
 2324SOL     OW 7870   6.667   5.774   0.432
 2324SOL    HW1 7871   6.651   5.832   0.511
 2324SOL    HW2 7872   6.609   5.693   0.438
 2325SOL     OW 7873   0.675   4.262   1.484
 2325SOL    HW1 7874   0.767   4.231   1.462
 2325SOL    HW2 7875   0.676   4.313   1.570
 2326SOL     OW 7876   2.022   6.763   6.853
 2326SOL    HW1 7877   2.014   6.664   6.848
 2326SOL    HW2 7878   2.099   6.788   6.912
 2327SOL     OW 7879   6.976   1.539   3.789
 2327SOL    HW1 7880   7.021   1.505   3.871
 2327SOL    HW2 7881   6.886   1.577   3.813
 2328SOL     OW 7882   1.669   1.173   3.031
 2328SOL    HW1 7883   1.634   1.188   3.123
 2328SOL    HW2 7884   1.759   1.130   3.036
 2329SOL     OW 7885   1.343   4.160   4.799
 2329SOL    HW1 7886   1.431   4.202   4.819
 2329SOL    HW2 7887   1.349   4.111   4.712
 2330SOL     OW 7888   0.389   2.866   1.418
 2330SOL    HW1 7889   0.479   2.831   1.445
 2330SOL    HW2 7890   0.400   2.937   1.349
 2331SOL     OW 7891   4.058   5.201   0.019
 2331SOL    HW1 7892   4.125   5.128   0.023
 2331SOL    HW2 7893   4.043   5.237   0.112
 2332SOL     OW 7894   6.656   0.125   5.340
 2332SOL    HW1 7895   6.722   0.174   5.397
 2332SOL    HW2 7896   6.635   0.181   5.260
 2333SOL     OW 7897   0.362   3.882   3.239
 2333SOL    HW1 7898   0.446   3.831   3.217
 2333SOL    HW2 7899   0.283   3.836   3.198
 2334SOL     OW 7900   1.932   0.663   6.371
 2334SOL    HW1 7901   1.960   0.722   6.295
 2334SOL    HW2 7902   1.982   0.688   6.453
 2335SOL     OW 7903   6.265   1.003   4.252
 2335SOL    HW1 7904   6.340   0.988   4.188
 2335SOL    HW2 7905   6.195   1.061   4.208
 2336SOL     OW 7906   3.897   1.414   4.465
 2336SOL    HW1 7907   3.814   1.459   4.500
 2336SOL    HW2 7908   3.901   1.425   4.365
 2337SOL     OW 7909   4.033   0.151   1.462
 2337SOL    HW1 7910   4.067   0.239   1.494
 2337SOL    HW2 7911   4.102   0.080   1.476
 2338SOL     OW 7912   0.525   2.841   5.131
 2338SOL    HW1 7913   0.551   2.863   5.224
 2338SOL    HW2 7914   0.515   2.742   5.121
 2339SOL     OW 7915   3.046   3.954   3.130
 2339SOL    HW1 7916   2.998   3.914   3.052
 2339SOL    HW2 7917   3.033   3.895   3.210
 2340SOL     OW 7918   6.691   4.252   6.438
 2340SOL    HW1 7919   6.635   4.213   6.512
 2340SOL    HW2 7920   6.655   4.342   6.412
 2341SOL     OW 7921   2.953   4.819   2.151
 2341SOL    HW1 7922   2.899   4.903   2.144
 2341SOL    HW2 7923   2.906   4.746   2.102
 2342SOL     OW 7924   0.941   6.592   5.813
 2342SOL    HW1 7925   0.950   6.657   5.889
 2342SOL    HW2 7926   1.012   6.611   5.745
 2343SOL     OW 7927   1.478   5.222   2.996
 2343SOL    HW1 7928   1.537   5.219   2.915
 2343SOL    HW2 7929   1.524   5.176   3.072
 2344SOL     OW 7930   1.075   5.726   6.747
 2344SOL    HW1 7931   1.009   5.653   6.728
 2344SOL    HW2 7932   1.167   5.688   6.751
 2345SOL     OW 7933   3.203   5.709   5.249
 2345SOL    HW1 7934   3.108   5.680   5.237
 2345SOL    HW2 7935   3.247   5.718   5.160
 2346SOL     OW 7936   3.717   3.712   5.350
 2346SOL    HW1 7937   3.623   3.732   5.378
 2346SOL    HW2 7938   3.773   3.794   5.364
 2347SOL     OW 7939   3.261   2.190   1.455
 2347SOL    HW1 7940   3.332   2.212   1.522
 2347SOL    HW2 7941   3.257   2.263   1.386
 2348SOL     OW 7942   2.589   6.811   4.030
 2348SOL    HW1 7943   2.536   6.743   3.978
 2348SOL    HW2 7944   2.654   6.856   3.969
 2349SOL     OW 7945   1.029   5.019   5.663
 2349SOL    HW1 7946   1.000   5.089   5.598
 2349SOL    HW2 7947   1.022   5.055   5.756
 2350SOL     OW 7948   6.278   6.693   6.072
 2350SOL    HW1 7949   6.334   6.622   6.030
 2350SOL    HW2 7950   6.190   6.654   6.100
 2351SOL     OW 7951   2.592   5.257   4.485
 2351SOL    HW1 7952   2.685   5.226   4.463
 2351SOL    HW2 7953   2.527   5.182   4.471
 2352SOL     OW 7954   0.626   4.300   2.614
 2352SOL    HW1 7955   0.636   4.200   2.604
 2352SOL    HW2 7956   0.556   4.320   2.682
 2353SOL     OW 7957   3.526   5.199   5.263
 2353SOL    HW1 7958   3.505   5.191   5.360
 2353SOL    HW2 7959   3.442   5.189   5.209
 2354SOL     OW 7960   2.635   1.856   5.377
 2354SOL    HW1 7961   2.649   1.947   5.338
 2354SOL    HW2 7962   2.668   1.856   5.472
 2355SOL     OW 7963   1.815   6.576   0.166
 2355SOL    HW1 7964   1.857   6.627   0.242
 2355SOL    HW2 7965   1.757   6.638   0.113
 2356SOL     OW 7966   0.918   3.817   6.252
 2356SOL    HW1 7967   0.869   3.753   6.192
 2356SOL    HW2 7968   1.014   3.790   6.258
 2357SOL     OW 7969   4.548   0.017   2.631
 2357SOL    HW1 7970   4.590   7.012   2.715
 2357SOL    HW2 7971   4.606   7.022   2.553
 2358SOL     OW 7972   3.792   5.244   4.784
 2358SOL    HW1 7973   3.883   5.284   4.789
 2358SOL    HW2 7974   3.729   5.294   4.843
 2359SOL     OW 7975   6.292   0.911   5.405
 2359SOL    HW1 7976   6.392   0.917   5.404
 2359SOL    HW2 7977   6.258   0.904   5.311
 2360SOL     OW 7978   5.443   3.971   0.099
 2360SOL    HW1 7979   5.482   3.879   0.111
 2360SOL    HW2 7980   5.344   3.967   0.105
 2361SOL     OW 7981   2.925   1.024   5.305
 2361SOL    HW1 7982   2.909   0.998   5.400
 2361SOL    HW2 7983   2.848   0.994   5.249
 2362SOL     OW 7984   2.430   6.460   4.253
 2362SOL    HW1 7985   2.336   6.426   4.240
 2362SOL    HW2 7986   2.480   6.452   4.167
 2363SOL     OW 7987   4.676   2.558   4.831
 2363SOL    HW1 7988   4.666   2.640   4.887
 2363SOL    HW2 7989   4.586   2.516   4.817
 2364SOL     OW 7990   0.929   1.937   2.700
 2364SOL    HW1 7991   0.894   1.906   2.612
 2364SOL    HW2 7992   0.876   2.016   2.731
 2365SOL     OW 7993   6.003   2.518   6.483
 2365SOL    HW1 7994   6.028   2.545   6.576
 2365SOL    HW2 7995   5.984   2.599   6.429
 2366SOL     OW 7996   2.453   5.223   6.577
 2366SOL    HW1 7997   2.359   5.249   6.595
 2366SOL    HW2 7998   2.455   5.130   6.540
 2367SOL     OW 7999   2.534   3.819   0.744
 2367SOL    HW1 8000   2.525   3.897   0.681
 2367SOL    HW2 8001   2.612   3.832   0.804
 2368SOL     OW 8002   4.023   0.588   4.129
 2368SOL    HW1 8003   3.977   0.499   4.128
 2368SOL    HW2 8004   3.956   0.661   4.138
 2369SOL     OW 8005   1.618   1.067   5.639
 2369SOL    HW1 8006   1.695   1.038   5.696
 2369SOL    HW2 8007   1.648   1.076   5.544
 2370SOL     OW 8008   4.831   3.198   0.038
 2370SOL    HW1 8009   4.841   3.295   0.060
 2370SOL    HW2 8010   4.768   3.187   6.990
 2371SOL     OW 8011   0.057   6.863   2.044
 2371SOL    HW1 8012   0.107   6.788   1.999
 2371SOL    HW2 8013   0.071   6.948   1.993
 2372SOL     OW 8014   0.378   2.878   2.653
 2372SOL    HW1 8015   0.374   2.858   2.750
 2372SOL    HW2 8016   0.286   2.896   2.619
 2373SOL     OW 8017   0.276   2.013   6.446
 2373SOL    HW1 8018   0.319   2.051   6.365
 2373SOL    HW2 8019   0.177   2.032   6.443
 2374SOL     OW 8020   5.707   1.521   3.755
 2374SOL    HW1 8021   5.764   1.565   3.824
 2374SOL    HW2 8022   5.616   1.564   3.755
 2375SOL     OW 8023   2.894   6.756   4.905
 2375SOL    HW1 8024   2.854   6.758   4.997
 2375SOL    HW2 8025   2.878   6.666   4.864
 2376SOL     OW 8026   0.092   2.561   4.623
 2376SOL    HW1 8027   0.180   2.599   4.653
 2376SOL    HW2 8028   0.109   2.483   4.562
 2377SOL     OW 8029   3.719   4.071   3.168
 2377SOL    HW1 8030   3.736   4.075   3.267
 2377SOL    HW2 8031   3.645   4.133   3.144
 2378SOL     OW 8032   5.235   1.398   0.280
 2378SOL    HW1 8033   5.281   1.403   0.369
 2378SOL    HW2 8034   5.293   1.347   0.216
 2379SOL     OW 8035   5.544   1.688   6.874
 2379SOL    HW1 8036   5.509   1.602   6.911
 2379SOL    HW2 8037   5.474   1.759   6.884
 2380SOL     OW 8038   0.931   1.109   0.216
 2380SOL    HW1 8039   0.842   1.142   0.246
 2380SOL    HW2 8040   1.003   1.154   0.269
 2381SOL     OW 8041   2.027   4.248   4.750
 2381SOL    HW1 8042   2.081   4.251   4.834
 2381SOL    HW2 8043   2.087   4.261   4.672
 2382SOL     OW 8044   2.165   4.127   4.102
 2382SOL    HW1 8045   2.237   4.196   4.112
 2382SOL    HW2 8046   2.098   4.139   4.175
 2383SOL     OW 8047   5.119   6.866   1.604
 2383SOL    HW1 8048   5.202   6.861   1.547
 2383SOL    HW2 8049   5.144   6.851   1.700
 2384SOL     OW 8050   5.518   0.847   2.867
 2384SOL    HW1 8051   5.419   0.856   2.862
 2384SOL    HW2 8052   5.543   0.792   2.947
 2385SOL     OW 8053   1.418   0.227   0.855
 2385SOL    HW1 8054   1.500   0.217   0.911
 2385SOL    HW2 8055   1.337   0.214   0.912
 2386SOL     OW 8056   5.942   5.738   4.329
 2386SOL    HW1 8057   5.971   5.832   4.308
 2386SOL    HW2 8058   5.912   5.693   4.245
 2387SOL     OW 8059   1.408   2.322   3.797
 2387SOL    HW1 8060   1.465   2.263   3.740
 2387SOL    HW2 8061   1.331   2.356   3.744
 2388SOL     OW 8062   0.639   2.441   4.722
 2388SOL    HW1 8063   0.692   2.394   4.651
 2388SOL    HW2 8064   0.694   2.516   4.760
 2389SOL     OW 8065   4.820   3.952   3.023
 2389SOL    HW1 8066   4.789   3.961   3.118
 2389SOL    HW2 8067   4.919   3.940   3.021
 2390SOL     OW 8068   3.769   2.951   3.230
 2390SOL    HW1 8069   3.817   3.037   3.212
 2390SOL    HW2 8070   3.790   2.920   3.322
 2391SOL     OW 8071   5.029   4.053   5.943
 2391SOL    HW1 8072   5.109   4.110   5.924
 2391SOL    HW2 8073   5.046   3.997   6.024
 2392SOL     OW 8074   4.604   6.658   5.370
 2392SOL    HW1 8075   4.616   6.565   5.338
 2392SOL    HW2 8076   4.591   6.720   5.292
 2393SOL     OW 8077   5.949   4.155   6.021
 2393SOL    HW1 8078   5.949   4.127   5.925
 2393SOL    HW2 8079   5.855   4.178   6.048
 2394SOL     OW 8080   1.157   3.051   4.734
 2394SOL    HW1 8081   1.216   3.071   4.812
 2394SOL    HW2 8082   1.144   3.134   4.680
 2395SOL     OW 8083   5.366   2.458   6.283
 2395SOL    HW1 8084   5.444   2.396   6.286
 2395SOL    HW2 8085   5.314   2.451   6.368
 2396SOL     OW 8086   3.681   5.140   1.265
 2396SOL    HW1 8087   3.617   5.116   1.338
 2396SOL    HW2 8088   3.708   5.236   1.273
 2397SOL     OW 8089   6.964   4.220   5.861
 2397SOL    HW1 8090   0.004   4.237   5.790
 2397SOL    HW2 8091   7.006   4.170   5.936
 2398SOL     OW 8092   2.857   3.263   0.051
 2398SOL    HW1 8093   2.794   3.341   0.041
 2398SOL    HW2 8094   2.923   3.284   0.123
 2399SOL     OW 8095   4.802   1.555   2.074
 2399SOL    HW1 8096   4.724   1.592   2.026
 2399SOL    HW2 8097   4.780   1.463   2.108
 2400SOL     OW 8098   3.223   4.079   0.569
 2400SOL    HW1 8099   3.224   4.098   0.471
 2400SOL    HW2 8100   3.169   4.149   0.616
 2401SOL     OW 8101   4.431   6.437   6.245
 2401SOL    HW1 8102   4.445   6.519   6.190
 2401SOL    HW2 8103   4.394   6.364   6.188
 2402SOL     OW 8104   6.840   0.576   3.911
 2402SOL    HW1 8105   6.830   0.483   3.873
 2402SOL    HW2 8106   6.933   0.609   3.893
 2403SOL     OW 8107   2.065   2.836   0.109
 2403SOL    HW1 8108   2.073   2.741   0.076
 2403SOL    HW2 8109   2.156   2.872   0.127
 2404SOL     OW 8110   3.471   1.114   1.180
 2404SOL    HW1 8111   3.464   1.212   1.162
 2404SOL    HW2 8112   3.565   1.090   1.202
 2405SOL     OW 8113   3.788   3.590   2.656
 2405SOL    HW1 8114   3.875   3.550   2.626
 2405SOL    HW2 8115   3.715   3.558   2.596
 2406SOL     OW 8116   2.814   6.534   2.790
 2406SOL    HW1 8117   2.755   6.470   2.741
 2406SOL    HW2 8118   2.872   6.582   2.725
 2407SOL     OW 8119   5.471   1.380   2.434
 2407SOL    HW1 8120   5.374   1.371   2.453
 2407SOL    HW2 8121   5.514   1.290   2.434
 2408SOL     OW 8122   3.641   4.924   3.196
 2408SOL    HW1 8123   3.671   4.856   3.129
 2408SOL    HW2 8124   3.713   4.938   3.264
 2409SOL     OW 8125   1.683   4.934   2.091
 2409SOL    HW1 8126   1.749   4.916   2.017
 2409SOL    HW2 8127   1.621   4.856   2.099
 2410SOL     OW 8128   4.183   2.951   5.435
 2410SOL    HW1 8129   4.109   2.977   5.373
 2410SOL    HW2 8130   4.256   2.905   5.383
 2411SOL     OW 8131   4.145   5.522   4.945
 2411SOL    HW1 8132   4.049   5.518   4.916
 2411SOL    HW2 8133   4.204   5.521   4.864
 2412SOL     OW 8134   4.959   5.235   0.781
 2412SOL    HW1 8135   5.002   5.159   0.830
 2412SOL    HW2 8136   5.015   5.318   0.792
 2413SOL     OW 8137   6.326   2.130   1.106
 2413SOL    HW1 8138   6.344   2.037   1.073
 2413SOL    HW2 8139   6.233   2.135   1.142
 2414SOL     OW 8140   4.827   4.518   2.565
 2414SOL    HW1 8141   4.882   4.581   2.619
 2414SOL    HW2 8142   4.756   4.477   2.622
 2415SOL     OW 8143   6.551   0.727   2.678
 2415SOL    HW1 8144   6.563   0.681   2.766
 2415SOL    HW2 8145   6.620   0.694   2.614
 2416SOL     OW 8146   4.624   2.344   5.650
 2416SOL    HW1 8147   4.706   2.292   5.674
 2416SOL    HW2 8148   4.612   2.343   5.550
 2417SOL     OW 8149   3.412   3.241   5.415
 2417SOL    HW1 8150   3.358   3.294   5.349
 2417SOL    HW2 8151   3.491   3.294   5.445
 2418SOL     OW 8152   2.931   3.331   4.310
 2418SOL    HW1 8153   2.879   3.249   4.335
 2418SOL    HW2 8154   2.926   3.398   4.384
 2419SOL     OW 8155   0.094   6.817   4.873
 2419SOL    HW1 8156   0.041   6.877   4.813
 2419SOL    HW2 8157   0.191   6.821   4.847
 2420SOL     OW 8158   3.005   0.966   2.601
 2420SOL    HW1 8159   3.045   0.905   2.532
 2420SOL    HW2 8160   3.022   1.061   2.574
 2421SOL     OW 8161   2.224   2.194   4.879
 2421SOL    HW1 8162   2.316   2.234   4.878
 2421SOL    HW2 8163   2.229   2.097   4.857
 2422SOL     OW 8164   5.537   1.468   0.832
 2422SOL    HW1 8165   5.567   1.483   0.738
 2422SOL    HW2 8166   5.613   1.431   0.886
 2423SOL     OW 8167   1.290   5.779   2.650
 2423SOL    HW1 8168   1.330   5.832   2.575
 2423SOL    HW2 8169   1.192   5.797   2.654
 2424SOL     OW 8170   6.052   0.439   6.168
 2424SOL    HW1 8171   6.141   0.422   6.211
 2424SOL    HW2 8172   6.045   0.536   6.144
 2425SOL     OW 8173   5.663   0.701   3.710
 2425SOL    HW1 8174   5.685   0.656   3.624
 2425SOL    HW2 8175   5.685   0.640   3.786
 2426SOL     OW 8176   1.196   6.210   5.001
 2426SOL    HW1 8177   1.136   6.283   4.969
 2426SOL    HW2 8178   1.146   6.123   5.000
 2427SOL     OW 8179   5.610   6.158   5.292
 2427SOL    HW1 8180   5.657   6.157   5.204
 2427SOL    HW2 8181   5.587   6.064   5.319
 2428SOL     OW 8182   6.391   0.241   2.218
 2428SOL    HW1 8183   6.414   0.321   2.162
 2428SOL    HW2 8184   6.445   0.163   2.187
 2429SOL     OW 8185   5.142   5.818   3.407
 2429SOL    HW1 8186   5.048   5.826   3.439
 2429SOL    HW2 8187   5.202   5.797   3.484
 2430SOL     OW 8188   5.622   1.256   1.554
 2430SOL    HW1 8189   5.685   1.213   1.618
 2430SOL    HW2 8190   5.546   1.298   1.604
 2431SOL     OW 8191   4.581   0.696   2.082
 2431SOL    HW1 8192   4.549   0.774   2.028
 2431SOL    HW2 8193   4.524   0.616   2.062
 2432SOL     OW 8194   3.183   6.202   2.634
 2432SOL    HW1 8195   3.175   6.168   2.727
 2432SOL    HW2 8196   3.235   6.287   2.634
 2433SOL     OW 8197   3.727   1.432   0.769
 2433SOL    HW1 8198   3.642   1.453   0.818
 2433SOL    HW2 8199   3.765   1.346   0.803
 2434SOL     OW 8200   3.634   0.992   5.594
 2434SOL    HW1 8201   3.633   1.026   5.688
 2434SOL    HW2 8202   3.572   1.045   5.538
 2435SOL     OW 8203   4.285   5.167   5.918
 2435SOL    HW1 8204   4.191   5.138   5.895
 2435SOL    HW2 8205   4.330   5.200   5.835
 2436SOL     OW 8206   1.387   5.358   0.560
 2436SOL    HW1 8207   1.319   5.304   0.609
 2436SOL    HW2 8208   1.430   5.302   0.489
 2437SOL     OW 8209   5.453   6.666   6.457
 2437SOL    HW1 8210   5.391   6.587   6.465
 2437SOL    HW2 8211   5.402   6.745   6.425
 2438SOL     OW 8212   3.341   1.112   6.958
 2438SOL    HW1 8213   3.325   1.097   6.861
 2438SOL    HW2 8214   3.439   1.122   6.975
 2439SOL     OW 8215   1.094   4.384   6.236
 2439SOL    HW1 8216   1.016   4.324   6.255
 2439SOL    HW2 8217   1.179   4.335   6.257
 2440SOL     OW 8218   4.475   6.389   5.883
 2440SOL    HW1 8219   4.567   6.351   5.887
 2440SOL    HW2 8220   4.464   6.443   5.800
 2441SOL     OW 8221   0.601   1.529   0.459
 2441SOL    HW1 8222   0.603   1.573   0.549
 2441SOL    HW2 8223   0.519   1.471   0.452
 2442SOL     OW 8224   0.804   3.256   5.954
 2442SOL    HW1 8225   0.838   3.326   5.892
 2442SOL    HW2 8226   0.785   3.296   6.044
 2443SOL     OW 8227   3.706   5.370   5.665
 2443SOL    HW1 8228   3.619   5.344   5.624
 2443SOL    HW2 8229   3.780   5.352   5.601
 2444SOL     OW 8230   2.861   4.415   6.728
 2444SOL    HW1 8231   2.797   4.436   6.653
 2444SOL    HW2 8232   2.942   4.371   6.690
 2445SOL     OW 8233   0.056   1.248   1.158
 2445SOL    HW1 8234   0.074   1.181   1.086
 2445SOL    HW2 8235   0.136   1.257   1.217
 2446SOL     OW 8236   6.327   4.398   3.793
 2446SOL    HW1 8237   6.423   4.421   3.778
 2446SOL    HW2 8238   6.269   4.464   3.747
 2447SOL     OW 8239   2.146   3.054   0.499
 2447SOL    HW1 8240   2.163   2.956   0.486
 2447SOL    HW2 8241   2.058   3.078   0.459
 2448SOL     OW 8242   0.510   0.790   4.665
 2448SOL    HW1 8243   0.432   0.805   4.604
 2448SOL    HW2 8244   0.497   0.703   4.713
 2449SOL     OW 8245   6.721   4.636   0.246
 2449SOL    HW1 8246   6.728   4.556   0.306
 2449SOL    HW2 8247   6.713   4.605   0.151
 2450SOL     OW 8248   2.465   4.439   2.932
 2450SOL    HW1 8249   2.409   4.513   2.896
 2450SOL    HW2 8250   2.552   4.476   2.965
 2451SOL     OW 8251   1.592   0.532   4.077
 2451SOL    HW1 8252   1.603   0.524   3.978
 2451SOL    HW2 8253   1.632   0.618   4.108
 2452SOL     OW 8254   1.922   3.409   2.961
 2452SOL    HW1 8255   1.991   3.467   3.004
 2452SOL    HW2 8256   1.948   3.389   2.867
 2453SOL     OW 8257   6.575   5.047   1.220
 2453SOL    HW1 8258   6.653   5.102   1.253
 2453SOL    HW2 8259   6.490   5.086   1.256
 2454SOL     OW 8260   3.513   0.966   1.986
 2454SOL    HW1 8261   3.566   0.955   1.901
 2454SOL    HW2 8262   3.503   1.063   2.006
 2455SOL     OW 8263   5.311   6.476   0.305
 2455SOL    HW1 8264   5.405   6.453   0.281
 2455SOL    HW2 8265   5.279   6.551   0.247
 2456SOL     OW 8266   5.178   6.647   2.254
 2456SOL    HW1 8267   5.091   6.693   2.272
 2456SOL    HW2 8268   5.199   6.586   2.330
 2457SOL     OW 8269   5.303   6.811   0.491
 2457SOL    HW1 8270   5.399   6.838   0.499
 2457SOL    HW2 8271   5.282   6.744   0.563
 2458SOL     OW 8272   2.328   5.643   3.601
 2458SOL    HW1 8273   2.357   5.590   3.521
 2458SOL    HW2 8274   2.239   5.685   3.582
 2459SOL     OW 8275   1.941   6.788   0.711
 2459SOL    HW1 8276   1.864   6.730   0.737
 2459SOL    HW2 8277   1.909   6.862   0.653
 2460SOL     OW 8278   2.219   6.906   2.021
 2460SOL    HW1 8279   2.208   6.808   2.037
 2460SOL    HW2 8280   2.137   6.942   1.976
 2461SOL     OW 8281   5.844   0.645   2.243
 2461SOL    HW1 8282   5.850   0.736   2.284
 2461SOL    HW2 8283   5.788   0.586   2.301
 2462SOL     OW 8284   2.588   5.202   0.495
 2462SOL    HW1 8285   2.619   5.214   0.400
 2462SOL    HW2 8286   2.626   5.275   0.552
 2463SOL     OW 8287   6.628   2.111   3.803
 2463SOL    HW1 8288   6.598   2.033   3.857
 2463SOL    HW2 8289   6.664   2.182   3.863
 2464SOL     OW 8290   0.801   4.621   1.110
 2464SOL    HW1 8291   0.773   4.643   1.016
 2464SOL    HW2 8292   0.769   4.529   1.133
 2465SOL     OW 8293   0.077   5.738   1.677
 2465SOL    HW1 8294   0.154   5.730   1.741
 2465SOL    HW2 8295   0.091   5.675   1.600
 2466SOL     OW 8296   4.698   1.580   2.489
 2466SOL    HW1 8297   4.776   1.634   2.520
 2466SOL    HW2 8298   4.661   1.620   2.405
 2467SOL     OW 8299   6.527   1.504   5.936
 2467SOL    HW1 8300   6.479   1.550   5.861
 2467SOL    HW2 8301   6.487   1.533   6.023
 2468SOL     OW 8302   6.969   6.260   2.070
 2468SOL    HW1 8303   6.929   6.205   2.144
 2468SOL    HW2 8304   0.000   6.203   2.015
 2469SOL     OW 8305   3.235   3.618   5.709
 2469SOL    HW1 8306   3.165   3.608   5.638
 2469SOL    HW2 8307   3.253   3.715   5.724
 2470SOL     OW 8308   2.870   3.862   5.798
 2470SOL    HW1 8309   2.920   3.843   5.882
 2470SOL    HW2 8310   2.918   3.932   5.745
 2471SOL     OW 8311   0.862   6.187   1.688
 2471SOL    HW1 8312   0.880   6.237   1.603
 2471SOL    HW2 8313   0.943   6.135   1.714
 2472SOL     OW 8314   5.647   2.013   4.661
 2472SOL    HW1 8315   5.617   2.094   4.713
 2472SOL    HW2 8316   5.590   2.003   4.580
 2473SOL     OW 8317   0.831   5.104   4.049
 2473SOL    HW1 8318   0.760   5.141   3.989
 2473SOL    HW2 8319   0.908   5.072   3.993
 2474SOL     OW 8320   6.829   4.931   5.333
 2474SOL    HW1 8321   6.733   4.919   5.359
 2474SOL    HW2 8322   6.834   4.985   5.249
 2475SOL     OW 8323   4.185   2.343   0.580
 2475SOL    HW1 8324   4.087   2.362   0.587
 2475SOL    HW2 8325   4.228   2.413   0.523
 2476SOL     OW 8326   0.750   1.805   3.788
 2476SOL    HW1 8327   0.736   1.738   3.715
 2476SOL    HW2 8328   0.665   1.813   3.841
 2477SOL     OW 8329   5.781   6.361   1.324
 2477SOL    HW1 8330   5.829   6.299   1.262
 2477SOL    HW2 8331   5.683   6.347   1.316
 2478SOL     OW 8332   6.566   6.591   2.415
 2478SOL    HW1 8333   6.575   6.577   2.514
 2478SOL    HW2 8334   6.513   6.674   2.398
 2479SOL     OW 8335   0.115   2.531   1.606
 2479SOL    HW1 8336   0.140   2.621   1.641
 2479SOL    HW2 8337   0.076   2.476   1.680
 2480SOL     OW 8338   6.667   3.352   1.186
 2480SOL    HW1 8339   6.644   3.448   1.202
 2480SOL    HW2 8340   6.582   3.300   1.171
 2481SOL     OW 8341   4.073   5.675   1.342
 2481SOL    HW1 8342   4.088   5.653   1.438
 2481SOL    HW2 8343   4.112   5.603   1.284
 2482SOL     OW 8344   4.756   3.321   5.529
 2482SOL    HW1 8345   4.698   3.348   5.452
 2482SOL    HW2 8346   4.835   3.271   5.495
 2483SOL     OW 8347   1.292   1.022   0.795
 2483SOL    HW1 8348   1.246   0.948   0.844
 2483SOL    HW2 8349   1.271   1.015   0.697
 2484SOL     OW 8350   2.456   0.778   0.597
 2484SOL    HW1 8351   2.411   0.795   0.685
 2484SOL    HW2 8352   2.457   0.863   0.544
 2485SOL     OW 8353   0.280   4.977   2.054
 2485SOL    HW1 8354   0.242   4.957   2.145
 2485SOL    HW2 8355   0.374   5.009   2.065
 2486SOL     OW 8356   2.136   5.700   3.423
 2486SOL    HW1 8357   2.136   5.600   3.423
 2486SOL    HW2 8358   2.070   5.734   3.356
 2487SOL     OW 8359   3.796   6.760   0.384
 2487SOL    HW1 8360   3.840   6.670   0.380
 2487SOL    HW2 8361   3.851   6.821   0.440
 2488SOL     OW 8362   2.782   4.346   1.221
 2488SOL    HW1 8363   2.737   4.385   1.301
 2488SOL    HW2 8364   2.834   4.265   1.248
 2489SOL     OW 8365   1.752   5.495   5.512
 2489SOL    HW1 8366   1.804   5.536   5.587
 2489SOL    HW2 8367   1.811   5.488   5.432
 2490SOL     OW 8368   6.488   4.521   0.572
 2490SOL    HW1 8369   6.535   4.504   0.659
 2490SOL    HW2 8370   6.550   4.499   0.497
 2491SOL     OW 8371   2.992   5.567   3.210
 2491SOL    HW1 8372   3.063   5.601   3.272
 2491SOL    HW2 8373   2.902   5.593   3.245
 2492SOL     OW 8374   5.048   3.306   6.139
 2492SOL    HW1 8375   5.006   3.382   6.089
 2492SOL    HW2 8376   5.018   3.310   6.235
 2493SOL     OW 8377   5.658   1.219   2.595
 2493SOL    HW1 8378   5.637   1.169   2.679
 2493SOL    HW2 8379   5.603   1.302   2.592
 2494SOL     OW 8380   4.679   2.792   2.519
 2494SOL    HW1 8381   4.581   2.782   2.507
 2494SOL    HW2 8382   4.718   2.704   2.549
 2495SOL     OW 8383   5.072   1.245   5.121
 2495SOL    HW1 8384   5.051   1.290   5.208
 2495SOL    HW2 8385   5.101   1.151   5.139
 2496SOL     OW 8386   0.977   5.266   0.038
 2496SOL    HW1 8387   0.909   5.317   7.014
 2496SOL    HW2 8388   0.937   5.237   0.125
 2497SOL     OW 8389   6.892   1.723   0.302
 2497SOL    HW1 8390   6.814   1.782   0.321
 2497SOL    HW2 8391   6.966   1.743   0.366
 2498SOL     OW 8392   2.071   2.920   3.513
 2498SOL    HW1 8393   2.097   3.011   3.547
 2498SOL    HW2 8394   2.121   2.901   3.428
 2499SOL     OW 8395   4.934   0.589   4.550
 2499SOL    HW1 8396   5.021   0.581   4.598
 2499SOL    HW2 8397   4.885   0.502   4.554
 2500SOL     OW 8398   4.912   3.058   6.052
 2500SOL    HW1 8399   4.956   3.127   6.110
 2500SOL    HW2 8400   4.983   3.002   6.008
 2501SOL     OW 8401   5.848   4.468   0.067
 2501SOL    HW1 8402   5.812   4.390   0.015
 2501SOL    HW2 8403   5.919   4.437   0.130
 2502SOL     OW 8404   2.020   6.820   3.226
 2502SOL    HW1 8405   2.017   6.869   3.139
 2502SOL    HW2 8406   1.928   6.799   3.257
 2503SOL     OW 8407   3.998   4.980   6.116
 2503SOL    HW1 8408   3.919   4.923   6.096
 2503SOL    HW2 8409   4.008   5.050   6.044
 2504SOL     OW 8410   1.870   4.714   4.841
 2504SOL    HW1 8411   1.962   4.676   4.840
 2504SOL    HW2 8412   1.862   4.784   4.769
 2505SOL     OW 8413   4.017   5.721   4.290
 2505SOL    HW1 8414   4.023   5.751   4.195
 2505SOL    HW2 8415   3.974   5.793   4.345
 2506SOL     OW 8416   6.457   3.183   6.220
 2506SOL    HW1 8417   6.552   3.214   6.225
 2506SOL    HW2 8418   6.454   3.084   6.236
 2507SOL     OW 8419   6.193   5.893   0.735
 2507SOL    HW1 8420   6.262   5.963   0.754
 2507SOL    HW2 8421   6.228   5.830   0.666
 2508SOL     OW 8422   2.583   1.729   2.285
 2508SOL    HW1 8423   2.639   1.810   2.265
 2508SOL    HW2 8424   2.604   1.696   2.377
 2509SOL     OW 8425   5.764   2.565   3.218
 2509SOL    HW1 8426   5.772   2.664   3.208
 2509SOL    HW2 8427   5.838   2.531   3.276
 2510SOL     OW 8428   3.203   5.086   0.120
 2510SOL    HW1 8429   3.272   5.136   0.172
 2510SOL    HW2 8430   3.166   5.145   0.048
 2511SOL     OW 8431   1.238   0.407   4.906
 2511SOL    HW1 8432   1.173   0.365   4.970
 2511SOL    HW2 8433   1.256   0.501   4.933
 2512SOL     OW 8434   4.837   4.071   4.920
 2512SOL    HW1 8435   4.782   4.153   4.930
 2512SOL    HW2 8436   4.932   4.091   4.945
 2513SOL     OW 8437   1.033   2.681   6.691
 2513SOL    HW1 8438   0.959   2.743   6.663
 2513SOL    HW2 8439   0.994   2.601   6.736
 2514SOL     OW 8440   1.178   0.938   4.674
 2514SOL    HW1 8441   1.171   1.008   4.602
 2514SOL    HW2 8442   1.087   0.902   4.693
 2515SOL     OW 8443   1.547   5.865   0.242
 2515SOL    HW1 8444   1.509   5.833   0.155
 2515SOL    HW2 8445   1.533   5.795   0.312
 2516SOL     OW 8446   6.115   6.363   3.367
 2516SOL    HW1 8447   6.079   6.424   3.296
 2516SOL    HW2 8448   6.100   6.403   3.457
 2517SOL     OW 8449   2.301   4.872   0.286
 2517SOL    HW1 8450   2.257   4.961   0.295
 2517SOL    HW2 8451   2.357   4.854   0.367
 2518SOL     OW 8452   2.580   2.993   6.632
 2518SOL    HW1 8453   2.583   3.070   6.568
 2518SOL    HW2 8454   2.665   2.990   6.684
 2519SOL     OW 8455   4.757   4.719   4.813
 2519SOL    HW1 8456   4.727   4.647   4.750
 2519SOL    HW2 8457   4.696   4.797   4.805
 2520SOL     OW 8458   2.405   3.610   1.189
 2520SOL    HW1 8459   2.370   3.540   1.251
 2520SOL    HW2 8460   2.431   3.568   1.102
 2521SOL     OW 8461   6.692   0.624   5.591
 2521SOL    HW1 8462   6.620   0.689   5.614
 2521SOL    HW2 8463   6.716   0.570   5.672
 2522SOL     OW 8464   1.198   3.271   4.370
 2522SOL    HW1 8465   1.261   3.344   4.399
 2522SOL    HW2 8466   1.251   3.192   4.340
 2523SOL     OW 8467   6.748   3.998   0.836
 2523SOL    HW1 8468   6.816   4.031   0.772
 2523SOL    HW2 8469   6.730   4.069   0.905
 2524SOL     OW 8470   1.474   6.514   3.996
 2524SOL    HW1 8471   1.566   6.476   4.007
 2524SOL    HW2 8472   1.475   6.610   4.024
 2525SOL     OW 8473   1.371   4.152   4.227
 2525SOL    HW1 8474   1.431   4.202   4.165
 2525SOL    HW2 8475   1.287   4.128   4.180
 2526SOL     OW 8476   0.209   1.657   4.004
 2526SOL    HW1 8477   0.255   1.722   4.065
 2526SOL    HW2 8478   0.199   1.698   3.913
 2527SOL     OW 8479   5.295   6.743   4.670
 2527SOL    HW1 8480   5.246   6.753   4.756
 2527SOL    HW2 8481   5.248   6.794   4.598
 2528SOL     OW 8482   6.002   5.456   0.761
 2528SOL    HW1 8483   5.904   5.437   0.752
 2528SOL    HW2 8484   6.028   5.524   0.693
 2529SOL     OW 8485   5.305   5.570   4.396
 2529SOL    HW1 8486   5.251   5.619   4.327
 2529SOL    HW2 8487   5.402   5.574   4.372
 2530SOL     OW 8488   1.279   6.883   3.121
 2530SOL    HW1 8489   1.377   6.905   3.121
 2530SOL    HW2 8490   1.263   6.805   3.182
 2531SOL     OW 8491   4.676   0.710   5.590
 2531SOL    HW1 8492   4.646   0.644   5.658
 2531SOL    HW2 8493   4.636   0.800   5.611
 2532SOL     OW 8494   1.349   5.195   6.700
 2532SOL    HW1 8495   1.445   5.184   6.724
 2532SOL    HW2 8496   1.319   5.117   6.645
 2533SOL     OW 8497   5.206   6.851   5.592
 2533SOL    HW1 8498   5.248   6.928   5.641
 2533SOL    HW2 8499   5.175   6.881   5.502
 2534SOL     OW 8500   1.984   0.495   3.630
 2534SOL    HW1 8501   2.065   0.554   3.641
 2534SOL    HW2 8502   1.952   0.465   3.720
 2535SOL     OW 8503   1.433   1.350   3.816
 2535SOL    HW1 8504   1.533   1.353   3.823
 2535SOL    HW2 8505   1.404   1.258   3.789
 2536SOL     OW 8506   6.017   1.643   4.501
 2536SOL    HW1 8507   6.062   1.559   4.531
 2536SOL    HW2 8508   5.918   1.634   4.516
 2537SOL     OW 8509   5.177   5.770   1.365
 2537SOL    HW1 8510   5.147   5.730   1.278
 2537SOL    HW2 8511   5.098   5.807   1.413
 2538SOL     OW 8512   1.836   4.941   4.716
 2538SOL    HW1 8513   1.758   4.940   4.653
 2538SOL    HW2 8514   1.919   4.965   4.665
 2539SOL     OW 8515   4.406   0.487   5.372
 2539SOL    HW1 8516   4.394   0.416   5.441
 2539SOL    HW2 8517   4.341   0.472   5.298
 2540SOL     OW 8518   5.502   1.263   2.022
 2540SOL    HW1 8519   5.598   1.262   1.993
 2540SOL    HW2 8520   5.479   1.354   2.057
 2541SOL     OW 8521   1.457   6.640   5.660
 2541SOL    HW1 8522   1.424   6.584   5.736
 2541SOL    HW2 8523   1.542   6.685   5.687
 2542SOL     OW 8524   3.368   1.623   4.444
 2542SOL    HW1 8525   3.403   1.559   4.513
 2542SOL    HW2 8526   3.278   1.593   4.414
 2543SOL     OW 8527   1.164   1.194   2.862
 2543SOL    HW1 8528   1.155   1.096   2.876
 2543SOL    HW2 8529   1.090   1.242   2.908
 2544SOL     OW 8530   6.807   5.222   1.167
 2544SOL    HW1 8531   6.834   5.318   1.169
 2544SOL    HW2 8532   6.779   5.197   1.075
 2545SOL     OW 8533   0.780   1.624   1.787
 2545SOL    HW1 8534   0.831   1.626   1.701
 2545SOL    HW2 8535   0.820   1.691   1.850
 2546SOL     OW 8536   6.307   3.805   2.322
 2546SOL    HW1 8537   6.277   3.716   2.288
 2546SOL    HW2 8538   6.389   3.834   2.272
 2547SOL     OW 8539   5.558   4.748   0.613
 2547SOL    HW1 8540   5.581   4.684   0.540
 2547SOL    HW2 8541   5.459   4.760   0.618
 2548SOL     OW 8542   0.347   7.026   5.206
 2548SOL    HW1 8543   0.434   6.980   5.221
 2548SOL    HW2 8544   0.275   6.959   5.190
 2549SOL     OW 8545   1.808   1.912   1.734
 2549SOL    HW1 8546   1.872   1.965   1.679
 2549SOL    HW2 8547   1.823   1.815   1.718
 2550SOL     OW 8548   4.387   0.392   6.437
 2550SOL    HW1 8549   4.455   0.438   6.380
 2550SOL    HW2 8550   4.345   0.317   6.385
 2551SOL     OW 8551   3.066   5.369   6.702
 2551SOL    HW1 8552   3.040   5.336   6.611
 2551SOL    HW2 8553   2.996   5.431   6.736
 2552SOL     OW 8554   2.039   5.365   0.105
 2552SOL    HW1 8555   1.992   5.285   0.143
 2552SOL    HW2 8556   2.132   5.370   0.142
 2553SOL     OW 8557   4.142   2.178   6.502
 2553SOL    HW1 8558   4.193   2.219   6.578
 2553SOL    HW2 8559   4.087   2.248   6.457
 2554SOL     OW 8560   1.951   5.951   1.122
 2554SOL    HW1 8561   1.983   5.886   1.053
 2554SOL    HW2 8562   1.986   5.923   1.212
 2555SOL     OW 8563   6.061   6.490   5.847
 2555SOL    HW1 8564   6.161   6.499   5.858
 2555SOL    HW2 8565   6.032   6.537   5.764
 2556SOL     OW 8566   3.404   6.755   1.698
 2556SOL    HW1 8567   3.315   6.795   1.720
 2556SOL    HW2 8568   3.474   6.794   1.758
 2557SOL     OW 8569   3.336   0.841   0.702
 2557SOL    HW1 8570   3.325   0.785   0.784
 2557SOL    HW2 8571   3.260   0.906   0.695
 2558SOL     OW 8572   5.647   4.518   6.623
 2558SOL    HW1 8573   5.583   4.447   6.652
 2558SOL    HW2 8574   5.688   4.561   6.703
 2559SOL     OW 8575   0.859   3.784   3.257
 2559SOL    HW1 8576   0.914   3.719   3.310
 2559SOL    HW2 8577   0.855   3.871   3.305
 2560SOL     OW 8578   4.459   2.483   3.010
 2560SOL    HW1 8579   4.422   2.506   2.921
 2560SOL    HW2 8580   4.550   2.525   3.020
 2561SOL     OW 8581   3.043   0.883   4.007
 2561SOL    HW1 8582   2.964   0.934   4.041
 2561SOL    HW2 8583   3.078   0.928   3.925
 2562SOL     OW 8584   3.348   6.474   3.351
 2562SOL    HW1 8585   3.407   6.421   3.411
 2562SOL    HW2 8586   3.383   6.471   3.257
 2563SOL     OW 8587   2.947   1.119   7.013
 2563SOL    HW1 8588   2.901   1.150   0.067
 2563SOL    HW2 8589   2.996   1.196   6.972
 2564SOL     OW 8590   1.473   0.784   0.833
 2564SOL    HW1 8591   1.465   0.685   0.830
 2564SOL    HW2 8592   1.478   0.820   0.740
 2565SOL     OW 8593   0.945   1.681   6.701
 2565SOL    HW1 8594   1.032   1.637   6.723
 2565SOL    HW2 8595   0.900   1.711   6.786
 2566SOL     OW 8596   3.242   1.127   1.658
 2566SOL    HW1 8597   3.169   1.155   1.720
 2566SOL    HW2 8598   3.272   1.035   1.682
 2567SOL     OW 8599   1.459   0.058   0.067
 2567SOL    HW1 8600   1.496   0.052   7.003
 2567SOL    HW2 8601   1.453   0.154   0.095
 2568SOL     OW 8602   2.684   6.148   1.256
 2568SOL    HW1 8603   2.683   6.067   1.197
 2568SOL    HW2 8604   2.658   6.122   1.349
 2569SOL     OW 8605   2.207   1.467   1.391
 2569SOL    HW1 8606   2.185   1.479   1.294
 2569SOL    HW2 8607   2.165   1.382   1.424
 2570SOL     OW 8608   5.089   6.128   6.924
 2570SOL    HW1 8609   5.061   6.198   6.859
 2570SOL    HW2 8610   5.121   6.171   7.008
 2571SOL     OW 8611   3.694   2.930   4.039
 2571SOL    HW1 8612   3.611   2.926   3.983
 2571SOL    HW2 8613   3.670   2.918   4.135
 2572SOL     OW 8614   2.519   5.196   1.654
 2572SOL    HW1 8615   2.576   5.118   1.677
 2572SOL    HW2 8616   2.457   5.171   1.579
 2573SOL     OW 8617   6.749   2.358   3.914
 2573SOL    HW1 8618   6.653   2.386   3.902
 2573SOL    HW2 8619   6.808   2.438   3.909
 2574SOL     OW 8620   6.623   3.605   1.271
 2574SOL    HW1 8621   6.557   3.678   1.289
 2574SOL    HW2 8622   6.715   3.644   1.265
 2575SOL     OW 8623   5.364   4.199   0.554
 2575SOL    HW1 8624   5.279   4.163   0.593
 2575SOL    HW2 8625   5.424   4.230   0.627
 2576SOL     OW 8626   2.164   6.878   3.483
 2576SOL    HW1 8627   2.137   6.865   3.387
 2576SOL    HW2 8628   2.172   6.975   3.502
 2577SOL     OW 8629   3.311   6.934   2.999
 2577SOL    HW1 8630   3.357   6.892   2.921
 2577SOL    HW2 8631   3.226   6.977   2.969
 2578SOL     OW 8632   4.465   2.531   4.495
 2578SOL    HW1 8633   4.539   2.589   4.529
 2578SOL    HW2 8634   4.400   2.513   4.569
 2579SOL     OW 8635   0.209   2.166   6.803
 2579SOL    HW1 8636   0.289   2.136   6.751
 2579SOL    HW2 8637   0.238   2.205   6.890
 2580SOL     OW 8638   1.675   2.124   6.615
 2580SOL    HW1 8639   1.640   2.033   6.597
 2580SOL    HW2 8640   1.651   2.185   6.539
 2581SOL     OW 8641   5.287   5.516   2.373
 2581SOL    HW1 8642   5.348   5.510   2.452
 2581SOL    HW2 8643   5.328   5.574   2.304
 2582SOL     OW 8644   0.975   5.433   2.606
 2582SOL    HW1 8645   1.045   5.434   2.678
 2582SOL    HW2 8646   0.894   5.482   2.637
 2583SOL     OW 8647   0.603   0.347   0.841
 2583SOL    HW1 8648   0.636   0.259   0.873
 2583SOL    HW2 8649   0.527   0.334   0.778
 2584SOL     OW 8650   3.195   6.277   1.176
 2584SOL    HW1 8651   3.198   6.315   1.083
 2584SOL    HW2 8652   3.142   6.192   1.175
 2585SOL     OW 8653   3.243   6.838   0.726
 2585SOL    HW1 8654   3.318   6.888   0.682
 2585SOL    HW2 8655   3.233   6.869   0.820
 2586SOL     OW 8656   6.043   1.394   4.576
 2586SOL    HW1 8657   6.111   1.381   4.649
 2586SOL    HW2 8658   5.953   1.368   4.611
 2587SOL     OW 8659   6.334   6.953   4.399
 2587SOL    HW1 8660   6.301   6.911   4.483
 2587SOL    HW2 8661   6.261   6.950   4.330
 2588SOL     OW 8662   5.897   0.752   1.570
 2588SOL    HW1 8663   5.865   0.774   1.662
 2588SOL    HW2 8664   5.919   0.655   1.565
 2589SOL     OW 8665   6.435   0.279   5.680
 2589SOL    HW1 8666   6.347   0.256   5.639
 2589SOL    HW2 8667   6.460   0.373   5.655
 2590SOL     OW 8668   3.976   6.611   2.550
 2590SOL    HW1 8669   3.991   6.525   2.500
 2590SOL    HW2 8670   4.037   6.681   2.513
 2591SOL     OW 8671   4.972   6.450   1.432
 2591SOL    HW1 8672   5.069   6.437   1.407
 2591SOL    HW2 8673   4.966   6.486   1.525
 2592SOL     OW 8674   3.541   5.443   1.124
 2592SOL    HW1 8675   3.501   5.422   1.213
 2592SOL    HW2 8676   3.537   5.362   1.065
 2593SOL     OW 8677   3.493   6.348   3.106
 2593SOL    HW1 8678   3.500   6.444   3.079
 2593SOL    HW2 8679   3.567   6.296   3.062
 2594SOL     OW 8680   0.230   0.761   6.715
 2594SOL    HW1 8681   0.184   0.690   6.768
 2594SOL    HW2 8682   0.295   0.720   6.652
 2595SOL     OW 8683   6.953   3.382   4.738
 2595SOL    HW1 8684   6.866   3.405   4.695
 2595SOL    HW2 8685   7.001   3.466   4.763
 2596SOL     OW 8686   4.038   2.042   2.098
 2596SOL    HW1 8687   4.024   1.947   2.069
 2596SOL    HW2 8688   3.951   2.080   2.129
 2597SOL     OW 8689   2.643   3.295   1.425
 2597SOL    HW1 8690   2.586   3.283   1.507
 2597SOL    HW2 8691   2.596   3.255   1.346
 2598SOL     OW 8692   6.778   3.087   4.134
 2598SOL    HW1 8693   6.779   3.184   4.110
 2598SOL    HW2 8694   6.686   3.050   4.119
 2599SOL     OW 8695   4.312   5.884   6.566
 2599SOL    HW1 8696   4.289   5.922   6.656
 2599SOL    HW2 8697   4.361   5.953   6.512
 2600SOL     OW 8698   5.782   3.849   3.759
 2600SOL    HW1 8699   5.830   3.831   3.845
 2600SOL    HW2 8700   5.685   3.828   3.771
 2601SOL     OW 8701   3.357   3.035   5.588
 2601SOL    HW1 8702   3.292   2.964   5.562
 2601SOL    HW2 8703   3.377   3.093   5.509
 2602SOL     OW 8704   0.231   4.996   4.542
 2602SOL    HW1 8705   0.294   5.047   4.601
 2602SOL    HW2 8706   0.148   5.050   4.527
 2603SOL     OW 8707   2.512   2.236   1.493
 2603SOL    HW1 8708   2.550   2.161   1.546
 2603SOL    HW2 8709   2.581   2.308   1.484
 2604SOL     OW 8710   5.107   0.221   0.965
 2604SOL    HW1 8711   5.063   0.245   1.052
 2604SOL    HW2 8712   5.199   0.185   0.983
 2605SOL     OW 8713   4.093   4.871   3.721
 2605SOL    HW1 8714   4.082   4.771   3.720
 2605SOL    HW2 8715   4.167   4.897   3.659
 2606SOL     OW 8716   6.268   4.242   1.163
 2606SOL    HW1 8717   6.314   4.307   1.103
 2606SOL    HW2 8718   6.305   4.150   1.147
 2607SOL     OW 8719   1.492   1.114   3.416
 2607SOL    HW1 8720   1.493   1.089   3.513
 2607SOL    HW2 8721   1.442   1.200   3.404
 2608SOL     OW 8722   5.584   0.239   1.867
 2608SOL    HW1 8723   5.490   0.260   1.841
 2608SOL    HW2 8724   5.610   0.149   1.830
 2609SOL     OW 8725   0.575   2.456   2.458
 2609SOL    HW1 8726   0.560   2.480   2.554
 2609SOL    HW2 8727   0.573   2.539   2.402
 2610SOL     OW 8728   6.788   5.298   4.787
 2610SOL    HW1 8729   6.834   5.216   4.819
 2610SOL    HW2 8730   6.837   5.379   4.820
 2611SOL     OW 8731   5.197   6.852   0.790
 2611SOL    HW1 8732   5.150   6.875   0.876
 2611SOL    HW2 8733   5.159   6.767   0.753
 2612SOL     OW 8734   5.018   6.604   4.240
 2612SOL    HW1 8735   5.020   6.651   4.328
 2612SOL    HW2 8736   5.111   6.602   4.201
 2613SOL     OW 8737   3.262   6.946   2.082
 2613SOL    HW1 8738   3.328   6.874   2.100
 2613SOL    HW2 8739   3.236   6.990   2.169
 2614SOL     OW 8740   6.416   6.978   5.762
 2614SOL    HW1 8741   6.503   7.027   5.759
 2614SOL    HW2 8742   6.386   6.957   5.669
 2615SOL     OW 8743   5.345   5.413   3.703
 2615SOL    HW1 8744   5.281   5.339   3.682
 2615SOL    HW2 8745   5.416   5.379   3.764
 2616SOL     OW 8746   4.140   3.419   3.106
 2616SOL    HW1 8747   4.180   3.507   3.081
 2616SOL    HW2 8748   4.113   3.420   3.202
 2617SOL     OW 8749   3.820   5.271   1.014
 2617SOL    HW1 8750   3.871   5.330   1.076
 2617SOL    HW2 8751   3.779   5.195   1.065
 2618SOL     OW 8752   0.126   7.005   2.281
 2618SOL    HW1 8753   0.221   0.008   2.281
 2618SOL    HW2 8754   0.117   6.928   2.217
 2619SOL     OW 8755   4.675   1.982   2.183
 2619SOL    HW1 8756   4.731   1.900   2.193
 2619SOL    HW2 8757   4.721   2.047   2.123
 2620SOL     OW 8758   1.268   5.332   3.176
 2620SOL    HW1 8759   1.250   5.242   3.214
 2620SOL    HW2 8760   1.311   5.323   3.086
 2621SOL     OW 8761   0.218   5.371   3.760
 2621SOL    HW1 8762   0.277   5.358   3.839
 2621SOL    HW2 8763   0.253   5.446   3.704
 2622SOL     OW 8764   2.192   3.193   6.177
 2622SOL    HW1 8765   2.225   3.138   6.100
 2622SOL    HW2 8766   2.247   3.174   6.258
 2623SOL     OW 8767   3.374   1.381   4.146
 2623SOL    HW1 8768   3.431   1.323   4.204
 2623SOL    HW2 8769   3.278   1.368   4.171
 2624SOL     OW 8770   5.883   2.929   2.824
 2624SOL    HW1 8771   5.862   2.865   2.750
 2624SOL    HW2 8772   5.981   2.927   2.843
 2625SOL     OW 8773   2.066   2.957   5.400
 2625SOL    HW1 8774   2.015   2.949   5.314
 2625SOL    HW2 8775   2.153   3.002   5.383
 2626SOL     OW 8776   1.180   6.451   3.960
 2626SOL    HW1 8777   1.279   6.437   3.959
 2626SOL    HW2 8778   1.159   6.547   3.942
 2627SOL     OW 8779   0.710   0.981   4.656
 2627SOL    HW1 8780   0.800   0.938   4.665
 2627SOL    HW2 8781   0.638   0.912   4.669
 2628SOL     OW 8782   3.569   6.405   6.507
 2628SOL    HW1 8783   3.568   6.308   6.531
 2628SOL    HW2 8784   3.530   6.459   6.582
 2629SOL     OW 8785   3.785   3.973   1.630
 2629SOL    HW1 8786   3.795   4.058   1.682
 2629SOL    HW2 8787   3.875   3.942   1.600
 2630SOL     OW 8788   3.636   1.574   2.163
 2630SOL    HW1 8789   3.568   1.552   2.093
 2630SOL    HW2 8790   3.624   1.669   2.192
 2631SOL     OW 8791   4.753   6.815   4.393
 2631SOL    HW1 8792   4.843   6.803   4.435
 2631SOL    HW2 8793   4.709   6.897   4.430
 2632SOL     OW 8794   3.240   2.329   0.382
 2632SOL    HW1 8795   3.163   2.353   0.441
 2632SOL    HW2 8796   3.311   2.285   0.437
 2633SOL     OW 8797   5.994   2.689   6.749
 2633SOL    HW1 8798   6.010   2.770   6.692
 2633SOL    HW2 8799   5.901   2.655   6.733
 2634SOL     OW 8800   1.785   4.146   2.306
 2634SOL    HW1 8801   1.863   4.181   2.358
 2634SOL    HW2 8802   1.806   4.148   2.209
 2635SOL     OW 8803   5.544   6.351   4.425
 2635SOL    HW1 8804   5.626   6.295   4.410
 2635SOL    HW2 8805   5.473   6.322   4.361
 2636SOL     OW 8806   6.063   7.004   6.175
 2636SOL    HW1 8807   6.082   6.978   6.080
 2636SOL    HW2 8808   6.022   6.927   6.223
 2637SOL     OW 8809   6.062   0.661   3.215
 2637SOL    HW1 8810   5.981   0.718   3.207
 2637SOL    HW2 8811   6.041   0.580   3.270
 2638SOL     OW 8812   5.649   6.801   1.425
 2638SOL    HW1 8813   5.704   6.734   1.474
 2638SOL    HW2 8814   5.639   6.773   1.330
 2639SOL     OW 8815   6.060   6.500   1.998
 2639SOL    HW1 8816   6.158   6.485   1.992
 2639SOL    HW2 8817   6.038   6.590   1.960
 2640SOL     OW 8818   0.097   6.300   4.793
 2640SOL    HW1 8819   0.134   6.229   4.853
 2640SOL    HW2 8820   0.133   6.288   4.700
 2641SOL     OW 8821   5.557   3.721   0.118
 2641SOL    HW1 8822   5.620   3.717   0.195
 2641SOL    HW2 8823   5.464   3.700   0.150
 2642SOL     OW 8824   5.414   0.245   4.466
 2642SOL    HW1 8825   5.442   0.312   4.398
 2642SOL    HW2 8826   5.470   0.163   4.457
 2643SOL     OW 8827   6.650   5.852   2.780
 2643SOL    HW1 8828   6.717   5.837   2.853
 2643SOL    HW2 8829   6.627   5.949   2.777
 2644SOL     OW 8830   1.236   4.833   5.625
 2644SOL    HW1 8831   1.212   4.785   5.540
 2644SOL    HW2 8832   1.161   4.892   5.653
 2645SOL     OW 8833   5.153   6.912   5.861
 2645SOL    HW1 8834   5.237   6.876   5.901
 2645SOL    HW2 8835   5.149   6.886   5.765
 2646SOL     OW 8836   6.290   0.679   6.318
 2646SOL    HW1 8837   6.295   0.701   6.221
 2646SOL    HW2 8838   6.259   0.759   6.369
 2647SOL     OW 8839   5.012   0.816   0.750
 2647SOL    HW1 8840   5.035   0.826   0.653
 2647SOL    HW2 8841   5.058   0.888   0.803
 2648SOL     OW 8842   6.656   6.724   2.637
 2648SOL    HW1 8843   6.697   6.789   2.572
 2648SOL    HW2 8844   6.721   6.706   2.711
 2649SOL     OW 8845   3.632   1.462   6.075
 2649SOL    HW1 8846   3.582   1.386   6.035
 2649SOL    HW2 8847   3.616   1.545   6.021
 2650SOL     OW 8848   0.649   4.864   3.413
 2650SOL    HW1 8849   0.615   4.792   3.353
 2650SOL    HW2 8850   0.676   4.824   3.501
 2651SOL     OW 8851   0.813   1.638   1.333
 2651SOL    HW1 8852   0.717   1.662   1.324
 2651SOL    HW2 8853   0.843   1.588   1.252
 2652SOL     OW 8854   3.129   3.076   3.199
 2652SOL    HW1 8855   3.080   3.083   3.112
 2652SOL    HW2 8856   3.193   2.999   3.196
 2653SOL     OW 8857   5.725   6.911   6.300
 2653SOL    HW1 8858   5.715   6.869   6.390
 2653SOL    HW2 8859   5.810   6.881   6.258
 2654SOL     OW 8860   5.434   3.120   6.127
 2654SOL    HW1 8861   5.513   3.131   6.186
 2654SOL    HW2 8862   5.386   3.207   6.118
 2655SOL     OW 8863   4.515   5.840   4.372
 2655SOL    HW1 8864   4.505   5.741   4.383
 2655SOL    HW2 8865   4.503   5.863   4.275
 2656SOL     OW 8866   5.218   4.780   3.846
 2656SOL    HW1 8867   5.214   4.718   3.924
 2656SOL    HW2 8868   5.133   4.834   3.842
 2657SOL     OW 8869   2.373   3.927   6.270
 2657SOL    HW1 8870   2.445   3.898   6.333
 2657SOL    HW2 8871   2.336   3.847   6.223
 2658SOL     OW 8872   6.537   4.771   6.203
 2658SOL    HW1 8873   6.564   4.866   6.220
 2658SOL    HW2 8874   6.619   4.713   6.197
 2659SOL     OW 8875   6.458   2.846   4.207
 2659SOL    HW1 8876   6.536   2.792   4.174
 2659SOL    HW2 8877   6.423   2.805   4.291
 2660SOL     OW 8878   6.737   2.030   2.174
 2660SOL    HW1 8879   6.832   2.059   2.181
 2660SOL    HW2 8880   6.701   2.008   2.264
 2661SOL     OW 8881   2.967   6.087   1.271
 2661SOL    HW1 8882   2.872   6.115   1.254
 2661SOL    HW2 8883   2.968   5.997   1.315
 2662SOL     OW 8884   4.517   6.811   4.249
 2662SOL    HW1 8885   4.504   6.898   4.296
 2662SOL    HW2 8886   4.611   6.780   4.262
 2663SOL     OW 8887   1.921   4.507   1.402
 2663SOL    HW1 8888   1.937   4.546   1.493
 2663SOL    HW2 8889   1.996   4.445   1.379
 2664SOL     OW 8890   3.410   3.965   3.439
 2664SOL    HW1 8891   3.369   3.993   3.352
 2664SOL    HW2 8892   3.466   3.884   3.425
 2665SOL     OW 8893   3.100   1.297   4.250
 2665SOL    HW1 8894   3.095   1.214   4.306
 2665SOL    HW2 8895   3.009   1.317   4.212
 2666SOL     OW 8896   5.075   5.015   0.895
 2666SOL    HW1 8897   5.079   4.960   0.811
 2666SOL    HW2 8898   5.142   4.981   0.961
 2667SOL     OW 8899   1.380   6.072   5.636
 2667SOL    HW1 8900   1.451   6.143   5.632
 2667SOL    HW2 8901   1.340   6.069   5.727
 2668SOL     OW 8902   6.737   3.612   4.226
 2668SOL    HW1 8903   6.779   3.603   4.316
 2668SOL    HW2 8904   6.799   3.662   4.165
 2669SOL     OW 8905   3.711   4.805   5.327
 2669SOL    HW1 8906   3.613   4.791   5.315
 2669SOL    HW2 8907   3.734   4.800   5.424
 2670SOL     OW 8908   0.052   1.143   6.804
 2670SOL    HW1 8909   0.098   1.077   6.864
 2670SOL    HW2 8910   0.036   1.228   6.854
 2671SOL     OW 8911   2.040   3.752   6.607
 2671SOL    HW1 8912   2.003   3.663   6.635
 2671SOL    HW2 8913   2.139   3.744   6.596
 2672SOL     OW 8914   1.852   5.164   0.083
 2672SOL    HW1 8915   1.893   5.073   0.071
 2672SOL    HW2 8916   1.885   5.224   0.010
 2673SOL     OW 8917   4.797   2.920   3.395
 2673SOL    HW1 8918   4.747   2.840   3.364
 2673SOL    HW2 8919   4.850   2.898   3.476
 2674SOL     OW 8920   1.542   4.677   4.438
 2674SOL    HW1 8921   1.479   4.612   4.397
 2674SOL    HW2 8922   1.625   4.630   4.466
 2675SOL     OW 8923   0.983   4.287   5.687
 2675SOL    HW1 8924   1.027   4.336   5.613
 2675SOL    HW2 8925   1.037   4.297   5.771
 2676SOL     OW 8926   5.238   1.870   2.717
 2676SOL    HW1 8927   5.183   1.925   2.655
 2676SOL    HW2 8928   5.182   1.846   2.797
 2677SOL     OW 8929   2.114   4.927   1.779
 2677SOL    HW1 8930   2.147   4.841   1.740
 2677SOL    HW2 8931   2.149   5.004   1.724
 2678SOL     OW 8932   1.141   4.970   7.015
 2678SOL    HW1 8933   1.179   4.884   0.022
 2678SOL    HW2 8934   1.044   4.974   0.008
 2679SOL     OW 8935   4.066   4.989   0.878
 2679SOL    HW1 8936   4.015   4.958   0.798
 2679SOL    HW2 8937   4.008   4.984   0.959
 2680SOL     OW 8938   2.064   1.364   0.589
 2680SOL    HW1 8939   2.118   1.280   0.580
 2680SOL    HW2 8940   2.003   1.356   0.668
 2681SOL     OW 8941   1.232   3.838   3.969
 2681SOL    HW1 8942   1.227   3.896   3.888
 2681SOL    HW2 8943   1.221   3.895   4.051
 2682SOL     OW 8944   5.527   2.820   2.172
 2682SOL    HW1 8945   5.625   2.840   2.174
 2682SOL    HW2 8946   5.489   2.852   2.085
 2683SOL     OW 8947   0.781   5.015   1.491
 2683SOL    HW1 8948   0.718   5.092   1.477
 2683SOL    HW2 8949   0.772   4.950   1.416
 2684SOL     OW 8950   4.266   6.261   2.486
 2684SOL    HW1 8951   4.219   6.290   2.402
 2684SOL    HW2 8952   4.221   6.302   2.565
 2685SOL     OW 8953   6.186   6.906   3.922
 2685SOL    HW1 8954   6.120   6.885   3.994
 2685SOL    HW2 8955   6.217   7.001   3.932
 2686SOL     OW 8956   1.659   2.599   4.319
 2686SOL    HW1 8957   1.724   2.675   4.319
 2686SOL    HW2 8958   1.662   2.553   4.230
 2687SOL     OW 8959   3.915   4.846   2.654
 2687SOL    HW1 8960   3.853   4.808   2.585
 2687SOL    HW2 8961   3.950   4.934   2.622
 2688SOL     OW 8962   4.009   5.113   5.868
 2688SOL    HW1 8963   3.922   5.151   5.900
 2688SOL    HW2 8964   4.024   5.140   5.773
 2689SOL     OW 8965   1.282   1.646   3.478
 2689SOL    HW1 8966   1.184   1.628   3.489
 2689SOL    HW2 8967   1.328   1.635   3.565
 2690SOL     OW 8968   3.999   3.162   3.653
 2690SOL    HW1 8969   4.026   3.219   3.731
 2690SOL    HW2 8970   3.946   3.084   3.686
 2691SOL     OW 8971   2.018   6.071   1.646
 2691SOL    HW1 8972   2.076   6.151   1.658
 2691SOL    HW2 8973   1.952   6.066   1.721
 2692SOL     OW 8974   6.432   5.112   3.752
 2692SOL    HW1 8975   6.336   5.111   3.781
 2692SOL    HW2 8976   6.489   5.079   3.826
 2693SOL     OW 8977   2.340   4.349   3.197
 2693SOL    HW1 8978   2.313   4.255   3.176
 2693SOL    HW2 8979   2.397   4.385   3.124
 2694SOL     OW 8980   2.945   0.241   2.985
 2694SOL    HW1 8981   2.878   0.231   2.912
 2694SOL    HW2 8982   3.021   0.297   2.953
 2695SOL     OW 8983   5.048   2.300   2.675
 2695SOL    HW1 8984   5.073   2.373   2.610
 2695SOL    HW2 8985   5.064   2.211   2.632
 2696SOL     OW 8986   4.000   3.309   5.445
 2696SOL    HW1 8987   3.969   3.399   5.476
 2696SOL    HW2 8988   4.028   3.315   5.349
 2697SOL     OW 8989   4.125   2.071   4.223
 2697SOL    HW1 8990   4.177   2.154   4.242
 2697SOL    HW2 8991   4.043   2.094   4.170
 2698SOL     OW 8992   1.168   4.798   0.942
 2698SOL    HW1 8993   1.073   4.825   0.922
 2698SOL    HW2 8994   1.226   4.879   0.940
 2699SOL     OW 8995   3.318   5.554   0.695
 2699SOL    HW1 8996   3.347   5.648   0.677
 2699SOL    HW2 8997   3.379   5.491   0.646
 2700SOL     OW 8998   2.187   3.208   2.954
 2700SOL    HW1 8999   2.251   3.147   3.001
 2700SOL    HW2 9000   2.195   3.300   2.990
 2701SOL     OW 9001   3.867   0.574   6.882
 2701SOL    HW1 9002   3.902   0.580   6.976
 2701SOL    HW2 9003   3.832   0.482   6.864
 2702SOL     OW 9004   6.479   1.973   3.364
 2702SOL    HW1 9005   6.421   1.934   3.435
 2702SOL    HW2 9006   6.466   2.072   3.360
 2703SOL     OW 9007   2.831   1.035   3.014
 2703SOL    HW1 9008   2.814   0.988   2.927
 2703SOL    HW2 9009   2.838   1.133   2.998
 2704SOL     OW 9010   2.025   5.784   2.081
 2704SOL    HW1 9011   1.928   5.761   2.093
 2704SOL    HW2 9012   2.077   5.700   2.063
 2705SOL     OW 9013   6.908   4.836   3.685
 2705SOL    HW1 9014   6.832   4.836   3.750
 2705SOL    HW2 9015   6.877   4.871   3.597
 2706SOL     OW 9016   6.613   1.515   1.764
 2706SOL    HW1 9017   6.578   1.600   1.802
 2706SOL    HW2 9018   6.673   1.536   1.686
 2707SOL     OW 9019   2.186   0.915   6.912
 2707SOL    HW1 9020   2.162   0.910   7.009
 2707SOL    HW2 9021   2.173   1.008   6.880
 2708SOL     OW 9022   2.424   2.590   1.955
 2708SOL    HW1 9023   2.488   2.513   1.959
 2708SOL    HW2 9024   2.410   2.625   2.048
 2709SOL     OW 9025   4.909   6.278   1.202
 2709SOL    HW1 9026   4.818   6.317   1.213
 2709SOL    HW2 9027   4.965   6.299   1.282
 2710SOL     OW 9028   6.923   3.597   2.922
 2710SOL    HW1 9029   6.879   3.535   2.857
 2710SOL    HW2 9030   6.880   3.586   3.012
 2711SOL     OW 9031   1.474   6.968   2.418
 2711SOL    HW1 9032   1.573   6.968   2.404
 2711SOL    HW2 9033   1.437   6.879   2.390
 2712SOL     OW 9034   2.982   4.687   0.371
 2712SOL    HW1 9035   2.997   4.766   0.312
 2712SOL    HW2 9036   2.936   4.716   0.455
 2713SOL     OW 9037   2.436   2.709   5.003
 2713SOL    HW1 9038   2.437   2.808   4.991
 2713SOL    HW2 9039   2.461   2.664   4.917
 2714SOL     OW 9040   5.396   1.768   6.304
 2714SOL    HW1 9041   5.450   1.786   6.222
 2714SOL    HW2 9042   5.406   1.845   6.368
 2715SOL     OW 9043   5.729   0.414   0.221
 2715SOL    HW1 9044   5.714   0.478   0.146
 2715SOL    HW2 9045   5.731   0.321   0.186
 2716SOL     OW 9046   6.888   5.495   1.124
 2716SOL    HW1 9047   6.986   5.507   1.144
 2716SOL    HW2 9048   6.871   5.514   1.027
 2717SOL     OW 9049   0.835   5.839   1.940
 2717SOL    HW1 9050   0.889   5.872   1.863
 2717SOL    HW2 9051   0.741   5.870   1.930
 2718SOL     OW 9052   1.828   3.761   4.357
 2718SOL    HW1 9053   1.904   3.779   4.420
 2718SOL    HW2 9054   1.805   3.664   4.359
 2719SOL     OW 9055   4.396   4.834   2.254
 2719SOL    HW1 9056   4.388   4.917   2.200
 2719SOL    HW2 9057   4.425   4.758   2.195
 2720SOL     OW 9058   1.658   5.934   3.263
 2720SOL    HW1 9059   1.656   6.028   3.228
 2720SOL    HW2 9060   1.626   5.871   3.192
 2721SOL     OW 9061   2.535   0.292   4.678
 2721SOL    HW1 9062   2.633   0.274   4.681
 2721SOL    HW2 9063   2.520   0.388   4.655
 2722SOL     OW 9064   0.114   5.736   3.100
 2722SOL    HW1 9065   0.151   5.821   3.137
 2722SOL    HW2 9066   0.092   5.673   3.175
 2723SOL     OW 9067   2.090   0.872   5.760
 2723SOL    HW1 9068   2.068   0.888   5.857
 2723SOL    HW2 9069   2.035   0.797   5.725
 2724SOL     OW 9070   3.322   5.248   5.975
 2724SOL    HW1 9071   3.281   5.158   5.963
 2724SOL    HW2 9072   3.410   5.239   6.023
 2725SOL     OW 9073   4.978   4.561   3.238
 2725SOL    HW1 9074   4.944   4.611   3.318
 2725SOL    HW2 9075   4.920   4.580   3.159
 2726SOL     OW 9076   5.229   4.774   1.965
 2726SOL    HW1 9077   5.242   4.741   1.871
 2726SOL    HW2 9078   5.196   4.699   2.022
 2727SOL     OW 9079   0.832   4.954   2.963
 2727SOL    HW1 9080   0.861   5.034   3.014
 2727SOL    HW2 9081   0.803   4.981   2.871
 2728SOL     OW 9082   3.126   0.361   5.142
 2728SOL    HW1 9083   3.172   0.297   5.203
 2728SOL    HW2 9084   3.194   0.417   5.095
 2729SOL     OW 9085   6.429   5.693   2.611
 2729SOL    HW1 9086   6.404   5.687   2.708
 2729SOL    HW2 9087   6.348   5.678   2.555
 2730SOL     OW 9088   2.215   0.066   0.742
 2730SOL    HW1 9089   2.308   0.102   0.736
 2730SOL    HW2 9090   2.217   6.996   0.730
 2731SOL     OW 9091   2.822   3.749   1.421
 2731SOL    HW1 9092   2.749   3.793   1.369
 2731SOL    HW2 9093   2.787   3.665   1.464
 2732SOL     OW 9094   5.684   3.197   2.497
 2732SOL    HW1 9095   5.733   3.168   2.579
 2732SOL    HW2 9096   5.643   3.287   2.512
 2733SOL     OW 9097   0.969   0.085   6.036
 2733SOL    HW1 9098   1.009   0.139   5.961
 2733SOL    HW2 9099   1.025   0.097   6.118
 2734SOL     OW 9100   1.599   6.296   3.652
 2734SOL    HW1 9101   1.629   6.240   3.730
 2734SOL    HW2 9102   1.675   6.354   3.622
 2735SOL     OW 9103   0.983   4.008   2.714
 2735SOL    HW1 9104   0.960   4.081   2.650
 2735SOL    HW2 9105   0.958   4.036   2.807
 2736SOL     OW 9106   4.878   0.890   5.653
 2736SOL    HW1 9107   4.823   0.813   5.620
 2736SOL    HW2 9108   4.869   0.897   5.752
 2737SOL     OW 9109   3.414   3.309   6.314
 2737SOL    HW1 9110   3.384   3.396   6.274
 2737SOL    HW2 9111   3.463   3.256   6.245
 2738SOL     OW 9112   5.095   5.539   3.772
 2738SOL    HW1 9113   5.184   5.502   3.745
 2738SOL    HW2 9114   5.104   5.637   3.791
 2739SOL     OW 9115   5.838   4.142   1.022
 2739SOL    HW1 9116   5.869   4.048   1.032
 2739SOL    HW2 9117   5.917   4.204   1.024
 2740SOL     OW 9118   6.382   2.003   2.395
 2740SOL    HW1 9119   6.340   1.979   2.307
 2740SOL    HW2 9120   6.327   2.072   2.441
 2741SOL     OW 9121   0.310   1.800   5.999
 2741SOL    HW1 9122   0.327   1.756   6.087
 2741SOL    HW2 9123   0.355   1.747   5.927
 2742SOL     OW 9124   1.078   5.580   6.302
 2742SOL    HW1 9125   1.068   5.586   6.203
 2742SOL    HW2 9126   1.175   5.574   6.325
 2743SOL     OW 9127   5.551   5.689   1.464
 2743SOL    HW1 9128   5.478   5.621   1.462
 2743SOL    HW2 9129   5.560   5.732   1.374
 2744SOL     OW 9130   4.340   2.530   6.540
 2744SOL    HW1 9131   4.251   2.544   6.584
 2744SOL    HW2 9132   4.326   2.487   6.450
 2745SOL     OW 9133   1.719   6.274   0.745
 2745SOL    HW1 9134   1.627   6.293   0.712
 2745SOL    HW2 9135   1.769   6.361   0.756
 2746SOL     OW 9136   1.678   2.814   4.878
 2746SOL    HW1 9137   1.747   2.812   4.806
 2746SOL    HW2 9138   1.654   2.720   4.903
 2747SOL     OW 9139   5.821   5.271   5.184
 2747SOL    HW1 9140   5.845   5.290   5.089
 2747SOL    HW2 9141   5.748   5.203   5.186
 2748SOL     OW 9142   3.784   1.458   3.586
 2748SOL    HW1 9143   3.769   1.541   3.640
 2748SOL    HW2 9144   3.705   1.440   3.527
 2749SOL     OW 9145   5.405   4.560   4.303
 2749SOL    HW1 9146   5.428   4.476   4.254
 2749SOL    HW2 9147   5.430   4.550   4.399
 2750SOL     OW 9148   0.578   5.787   1.725
 2750SOL    HW1 9149   0.653   5.728   1.696
 2750SOL    HW2 9150   0.578   5.793   1.825
 2751SOL     OW 9151   1.880   0.003   0.611
 2751SOL    HW1 9152   1.938   0.074   0.650
 2751SOL    HW2 9153   1.790   0.006   0.654
 2752SOL     OW 9154   4.661   6.417   5.257
 2752SOL    HW1 9155   4.735   6.349   5.251
 2752SOL    HW2 9156   4.574   6.373   5.236
 2753SOL     OW 9157   3.260   5.672   5.996
 2753SOL    HW1 9158   3.334   5.682   6.062
 2753SOL    HW2 9159   3.227   5.577   5.998
 2754SOL     OW 9160   0.519   0.246   4.269
 2754SOL    HW1 9161   0.571   0.237   4.184
 2754SOL    HW2 9162   0.431   0.289   4.249
 2755SOL     OW 9163   2.544   6.196   3.330
 2755SOL    HW1 9164   2.636   6.158   3.325
 2755SOL    HW2 9165   2.526   6.250   3.248
 2756SOL     OW 9166   5.714   4.188   4.548
 2756SOL    HW1 9167   5.676   4.096   4.543
 2756SOL    HW2 9168   5.751   4.215   4.459
 2757SOL     OW 9169   4.265   1.921   6.731
 2757SOL    HW1 9170   4.167   1.916   6.711
 2757SOL    HW2 9171   4.278   1.938   6.828
 2758SOL     OW 9172   5.112   4.873   3.522
 2758SOL    HW1 9173   5.111   4.972   3.515
 2758SOL    HW2 9174   5.137   4.833   3.434
 2759SOL     OW 9175   3.250   4.445   5.938
 2759SOL    HW1 9176   3.232   4.505   5.860
 2759SOL    HW2 9177   3.199   4.477   6.018
 2760SOL     OW 9178   5.874   6.038   3.254
 2760SOL    HW1 9179   5.936   5.960   3.266
 2760SOL    HW2 9180   5.844   6.070   3.344
 2761SOL     OW 9181   1.843   3.706   2.854
 2761SOL    HW1 9182   1.916   3.652   2.811
 2761SOL    HW2 9183   1.883   3.787   2.896
 2762SOL     OW 9184   1.412   2.160   6.758
 2762SOL    HW1 9185   1.505   2.169   6.725
 2762SOL    HW2 9186   1.401   2.215   6.841
 2763SOL     OW 9187   4.746   1.496   5.966
 2763SOL    HW1 9188   4.742   1.452   5.876
 2763SOL    HW2 9189   4.723   1.429   6.036
 2764SOL     OW 9190   0.955   4.434   2.923
 2764SOL    HW1 9191   0.906   4.448   2.837
 2764SOL    HW2 9192   0.895   4.386   2.987
 2765SOL     OW 9193   6.356   6.698   6.836
 2765SOL    HW1 9194   6.347   6.632   6.910
 2765SOL    HW2 9195   6.387   6.786   6.873
 2766SOL     OW 9196   4.416   1.310   0.059
 2766SOL    HW1 9197   4.464   1.256   0.128
 2766SOL    HW2 9198   4.472   1.390   0.034
 2767SOL     OW 9199   5.793   5.722   6.055
 2767SOL    HW1 9200   5.702   5.753   6.028
 2767SOL    HW2 9201   5.808   5.629   6.022
 2768SOL     OW 9202   3.922   0.565   1.090
 2768SOL    HW1 9203   3.966   0.625   1.023
 2768SOL    HW2 9204   3.991   0.532   1.154
 2769SOL     OW 9205   1.704   3.846   5.762
 2769SOL    HW1 9206   1.758   3.930   5.765
 2769SOL    HW2 9207   1.663   3.836   5.671
 2770SOL     OW 9208   3.425   6.571   6.289
 2770SOL    HW1 9209   3.360   6.513   6.239
 2770SOL    HW2 9210   3.481   6.513   6.349
 2771SOL     OW 9211   4.704   0.110   4.182
 2771SOL    HW1 9212   4.643   0.072   4.251
 2771SOL    HW2 9213   4.651   0.158   4.112
 2772SOL     OW 9214   3.551   0.677   2.671
 2772SOL    HW1 9215   3.601   0.591   2.673
 2772SOL    HW2 9216   3.612   0.753   2.694
 2773SOL     OW 9217   0.555   2.876   4.745
 2773SOL    HW1 9218   0.535   2.961   4.793
 2773SOL    HW2 9219   0.478   2.851   4.686
 2774SOL     OW 9220   4.761   2.173   3.364
 2774SOL    HW1 9221   4.751   2.192   3.266
 2774SOL    HW2 9222   4.858   2.167   3.387
 2775SOL     OW 9223   0.004   3.935   4.195
 2775SOL    HW1 9224   0.091   3.954   4.150
 2775SOL    HW2 9225   0.018   3.933   4.294
 2776SOL     OW 9226   4.681   4.602   6.286
 2776SOL    HW1 9227   4.583   4.624   6.289
 2776SOL    HW2 9228   4.707   4.580   6.192
 2777SOL     OW 9229   3.172   2.333   5.846
 2777SOL    HW1 9230   3.259   2.294   5.875
 2777SOL    HW2 9231   3.152   2.305   5.752
 2778SOL     OW 9232   2.596   5.803   6.511
 2778SOL    HW1 9233   2.567   5.872   6.445
 2778SOL    HW2 9234   2.666   5.745   6.469
 2779SOL     OW 9235   5.809   6.170   2.195
 2779SOL    HW1 9236   5.840   6.249   2.142
 2779SOL    HW2 9237   5.742   6.118   2.140
 2780SOL     OW 9238   0.450   1.154   6.312
 2780SOL    HW1 9239   0.447   1.059   6.342
 2780SOL    HW2 9240   0.544   1.188   6.319
 2781SOL     OW 9241   6.720   0.655   2.258
 2781SOL    HW1 9242   6.743   0.692   2.168
 2781SOL    HW2 9243   6.621   0.641   2.264
 2782SOL     OW 9244   4.285   1.263   6.597
 2782SOL    HW1 9245   4.263   1.228   6.688
 2782SOL    HW2 9246   4.210   1.321   6.565
 2783SOL     OW 9247   6.094   3.580   2.119
 2783SOL    HW1 9248   6.045   3.660   2.084
 2783SOL    HW2 9249   6.135   3.530   2.043
 2784SOL     OW 9250   2.153   1.686   1.824
 2784SOL    HW1 9251   2.087   1.670   1.750
 2784SOL    HW2 9252   2.177   1.600   1.867
 2785SOL     OW 9253   4.960   3.004   1.785
 2785SOL    HW1 9254   4.906   3.006   1.702
 2785SOL    HW2 9255   4.932   3.078   1.846
 2786SOL     OW 9256   6.975   5.495   0.478
 2786SOL    HW1 9257   6.972   5.581   0.528
 2786SOL    HW2 9258   7.023   5.426   0.532
 2787SOL     OW 9259   6.193   5.790   5.760
 2787SOL    HW1 9260   6.138   5.864   5.722
 2787SOL    HW2 9261   6.290   5.809   5.742
 2788SOL     OW 9262   3.307   6.481   5.788
 2788SOL    HW1 9263   3.404   6.467   5.771
 2788SOL    HW2 9264   3.268   6.398   5.828
 2789SOL     OW 9265   1.435   2.667   4.041
 2789SOL    HW1 9266   1.501   2.591   4.049
 2789SOL    HW2 9267   1.369   2.661   4.115
 2790SOL     OW 9268   2.429   5.558   0.663
 2790SOL    HW1 9269   2.456   5.625   0.594
 2790SOL    HW2 9270   2.363   5.599   0.726
 2791SOL     OW 9271   6.937   3.682   2.575
 2791SOL    HW1 9272   6.913   3.637   2.489
 2791SOL    HW2 9273   7.022   3.644   2.610
 2792SOL     OW 9274   3.145   1.040   5.026
 2792SOL    HW1 9275   3.158   1.058   5.124
 2792SOL    HW2 9276   3.047   1.037   5.006
 2793SOL     OW 9277   4.239   4.142   1.294
 2793SOL    HW1 9278   4.295   4.204   1.349
 2793SOL    HW2 9279   4.144   4.148   1.323
 2794SOL     OW 9280   0.196   1.459   6.024
 2794SOL    HW1 9281   0.110   1.425   6.063
 2794SOL    HW2 9282   0.179   1.496   5.933
 2795SOL     OW 9283   0.282   4.865   1.454
 2795SOL    HW1 9284   0.286   4.836   1.358
 2795SOL    HW2 9285   0.358   4.824   1.505
 2796SOL     OW 9286   0.755   6.218   5.524
 2796SOL    HW1 9287   0.706   6.183   5.444
 2796SOL    HW2 9288   0.828   6.155   5.549
 2797SOL     OW 9289   5.576   6.633   4.548
 2797SOL    HW1 9290   5.484   6.649   4.585
 2797SOL    HW2 9291   5.575   6.552   4.490
 2798SOL     OW 9292   6.624   6.622   1.769
 2798SOL    HW1 9293   6.618   6.525   1.746
 2798SOL    HW2 9294   6.632   6.632   1.868
 2799SOL     OW 9295   4.196   5.973   4.598
 2799SOL    HW1 9296   4.255   6.054   4.598
 2799SOL    HW2 9297   4.107   5.996   4.560
 2800SOL     OW 9298   6.267   0.384   0.158
 2800SOL    HW1 9299   6.270   0.369   0.059
 2800SOL    HW2 9300   6.210   0.465   0.177
 2801SOL     OW 9301   0.473   5.097   5.994
 2801SOL    HW1 9302   0.396   5.138   5.945
 2801SOL    HW2 9303   0.468   4.998   5.988
 2802SOL     OW 9304   6.451   6.262   5.275
 2802SOL    HW1 9305   6.478   6.238   5.182
 2802SOL    HW2 9306   6.373   6.207   5.304
 2803SOL     OW 9307   3.372   3.159   5.852
 2803SOL    HW1 9308   3.381   3.132   5.756
 2803SOL    HW2 9309   3.454   3.209   5.880
 2804SOL     OW 9310   0.690   2.736   4.110
 2804SOL    HW1 9311   0.771   2.727   4.053
 2804SOL    HW2 9312   0.717   2.762   4.202
 2805SOL     OW 9313   4.759   3.833   1.770
 2805SOL    HW1 9314   4.725   3.745   1.736
 2805SOL    HW2 9315   4.834   3.816   1.834
 2806SOL     OW 9316   1.245   4.143   5.828
 2806SOL    HW1 9317   1.171   4.076   5.825
 2806SOL    HW2 9318   1.329   4.099   5.860
 2807SOL     OW 9319   2.787   0.210   2.766
 2807SOL    HW1 9320   2.750   0.303   2.763
 2807SOL    HW2 9321   2.712   0.144   2.760
 2808SOL     OW 9322   6.391   5.517   0.629
 2808SOL    HW1 9323   6.434   5.510   0.538
 2808SOL    HW2 9324   6.461   5.540   0.697
 2809SOL     OW 9325   6.292   4.964   2.359
 2809SOL    HW1 9326   6.295   5.064   2.358
 2809SOL    HW2 9327   6.344   4.931   2.438
 2810SOL     OW 9328   2.597   5.747   3.601
 2810SOL    HW1 9329   2.508   5.741   3.646
 2810SOL    HW2 9330   2.669   5.746   3.669
 2811SOL     OW 9331   0.670   0.168   2.292
 2811SOL    HW1 9332   0.738   0.194   2.223
 2811SOL    HW2 9333   0.633   0.250   2.335
 2812SOL     OW 9334   0.802   3.218   1.149
 2812SOL    HW1 9335   0.716   3.206   1.101
 2812SOL    HW2 9336   0.863   3.276   1.095
 2813SOL     OW 9337   0.306   1.851   1.091
 2813SOL    HW1 9338   0.213   1.834   1.122
 2813SOL    HW2 9339   0.314   1.946   1.060
 2814SOL     OW 9340   2.193   4.572   6.983
 2814SOL    HW1 9341   2.197   4.672   6.989
 2814SOL    HW2 9342   2.285   4.536   6.973
 2815SOL     OW 9343   0.142   5.818   4.774
 2815SOL    HW1 9344   0.146   5.794   4.871
 2815SOL    HW2 9345   0.167   5.738   4.719
 2816SOL     OW 9346   0.235   6.220   5.360
 2816SOL    HW1 9347   0.321   6.170   5.353
 2816SOL    HW2 9348   0.249   6.314   5.330
 2817SOL     OW 9349   3.956   0.515   1.765
 2817SOL    HW1 9350   3.955   0.614   1.751
 2817SOL    HW2 9351   3.999   0.494   1.853
 2818SOL     OW 9352   1.543   0.474   1.391
 2818SOL    HW1 9353   1.461   0.519   1.425
 2818SOL    HW2 9354   1.519   0.410   1.318
 2819SOL     OW 9355   0.512   6.825   0.780
 2819SOL    HW1 9356   0.547   6.746   0.729
 2819SOL    HW2 9357   0.447   6.874   0.723
 2820SOL     OW 9358   0.933   2.318   2.196
 2820SOL    HW1 9359   0.890   2.342   2.282
 2820SOL    HW2 9360   0.986   2.396   2.161
 2821SOL     OW 9361   3.462   4.169   6.641
 2821SOL    HW1 9362   3.501   4.261   6.632
 2821SOL    HW2 9363   3.524   4.102   6.600
 2822SOL     OW 9364   3.926   2.434   0.625
 2822SOL    HW1 9365   3.865   2.480   0.561
 2822SOL    HW2 9366   3.942   2.493   0.704
 2823SOL     OW 9367   5.087   1.309   0.669
 2823SOL    HW1 9368   5.035   1.248   0.609
 2823SOL    HW2 9369   5.028   1.384   0.699
 2824SOL     OW 9370   1.170   3.495   5.659
 2824SOL    HW1 9371   1.139   3.578   5.613
 2824SOL    HW2 9372   1.270   3.488   5.653
 2825SOL     OW 9373   5.089   1.739   6.110
 2825SOL    HW1 9374   5.127   1.678   6.179
 2825SOL    HW2 9375   5.149   1.742   6.031
 2826SOL     OW 9376   0.883   3.660   5.931
 2826SOL    HW1 9377   0.884   3.607   5.846
 2826SOL    HW2 9378   0.941   3.615   5.999
 2827SOL     OW 9379   6.966   1.298   6.412
 2827SOL    HW1 9380   6.891   1.352   6.450
 2827SOL    HW2 9381   6.955   1.202   6.438
 2828SOL     OW 9382   1.381   3.448   0.865
 2828SOL    HW1 9383   1.469   3.402   0.880
 2828SOL    HW2 9384   1.333   3.459   0.952
 2829SOL     OW 9385   3.761   4.090   3.429
 2829SOL    HW1 9386   3.780   4.096   3.527
 2829SOL    HW2 9387   3.828   4.031   3.385
 2830SOL     OW 9388   3.682   5.492   6.351
 2830SOL    HW1 9389   3.760   5.432   6.371
 2830SOL    HW2 9390   3.713   5.587   6.351
 2831SOL     OW 9391   6.976   2.202   2.197
 2831SOL    HW1 9392   6.928   2.272   2.249
 2831SOL    HW2 9393   6.998   2.237   2.106
 2832SOL     OW 9394   0.754   3.042   1.353
 2832SOL    HW1 9395   0.779   3.089   1.268
 2832SOL    HW2 9396   0.771   3.104   1.430
 2833SOL     OW 9397   2.227   1.370   2.099
 2833SOL    HW1 9398   2.262   1.417   2.018
 2833SOL    HW2 9399   2.131   1.344   2.084
 2834SOL     OW 9400   4.355   6.151   4.983
 2834SOL    HW1 9401   4.437   6.112   4.941
 2834SOL    HW2 9402   4.301   6.078   5.025
 2835SOL     OW 9403   1.059   6.176   0.259
 2835SOL    HW1 9404   1.140   6.189   0.315
 2835SOL    HW2 9405   1.055   6.081   0.228
 2836SOL     OW 9406   3.593   6.614   3.078
 2836SOL    HW1 9407   3.612   6.599   2.981
 2836SOL    HW2 9408   3.655   6.683   3.114
 2837SOL     OW 9409   5.831   3.861   2.363
 2837SOL    HW1 9410   5.886   3.778   2.369
 2837SOL    HW2 9411   5.864   3.917   2.287
 2838SOL     OW 9412   5.159   3.643   5.967
 2838SOL    HW1 9413   5.178   3.629   6.064
 2838SOL    HW2 9414   5.073   3.694   5.956
 2839SOL     OW 9415   6.063   3.404   4.489
 2839SOL    HW1 9416   5.990   3.339   4.510
 2839SOL    HW2 9417   6.064   3.423   4.391
 2840SOL     OW 9418   0.446   5.772   2.396
 2840SOL    HW1 9419   0.357   5.813   2.415
 2840SOL    HW2 9420   0.500   5.768   2.480
 2841SOL     OW 9421   6.098   2.118   1.514
 2841SOL    HW1 9422   6.196   2.136   1.508
 2841SOL    HW2 9423   6.054   2.140   1.426
 2842SOL     OW 9424   1.661   6.347   4.299
 2842SOL    HW1 9425   1.696   6.412   4.367
 2842SOL    HW2 9426   1.707   6.363   4.212
 2843SOL     OW 9427   2.196   2.797   3.300
 2843SOL    HW1 9428   2.232   2.823   3.211
 2843SOL    HW2 9429   2.136   2.718   3.291
 2844SOL     OW 9430   4.822   4.743   0.749
 2844SOL    HW1 9431   4.843   4.697   0.836
 2844SOL    HW2 9432   4.898   4.801   0.723
 2845SOL     OW 9433   4.219   2.281   2.972
 2845SOL    HW1 9434   4.283   2.341   3.020
 2845SOL    HW2 9435   4.263   2.246   2.889
 2846SOL     OW 9436   4.787   0.726   0.168
 2846SOL    HW1 9437   4.884   0.730   0.190
 2846SOL    HW2 9438   4.750   0.637   0.196
 2847SOL     OW 9439   4.740   4.233   2.196
 2847SOL    HW1 9440   4.752   4.228   2.295
 2847SOL    HW2 9441   4.654   4.279   2.175
 2848SOL     OW 9442   0.538   3.274   5.143
 2848SOL    HW1 9443   0.635   3.297   5.138
 2848SOL    HW2 9444   0.483   3.354   5.120
 2849SOL     OW 9445   3.584   0.546   2.345
 2849SOL    HW1 9446   3.605   0.531   2.442
 2849SOL    HW2 9447   3.494   0.589   2.337
 2850SOL     OW 9448   2.339   6.957   2.821
 2850SOL    HW1 9449   2.325   6.924   2.915
 2850SOL    HW2 9450   2.266   6.921   2.763
 2851SOL     OW 9451   4.374   3.386   1.035
 2851SOL    HW1 9452   4.437   3.381   1.112
 2851SOL    HW2 9453   4.311   3.309   1.039
 2852SOL     OW 9454   6.628   4.487   5.865
 2852SOL    HW1 9455   6.591   4.460   5.954
 2852SOL    HW2 9456   6.587   4.574   5.837
 2853SOL     OW 9457   0.244   3.842   0.461
 2853SOL    HW1 9458   0.160   3.880   0.424
 2853SOL    HW2 9459   0.279   3.771   0.400
 2854SOL     OW 9460   3.032   1.406   6.042
 2854SOL    HW1 9461   3.111   1.461   6.069
 2854SOL    HW2 9462   3.006   1.429   5.948
 2855SOL     OW 9463   1.877   1.633   4.161
 2855SOL    HW1 9464   1.789   1.597   4.129
 2855SOL    HW2 9465   1.949   1.566   4.141
 2856SOL     OW 9466   1.236   4.185   2.973
 2856SOL    HW1 9467   1.218   4.279   2.943
 2856SOL    HW2 9468   1.150   4.142   3.001
 2857SOL     OW 9469   0.414   2.939   1.108
 2857SOL    HW1 9470   0.403   2.880   1.027
 2857SOL    HW2 9471   0.331   2.993   1.121
 2858SOL     OW 9472   4.508   4.917   2.498
 2858SOL    HW1 9473   4.460   4.872   2.423
 2858SOL    HW2 9474   4.607   4.909   2.485
 2859SOL     OW 9475   5.302   5.515   1.432
 2859SOL    HW1 9476   5.248   5.595   1.407
 2859SOL    HW2 9477   5.244   5.449   1.479
 2860SOL     OW 9478   1.427   6.067   1.215
 2860SOL    HW1 9479   1.441   6.152   1.165
 2860SOL    HW2 9480   1.490   5.997   1.180
 2861SOL     OW 9481   4.271   4.522   6.471
 2861SOL    HW1 9482   4.207   4.471   6.414
 2861SOL    HW2 9483   4.303   4.463   6.546
 2862SOL     OW 9484   4.410   3.313   1.414
 2862SOL    HW1 9485   4.476   3.262   1.469
 2862SOL    HW2 9486   4.317   3.294   1.448
 2863SOL     OW 9487   5.963   6.857   5.812
 2863SOL    HW1 9488   5.886   6.890   5.867
 2863SOL    HW2 9489   6.049   6.879   5.859
 2864SOL     OW 9490   3.837   3.288   1.125
 2864SOL    HW1 9491   3.887   3.205   1.148
 2864SOL    HW2 9492   3.900   3.356   1.088
 2865SOL     OW 9493   5.158   6.342   4.688
 2865SOL    HW1 9494   5.086   6.397   4.732
 2865SOL    HW2 9495   5.116   6.283   4.620
 2866SOL     OW 9496   4.912   4.177   6.298
 2866SOL    HW1 9497   4.983   4.108   6.282
 2866SOL    HW2 9498   4.838   4.138   6.353
 2867SOL     OW 9499   6.315   6.823   1.834
 2867SOL    HW1 9500   6.327   6.735   1.787
 2867SOL    HW2 9501   6.392   6.883   1.812
 2868SOL     OW 9502   1.654   1.126   5.982
 2868SOL    HW1 9503   1.725   1.057   5.970
 2868SOL    HW2 9504   1.688   1.215   5.950
 2869SOL     OW 9505   5.307   6.256   3.808
 2869SOL    HW1 9506   5.258   6.279   3.724
 2869SOL    HW2 9507   5.244   6.262   3.886
 2870SOL     OW 9508   0.982   1.353   1.250
 2870SOL    HW1 9509   1.052   1.420   1.226
 2870SOL    HW2 9510   1.023   1.262   1.255
 2871SOL     OW 9511   6.560   2.011   1.444
 2871SOL    HW1 9512   6.560   2.104   1.407
 2871SOL    HW2 9513   6.467   1.988   1.475
 2872SOL     OW 9514   2.839   1.535   2.368
 2872SOL    HW1 9515   2.901   1.597   2.416
 2872SOL    HW2 9516   2.874   1.518   2.276
 2873SOL     OW 9517   0.770   6.096   1.113
 2873SOL    HW1 9518   0.792   6.002   1.090
 2873SOL    HW2 9519   0.685   6.099   1.166
 2874SOL     OW 9520   2.493   0.404   3.002
 2874SOL    HW1 9521   2.551   0.409   2.921
 2874SOL    HW2 9522   2.400   0.379   2.974
 2875SOL     OW 9523   3.335   0.071   2.328
 2875SOL    HW1 9524   3.237   0.092   2.332
 2875SOL    HW2 9525   3.380   0.133   2.264
 2876SOL     OW 9526   1.738   6.214   1.863
 2876SOL    HW1 9527   1.834   6.213   1.889
 2876SOL    HW2 9528   1.730   6.225   1.764
 2877SOL     OW 9529   1.823   0.902   5.770
 2877SOL    HW1 9530   1.839   0.870   5.864
 2877SOL    HW2 9531   1.874   0.987   5.755
 2878SOL     OW 9532   3.860   3.210   4.748
 2878SOL    HW1 9533   3.892   3.236   4.658
 2878SOL    HW2 9534   3.830   3.114   4.747
 2879SOL     OW 9535   3.594   4.210   6.123
 2879SOL    HW1 9536   3.510   4.159   6.143
 2879SOL    HW2 9537   3.628   4.252   6.207
 2880SOL     OW 9538   1.193   1.726   4.158
 2880SOL    HW1 9539   1.108   1.728   4.106
 2880SOL    HW2 9540   1.208   1.815   4.201
 2881SOL     OW 9541   3.172   6.166   6.779
 2881SOL    HW1 9542   3.086   6.155   6.830
 2881SOL    HW2 9543   3.157   6.224   6.700
 2882SOL     OW 9544   4.432   6.226   0.249
 2882SOL    HW1 9545   4.497   6.200   0.178
 2882SOL    HW2 9546   4.474   6.292   0.311
 2883SOL     OW 9547   6.016   6.505   3.124
 2883SOL    HW1 9548   5.936   6.524   3.067
 2883SOL    HW2 9549   6.045   6.589   3.169
 2884SOL     OW 9550   6.995   5.368   2.477
 2884SOL    HW1 9551   7.016   5.274   2.501
 2884SOL    HW2 9552   6.905   5.393   2.513
 2885SOL     OW 9553   1.201   3.354   2.673
 2885SOL    HW1 9554   1.268   3.390   2.607
 2885SOL    HW2 9555   1.204   3.254   2.670
 2886SOL     OW 9556   3.081   4.444   6.524
 2886SOL    HW1 9557   3.108   4.534   6.491
 2886SOL    HW2 9558   3.136   4.419   6.603
 2887SOL     OW 9559   0.709   6.437   4.153
 2887SOL    HW1 9560   0.693   6.532   4.180
 2887SOL    HW2 9561   0.801   6.410   4.182
 2888SOL     OW 9562   6.637   6.363   0.025
 2888SOL    HW1 9563   6.584   6.395   6.975
 2888SOL    HW2 9564   6.666   6.269   0.009
 2889SOL     OW 9565   2.908   6.721   2.992
 2889SOL    HW1 9566   2.947   6.669   3.068
 2889SOL    HW2 9567   2.886   6.659   2.917
 2890SOL     OW 9568   1.918   0.096   0.937
 2890SOL    HW1 9569   1.926   7.025   0.939
 2890SOL    HW2 9570   1.971   0.132   0.860
 2891SOL     OW 9571   6.831   3.533   3.191
 2891SOL    HW1 9572   6.788   3.596   3.256
 2891SOL    HW2 9573   6.777   3.449   3.185
 2892SOL     OW 9574   6.381   4.038   0.988
 2892SOL    HW1 9575   6.414   4.063   0.897
 2892SOL    HW2 9576   6.404   3.942   1.008
 2893SOL     OW 9577   0.096   5.298   4.664
 2893SOL    HW1 9578   0.057   5.258   4.581
 2893SOL    HW2 9579   0.050   5.384   4.684
 2894SOL     OW 9580   1.287   5.207   2.133
 2894SOL    HW1 9581   1.240   5.119   2.127
 2894SOL    HW2 9582   1.379   5.198   2.095
 2895SOL     OW 9583   3.889   6.991   6.421
 2895SOL    HW1 9584   3.818   6.951   6.364
 2895SOL    HW2 9585   3.887   6.949   6.511
 2896SOL     OW 9586   5.520   6.223   5.033
 2896SOL    HW1 9587   5.490   6.183   5.120
 2896SOL    HW2 9588   5.544   6.150   4.969
 2897SOL     OW 9589   2.952   4.798   3.287
 2897SOL    HW1 9590   3.041   4.812   3.242
 2897SOL    HW2 9591   2.879   4.813   3.221
 2898SOL     OW 9592   5.874   4.132   2.257
 2898SOL    HW1 9593   5.959   4.113   2.305
 2898SOL    HW2 9594   5.881   4.100   2.163
 2899SOL     OW 9595   6.781   2.575   0.697
 2899SOL    HW1 9596   6.872   2.561   0.736
 2899SOL    HW2 9597   6.735   2.487   0.688
 2900SOL     OW 9598   2.759   3.942   6.967
 2900SOL    HW1 9599   2.841   3.898   7.003
 2900SOL    HW2 9600   2.770   3.955   6.868
 2901SOL     OW 9601   1.494   4.180   3.125
 2901SOL    HW1 9602   1.520   4.100   3.071
 2901SOL    HW2 9603   1.422   4.230   3.077
 2902SOL     OW 9604   0.640   5.922   3.941
 2902SOL    HW1 9605   0.719   5.949   3.997
 2902SOL    HW2 9606   0.640   5.823   3.930
 2903SOL     OW 9607   4.227   5.807   0.684
 2903SOL    HW1 9608   4.187   5.896   0.707
 2903SOL    HW2 9609   4.156   5.737   0.684
 2904SOL     OW 9610   2.702   4.421   5.318
 2904SOL    HW1 9611   2.777   4.477   5.283
 2904SOL    HW2 9612   2.737   4.334   5.352
 2905SOL     OW 9613   0.759   4.302   2.239
 2905SOL    HW1 9614   0.666   4.330   2.260
 2905SOL    HW2 9615   0.814   4.383   2.216
 2906SOL     OW 9616   5.864   5.714   2.962
 2906SOL    HW1 9617   5.778   5.695   2.914
 2906SOL    HW2 9618   5.854   5.692   3.059
 2907SOL     OW 9619   0.719   0.396   3.559
 2907SOL    HW1 9620   0.718   0.414   3.657
 2907SOL    HW2 9621   0.808   0.422   3.521
 2908SOL     OW 9622   5.064   6.780   3.148
 2908SOL    HW1 9623   5.096   6.686   3.141
 2908SOL    HW2 9624   4.966   6.781   3.168
 2909SOL     OW 9625   1.309   5.858   2.000
 2909SOL    HW1 9626   1.350   5.794   2.065
 2909SOL    HW2 9627   1.288   5.810   1.915
 2910SOL     OW 9628   0.078   0.977   3.122
 2910SOL    HW1 9629   0.125   0.898   3.082
 2910SOL    HW2 9630   0.127   1.006   3.205
 2911SOL     OW 9631   6.746   4.386   3.567
 2911SOL    HW1 9632   6.772   4.415   3.475
 2911SOL    HW2 9633   6.827   4.389   3.626
 2912SOL     OW 9634   6.764   6.493   0.431
 2912SOL    HW1 9635   6.828   6.473   0.356
 2912SOL    HW2 9636   6.708   6.572   0.406
 2913SOL     OW 9637   1.960   5.137   1.293
 2913SOL    HW1 9638   1.936   5.044   1.321
 2913SOL    HW2 9639   1.891   5.201   1.326
 2914SOL     OW 9640   5.527   5.174   0.530
 2914SOL    HW1 9641   5.592   5.099   0.513
 2914SOL    HW2 9642   5.447   5.139   0.579
 2915SOL     OW 9643   3.567   1.860   2.851
 2915SOL    HW1 9644   3.473   1.876   2.824
 2915SOL    HW2 9645   3.616   1.814   2.778
 2916SOL     OW 9646   2.218   5.863   0.366
 2916SOL    HW1 9647   2.170   5.807   0.299
 2916SOL    HW2 9648   2.169   5.950   0.378
 2917SOL     OW 9649   2.295   6.907   3.113
 2917SOL    HW1 9650   2.390   6.880   3.128
 2917SOL    HW2 9651   2.265   6.969   3.186
 2918SOL     OW 9652   6.163   3.712   0.851
 2918SOL    HW1 9653   6.169   3.744   0.756
 2918SOL    HW2 9654   6.085   3.649   0.860
 2919SOL     OW 9655   0.604   6.439   4.640
 2919SOL    HW1 9656   0.702   6.453   4.631
 2919SOL    HW2 9657   0.572   6.379   4.567
 2920SOL     OW 9658   1.554   0.658   2.094
 2920SOL    HW1 9659   1.491   0.717   2.145
 2920SOL    HW2 9660   1.522   0.564   2.098
 2921SOL     OW 9661   0.247   0.165   5.793
 2921SOL    HW1 9662   0.194   0.250   5.798
 2921SOL    HW2 9663   0.287   0.146   5.883
 2922SOL     OW 9664   4.589   1.014   3.332
 2922SOL    HW1 9665   4.573   1.062   3.418
 2922SOL    HW2 9666   4.502   0.994   3.287
 2923SOL     OW 9667   6.269   4.744   4.897
 2923SOL    HW1 9668   6.337   4.751   4.970
 2923SOL    HW2 9669   6.282   4.820   4.833
 2924SOL     OW 9670   6.761   2.293   5.609
 2924SOL    HW1 9671   6.845   2.241   5.622
 2924SOL    HW2 9672   6.769   2.351   5.528
 2925SOL     OW 9673   5.732   1.132   5.770
 2925SOL    HW1 9674   5.637   1.132   5.738
 2925SOL    HW2 9675   5.743   1.063   5.842
 2926SOL     OW 9676   0.405   1.269   4.891
 2926SOL    HW1 9677   0.488   1.240   4.843
 2926SOL    HW2 9678   0.331   1.204   4.872
 2927SOL     OW 9679   1.975   2.312   1.844
 2927SOL    HW1 9680   2.043   2.381   1.868
 2927SOL    HW2 9681   1.902   2.353   1.791
 2928SOL     OW 9682   6.533   2.002   6.839
 2928SOL    HW1 9683   6.481   2.013   6.923
 2928SOL    HW2 9684   6.514   2.079   6.778
 2929SOL     OW 9685   1.981   2.441   4.765
 2929SOL    HW1 9686   2.012   2.416   4.857
 2929SOL    HW2 9687   1.902   2.385   4.740
 2930SOL     OW 9688   6.931   5.508   4.728
 2930SOL    HW1 9689   6.870   5.518   4.649
 2930SOL    HW2 9690   6.927   5.592   4.784
 2931SOL     OW 9691   3.807   3.919   6.467
 2931SOL    HW1 9692   3.853   3.912   6.379
 2931SOL    HW2 9693   3.811   3.831   6.514
 2932SOL     OW 9694   6.638   5.339   0.691
 2932SOL    HW1 9695   6.637   5.436   0.666
 2932SOL    HW2 9696   6.639   5.330   0.791
 2933SOL     OW 9697   0.881   6.917   0.781
 2933SOL    HW1 9698   0.977   6.944   0.782
 2933SOL    HW2 9699   0.874   6.817   0.790
 2934SOL     OW 9700   3.990   3.512   0.610
 2934SOL    HW1 9701   3.995   3.612   0.610
 2934SOL    HW2 9702   4.025   3.477   0.696
 2935SOL     OW 9703   0.593   2.697   6.447
 2935SOL    HW1 9704   0.532   2.739   6.381
 2935SOL    HW2 9705   0.640   2.619   6.405
 2936SOL     OW 9706   4.744   0.479   0.718
 2936SOL    HW1 9707   4.832   0.453   0.676
 2936SOL    HW2 9708   4.751   0.572   0.755
 2937SOL     OW 9709   4.116   5.724   1.923
 2937SOL    HW1 9710   4.094   5.672   1.840
 2937SOL    HW2 9711   4.099   5.668   2.004
 2938SOL     OW 9712   6.469   6.032   6.078
 2938SOL    HW1 9713   6.375   6.020   6.109
 2938SOL    HW2 9714   6.528   6.053   6.156
 2939SOL     OW 9715   0.031   5.574   1.431
 2939SOL    HW1 9716   0.001   5.494   1.483
 2939SOL    HW2 9717   0.110   5.550   1.374
 2940SOL     OW 9718   5.553   5.871   3.904
 2940SOL    HW1 9719   5.611   5.805   3.856
 2940SOL    HW2 9720   5.490   5.822   3.964
 2941SOL     OW 9721   1.864   3.170   3.641
 2941SOL    HW1 9722   1.813   3.192   3.558
 2941SOL    HW2 9723   1.922   3.248   3.666
 2942SOL     OW 9724   2.741   1.453   0.323
 2942SOL    HW1 9725   2.760   1.497   0.411
 2942SOL    HW2 9726   2.772   1.512   0.249
 2943SOL     OW 9727   6.014   4.281   3.670
 2943SOL    HW1 9728   6.096   4.224   3.682
 2943SOL    HW2 9729   6.031   4.372   3.708
 2944SOL     OW 9730   2.732   6.225   4.060
 2944SOL    HW1 9731   2.799   6.267   4.123
 2944SOL    HW2 9732   2.721   6.128   4.083
 2945SOL     OW 9733   5.286   4.192   1.404
 2945SOL    HW1 9734   5.276   4.114   1.466
 2945SOL    HW2 9735   5.339   4.264   1.449
 2946SOL     OW 9736   2.842   4.007   6.168
 2946SOL    HW1 9737   2.783   4.076   6.125
 2946SOL    HW2 9738   2.840   3.923   6.114
 2947SOL     OW 9739   6.166   6.224   0.931
 2947SOL    HW1 9740   6.179   6.153   0.861
 2947SOL    HW2 9741   6.233   6.210   1.004
 2948SOL     OW 9742   5.754   4.548   3.093
 2948SOL    HW1 9743   5.773   4.643   3.117
 2948SOL    HW2 9744   5.730   4.497   3.175
 2949SOL     OW 9745   1.312   0.015   1.434
 2949SOL    HW1 9746   1.253   6.964   1.445
 2949SOL    HW2 9747   1.407   7.014   1.425
 2950SOL     OW 9748   4.786   4.924   2.485
 2950SOL    HW1 9749   4.872   4.969   2.510
 2950SOL    HW2 9750   4.799   4.870   2.402
 2951SOL     OW 9751   5.976   0.949   1.420
 2951SOL    HW1 9752   5.939   0.880   1.482
 2951SOL    HW2 9753   5.901   1.003   1.381
 2952SOL     OW 9754   5.615   0.754   4.171
 2952SOL    HW1 9755   5.626   0.821   4.098
 2952SOL    HW2 9756   5.705   0.731   4.208
 2953SOL     OW 9757   0.716   6.194   3.120
 2953SOL    HW1 9758   0.694   6.101   3.147
 2953SOL    HW2 9759   0.741   6.195   3.023
 2954SOL     OW 9760   0.701   4.529   6.201
 2954SOL    HW1 9761   0.768   4.537   6.127
 2954SOL    HW2 9762   0.735   4.465   6.270
 2955SOL     OW 9763   1.478   4.061   6.955
 2955SOL    HW1 9764   1.410   4.006   7.003
 2955SOL    HW2 9765   1.512   4.011   6.875
 2956SOL     OW 9766   6.219   4.561   3.559
 2956SOL    HW1 9767   6.235   4.473   3.514
 2956SOL    HW2 9768   6.298   4.621   3.545
 2957SOL     OW 9769   2.713   4.996   1.745
 2957SOL    HW1 9770   2.762   5.058   1.806
 2957SOL    HW2 9771   2.759   4.907   1.746
 2958SOL     OW 9772   2.210   4.962   3.398
 2958SOL    HW1 9773   2.280   4.916   3.452
 2958SOL    HW2 9774   2.119   4.936   3.431
 2959SOL     OW 9775   6.485   2.275   2.712
 2959SOL    HW1 9776   6.421   2.324   2.652
 2959SOL    HW2 9777   6.578   2.307   2.695
 2960SOL     OW 9778   4.259   0.965   0.563
 2960SOL    HW1 9779   4.182   0.954   0.626
 2960SOL    HW2 9780   4.258   0.891   0.496
 2961SOL     OW 9781   5.397   4.380   2.057
 2961SOL    HW1 9782   5.305   4.375   2.097
 2961SOL    HW2 9783   5.456   4.312   2.101
 2962SOL     OW 9784   6.720   6.291   1.960
 2962SOL    HW1 9785   6.653   6.261   2.028
 2962SOL    HW2 9786   6.811   6.291   2.000
 2963SOL     OW 9787   1.415   0.851   5.648
 2963SOL    HW1 9788   1.437   0.757   5.624
 2963SOL    HW2 9789   1.499   0.905   5.654
 2964SOL     OW 9790   0.820   2.852   6.827
 2964SOL    HW1 9791   0.786   2.782   6.891
 2964SOL    HW2 9792   0.788   2.831   6.735
 2965SOL     OW 9793   0.579   0.732   4.993
 2965SOL    HW1 9794   0.585   0.695   5.086
 2965SOL    HW2 9795   0.483   0.745   4.969
 2966SOL     OW 9796   4.394   5.866   3.554
 2966SOL    HW1 9797   4.439   5.780   3.576
 2966SOL    HW2 9798   4.297   5.849   3.535
 2967SOL     OW 9799   6.730   1.130   5.606
 2967SOL    HW1 9800   6.653   1.076   5.572
 2967SOL    HW2 9801   6.809   1.069   5.620
 2968SOL     OW 9802   1.511   1.860   1.321
 2968SOL    HW1 9803   1.464   1.946   1.340
 2968SOL    HW2 9804   1.610   1.874   1.326
 2969SOL     OW 9805   5.370   3.895   4.639
 2969SOL    HW1 9806   5.457   3.924   4.598
 2969SOL    HW2 9807   5.366   3.925   4.734
 2970SOL     OW 9808   2.206   3.028   4.792
 2970SOL    HW1 9809   2.119   3.023   4.841
 2970SOL    HW2 9810   2.281   3.018   4.857
 2971SOL     OW 9811   5.739   3.849   7.001
 2971SOL    HW1 9812   5.775   3.901   0.049
 2971SOL    HW2 9813   5.677   3.778   0.005
 2972SOL     OW 9814   5.973   5.421   6.275
 2972SOL    HW1 9815   5.937   5.340   6.321
 2972SOL    HW2 9816   6.014   5.483   6.342
 2973SOL     OW 9817   5.414   6.838   2.206
 2973SOL    HW1 9818   5.406   6.920   2.262
 2973SOL    HW2 9819   5.331   6.782   2.216
 2974SOL     OW 9820   5.429   4.963   3.791
 2974SOL    HW1 9821   5.374   4.882   3.809
 2974SOL    HW2 9822   5.470   4.956   3.700
 2975SOL     OW 9823   4.680   4.671   4.233
 2975SOL    HW1 9824   4.582   4.675   4.212
 2975SOL    HW2 9825   4.706   4.752   4.285
 2976SOL     OW 9826   4.792   2.237   2.664
 2976SOL    HW1 9827   4.886   2.271   2.672
 2976SOL    HW2 9828   4.756   2.259   2.573
 2977SOL     OW 9829   0.254   0.120   1.628
 2977SOL    HW1 9830   0.275   0.197   1.688
 2977SOL    HW2 9831   0.157   0.119   1.608
 2978SOL     OW 9832   4.190   4.465   6.041
 2978SOL    HW1 9833   4.144   4.554   6.028
 2978SOL    HW2 9834   4.149   4.398   5.979
 2979SOL     OW 9835   2.334   1.731   4.630
 2979SOL    HW1 9836   2.353   1.767   4.538
 2979SOL    HW2 9837   2.235   1.727   4.643
 2980SOL     OW 9838   3.931   3.911   6.250
 2980SOL    HW1 9839   3.885   3.859   6.178
 2980SOL    HW2 9840   4.030   3.905   6.237
 2981SOL     OW 9841   1.834   1.301   0.696
 2981SOL    HW1 9842   1.854   1.257   0.609
 2981SOL    HW2 9843   1.743   1.275   0.727
 2982SOL     OW 9844   1.416   0.008   2.081
 2982SOL    HW1 9845   1.403   0.039   1.987
 2982SOL    HW2 9846   1.343   0.043   2.139
 2983SOL     OW 9847   5.974   3.288   6.979
 2983SOL    HW1 9848   5.999   3.208   0.005
 2983SOL    HW2 9849   6.031   3.290   6.897
 2984SOL     OW 9850   6.410   4.997   0.058
 2984SOL    HW1 9851   6.330   5.055   0.074
 2984SOL    HW2 9852   6.403   4.954   6.997
 2985SOL     OW 9853   0.444   0.416   5.024
 2985SOL    HW1 9854   0.498   0.362   5.089
 2985SOL    HW2 9855   0.354   0.435   5.064
 2986SOL     OW 9856   3.521   4.177   2.691
 2986SOL    HW1 9857   3.514   4.242   2.616
 2986SOL    HW2 9858   3.617   4.166   2.717
 2987SOL     OW 9859   0.730   1.624   4.388
 2987SOL    HW1 9860   0.725   1.653   4.292
 2987SOL    HW2 9861   0.690   1.694   4.446
 2988SOL     OW 9862   0.954   1.376   0.893
 2988SOL    HW1 9863   1.021   1.450   0.890
 2988SOL    HW2 9864   0.890   1.386   0.817
 2989SOL     OW 9865   5.446   2.951   4.980
 2989SOL    HW1 9866   5.374   3.014   4.949
 2989SOL    HW2 9867   5.519   3.004   5.024
 2990SOL     OW 9868   4.931   1.670   4.953
 2990SOL    HW1 9869   4.994   1.724   5.010
 2990SOL    HW2 9870   4.843   1.717   4.949
 2991SOL     OW 9871   5.457   3.226   0.776
 2991SOL    HW1 9872   5.522   3.232   0.851
 2991SOL    HW2 9873   5.368   3.260   0.807
 2992SOL     OW 9874   0.497   3.738   5.476
 2992SOL    HW1 9875   0.485   3.818   5.417
 2992SOL    HW2 9876   0.427   3.670   5.456
 2993SOL     OW 9877   0.875   4.550   6.879
 2993SOL    HW1 9878   0.852   4.646   6.866
 2993SOL    HW2 9879   0.912   4.537   6.972
 2994SOL     OW 9880   4.634   6.108   0.089
 2994SOL    HW1 9881   4.681   6.195   0.076
 2994SOL    HW2 9882   4.622   6.063   0.000
 2995SOL     OW 9883   4.697   0.183   0.675
 2995SOL    HW1 9884   4.695   0.282   0.690
 2995SOL    HW2 9885   4.791   0.154   0.656
 2996SOL     OW 9886   1.593   1.980   4.669
 2996SOL    HW1 9887   1.628   1.976   4.763
 2996SOL    HW2 9888   1.609   2.071   4.631
 2997SOL     OW 9889   4.862   0.727   3.821
 2997SOL    HW1 9890   4.894   0.779   3.742
 2997SOL    HW2 9891   4.933   0.725   3.891
 2998SOL     OW 9892   2.924   0.953   3.254
 2998SOL    HW1 9893   2.990   0.879   3.244
 2998SOL    HW2 9894   2.902   0.991   3.164
 2999SOL     OW 9895   2.310   4.568   0.446
 2999SOL    HW1 9896   2.253   4.592   0.525
 2999SOL    HW2 9897   2.264   4.597   0.362
 3000SOL     OW 9898   2.814   3.608   5.288
 3000SOL    HW1 9899   2.803   3.706   5.302
 3000SOL    HW2 9900   2.902   3.590   5.244
 3001SOL     OW 9901   6.162   1.788   6.370
 3001SOL    HW1 9902   6.219   1.870   6.362
 3001SOL    HW2 9903   6.220   1.707   6.378
 3002SOL     OW 9904   2.684   1.194   1.393
 3002SOL    HW1 9905   2.753   1.233   1.332
 3002SOL    HW2 9906   2.593   1.215   1.358
 3003SOL     OW 9907   1.250   5.925   0.497
 3003SOL    HW1 9908   1.252   5.825   0.495
 3003SOL    HW2 9909   1.307   5.957   0.573
 3004SOL     OW 9910   2.579   5.059   3.965
 3004SOL    HW1 9911   2.576   5.029   4.060
 3004SOL    HW2 9912   2.674   5.070   3.935
 3005SOL     OW 9913   1.530   2.643   5.948
 3005SOL    HW1 9914   1.586   2.566   5.917
 3005SOL    HW2 9915   1.516   2.706   5.872
 3006SOL     OW 9916   4.808   2.043   5.113
 3006SOL    HW1 9917   4.868   1.971   5.079
 3006SOL    HW2 9918   4.803   2.117   5.046
 3007SOL     OW 9919   5.739   5.495   0.058
 3007SOL    HW1 9920   5.817   5.534   0.108
 3007SOL    HW2 9921   5.761   5.402   0.029
 3008SOL     OW 9922   4.258   2.543   5.785
 3008SOL    HW1 9923   4.283   2.542   5.882
 3008SOL    HW2 9924   4.167   2.584   5.775
 3009SOL     OW 9925   0.694   2.850   2.871
 3009SOL    HW1 9926   0.777   2.798   2.849
 3009SOL    HW2 9927   0.615   2.789   2.867
 3010SOL     OW 9928   4.023   5.700   6.168
 3010SOL    HW1 9929   4.051   5.612   6.129
 3010SOL    HW2 9930   4.072   5.715   6.254
 3011SOL     OW 9931   6.090   0.307   1.151
 3011SOL    HW1 9932   6.132   0.234   1.205
 3011SOL    HW2 9933   6.131   0.309   1.060
 3012SOL     OW 9934   2.730   3.000   6.204
 3012SOL    HW1 9935   2.746   3.041   6.115
 3012SOL    HW2 9936   2.790   3.042   6.272
 3013SOL     OW 9937   0.419   6.308   3.769
 3013SOL    HW1 9938   0.499   6.271   3.816
 3013SOL    HW2 9939   0.415   6.407   3.783
 3014SOL     OW 9940   4.649   0.904   5.369
 3014SOL    HW1 9941   4.651   0.848   5.287
 3014SOL    HW2 9942   4.583   0.865   5.434
 3015SOL     OW 9943   1.489   0.866   0.564
 3015SOL    HW1 9944   1.399   0.875   0.520
 3015SOL    HW2 9945   1.560   0.895   0.500
 3016SOL     OW 9946   2.753   6.472   4.532
 3016SOL    HW1 9947   2.715   6.462   4.624
 3016SOL    HW2 9948   2.817   6.548   4.531
 3017SOL     OW 9949   6.269   5.876   1.938
 3017SOL    HW1 9950   6.221   5.813   1.876
 3017SOL    HW2 9951   6.334   5.930   1.885
 3018SOL     OW 9952   3.406   0.549   0.123
 3018SOL    HW1 9953   3.407   0.468   0.064
 3018SOL    HW2 9954   3.372   0.523   0.213
 3019SOL     OW 9955   1.478   6.840   6.444
 3019SOL    HW1 9956   1.479   6.768   6.375
 3019SOL    HW2 9957   1.385   6.873   6.457
 3020SOL     OW 9958   5.187   3.292   0.244
 3020SOL    HW1 9959   5.177   3.224   0.172
 3020SOL    HW2 9960   5.234   3.252   0.322
 3021SOL     OW 9961   3.574   6.461   4.949
 3021SOL    HW1 9962   3.661   6.505   4.973
 3021SOL    HW2 9963   3.593   6.378   4.897
 3022SOL     OW 9964   3.987   5.982   3.509
 3022SOL    HW1 9965   4.053   5.940   3.446
 3022SOL    HW2 9966   3.945   5.911   3.565
 3023SOL     OW 9967   3.924   6.546   2.819
 3023SOL    HW1 9968   3.935   6.548   2.720
 3023SOL    HW2 9969   4.013   6.527   2.861
 3024SOL     OW 9970   0.053   6.599   6.061
 3024SOL    HW1 9971   0.076   6.509   6.023
 3024SOL    HW2 9972   0.043   6.591   6.161
 3025SOL     OW 9973   3.932   6.064   1.102
 3025SOL    HW1 9974   3.857   6.115   1.058
 3025SOL    HW2 9975   4.012   6.063   1.042
 3026SOL     OW 9976   5.469   1.520   0.119
 3026SOL    HW1 9977   5.457   1.618   0.106
 3026SOL    HW2 9978   5.407   1.470   0.058
 3027SOL     OW 9979   4.996   1.468   1.567
 3027SOL    HW1 9980   4.977   1.439   1.474
 3027SOL    HW2 9981   4.914   1.511   1.606
 3028SOL     OW 9982   2.492   4.305   6.372
 3028SOL    HW1 9983   2.486   4.398   6.336
 3028SOL    HW2 9984   2.455   4.241   6.305
 3029SOL     OW 9985   0.871   2.184   4.593
 3029SOL    HW1 9986   0.933   2.112   4.559
 3029SOL    HW2 9987   0.925   2.264   4.620
 3030SOL     OW 9988   1.334   3.832   1.694
 3030SOL    HW1 9989   1.265   3.846   1.765
 3030SOL    HW2 9990   1.413   3.889   1.713
 3031SOL     OW 9991   1.591   5.659   1.160
 3031SOL    HW1 9992   1.544   5.635   1.245
 3031SOL    HW2 9993   1.635   5.748   1.171
 3032SOL     OW 9994   1.429   0.438   2.961
 3032SOL    HW1 9995   1.457   0.342   2.960
 3032SOL    HW2 9996   1.498   0.494   2.915
 3033SOL     OW 9997   6.783   2.639   4.424
 3033SOL    HW1 9998   6.830   2.552   4.409
 3033SOL    HW2 9999   6.755   2.647   4.519
 3034SOL     OW10000   0.638   6.071   3.681
 3034SOL    HW110001   0.734   6.045   3.683
 3034SOL    HW210002   0.591   6.034   3.762
 3035SOL     OW10003   1.558   2.288   6.441
 3035SOL    HW110004   1.602   2.377   6.452
 3035SOL    HW210005   1.463   2.300   6.414
 3036SOL     OW10006   2.368   2.226   6.413
 3036SOL    HW110007   2.348   2.315   6.454
 3036SOL    HW210008   2.434   2.237   6.339
 3037SOL     OW10009   0.816   5.704   6.201
 3037SOL    HW110010   0.884   5.774   6.175
 3037SOL    HW210011   0.814   5.695   6.300
 3038SOL     OW10012   4.980   4.988   6.256
 3038SOL    HW110013   5.060   4.964   6.201
 3038SOL    HW210014   5.002   5.067   6.313
 3039SOL     OW10015   6.155   3.989   6.723
 3039SOL    HW110016   6.062   3.958   6.742
 3039SOL    HW210017   6.220   3.942   6.783
 3040SOL     OW10018   3.489   4.145   5.754
 3040SOL    HW110019   3.522   4.137   5.660
 3040SOL    HW210020   3.518   4.232   5.793
 3041SOL     OW10021   2.106   4.248   5.035
 3041SOL    HW110022   2.034   4.223   5.099
 3041SOL    HW210023   2.178   4.179   5.036
 3042SOL     OW10024   0.450   5.080   3.402
 3042SOL    HW110025   0.517   5.008   3.383
 3042SOL    HW210026   0.358   5.045   3.388
 3043SOL     OW10027   3.007   3.967   0.989
 3043SOL    HW110028   3.089   3.968   1.046
 3043SOL    HW210029   3.031   3.939   0.896
 3044SOL     OW10030   3.556   3.860   4.944
 3044SOL    HW110031   3.595   3.768   4.946
 3044SOL    HW210032   3.530   3.884   4.851
 3045SOL     OW10033   4.999   1.597   2.972
 3045SOL    HW110034   5.054   1.616   3.052
 3045SOL    HW210035   5.047   1.531   2.913
 3046SOL     OW10036   5.674   5.562   0.628
 3046SOL    HW110037   5.679   5.472   0.671
 3046SOL    HW210038   5.599   5.563   0.562
 3047SOL     OW10039   6.161   0.364   6.900
 3047SOL    HW110040   6.076   0.326   6.863
 3047SOL    HW210041   6.140   0.449   6.949
 3048SOL     OW10042   4.168   3.447   1.266
 3048SOL    HW110043   4.154   3.531   1.319
 3048SOL    HW210044   4.154   3.368   1.324
 3049SOL     OW10045   1.148   0.331   4.463
 3049SOL    HW110046   1.161   0.428   4.484
 3049SOL    HW210047   1.084   0.292   4.529
 3050SOL     OW10048   3.224   2.408   1.283
 3050SOL    HW110049   3.256   2.380   1.192
 3050SOL    HW210050   3.272   2.491   1.311
 3051SOL     OW10051   2.414   6.864   4.984
 3051SOL    HW110052   2.433   6.947   5.037
 3051SOL    HW210053   2.487   6.851   4.916
 3052SOL     OW10054   5.991   6.298   2.609
 3052SOL    HW110055   5.908   6.329   2.654
 3052SOL    HW210056   6.061   6.369   2.617
 3053SOL     OW10057   1.819   3.999   0.677
 3053SOL    HW110058   1.735   4.054   0.680
 3053SOL    HW210059   1.801   3.915   0.625
 3054SOL     OW10060   5.592   1.556   3.105
 3054SOL    HW110061   5.660   1.496   3.063
 3054SOL    HW210062   5.569   1.630   3.041
 3055SOL     OW10063   6.140   5.977   6.603
 3055SOL    HW110064   6.113   6.006   6.512
 3055SOL    HW210065   6.081   6.020   6.671
 3056SOL     OW10066   4.841   1.627   6.182
 3056SOL    HW110067   4.797   1.580   6.106
 3056SOL    HW210068   4.935   1.652   6.156
 3057SOL     OW10069   6.388   5.629   3.361
 3057SOL    HW110070   6.306   5.615   3.417
 3057SOL    HW210071   6.468   5.601   3.414
 3058SOL     OW10072   5.795   3.899   0.231
 3058SOL    HW110073   5.728   3.954   0.280
 3058SOL    HW210074   5.878   3.892   0.286
 3059SOL     OW10075   2.410   2.616   4.723
 3059SOL    HW110076   2.347   2.685   4.687
 3059SOL    HW210077   2.480   2.595   4.655
 3060SOL     OW10078   4.047   4.938   5.546
 3060SOL    HW110079   4.083   4.850   5.574
 3060SOL    HW210080   4.035   4.939   5.446
 3061SOL     OW10081   5.038   4.521   5.494
 3061SOL    HW110082   4.997   4.596   5.546
 3061SOL    HW210083   5.092   4.560   5.419
 3062SOL     OW10084   4.386   4.507   1.788
 3062SOL    HW110085   4.394   4.416   1.827
 3062SOL    HW210086   4.294   4.542   1.801
 3063SOL     OW10087   0.046   4.103   1.454
 3063SOL    HW110088   0.016   4.081   1.547
 3063SOL    HW210089   0.099   4.188   1.455
 3064SOL     OW10090   4.138   2.150   6.884
 3064SOL    HW110091   4.077   2.181   6.956
 3064SOL    HW210092   4.088   2.090   6.821
 3065SOL     OW10093   1.036   0.623   0.416
 3065SOL    HW110094   1.111   0.646   0.353
 3065SOL    HW210095   0.950   0.655   0.378
 3066SOL     OW10096   4.739   5.742   5.711
 3066SOL    HW110097   4.803   5.761   5.785
 3066SOL    HW210098   4.725   5.824   5.656
 3067SOL     OW10099   2.890   2.079   6.870
 3067SOL    HW110100   2.891   1.988   6.828
 3067SOL    HW210101   2.860   2.147   6.802
 3068SOL     OW10102   0.476   0.874   0.698
 3068SOL    HW110103   0.529   0.904   0.778
 3068SOL    HW210104   0.382   0.856   0.726
 3069SOL     OW10105   5.103   6.744   2.753
 3069SOL    HW110106   5.110   6.795   2.668
 3069SOL    HW210107   5.134   6.800   2.829
 3070SOL     OW10108   2.936   1.472   1.021
 3070SOL    HW110109   2.857   1.410   1.020
 3070SOL    HW210110   2.934   1.526   1.105
 3071SOL     OW10111   0.604   3.017   3.439
 3071SOL    HW110112   0.567   3.058   3.522
 3071SOL    HW210113   0.570   2.923   3.430
 3072SOL     OW10114   2.073   6.783   6.500
 3072SOL    HW110115   2.128   6.752   6.422
 3072SOL    HW210116   2.040   6.704   6.551
 3073SOL     OW10117   5.922   4.781   0.947
 3073SOL    HW110118   5.977   4.845   1.000
 3073SOL    HW210119   5.953   4.780   0.852
 3074SOL     OW10120   0.966   3.726   1.098
 3074SOL    HW110121   0.927   3.637   1.121
 3074SOL    HW210122   1.027   3.756   1.171
 3075SOL     OW10123   2.118   5.328   3.796
 3075SOL    HW110124   2.104   5.327   3.895
 3075SOL    HW210125   2.169   5.246   3.769
 3076SOL     OW10126   0.094   1.187   4.774
 3076SOL    HW110127   0.016   1.191   4.837
 3076SOL    HW210128   0.098   1.271   4.720
 3077SOL     OW10129   6.595   4.006   1.211
 3077SOL    HW110130   6.659   4.020   1.287
 3077SOL    HW210131   6.586   4.091   1.159
 3078SOL     OW10132   6.582   2.806   1.675
 3078SOL    HW110133   6.598   2.892   1.627
 3078SOL    HW210134   6.532   2.744   1.614
 3079SOL     OW10135   1.991   2.811   5.127
 3079SOL    HW110136   2.044   2.743   5.077
 3079SOL    HW210137   2.041   2.898   5.130
 3080SOL     OW10138   4.786   5.006   0.936
 3080SOL    HW110139   4.870   5.022   0.885
 3080SOL    HW210140   4.803   5.020   1.034
 3081SOL     OW10141   1.342   4.172   0.809
 3081SOL    HW110142   1.272   4.241   0.830
 3081SOL    HW210143   1.373   4.183   0.714
 3082SOL     OW10144   3.913   5.075   4.437
 3082SOL    HW110145   3.871   5.034   4.355
 3082SOL    HW210146   3.851   5.062   4.515
 3083SOL     OW10147   2.126   5.949   2.734
 3083SOL    HW110148   2.064   5.896   2.791
 3083SOL    HW210149   2.114   6.046   2.753
 3084SOL     OW10150   1.238   3.712   3.334
 3084SOL    HW110151   1.327   3.702   3.377
 3084SOL    HW210152   1.166   3.693   3.400
 3085SOL     OW10153   4.659   4.927   0.628
 3085SOL    HW110154   4.732   4.969   0.574
 3085SOL    HW210155   4.699   4.869   0.699
 3086SOL     OW10156   6.717   1.348   6.557
 3086SOL    HW110157   6.659   1.278   6.515
 3086SOL    HW210158   6.702   1.349   6.656
 3087SOL     OW10159   2.913   6.644   1.975
 3087SOL    HW110160   2.835   6.693   2.013
 3087SOL    HW210161   2.894   6.619   1.880
 3088SOL     OW10162   0.514   2.845   5.411
 3088SOL    HW110163   0.456   2.791   5.472
 3088SOL    HW210164   0.600   2.866   5.457
 3089SOL     OW10165   4.904   6.910   5.258
 3089SOL    HW110166   4.937   6.999   5.290
 3089SOL    HW210167   4.840   6.872   5.324
 3090SOL     OW10168   0.880   2.041   1.580
 3090SOL    HW110169   0.962   2.019   1.631
 3090SOL    HW210170   0.903   2.101   1.503
 3091SOL     OW10171   1.357   1.759   1.096
 3091SOL    HW110172   1.319   1.827   1.033
 3091SOL    HW210173   1.407   1.806   1.169
 3092SOL     OW10174   6.095   6.848   2.317
 3092SOL    HW110175   6.080   6.846   2.218
 3092SOL    HW210176   6.036   6.781   2.361
 3093SOL     OW10177   5.682   5.061   6.184
 3093SOL    HW110178   5.610   5.125   6.212
 3093SOL    HW210179   5.730   5.097   6.105
 3094SOL     OW10180   2.593   0.981   5.690
 3094SOL    HW110181   2.542   0.898   5.669
 3094SOL    HW210182   2.542   1.061   5.658
 3095SOL     OW10183   2.118   3.059   5.128
 3095SOL    HW110184   2.202   3.019   5.093
 3095SOL    HW210185   2.140   3.128   5.197
 3096SOL     OW10186   0.762   3.261   4.831
 3096SOL    HW110187   0.759   3.258   4.931
 3096SOL    HW210188   0.763   3.168   4.794
 3097SOL     OW10189   5.526   2.247   6.349
 3097SOL    HW110190   5.607   2.305   6.363
 3097SOL    HW210191   5.556   2.156   6.321
 3098SOL     OW10192   1.881   1.545   2.107
 3098SOL    HW110193   1.948   1.598   2.158
 3098SOL    HW210194   1.881   1.451   2.139
 3099SOL     OW10195   0.616   6.813   3.795
 3099SOL    HW110196   0.613   6.838   3.698
 3099SOL    HW210197   0.569   6.726   3.808
 3100SOL     OW10198   6.568   6.357   2.843
 3100SOL    HW110199   6.473   6.355   2.810
 3100SOL    HW210200   6.574   6.417   2.923
 3101SOL     OW10201   4.273   6.542   6.004
 3101SOL    HW110202   4.252   6.639   5.996
 3101SOL    HW210203   4.365   6.524   5.968
 3102SOL     OW10204   0.056   5.272   0.557
 3102SOL    HW110205   0.155   5.270   0.542
 3102SOL    HW210206   0.033   5.215   0.637
 3103SOL     OW10207   3.021   0.180   1.289
 3103SOL    HW110208   2.977   0.250   1.346
 3103SOL    HW210209   2.952   0.117   1.254
 3104SOL     OW10210   4.638   0.691   5.989
 3104SOL    HW110211   4.555   0.641   5.967
 3104SOL    HW210212   4.710   0.627   6.018
 3105SOL     OW10213   5.206   3.084   0.057
 3105SOL    HW110214   5.186   2.992   0.091
 3105SOL    HW210215   5.296   3.084   0.013
 3106SOL     OW10216   5.765   1.041   4.428
 3106SOL    HW110217   5.733   1.050   4.334
 3106SOL    HW210218   5.687   1.051   4.490
 3107SOL     OW10219   3.968   1.446   5.150
 3107SOL    HW110220   4.057   1.403   5.130
 3107SOL    HW210221   3.910   1.441   5.069
 3108SOL     OW10222   2.257   4.225   4.578
 3108SOL    HW110223   2.334   4.289   4.583
 3108SOL    HW210224   2.260   4.176   4.491
 3109SOL     OW10225   6.672   6.790   4.133
 3109SOL    HW110226   6.671   6.700   4.089
 3109SOL    HW210227   6.599   6.847   4.095
 3110SOL     OW10228   2.405   4.413   3.908
 3110SOL    HW110229   2.328   4.447   3.852
 3110SOL    HW210230   2.471   4.487   3.922
 3111SOL     OW10231   6.611   4.354   4.832
 3111SOL    HW110232   6.674   4.414   4.881
 3111SOL    HW210233   6.525   4.403   4.815
 3112SOL     OW10234   3.729   2.359   0.006
 3112SOL    HW110235   3.660   2.365   6.962
 3112SOL    HW210236   3.794   2.435   7.025
 3113SOL     OW10237   2.439   5.474   3.395
 3113SOL    HW110238   2.477   5.512   3.311
 3113SOL    HW210239   2.477   5.382   3.410
 3114SOL     OW10240   3.943   1.716   0.402
 3114SOL    HW110241   3.930   1.742   0.498
 3114SOL    HW210242   4.008   1.640   0.397
 3115SOL     OW10243   3.950   4.175   5.703
 3115SOL    HW110244   3.979   4.235   5.629
 3115SOL    HW210245   3.870   4.122   5.674
 3116SOL     OW10246   0.190   2.316   0.828
 3116SOL    HW110247   0.273   2.352   0.869
 3116SOL    HW210248   0.213   2.242   0.765
 3117SOL     OW10249   4.765   2.101   5.641
 3117SOL    HW110250   4.824   2.032   5.684
 3117SOL    HW210251   4.797   2.119   5.549
 3118SOL     OW10252   1.684   0.959   2.765
 3118SOL    HW110253   1.587   0.946   2.748
 3118SOL    HW210254   1.706   0.928   2.858
 3119SOL     OW10255   4.123   3.525   5.801
 3119SOL    HW110256   4.186   3.558   5.731
 3119SOL    HW210257   4.173   3.512   5.887
 3120SOL     OW10258   2.690   6.715   5.513
 3120SOL    HW110259   2.597   6.742   5.537
 3120SOL    HW210260   2.731   6.785   5.454
 3121SOL     OW10261   4.872   1.545   4.571
 3121SOL    HW110262   4.916   1.526   4.659
 3121SOL    HW210263   4.824   1.462   4.540
 3122SOL     OW10264   4.227   4.774   4.334
 3122SOL    HW110265   4.264   4.867   4.342
 3122SOL    HW210266   4.294   4.716   4.289
 3123SOL     OW10267   2.601   1.768   2.818
 3123SOL    HW110268   2.675   1.700   2.825
 3123SOL    HW210269   2.527   1.731   2.762
 3124SOL     OW10270   4.806   6.362   4.449
 3124SOL    HW110271   4.725   6.305   4.462
 3124SOL    HW210272   4.780   6.459   4.450
 3125SOL     OW10273   1.504   2.630   5.383
 3125SOL    HW110274   1.442   2.648   5.306
 3125SOL    HW210275   1.599   2.638   5.352
 3126SOL     OW10276   5.560   5.640   4.286
 3126SOL    HW110277   5.624   5.572   4.252
 3126SOL    HW210278   5.519   5.689   4.208
 3127SOL     OW10279   0.659   2.127   4.777
 3127SOL    HW110280   0.736   2.098   4.721
 3127SOL    HW210281   0.577   2.133   4.721
 3128SOL     OW10282   4.183   0.147   0.271
 3128SOL    HW110283   4.242   0.228   0.269
 3128SOL    HW210284   4.236   0.067   0.241
 3129SOL     OW10285   4.588   3.382   1.211
 3129SOL    HW110286   4.525   3.354   1.284
 3129SOL    HW210287   4.681   3.353   1.234
 3130SOL     OW10288   1.633   3.988   1.184
 3130SOL    HW110289   1.653   4.038   1.269
 3130SOL    HW210290   1.620   3.891   1.206
 3131SOL     OW10291   6.609   3.930   1.870
 3131SOL    HW110292   6.707   3.946   1.859
 3131SOL    HW210293   6.559   4.016   1.860
 3132SOL     OW10294   4.075   3.945   0.138
 3132SOL    HW110295   4.170   3.973   0.123
 3132SOL    HW210296   4.014   4.018   0.108
 3133SOL     OW10297   4.143   0.284   3.122
 3133SOL    HW110298   4.161   0.303   3.026
 3133SOL    HW210299   4.051   0.314   3.146
 3134SOL     OW10300   3.456   5.241   2.396
 3134SOL    HW110301   3.395   5.306   2.352
 3134SOL    HW210302   3.540   5.233   2.342
 3135SOL     OW10303   5.896   6.618   6.038
 3135SOL    HW110304   5.960   6.575   5.974
 3135SOL    HW210305   5.891   6.716   6.019
 3136SOL     OW10306   6.302   1.325   2.729
 3136SOL    HW110307   6.396   1.333   2.761
 3136SOL    HW210308   6.302   1.285   2.637
 3137SOL     OW10309   6.438   6.901   0.156
 3137SOL    HW110310   6.467   6.895   0.060
 3137SOL    HW210311   6.435   6.996   0.185
 3138SOL     OW10312   5.222   5.218   4.177
 3138SOL    HW110313   5.288   5.170   4.234
 3138SOL    HW210314   5.176   5.153   4.117
 3139SOL     OW10315   2.205   5.264   1.336
 3139SOL    HW110316   2.251   5.312   1.261
 3139SOL    HW210317   2.116   5.232   1.306
 3140SOL     OW10318   6.619   6.385   5.463
 3140SOL    HW110319   6.648   6.320   5.532
 3140SOL    HW210320   6.553   6.341   5.401
 3141SOL     OW10321   6.960   2.756   6.796
 3141SOL    HW110322   6.886   2.727   6.857
 3141SOL    HW210323   6.949   2.852   6.773
 3142SOL     OW10324   5.090   0.761   1.995
 3142SOL    HW110325   5.062   0.806   2.080
 3142SOL    HW210326   5.075   0.663   2.003
 3143SOL     OW10327   5.721   1.408   0.081
 3143SOL    HW110328   5.641   1.454   0.120
 3143SOL    HW210329   5.708   1.395   7.011
 3144SOL     OW10330   4.296   3.519   6.536
 3144SOL    HW110331   4.279   3.504   6.633
 3144SOL    HW210332   4.364   3.590   6.524
 3145SOL     OW10333   2.477   6.098   1.947
 3145SOL    HW110334   2.505   6.018   2.001
 3145SOL    HW210335   2.559   6.151   1.923
 3146SOL     OW10336   0.609   1.418   5.426
 3146SOL    HW110337   0.607   1.390   5.522
 3146SOL    HW210338   0.581   1.340   5.369
 3147SOL     OW10339   3.473   4.657   6.200
 3147SOL    HW110340   3.390   4.712   6.209
 3147SOL    HW210341   3.450   4.560   6.206
 3148SOL     OW10342   0.650   6.095   2.620
 3148SOL    HW110343   0.682   6.158   2.550
 3148SOL    HW210344   0.587   6.143   2.682
 3149SOL     OW10345   3.121   1.274   1.004
 3149SOL    HW110346   3.084   1.189   1.040
 3149SOL    HW210347   3.048   1.343   0.999
 3150SOL     OW10348   6.362   6.530   5.277
 3150SOL    HW110349   6.411   6.445   5.255
 3150SOL    HW210350   6.380   6.555   5.372
 3151SOL     OW10351   6.353   2.013   6.402
 3151SOL    HW110352   6.386   2.105   6.380
 3151SOL    HW210353   6.431   1.952   6.416
 3152SOL     OW10354   1.386   3.924   6.595
 3152SOL    HW110355   1.420   3.911   6.688
 3152SOL    HW210356   1.298   3.972   6.598
 3153SOL     OW10357   6.787   5.252   0.487
 3153SOL    HW110358   6.745   5.300   0.565
 3153SOL    HW210359   6.884   5.275   0.481
 3154SOL     OW10360   5.507   1.538   1.663
 3154SOL    HW110361   5.580   1.555   1.596
 3154SOL    HW210362   5.428   1.499   1.616
 3155SOL     OW10363   6.200   4.647   0.220
 3155SOL    HW110364   6.163   4.558   0.247
 3155SOL    HW210365   6.206   4.651   0.120
 3156SOL     OW10366   3.571   4.118   2.002
 3156SOL    HW110367   3.597   4.190   1.938
 3156SOL    HW210368   3.654   4.082   2.046
 3157SOL     OW10369   0.834   1.905   5.501
 3157SOL    HW110370   0.916   1.875   5.452
 3157SOL    HW210371   0.854   1.911   5.599
 3158SOL     OW10372   2.757   1.866   5.623
 3158SOL    HW110373   2.677   1.893   5.677
 3158SOL    HW210374   2.810   1.799   5.674
 3159SOL     OW10375   4.675   6.805   0.172
 3159SOL    HW110376   4.654   6.812   0.270
 3159SOL    HW210377   4.625   6.877   0.123
 3160SOL     OW10378   2.556   0.005   6.135
 3160SOL    HW110379   2.541   0.024   6.037
 3160SOL    HW210380   2.524   0.083   6.189
 3161SOL     OW10381   1.889   2.745   2.792
 3161SOL    HW110382   1.803   2.756   2.843
 3161SOL    HW210383   1.898   2.649   2.763
 3162SOL     OW10384   1.871   5.443   0.430
 3162SOL    HW110385   1.836   5.425   0.521
 3162SOL    HW210386   1.964   5.479   0.436
 3163SOL     OW10387   4.106   3.907   0.414
 3163SOL    HW110388   4.144   3.814   0.409
 3163SOL    HW210389   4.084   3.939   0.323
 3164SOL     OW10390   3.229   5.234   3.376
 3164SOL    HW110391   3.135   5.209   3.397
 3164SOL    HW210392   3.282   5.151   3.359
 3165SOL     OW10393   0.814   5.173   0.264
 3165SOL    HW110394   0.853   5.081   0.271
 3165SOL    HW210395   0.794   5.208   0.355
 3166SOL     OW10396   4.018   1.083   4.866
 3166SOL    HW110397   3.950   1.111   4.933
 3166SOL    HW210398   4.072   1.007   4.902
 3167SOL     OW10399   4.684   4.031   0.482
 3167SOL    HW110400   4.611   3.964   0.494
 3167SOL    HW210401   4.645   4.120   0.458
 3168SOL     OW10402   4.820   2.510   0.442
 3168SOL    HW110403   4.904   2.552   0.407
 3168SOL    HW210404   4.786   2.563   0.520
 3169SOL     OW10405   1.598   4.541   2.575
 3169SOL    HW110406   1.501   4.555   2.555
 3169SOL    HW210407   1.621   4.445   2.559
 3170SOL     OW10408   3.613   5.635   3.032
 3170SOL    HW110409   3.549   5.668   3.100
 3170SOL    HW210410   3.565   5.577   2.965
 3171SOL     OW10411   5.498   2.807   2.821
 3171SOL    HW110412   5.577   2.820   2.761
 3171SOL    HW210413   5.481   2.891   2.872
 3172SOL     OW10414   6.864   4.721   0.567
 3172SOL    HW110415   6.929   4.686   0.500
 3172SOL    HW210416   6.822   4.805   0.532
 3173SOL     OW10417   3.112   1.619   7.002
 3173SOL    HW110418   3.105   1.714   0.001
 3173SOL    HW210419   3.208   1.590   7.004
 3174SOL     OW10420   2.544   3.010   5.804
 3174SOL    HW110421   2.641   3.000   5.781
 3174SOL    HW210422   2.529   3.100   5.845
 3175SOL     OW10423   6.447   1.500   3.818
 3175SOL    HW110424   6.399   1.533   3.900
 3175SOL    HW210425   6.406   1.541   3.737
 3176SOL     OW10426   0.147   4.170   4.781
 3176SOL    HW110427   0.178   4.122   4.863
 3176SOL    HW210428   0.218   4.163   4.710
 3177SOL     OW10429   5.700   3.938   3.244
 3177SOL    HW110430   5.730   3.881   3.321
 3177SOL    HW210431   5.677   3.879   3.166
 3178SOL     OW10432   5.664   1.217   0.271
 3178SOL    HW110433   5.582   1.161   0.268
 3178SOL    HW210434   5.674   1.268   0.186
 3179SOL     OW10435   0.630   1.991   2.338
 3179SOL    HW110436   0.629   2.082   2.297
 3179SOL    HW210437   0.547   1.942   2.312
 3180SOL     OW10438   6.203   6.422   6.222
 3180SOL    HW110439   6.164   6.353   6.161
 3180SOL    HW210440   6.302   6.409   6.228
 3181SOL     OW10441   0.409   1.326   4.538
 3181SOL    HW110442   0.468   1.250   4.514
 3181SOL    HW210443   0.321   1.291   4.572
 3182SOL     OW10444   3.243   0.429   0.392
 3182SOL    HW110445   3.329   0.391   0.358
 3182SOL    HW210446   3.254   0.455   0.488
 3183SOL     OW10447   4.342   4.558   2.502
 3183SOL    HW110448   4.287   4.629   2.546
 3183SOL    HW210449   4.312   4.545   2.408
 3184SOL     OW10450   0.490   2.053   3.749
 3184SOL    HW110451   0.446   2.060   3.660
 3184SOL    HW210452   0.474   2.138   3.801
 3185SOL     OW10453   6.906   0.175   5.691
 3185SOL    HW110454   6.920   0.103   5.623
 3185SOL    HW210455   6.951   0.259   5.661
 3186SOL     OW10456   1.694   0.963   0.402
 3186SOL    HW110457   1.745   1.035   0.451
 3186SOL    HW210458   1.743   0.939   0.318
 3187SOL     OW10459   3.730   5.496   2.572
 3187SOL    HW110460   3.802   5.446   2.524
 3187SOL    HW210461   3.650   5.437   2.583
 3188SOL     OW10462   2.304   4.724   5.025
 3188SOL    HW110463   2.307   4.746   4.928
 3188SOL    HW210464   2.226   4.664   5.044
 3189SOL     OW10465   2.244   1.472   0.236
 3189SOL    HW110466   2.158   1.421   0.246
 3189SOL    HW210467   2.321   1.410   0.251
 3190SOL     OW10468   6.361   5.807   4.911
 3190SOL    HW110469   6.350   5.790   5.008
 3190SOL    HW210470   6.273   5.834   4.872
 3191SOL     OW10471   4.332   5.430   2.373
 3191SOL    HW110472   4.288   5.341   2.361
 3191SOL    HW210473   4.373   5.458   2.286
 3192SOL     OW10474   6.748   2.455   1.637
 3192SOL    HW110475   6.780   2.545   1.666
 3192SOL    HW210476   6.765   2.389   1.710
 3193SOL     OW10477   4.439   1.217   4.875
 3193SOL    HW110478   4.493   1.202   4.793
 3193SOL    HW210479   4.478   1.166   4.952
 3194SOL     OW10480   1.108   1.105   5.369
 3194SOL    HW110481   1.186   1.160   5.338
 3194SOL    HW210482   1.055   1.157   5.436
 3195SOL     OW10483   0.330   1.141   1.745
 3195SOL    HW110484   0.333   1.184   1.835
 3195SOL    HW210485   0.372   1.202   1.677
 3196SOL     OW10486   6.586   0.943   5.438
 3196SOL    HW110487   6.682   0.969   5.436
 3196SOL    HW210488   6.570   0.865   5.377
 3197SOL     OW10489   2.011   6.837   6.132
 3197SOL    HW110490   2.060   6.910   6.181
 3197SOL    HW210491   2.061   6.814   6.049
 3198SOL     OW10492   6.467   2.373   3.956
 3198SOL    HW110493   6.392   2.309   3.938
 3198SOL    HW210494   6.448   2.423   4.040
 3199SOL     OW10495   5.211   4.946   2.725
 3199SOL    HW110496   5.162   4.914   2.644
 3199SOL    HW210497   5.240   4.867   2.780
 3200SOL     OW10498   6.125   3.088   4.110
 3200SOL    HW110499   6.042   3.077   4.166
 3200SOL    HW210500   6.168   3.176   4.131
 3201SOL     OW10501   6.187   4.523   3.104
 3201SOL    HW110502   6.177   4.602   3.163
 3201SOL    HW210503   6.097   4.493   3.072
 3202SOL     OW10504   1.170   5.149   0.604
 3202SOL    HW110505   1.083   5.174   0.647
 3202SOL    HW210506   1.164   5.167   0.506
 3203SOL     OW10507   4.380   6.923   1.420
 3203SOL    HW110508   4.332   6.898   1.504
 3203SOL    HW210509   4.377   6.846   1.356
 3204SOL     OW10510   2.707   1.576   3.613
 3204SOL    HW110511   2.731   1.549   3.706
 3204SOL    HW210512   2.760   1.520   3.548
 3205SOL     OW10513   5.703   3.620   5.900
 3205SOL    HW110514   5.728   3.523   5.905
 3205SOL    HW210515   5.606   3.629   5.878
 3206SOL     OW10516   2.554   2.846   1.446
 3206SOL    HW110517   2.644   2.827   1.485
 3206SOL    HW210518   2.501   2.900   1.512
 3207SOL     OW10519   0.859   0.874   5.835
 3207SOL    HW110520   0.948   0.854   5.794
 3207SOL    HW210521   0.855   0.971   5.860
 3208SOL     OW10522   5.938   6.013   5.238
 3208SOL    HW110523   5.919   5.939   5.302
 3208SOL    HW210524   5.984   6.088   5.285
 3209SOL     OW10525   4.110   5.237   5.566
 3209SOL    HW110526   4.017   5.240   5.528
 3209SOL    HW210527   4.148   5.145   5.553
 3210SOL     OW10528   0.515   5.177   1.568
 3210SOL    HW110529   0.438   5.194   1.506
 3210SOL    HW210530   0.499   5.091   1.618
 3211SOL     OW10531   1.383   5.046   0.771
 3211SOL    HW110532   1.310   5.073   0.707
 3211SOL    HW210533   1.439   4.976   0.728
 3212SOL     OW10534   3.085   0.176   2.374
 3212SOL    HW110535   3.034   0.226   2.304
 3212SOL    HW210536   3.057   0.208   2.464
 3213SOL     OW10537   1.948   0.359   6.444
 3213SOL    HW110538   2.019   0.311   6.495
 3213SOL    HW210539   1.886   0.405   6.508
 3214SOL     OW10540   4.300   7.003   3.487
 3214SOL    HW110541   4.269   7.026   3.395
 3214SOL    HW210542   4.353   6.918   3.484
 3215SOL     OW10543   1.259   3.607   0.400
 3215SOL    HW110544   1.344   3.590   0.350
 3215SOL    HW210545   1.190   3.541   0.370
 3216SOL     OW10546   5.280   4.593   1.360
 3216SOL    HW110547   5.208   4.624   1.298
 3216SOL    HW210548   5.254   4.613   1.454
 3217SOL     OW10549   0.038   5.335   2.964
 3217SOL    HW110550   0.049   5.311   3.060
 3217SOL    HW210551   0.086   5.421   2.945
 3218SOL     OW10552   6.111   2.251   3.391
 3218SOL    HW110553   6.062   2.277   3.474
 3218SOL    HW210554   6.170   2.326   3.361
 3219SOL     OW10555   0.034   0.832   4.898
 3219SOL    HW110556   6.995   0.789   4.839
 3219SOL    HW210557   0.101   0.880   4.842
 3220SOL     OW10558   0.325   6.119   6.307
 3220SOL    HW110559   0.372   6.040   6.346
 3220SOL    HW210560   0.390   6.175   6.256
 3221SOL     OW10561   4.001   0.426   2.462
 3221SOL    HW110562   3.956   0.411   2.374
 3221SOL    HW210563   3.972   0.355   2.526
 3222SOL     OW10564   3.073   1.552   3.448
 3222SOL    HW110565   3.153   1.555   3.508
 3222SOL    HW210566   3.082   1.623   3.378
 3223SOL     OW10567   1.760   6.555   0.733
 3223SOL    HW110568   1.838   6.547   0.671
 3223SOL    HW210569   1.684   6.598   0.685
 3224SOL     OW10570   4.980   2.868   4.696
 3224SOL    HW110571   4.994   2.870   4.795
 3224SOL    HW210572   4.991   2.774   4.663
 3225SOL     OW10573   4.218   1.358   4.017
 3225SOL    HW110574   4.191   1.399   3.931
 3225SOL    HW210575   4.149   1.292   4.046
 3226SOL     OW10576   1.662   6.936   2.024
 3226SOL    HW110577   1.574   6.968   2.058
 3226SOL    HW210578   1.650   6.896   1.933
 3227SOL     OW10579   3.530   2.507   6.512
 3227SOL    HW110580   3.603   2.443   6.487
 3227SOL    HW210581   3.445   2.457   6.525
 3228SOL     OW10582   0.354   4.292   0.867
 3228SOL    HW110583   0.303   4.206   0.878
 3228SOL    HW210584   0.392   4.297   0.775
 3229SOL     OW10585   3.081   0.698   5.888
 3229SOL    HW110586   3.060   0.654   5.800
 3229SOL    HW210587   3.128   0.785   5.871
 3230SOL     OW10588   2.387   5.531   6.195
 3230SOL    HW110589   2.418   5.586   6.272
 3230SOL    HW210590   2.466   5.489   6.150
 3231SOL     OW10591   3.296   1.023   3.050
 3231SOL    HW110592   3.362   1.032   2.975
 3231SOL    HW210593   3.250   1.111   3.064
 3232SOL     OW10594   4.117   5.994   4.194
 3232SOL    HW110595   4.056   5.951   4.260
 3232SOL    HW210596   4.076   6.079   4.161
 3233SOL     OW10597   0.141   2.389   0.181
 3233SOL    HW110598   0.131   2.449   0.260
 3233SOL    HW210599   0.128   2.442   0.097
 3234SOL     OW10600   1.464   2.890   0.284
 3234SOL    HW110601   1.445   2.798   0.249
 3234SOL    HW210602   1.498   2.948   0.210
 3235SOL     OW10603   5.941   5.854   2.058
 3235SOL    HW110604   5.938   5.888   2.153
 3235SOL    HW210605   5.945   5.932   1.996
 3236SOL     OW10606   2.458   3.560   0.385
 3236SOL    HW110607   2.371   3.594   0.351
 3236SOL    HW210608   2.528   3.631   0.375
 3237SOL     OW10609   6.356   1.849   4.167
 3237SOL    HW110610   6.288   1.803   4.224
 3237SOL    HW210611   6.403   1.918   4.221
 3238SOL     OW10612   6.075   5.393   0.344
 3238SOL    HW110613   6.140   5.401   0.268
 3238SOL    HW210614   6.105   5.320   0.406
 3239SOL     OW10615   0.057   0.044   3.531
 3239SOL    HW110616   0.153   0.066   3.511
 3239SOL    HW210617   0.044   0.041   3.630
 3240SOL     OW10618   6.963   1.040   6.482
 3240SOL    HW110619   0.015   0.986   6.501
 3240SOL    HW210620   6.882   0.982   6.484
 3241SOL     OW10621   4.873   2.059   6.529
 3241SOL    HW110622   4.919   2.112   6.457
 3241SOL    HW210623   4.846   1.970   6.493
 3242SOL     OW10624   5.136   4.038   5.533
 3242SOL    HW110625   5.177   4.112   5.587
 3242SOL    HW210626   5.196   3.958   5.536
 3243SOL     OW10627   4.147   5.398   6.483
 3243SOL    HW110628   4.209   5.323   6.506
 3243SOL    HW210629   4.067   5.394   6.542
 3244SOL     OW10630   5.813   6.327   0.208
 3244SOL    HW110631   5.869   6.408   0.189
 3244SOL    HW210632   5.870   6.257   0.251
 3245SOL     OW10633   4.952   2.277   4.387
 3245SOL    HW110634   4.948   2.259   4.289
 3245SOL    HW210635   4.867   2.319   4.417
 3246SOL     OW10636   6.954   0.128   2.403
 3246SOL    HW110637   7.016   0.067   2.354
 3246SOL    HW210638   6.860   0.094   2.394
 3247SOL     OW10639   0.186   4.308   2.626
 3247SOL    HW110640   0.148   4.396   2.655
 3247SOL    HW210641   0.175   4.297   2.528
 3248SOL     OW10642   5.655   2.566   2.749
 3248SOL    HW110643   5.557   2.583   2.762
 3248SOL    HW210644   5.694   2.637   2.691
 3249SOL     OW10645   4.086   3.417   3.381
 3249SOL    HW110646   4.077   3.317   3.376
 3249SOL    HW210647   4.075   3.446   3.476
 3250SOL     OW10648   5.011   6.602   3.667
 3250SOL    HW110649   5.030   6.608   3.765
 3250SOL    HW210650   4.922   6.559   3.653
 3251SOL     OW10651   2.719   0.849   4.561
 3251SOL    HW110652   2.646   0.893   4.613
 3251SOL    HW210653   2.716   0.879   4.466
 3252SOL     OW10654   2.834   1.404   3.450
 3252SOL    HW110655   2.909   1.471   3.449
 3252SOL    HW210656   2.868   1.315   3.422
 3253SOL     OW10657   5.236   3.716   1.111
 3253SOL    HW110658   5.326   3.746   1.080
 3253SOL    HW210659   5.220   3.752   1.203
 3254SOL     OW10660   5.223   0.165   6.458
 3254SOL    HW110661   5.163   0.180   6.537
 3254SOL    HW210662   5.192   0.084   6.408
 3255SOL     OW10663   5.886   6.023   0.532
 3255SOL    HW110664   5.796   6.037   0.492
 3255SOL    HW210665   5.956   6.049   0.465
 3256SOL     OW10666   4.453   2.207   1.302
 3256SOL    HW110667   4.393   2.166   1.371
 3256SOL    HW210668   4.424   2.301   1.283
 3257SOL     OW10669   3.080   2.120   2.013
 3257SOL    HW110670   3.126   2.119   1.924
 3257SOL    HW210671   3.027   2.204   2.023
 3258SOL     OW10672   3.357   5.325   4.054
 3258SOL    HW110673   3.406   5.240   4.034
 3258SOL    HW210674   3.408   5.378   4.122
 3259SOL     OW10675   5.529   4.802   4.207
 3259SOL    HW110676   5.571   4.759   4.127
 3259SOL    HW210677   5.480   4.733   4.260
 3260SOL     OW10678   1.574   3.942   2.056
 3260SOL    HW110679   1.653   3.945   2.117
 3260SOL    HW210680   1.519   3.861   2.076
 3261SOL     OW10681   5.548   0.584   2.677
 3261SOL    HW110682   5.620   0.562   2.742
 3261SOL    HW210683   5.460   0.587   2.724
 3262SOL     OW10684   4.165   1.930   2.298
 3262SOL    HW110685   4.142   1.834   2.310
 3262SOL    HW210686   4.107   1.970   2.228
 3263SOL     OW10687   3.188   1.120   3.572
 3263SOL    HW110688   3.184   1.041   3.634
 3263SOL    HW210689   3.266   1.177   3.598
 3264SOL     OW10690   1.767   5.003   0.733
 3264SOL    HW110691   1.830   5.020   0.657
 3264SOL    HW210692   1.689   4.949   0.700
 3265SOL     OW10693   6.220   6.371   5.520
 3265SOL    HW110694   6.238   6.292   5.579
 3265SOL    HW210695   6.290   6.440   5.535
 3266SOL     OW10696   2.475   4.541   7.000
 3266SOL    HW110697   2.470   4.444   6.973
 3266SOL    HW210698   2.521   4.548   0.060
 3267SOL     OW10699   3.851   0.730   1.580
 3267SOL    HW110700   3.945   0.762   1.568
 3267SOL    HW210701   3.836   0.649   1.523
 3268SOL     OW10702   1.065   4.761   1.739
 3268SOL    HW110703   1.113   4.687   1.693
 3268SOL    HW210704   1.130   4.816   1.791
 3269SOL     OW10705   0.811   5.292   2.152
 3269SOL    HW110706   0.843   5.255   2.239
 3269SOL    HW210707   0.743   5.363   2.169
 3270SOL     OW10708   1.024   3.528   6.140
 3270SOL    HW110709   1.073   3.587   6.204
 3270SOL    HW210710   1.087   3.461   6.101
 3271SOL     OW10711   6.670   3.392   1.712
 3271SOL    HW110712   6.734   3.454   1.758
 3271SOL    HW210713   6.611   3.445   1.651
 3272SOL     OW10714   3.901   5.179   6.813
 3272SOL    HW110715   3.968   5.218   6.876
 3272SOL    HW210716   3.876   5.087   6.844
 3273SOL     OW10717   4.897   4.415   6.115
 3273SOL    HW110718   4.924   4.336   6.169
 3273SOL    HW210719   4.973   4.481   6.112
 3274SOL     OW10720   6.068   0.877   7.020
 3274SOL    HW110721   5.976   0.886   0.028
 3274SOL    HW210722   6.135   0.902   0.061
 3275SOL     OW10723   4.751   0.758   0.791
 3275SOL    HW110724   4.705   0.828   0.737
 3275SOL    HW210725   4.850   0.768   0.781
 3276SOL     OW10726   4.546   6.556   6.924
 3276SOL    HW110727   4.598   6.547   6.839
 3276SOL    HW210728   4.510   6.467   6.951
 3277SOL     OW10729   3.008   1.009   1.047
 3277SOL    HW110730   2.912   0.981   1.058
 3277SOL    HW210731   3.067   0.942   1.093
 3278SOL     OW10732   6.990   0.821   6.088
 3278SOL    HW110733   7.014   0.900   6.144
 3278SOL    HW210734   7.015   0.838   5.993
 3279SOL     OW10735   4.179   6.055   0.992
 3279SOL    HW110736   4.207   6.006   1.075
 3279SOL    HW210737   4.236   6.135   0.980
 3280SOL     OW10738   5.617   3.924   4.159
 3280SOL    HW110739   5.549   3.862   4.198
 3280SOL    HW210740   5.571   4.004   4.119
 3281SOL     OW10741   6.669   5.004   1.602
 3281SOL    HW110742   6.579   4.961   1.607
 3281SOL    HW210743   6.734   4.939   1.562
 3282SOL     OW10744   0.736   3.747   5.114
 3282SOL    HW110745   0.748   3.706   5.024
 3282SOL    HW210746   0.733   3.846   5.106
 3283SOL     OW10747   3.891   1.347   1.353
 3283SOL    HW110748   3.906   1.320   1.448
 3283SOL    HW210749   3.796   1.330   1.328
 3284SOL     OW10750   1.293   5.075   4.363
 3284SOL    HW110751   1.306   5.105   4.268
 3284SOL    HW210752   1.232   4.996   4.365
 3285SOL     OW10753   5.914   1.934   4.614
 3285SOL    HW110754   5.817   1.940   4.639
 3285SOL    HW210755   5.935   1.840   4.586
 3286SOL     OW10756   3.436   2.291   1.672
 3286SOL    HW110757   3.392   2.380   1.686
 3286SOL    HW210758   3.507   2.277   1.740
 3287SOL     OW10759   0.833   0.347   6.804
 3287SOL    HW110760   0.799   0.436   6.775
 3287SOL    HW210761   0.840   0.287   6.725
 3288SOL     OW10762   1.942   6.511   0.553
 3288SOL    HW110763   2.002   6.431   0.545
 3288SOL    HW210764   1.985   6.589   0.509
 3289SOL     OW10765   3.272   2.018   6.892
 3289SOL    HW110766   3.216   1.970   6.824
 3289SOL    HW210767   3.364   1.979   6.893
 3290SOL     OW10768   6.574   5.174   0.338
 3290SOL    HW110769   6.589   5.099   0.274
 3290SOL    HW210770   6.662   5.212   0.366
 3291SOL     OW10771   3.983   0.842   6.398
 3291SOL    HW110772   3.890   0.865   6.369
 3291SOL    HW210773   3.982   0.817   6.495
 3292SOL     OW10774   0.138   1.262   0.766
 3292SOL    HW110775   0.188   1.209   0.698
 3292SOL    HW210776   0.046   1.282   0.732
 3293SOL     OW10777   6.816   4.556   2.549
 3293SOL    HW110778   6.743   4.491   2.527
 3293SOL    HW210779   6.885   4.554   2.477
 3294SOL     OW10780   5.279   2.542   5.788
 3294SOL    HW110781   5.366   2.500   5.814
 3294SOL    HW210782   5.228   2.567   5.870
 3295SOL     OW10783   1.679   3.137   0.219
 3295SOL    HW110784   1.705   3.184   0.303
 3295SOL    HW210785   1.589   3.169   0.190
 3296SOL     OW10786   6.257   0.155   5.428
 3296SOL    HW110787   6.311   0.071   5.438
 3296SOL    HW210788   6.168   0.132   5.389
 3297SOL     OW10789   3.341   1.806   4.898
 3297SOL    HW110790   3.297   1.764   4.977
 3297SOL    HW210791   3.351   1.904   4.913
 3298SOL     OW10792   6.447   3.290   5.223
 3298SOL    HW110793   6.463   3.386   5.200
 3298SOL    HW210794   6.359   3.261   5.187
 3299SOL     OW10795   4.501   5.739   3.237
 3299SOL    HW110796   4.472   5.724   3.143
 3299SOL    HW210797   4.452   5.675   3.297
 3300SOL     OW10798   2.053   0.333   5.371
 3300SOL    HW110799   2.046   0.381   5.284
 3300SOL    HW210800   2.094   0.394   5.439
 3301SOL     OW10801   1.257   3.040   2.829
 3301SOL    HW110802   1.302   3.035   2.918
 3301SOL    HW210803   1.302   2.978   2.765
 3302SOL     OW10804   1.067   4.575   6.453
 3302SOL    HW110805   0.977   4.608   6.480
 3302SOL    HW210806   1.058   4.516   6.373
 3303SOL     OW10807   3.784   3.313   0.652
 3303SOL    HW110808   3.842   3.393   0.637
 3303SOL    HW210809   3.688   3.342   0.655
 3304SOL     OW10810   2.055   4.627   6.311
 3304SOL    HW110811   2.014   4.594   6.396
 3304SOL    HW210812   1.986   4.677   6.259
 3305SOL     OW10813   3.181   0.475   1.278
 3305SOL    HW110814   3.141   0.394   1.321
 3305SOL    HW210815   3.123   0.503   1.201
 3306SOL     OW10816   1.337   5.773   6.516
 3306SOL    HW110817   1.437   5.766   6.508
 3306SOL    HW210818   1.314   5.826   6.598
 3307SOL     OW10819   1.037   0.447   6.142
 3307SOL    HW110820   0.968   0.461   6.213
 3307SOL    HW210821   1.082   0.359   6.155
 3308SOL     OW10822   4.213   4.826   1.227
 3308SOL    HW110823   4.135   4.797   1.283
 3308SOL    HW210824   4.219   4.769   1.145
 3309SOL     OW10825   5.443   4.334   4.150
 3309SOL    HW110826   5.369   4.348   4.084
 3309SOL    HW210827   5.415   4.268   4.219
 3310SOL     OW10828   0.810   4.207   4.899
 3310SOL    HW110829   0.797   4.192   4.801
 3310SOL    HW210830   0.801   4.305   4.919
 3311SOL     OW10831   3.585   3.476   1.213
 3311SOL    HW110832   3.597   3.391   1.162
 3311SOL    HW210833   3.646   3.477   1.292
 3312SOL     OW10834   4.230   3.028   5.682
 3312SOL    HW110835   4.210   3.126   5.686
 3312SOL    HW210836   4.211   2.993   5.591
 3313SOL     OW10837   0.602   0.732   3.244
 3313SOL    HW110838   0.617   0.817   3.194
 3313SOL    HW210839   0.646   0.738   3.333
 3314SOL     OW10840   2.514   0.141   3.136
 3314SOL    HW110841   2.501   0.218   3.074
 3314SOL    HW210842   2.430   0.128   3.190
 3315SOL     OW10843   1.124   4.040   5.187
 3315SOL    HW110844   1.170   4.120   5.150
 3315SOL    HW210845   1.170   3.957   5.156
 3316SOL     OW10846   3.352   0.618   5.918
 3316SOL    HW110847   3.358   0.524   5.954
 3316SOL    HW210848   3.260   0.636   5.886
 3317SOL     OW10849   5.507   1.564   2.724
 3317SOL    HW110850   5.600   1.599   2.724
 3317SOL    HW210851   5.483   1.533   2.631
 3318SOL     OW10852   2.337   1.607   6.756
 3318SOL    HW110853   2.291   1.696   6.752
 3318SOL    HW210854   2.280   1.543   6.807
 3319SOL     OW10855   6.690   7.023   2.843
 3319SOL    HW110856   6.627   0.029   2.912
 3319SOL    HW210857   6.779   7.006   2.885
 3320SOL     OW10858   6.509   0.245   6.898
 3320SOL    HW110859   6.456   0.162   6.916
 3320SOL    HW210860   6.598   0.239   6.943
 3321SOL     OW10861   5.992   1.716   1.003
 3321SOL    HW110862   6.044   1.797   1.031
 3321SOL    HW210863   5.896   1.741   0.991
 3322SOL     OW10864   6.861   3.195   0.835
 3322SOL    HW110865   6.814   3.120   0.882
 3322SOL    HW210866   6.938   3.226   0.892
 3323SOL     OW10867   2.483   1.314   1.080
 3323SOL    HW110868   2.407   1.258   1.113
 3323SOL    HW210869   2.459   1.411   1.087
 3324SOL     OW10870   4.063   5.467   5.807
 3324SOL    HW110871   4.030   5.561   5.794
 3324SOL    HW210872   4.023   5.408   5.737
 3325SOL     OW10873   0.313   3.240   6.417
 3325SOL    HW110874   0.289   3.328   6.375
 3325SOL    HW210875   0.257   3.225   6.498
 3326SOL     OW10876   4.672   0.973   2.308
 3326SOL    HW110877   4.602   0.954   2.240
 3326SOL    HW210878   4.700   0.888   2.353
 3327SOL     OW10879   2.202   5.992   2.066
 3327SOL    HW110880   2.288   5.953   2.034
 3327SOL    HW210881   2.131   5.922   2.063
 3328SOL     OW10882   3.466   1.849   1.350
 3328SOL    HW110883   3.432   1.860   1.443
 3328SOL    HW210884   3.562   1.821   1.354
 3329SOL     OW10885   5.989   0.364   5.749
 3329SOL    HW110886   5.911   0.316   5.789
 3329SOL    HW210887   6.071   0.344   5.802
 3330SOL     OW10888   0.080   3.736   1.945
 3330SOL    HW110889   0.121   3.726   2.035
 3330SOL    HW210890   0.080   3.647   1.898
 3331SOL     OW10891   2.194   2.533   1.324
 3331SOL    HW110892   2.196   2.617   1.269
 3331SOL    HW210893   2.127   2.543   1.397
 3332SOL     OW10894   5.125   5.683   6.928
 3332SOL    HW110895   5.181   5.763   6.907
 3332SOL    HW210896   5.063   5.704   7.003
 3333SOL     OW10897   4.671   5.207   6.857
 3333SOL    HW110898   4.613   5.270   6.806
 3333SOL    HW210899   4.760   5.248   6.874
 3334SOL     OW10900   3.400   3.444   1.391
 3334SOL    HW110901   3.426   3.451   1.294
 3334SOL    HW210902   3.372   3.535   1.424
 3335SOL     OW10903   4.643   5.453   5.501
 3335SOL    HW110904   4.563   5.448   5.561
 3335SOL    HW210905   4.648   5.543   5.458
 3336SOL     OW10906   3.142   5.337   5.532
 3336SOL    HW110907   3.078   5.397   5.580
 3336SOL    HW210908   3.166   5.260   5.591
 3337SOL     OW10909   3.481   2.526   1.417
 3337SOL    HW110910   3.453   2.577   1.498
 3337SOL    HW210911   3.528   2.442   1.444
 3338SOL     OW10912   6.398   3.845   1.275
 3338SOL    HW110913   6.473   3.904   1.246
 3338SOL    HW210914   6.387   3.770   1.209
 3339SOL     OW10915   6.932   6.124   6.831
 3339SOL    HW110916   6.974   6.045   6.877
 3339SOL    HW210917   6.987   6.206   6.849
 3340SOL     OW10918   3.957   6.791   2.058
 3340SOL    HW110919   4.036   6.773   2.117
 3340SOL    HW210920   3.939   6.711   2.001
 3341SOL     OW10921   0.614   0.316   3.323
 3341SOL    HW110922   0.516   0.315   3.305
 3341SOL    HW210923   0.636   0.387   3.389
 3342SOL     OW10924   1.922   0.225   3.540
 3342SOL    HW110925   1.925   0.323   3.561
 3342SOL    HW210926   1.974   0.175   3.608
 3343SOL     OW10927   4.927   3.142   0.491
 3343SOL    HW110928   4.941   3.105   0.399
 3343SOL    HW210929   4.932   3.242   0.488
 3344SOL     OW10930   5.601   4.115   5.106
 3344SOL    HW110931   5.633   4.045   5.170
 3344SOL    HW210932   5.564   4.193   5.156
 3345SOL     OW10933   2.860   3.367   6.113
 3345SOL    HW110934   2.933   3.412   6.061
 3345SOL    HW210935   2.862   3.269   6.097
 3346SOL     OW10936   0.851   0.862   2.260
 3346SOL    HW110937   0.850   0.771   2.218
 3346SOL    HW210938   0.930   0.913   2.225
 3347SOL     OW10939   6.846   4.575   2.930
 3347SOL    HW110940   6.864   4.669   2.960
 3347SOL    HW210941   6.747   4.559   2.930
 3348SOL     OW10942   3.411   2.979   3.673
 3348SOL    HW110943   3.357   2.927   3.607
 3348SOL    HW210944   3.447   3.062   3.630
 3349SOL     OW10945   0.359   4.803   4.055
 3349SOL    HW110946   0.277   4.808   4.113
 3349SOL    HW210947   0.423   4.737   4.094
 3350SOL     OW10948   1.723   1.405   0.157
 3350SOL    HW110949   1.728   1.344   0.079
 3350SOL    HW210950   1.799   1.387   0.220
 3351SOL     OW10951   5.742   0.334   1.487
 3351SOL    HW110952   5.645   0.343   1.511
 3351SOL    HW210953   5.793   0.412   1.524
 3352SOL     OW10954   0.506   4.038   0.299
 3352SOL    HW110955   0.421   4.078   0.264
 3352SOL    HW210956   0.485   3.958   0.355
 3353SOL     OW10957   1.587   7.024   1.396
 3353SOL    HW110958   1.659   0.019   1.461
 3353SOL    HW210959   1.607   6.934   1.357
 3354SOL     OW10960   6.690   2.774   3.625
 3354SOL    HW110961   6.694   2.775   3.725
 3354SOL    HW210962   6.670   2.682   3.593
 3355SOL     OW10963   0.633   1.973   0.278
 3355SOL    HW110964   0.592   2.047   0.331
 3355SOL    HW210965   0.600   1.885   0.312
 3356SOL     OW10966   2.912   2.833   0.296
 3356SOL    HW110967   2.975   2.880   0.235
 3356SOL    HW210968   2.907   2.881   0.383
 3357SOL     OW10969   2.256   4.878   1.402
 3357SOL    HW110970   2.157   4.877   1.383
 3357SOL    HW210971   2.274   4.826   1.485
 3358SOL     OW10972   4.854   6.401   2.058
 3358SOL    HW110973   4.937   6.437   2.016
 3358SOL    HW210974   4.873   6.370   2.151
 3359SOL     OW10975   0.083   0.339   3.195
 3359SOL    HW110976   0.016   0.342   3.270
 3359SOL    HW210977   0.040   0.303   3.113
 3360SOL     OW10978   0.317   0.870   0.461
 3360SOL    HW110979   0.405   0.876   0.508
 3360SOL    HW210980   0.260   0.948   0.486
 3361SOL     OW10981   6.272   5.597   3.077
 3361SOL    HW110982   6.284   5.628   3.172
 3361SOL    HW210983   6.346   5.633   3.020
 3362SOL     OW10984   2.771   1.263   4.885
 3362SOL    HW110985   2.843   1.328   4.863
 3362SOL    HW210986   2.706   1.257   4.809
 3363SOL     OW10987   0.460   0.899   6.407
 3363SOL    HW110988   0.528   0.831   6.432
 3363SOL    HW210989   0.371   0.873   6.446
 3364SOL     OW10990   0.893   5.642   5.687
 3364SOL    HW110991   0.860   5.554   5.722
 3364SOL    HW210992   0.855   5.716   5.743
 3365SOL     OW10993   0.728   2.138   4.363
 3365SOL    HW110994   0.628   2.142   4.369
 3365SOL    HW210995   0.767   2.156   4.453
 3366SOL     OW10996   5.458   1.034   4.610
 3366SOL    HW110997   5.381   1.093   4.589
 3366SOL    HW210998   5.481   0.979   4.530
 3367SOL     OW10999   1.795   2.763   1.635
 3367SOL    HW111000   1.769   2.728   1.725
 3367SOL    HW211001   1.895   2.756   1.625
 3368SOL     OW11002   6.786   5.382   6.280
 3368SOL    HW111003   6.714   5.393   6.212
 3368SOL    HW211004   6.746   5.385   6.372
 3369SOL     OW11005   3.411   1.611   0.331
 3369SOL    HW111006   3.489   1.642   0.386
 3369SOL    HW211007   3.327   1.650   0.369
 3370SOL     OW11008   6.279   6.865   4.965
 3370SOL    HW111009   6.362   6.851   4.911
 3370SOL    HW211010   6.226   6.780   4.967
 3371SOL     OW11011   1.601   4.267   2.481
 3371SOL    HW111012   1.652   4.208   2.418
 3371SOL    HW211013   1.529   4.214   2.525
 3372SOL     OW11014   0.399   1.423   2.150
 3372SOL    HW111015   0.445   1.351   2.099
 3372SOL    HW211016   0.357   1.384   2.232
 3373SOL     OW11017   6.165   1.396   4.322
 3373SOL    HW111018   6.115   1.374   4.405
 3373SOL    HW211019   6.248   1.448   4.345
 3374SOL     OW11020   3.665   6.027   4.949
 3374SOL    HW111021   3.692   6.121   4.971
 3374SOL    HW211022   3.745   5.968   4.954
 3375SOL     OW11023   4.355   4.757   4.797
 3375SOL    HW111024   4.444   4.798   4.777
 3375SOL    HW211025   4.367   4.681   4.861
 3376SOL     OW11026   4.088   3.330   2.846
 3376SOL    HW111027   4.113   3.328   2.942
 3376SOL    HW211028   4.023   3.257   2.826
 3377SOL     OW11029   1.411   6.407   4.588
 3377SOL    HW111030   1.481   6.477   4.595
 3377SOL    HW211031   1.433   6.332   4.652
 3378SOL     OW11032   6.454   0.917   0.748
 3378SOL    HW111033   6.369   0.872   0.777
 3378SOL    HW211034   6.499   0.958   0.827
 3379SOL     OW11035   0.456   4.167   5.870
 3379SOL    HW111036   0.443   4.255   5.826
 3379SOL    HW211037   0.538   4.169   5.926
 3380SOL     OW11038   0.015   5.528   5.664
 3380SOL    HW111039   6.991   5.459   5.615
 3380SOL    HW211040   0.094   5.555   5.609
 3381SOL     OW11041   2.486   1.889   0.546
 3381SOL    HW111042   2.457   1.804   0.589
 3381SOL    HW211043   2.542   1.942   0.610
 3382SOL     OW11044   0.345   1.791   0.265
 3382SOL    HW111045   0.432   1.748   0.242
 3382SOL    HW211046   0.269   1.736   0.231
 3383SOL     OW11047   6.062   5.103   2.619
 3383SOL    HW111048   6.036   5.064   2.531
 3383SOL    HW211049   5.980   5.122   2.672
 3384SOL     OW11050   2.927   3.244   5.091
 3384SOL    HW111051   2.841   3.256   5.140
 3384SOL    HW211052   2.971   3.159   5.121
 3385SOL     OW11053   0.002   4.084   3.786
 3385SOL    HW111054   0.002   4.009   3.719
 3385SOL    HW211055   0.085   4.078   3.842
 3386SOL     OW11056   5.907   3.911   5.436
 3386SOL    HW111057   5.896   3.864   5.524
 3386SOL    HW211058   5.905   4.010   5.450
 3387SOL     OW11059   2.473   1.726   3.070
 3387SOL    HW111060   2.535   1.720   2.992
 3387SOL    HW211061   2.389   1.675   3.051
 3388SOL     OW11062   5.530   3.248   1.039
 3388SOL    HW111063   5.528   3.344   1.066
 3388SOL    HW211064   5.557   3.192   1.118
 3389SOL     OW11065   4.520   4.529   4.476
 3389SOL    HW111066   4.584   4.547   4.401
 3389SOL    HW211067   4.446   4.471   4.444
 3390SOL     OW11068   5.009   3.586   5.605
 3390SOL    HW111069   5.002   3.596   5.704
 3390SOL    HW211070   4.920   3.605   5.563
 3391SOL     OW11071   4.059   1.866   4.720
 3391SOL    HW111072   4.018   1.901   4.636
 3391SOL    HW211073   4.148   1.908   4.734
 3392SOL     OW11074   2.303   0.892   4.103
 3392SOL    HW111075   2.394   0.905   4.064
 3392SOL    HW211076   2.249   0.833   4.043
 3393SOL     OW11077   6.541   6.634   0.279
 3393SOL    HW111078   6.472   6.570   0.312
 3393SOL    HW211079   6.500   6.724   0.268
 3394SOL     OW11080   5.646   3.093   1.262
 3394SOL    HW111081   5.623   3.002   1.226
 3394SOL    HW211082   5.618   3.099   1.358
 3395SOL     OW11083   6.454   3.268   3.984
 3395SOL    HW111084   6.407   3.277   3.896
 3395SOL    HW211085   6.497   3.178   3.991
 3396SOL     OW11086   0.504   3.133   3.672
 3396SOL    HW111087   0.430   3.091   3.725
 3396SOL    HW211088   0.587   3.137   3.728
 3397SOL     OW11089   3.493   1.287   5.159
 3397SOL    HW111090   3.428   1.217   5.130
 3397SOL    HW211091   3.552   1.249   5.230
 3398SOL     OW11092   0.833   0.192   4.259
 3398SOL    HW111093   0.783   0.165   4.176
 3398SOL    HW211094   0.931   0.184   4.242
 3399SOL     OW11095   4.564   4.420   4.082
 3399SOL    HW111096   4.528   4.394   3.993
 3399SOL    HW211097   4.636   4.356   4.110
 3400SOL     OW11098   3.915   1.834   5.868
 3400SOL    HW111099   3.920   1.805   5.773
 3400SOL    HW211100   3.926   1.754   5.928
 3401SOL     OW11101   6.982   4.066   0.683
 3401SOL    HW111102   6.988   4.062   0.583
 3401SOL    HW211103   7.017   3.981   0.722
 3402SOL     OW11104   5.169   5.640   1.144
 3402SOL    HW111105   5.095   5.619   1.081
 3402SOL    HW211106   5.235   5.564   1.145
 3403SOL     OW11107   3.806   0.459   5.331
 3403SOL    HW111108   3.773   0.548   5.301
 3403SOL    HW211109   3.867   0.470   5.409
 3404SOL     OW11110   4.117   1.601   0.935
 3404SOL    HW111111   4.076   1.558   1.016
 3404SOL    HW211112   4.079   1.558   0.853
 3405SOL     OW11113   6.471   3.554   5.175
 3405SOL    HW111114   6.528   3.628   5.212
 3405SOL    HW211115   6.461   3.566   5.077
 3406SOL     OW11116   2.204   4.047   1.953
 3406SOL    HW111117   2.153   4.010   2.031
 3406SOL    HW211118   2.285   3.991   1.935
 3407SOL     OW11119   1.692   5.125   1.417
 3407SOL    HW111120   1.634   5.063   1.364
 3407SOL    HW211121   1.635   5.180   1.478
 3408SOL     OW11122   4.685   4.180   4.197
 3408SOL    HW111123   4.645   4.165   4.287
 3408SOL    HW211124   4.740   4.100   4.173
 3409SOL     OW11125   4.117   6.901   5.723
 3409SOL    HW111126   4.026   6.861   5.719
 3409SOL    HW211127   4.185   6.828   5.729
 3410SOL     OW11128   5.974   6.085   6.779
 3410SOL    HW111129   6.007   6.165   6.827
 3410SOL    HW211130   5.875   6.079   6.787
 3411SOL     OW11131   6.223   2.882   2.424
 3411SOL    HW111132   6.228   2.848   2.330
 3411SOL    HW211133   6.244   2.980   2.425
 3412SOL     OW11134   4.216   2.958   6.993
 3412SOL    HW111135   4.131   2.977   6.946
 3412SOL    HW211136   4.263   3.043   7.014
 3413SOL     OW11137   4.142   1.536   2.785
 3413SOL    HW111138   4.135   1.496   2.693
 3413SOL    HW211139   4.090   1.621   2.789
 3414SOL     OW11140   3.142   1.329   5.055
 3414SOL    HW111141   3.091   1.337   4.969
 3414SOL    HW211142   3.217   1.396   5.054
 3415SOL     OW11143   1.365   4.055   4.482
 3415SOL    HW111144   1.363   4.111   4.399
 3415SOL    HW211145   1.448   3.999   4.483
 3416SOL     OW11146   0.024   4.769   6.179
 3416SOL    HW111147   7.028   4.854   6.226
 3416SOL    HW211148   0.123   4.757   6.182
 3417SOL     OW11149   6.182   5.915   2.696
 3417SOL    HW111150   6.210   5.820   2.709
 3417SOL    HW211151   6.101   5.934   2.751
 3418SOL     OW11152   4.439   1.211   4.235
 3418SOL    HW111153   4.435   1.300   4.190
 3418SOL    HW211154   4.533   1.192   4.263
 3419SOL     OW11155   3.676   5.485   5.951
 3419SOL    HW111156   3.703   5.407   6.008
 3419SOL    HW211157   3.704   5.467   5.856
 3420SOL     OW11158   5.038   2.148   3.897
 3420SOL    HW111159   5.138   2.149   3.908
 3420SOL    HW211160   5.001   2.236   3.927
 3421SOL     OW11161   6.077   0.790   5.581
 3421SOL    HW111162   6.032   0.878   5.590
 3421SOL    HW211163   6.146   0.795   5.509
 3422SOL     OW11164   3.554   6.921   0.981
 3422SOL    HW111165   3.487   6.886   1.046
 3422SOL    HW211166   3.594   7.006   1.016
 3423SOL     OW11167   2.050   0.509   0.685
 3423SOL    HW111168   2.140   0.507   0.642
 3423SOL    HW211169   1.980   0.528   0.617
 3424SOL     OW11170   3.718   0.920   2.231
 3424SOL    HW111171   3.624   0.917   2.265
 3424SOL    HW211172   3.739   0.834   2.184
 3425SOL     OW11173   5.243   4.339   2.289
 3425SOL    HW111174   5.190   4.261   2.321
 3425SOL    HW211175   5.214   4.422   2.338
 3426SOL     OW11176   3.488   3.416   0.640
 3426SOL    HW111177   3.398   3.448   0.668
 3426SOL    HW211178   3.486   3.318   0.622
 3427SOL     OW11179   6.333   6.044   0.011
 3427SOL    HW111180   6.305   6.121   0.067
 3427SOL    HW211181   6.354   6.077   6.947
 3428SOL     OW11182   4.059   4.864   1.651
 3428SOL    HW111183   4.153   4.888   1.676
 3428SOL    HW211184   3.995   4.910   1.713
 3429SOL     OW11185   0.761   1.743   6.924
 3429SOL    HW111186   0.664   1.757   6.905
 3429SOL    HW211187   0.771   1.676   6.998
 3430SOL     OW11188   1.049   6.572   6.165
 3430SOL    HW111189   1.106   6.566   6.247
 3430SOL    HW211190   1.100   6.618   6.092
 3431SOL     OW11191   2.709   6.617   0.813
 3431SOL    HW111192   2.705   6.527   0.856
 3431SOL    HW211193   2.798   6.628   0.768
 3432SOL     OW11194   2.763   2.494   5.249
 3432SOL    HW111195   2.680   2.499   5.192
 3432SOL    HW211196   2.757   2.563   5.321
 3433SOL     OW11197   2.434   0.559   6.658
 3433SOL    HW111198   2.343   0.525   6.681
 3433SOL    HW211199   2.473   0.607   6.736
 3434SOL     OW11200   3.660   2.755   0.762
 3434SOL    HW111201   3.684   2.845   0.726
 3434SOL    HW211202   3.579   2.721   0.714
 3435SOL     OW11203   0.171   1.896   1.685
 3435SOL    HW111204   0.182   1.798   1.668
 3435SOL    HW211205   0.261   1.941   1.681
 3436SOL     OW11206   4.421   6.982   5.344
 3436SOL    HW111207   4.443   6.909   5.280
 3436SOL    HW211208   4.367   0.023   5.298
 3437SOL     OW11209   4.509   1.058   6.217
 3437SOL    HW111210   4.418   1.097   6.225
 3437SOL    HW211211   4.547   1.041   6.308
 3438SOL     OW11212   1.652   2.579   6.245
 3438SOL    HW111213   1.648   2.508   6.175
 3438SOL    HW211214   1.568   2.578   6.299
 3439SOL     OW11215   2.896   0.264   5.317
 3439SOL    HW111216   2.971   0.307   5.265
 3439SOL    HW211217   2.886   0.309   5.405
 3440SOL     OW11218   5.063   3.254   1.459
 3440SOL    HW111219   5.067   3.164   1.416
 3440SOL    HW211220   5.137   3.311   1.424
 3441SOL     OW11221   4.925   0.479   3.185
 3441SOL    HW111222   4.930   0.563   3.130
 3441SOL    HW211223   4.835   0.473   3.228
 3442SOL     OW11224   2.625   4.632   3.256
 3442SOL    HW111225   2.649   4.640   3.159
 3442SOL    HW211226   2.670   4.705   3.308
 3443SOL     OW11227   5.229   0.864   2.889
 3443SOL    HW111228   5.159   0.935   2.899
 3443SOL    HW211229   5.192   0.787   2.836
 3444SOL     OW11230   5.185   5.485   6.609
 3444SOL    HW111231   5.100   5.438   6.630
 3444SOL    HW211232   5.249   5.475   6.686
 3445SOL     OW11233   6.388   4.304   4.043
 3445SOL    HW111234   6.349   4.323   3.953
 3445SOL    HW211235   6.431   4.214   4.044
 3446SOL     OW11236   5.574   0.712   3.104
 3446SOL    HW111237   5.654   0.722   3.164
 3446SOL    HW211238   5.513   0.790   3.116
 3447SOL     OW11239   5.057   4.959   0.135
 3447SOL    HW111240   5.104   5.013   0.205
 3447SOL    HW211241   5.122   4.901   0.088
 3448SOL     OW11242   3.847   6.889   0.927
 3448SOL    HW111243   3.750   6.914   0.938
 3448SOL    HW211244   3.867   6.807   0.979
 3449SOL     OW11245   5.673   6.552   3.088
 3449SOL    HW111246   5.594   6.532   3.031
 3449SOL    HW211247   5.711   6.641   3.063
 3450SOL     OW11248   0.846   2.823   0.724
 3450SOL    HW111249   0.786   2.814   0.804
 3450SOL    HW211250   0.889   2.913   0.726
 3451SOL     OW11251   0.443   5.690   2.807
 3451SOL    HW111252   0.458   5.667   2.711
 3451SOL    HW211253   0.495   5.773   2.830
 3452SOL     OW11254   6.126   1.386   0.055
 3452SOL    HW111255   6.195   1.374   0.125
 3452SOL    HW211256   6.077   1.472   0.070
 3453SOL     OW11257   5.822   5.980   5.716
 3453SOL    HW111258   5.747   6.039   5.746
 3453SOL    HW211259   5.786   5.891   5.689
 3454SOL     OW11260   1.884   0.831   6.012
 3454SOL    HW111261   1.901   0.905   6.077
 3454SOL    HW211262   1.913   0.744   6.053
 3455SOL     OW11263   1.323   3.067   4.255
 3455SOL    HW111264   1.377   3.008   4.316
 3455SOL    HW211265   1.325   3.029   4.162
 3456SOL     OW11266   5.793   6.124   2.476
 3456SOL    HW111267   5.876   6.152   2.524
 3456SOL    HW211268   5.792   6.164   2.384
 3457SOL     OW11269   2.421   5.080   4.347
 3457SOL    HW111270   2.483   5.054   4.273
 3457SOL    HW211271   2.333   5.108   4.308
 3458SOL     OW11272   5.724   6.502   6.656
 3458SOL    HW111273   5.721   6.463   6.564
 3458SOL    HW211274   5.784   6.446   6.714
 3459SOL     OW11275   0.373   4.107   3.064
 3459SOL    HW111276   0.368   4.063   2.975
 3459SOL    HW211277   0.368   4.038   3.136
 3460SOL     OW11278   3.324   3.199   0.758
 3460SOL    HW111279   3.366   3.250   0.832
 3460SOL    HW211280   3.233   3.168   0.786
 3461SOL     OW11281   4.605   5.557   4.282
 3461SOL    HW111282   4.641   5.626   4.220
 3461SOL    HW211283   4.678   5.492   4.306
 3462SOL     OW11284   6.174   3.755   1.738
 3462SOL    HW111285   6.091   3.710   1.769
 3462SOL    HW211286   6.207   3.711   1.654
 3463SOL     OW11287   0.544   3.467   2.592
 3463SOL    HW111288   0.567   3.549   2.642
 3463SOL    HW211289   0.590   3.388   2.633
 3464SOL     OW11290   5.680   2.319   6.858
 3464SOL    HW111291   5.752   2.283   6.917
 3464SOL    HW211292   5.713   2.402   6.813
 3465SOL     OW11293   1.516   3.373   2.102
 3465SOL    HW111294   1.597   3.377   2.043
 3465SOL    HW211295   1.535   3.317   2.182
 3466SOL     OW11296   5.282   5.073   5.641
 3466SOL    HW111297   5.296   5.023   5.556
 3466SOL    HW211298   5.217   5.148   5.626
 3467SOL     OW11299   2.385   1.577   1.138
 3467SOL    HW111300   2.443   1.610   1.212
 3467SOL    HW211301   2.294   1.554   1.173
 3468SOL     OW11302   5.992   1.779   2.861
 3468SOL    HW111303   6.040   1.785   2.948
 3468SOL    HW211304   5.912   1.840   2.862
 3469SOL     OW11305   5.262   1.237   5.866
 3469SOL    HW111306   5.227   1.147   5.890
 3469SOL    HW211307   5.281   1.288   5.950
 3470SOL     OW11308   0.239   2.875   2.007
 3470SOL    HW111309   0.316   2.905   1.951
 3470SOL    HW211310   0.219   2.944   2.076
 3471SOL     OW11311   4.558   4.344   3.825
 3471SOL    HW111312   4.533   4.389   3.740
 3471SOL    HW211313   4.611   4.261   3.805
 3472SOL     OW11314   3.743   0.996   1.503
 3472SOL    HW111315   3.655   0.949   1.512
 3472SOL    HW211316   3.817   0.935   1.530
 3473SOL     OW11317   6.014   3.389   3.184
 3473SOL    HW111318   6.063   3.302   3.195
 3473SOL    HW211319   5.982   3.397   3.089
 3474SOL     OW11320   1.038   3.914   3.763
 3474SOL    HW111321   0.977   3.992   3.757
 3474SOL    HW211322   0.995   3.834   3.720
 3475SOL     OW11323   1.108   4.492   4.710
 3475SOL    HW111324   1.014   4.525   4.711
 3475SOL    HW211325   1.119   4.419   4.777
 3476SOL     OW11326   1.271   1.998   3.079
 3476SOL    HW111327   1.303   1.911   3.116
 3476SOL    HW211328   1.334   2.071   3.108
 3477SOL     OW11329   0.737   4.129   0.631
 3477SOL    HW111330   0.662   4.065   0.612
 3477SOL    HW211331   0.811   4.082   0.678
 3478SOL     OW11332   2.835   6.415   6.760
 3478SOL    HW111333   2.844   6.513   6.777
 3478SOL    HW211334   2.745   6.396   6.720
 3479SOL     OW11335   0.721   0.956   3.140
 3479SOL    HW111336   0.701   1.053   3.130
 3479SOL    HW211337   0.736   0.915   3.050
 3480SOL     OW11338   1.039   6.088   5.623
 3480SOL    HW111339   1.050   6.155   5.550
 3480SOL    HW211340   1.092   6.006   5.601
 3481SOL     OW11341   5.051   0.369   0.291
 3481SOL    HW111342   5.141   0.329   0.310
 3481SOL    HW211343   4.996   0.303   0.240
 3482SOL     OW11344   6.023   1.269   2.354
 3482SOL    HW111345   6.105   1.314   2.390
 3482SOL    HW211346   5.948   1.335   2.350
 3483SOL     OW11347   5.728   1.863   2.880
 3483SOL    HW111348   5.658   1.875   2.810
 3483SOL    HW211349   5.719   1.936   2.948
 3484SOL     OW11350   1.416   3.074   6.854
 3484SOL    HW111351   1.516   3.076   6.846
 3484SOL    HW211352   1.380   2.993   6.807
 3485SOL     OW11353   1.344   2.058   4.690
 3485SOL    HW111354   1.336   2.081   4.787
 3485SOL    HW211355   1.432   2.014   4.673
 3486SOL     OW11356   1.926   0.391   3.863
 3486SOL    HW111357   1.919   0.292   3.871
 3486SOL    HW211358   1.989   0.425   3.933
 3487SOL     OW11359   6.463   2.523   7.006
 3487SOL    HW111360   6.517   2.468   0.040
 3487SOL    HW211361   6.442   2.611   0.021
 3488SOL     OW11362   5.350   0.662   4.858
 3488SOL    HW111363   5.383   0.686   4.950
 3488SOL    HW211364   5.427   0.665   4.794
 3489SOL     OW11365   3.711   0.368   1.698
 3489SOL    HW111366   3.800   0.412   1.702
 3489SOL    HW211367   3.700   0.323   1.609
 3490SOL     OW11368   3.272   4.763   1.397
 3490SOL    HW111369   3.325   4.702   1.454
 3490SOL    HW211370   3.183   4.722   1.377
 3491SOL     OW11371   3.774   3.177   5.864
 3491SOL    HW111372   3.746   3.083   5.886
 3491SOL    HW211373   3.863   3.175   5.819
 3492SOL     OW11374   5.837   4.182   0.740
 3492SOL    HW111375   5.859   4.279   0.728
 3492SOL    HW211376   5.811   4.165   0.835
 3493SOL     OW11377   5.920   3.733   3.969
 3493SOL    HW111378   6.019   3.727   3.957
 3493SOL    HW211379   5.898   3.729   4.066
 3494SOL     OW11380   2.653   0.689   1.886
 3494SOL    HW111381   2.623   0.782   1.865
 3494SOL    HW211382   2.688   0.646   1.803
 3495SOL     OW11383   0.483   3.902   2.350
 3495SOL    HW111384   0.461   3.951   2.265
 3495SOL    HW211385   0.398   3.878   2.398
 3496SOL     OW11386   5.998   5.453   1.311
 3496SOL    HW111387   5.989   5.376   1.373
 3496SOL    HW211388   6.009   5.419   1.217
 3497SOL     OW11389   2.611   1.732   4.252
 3497SOL    HW111390   2.534   1.774   4.298
 3497SOL    HW211391   2.582   1.647   4.208
 3498SOL     OW11392   3.194   1.186   2.580
 3498SOL    HW111393   3.122   1.212   2.516
 3498SOL    HW211394   3.172   1.224   2.671
 3499SOL     OW11395   6.579   4.973   3.947
 3499SOL    HW111396   6.636   4.895   3.921
 3499SOL    HW211397   6.606   5.006   4.037
 3500SOL     OW11398   1.992   2.865   3.025
 3500SOL    HW111399   1.971   2.803   2.949
 3500SOL    HW211400   1.967   2.821   3.111
 3501SOL     OW11401   3.489   6.882   6.866
 3501SOL    HW111402   3.576   6.855   6.908
 3501SOL    HW211403   3.439   6.942   6.927
 3502SOL     OW11404   6.906   2.913   1.657
 3502SOL    HW111405   6.946   2.966   1.582
 3502SOL    HW211406   6.892   2.972   1.736
 3503SOL     OW11407   0.062   6.461   5.658
 3503SOL    HW111408   0.144   6.463   5.602
 3503SOL    HW211409   7.025   6.396   5.619
 3504SOL     OW11410   2.041   0.715   2.103
 3504SOL    HW111411   1.954   0.700   2.056
 3504SOL    HW211412   2.074   0.628   2.140
 3505SOL     OW11413   5.251   5.160   5.043
 3505SOL    HW111414   5.184   5.152   4.969
 3505SOL    HW211415   5.310   5.239   5.026
 3506SOL     OW11416   5.369   4.504   5.087
 3506SOL    HW111417   5.457   4.529   5.048
 3506SOL    HW211418   5.295   4.541   5.030
 3507SOL     OW11419   2.653   0.365   0.563
 3507SOL    HW111420   2.623   0.397   0.474
 3507SOL    HW211421   2.744   0.323   0.556
 3508SOL     OW11422   2.633   1.920   6.605
 3508SOL    HW111423   2.673   1.867   6.530
 3508SOL    HW211424   2.536   1.936   6.587
 3509SOL     OW11425   5.640   0.163   6.637
 3509SOL    HW111426   5.675   0.115   6.718
 3509SOL    HW211427   5.678   0.255   6.633
 3510SOL     OW11428   1.574   0.358   1.889
 3510SOL    HW111429   1.477   0.379   1.901
 3510SOL    HW211430   1.585   0.271   1.841
 3511SOL     OW11431   2.048   4.302   1.963
 3511SOL    HW111432   2.077   4.208   1.944
 3511SOL    HW211433   2.126   4.363   1.952
 3512SOL     OW11434   0.461   4.490   1.095
 3512SOL    HW111435   0.546   4.456   1.134
 3512SOL    HW211436   0.457   4.466   0.998
 3513SOL     OW11437   5.917   2.128   0.669
 3513SOL    HW111438   5.860   2.046   0.673
 3513SOL    HW211439   6.002   2.112   0.719
 3514SOL     OW11440   6.604   1.035   1.297
 3514SOL    HW111441   6.681   1.078   1.343
 3514SOL    HW211442   6.593   0.941   1.331
 3515SOL     OW11443   5.385   6.129   3.124
 3515SOL    HW111444   5.382   6.205   3.188
 3515SOL    HW211445   5.474   6.082   3.132
 3516SOL     OW11446   4.376   6.269   0.954
 3516SOL    HW111447   4.428   6.208   0.894
 3516SOL    HW211448   4.402   6.364   0.935
 3517SOL     OW11449   0.086   1.543   0.864
 3517SOL    HW111450   0.182   1.517   0.866
 3517SOL    HW211451   0.037   1.484   0.800
 3518SOL     OW11452   5.074   2.790   4.966
 3518SOL    HW111453   5.041   2.832   5.050
 3518SOL    HW211454   5.100   2.695   4.985
 3519SOL     OW11455   1.665   0.340   5.688
 3519SOL    HW111456   1.593   0.364   5.753
 3519SOL    HW211457   1.752   0.335   5.736
 3520SOL     OW11458   3.579   6.320   0.579
 3520SOL    HW111459   3.664   6.316   0.526
 3520SOL    HW211460   3.525   6.398   0.549
 3521SOL     OW11461   4.431   2.536   0.521
 3521SOL    HW111462   4.474   2.554   0.609
 3521SOL    HW211463   4.417   2.622   0.472
 3522SOL     OW11464   6.885   5.681   6.556
 3522SOL    HW111465   6.884   5.677   6.456
 3522SOL    HW211466   6.862   5.774   6.586
 3523SOL     OW11467   1.694   4.414   5.133
 3523SOL    HW111468   1.670   4.478   5.206
 3523SOL    HW211469   1.647   4.442   5.049
 3524SOL     OW11470   5.028   2.013   1.886
 3524SOL    HW111471   4.947   2.058   1.925
 3524SOL    HW211472   5.064   1.948   1.953
 3525SOL     OW11473   6.705   3.371   4.050
 3525SOL    HW111474   6.702   3.460   4.096
 3525SOL    HW211475   6.612   3.339   4.034
 3526SOL     OW11476   2.117   6.633   3.716
 3526SOL    HW111477   2.155   6.554   3.763
 3526SOL    HW211478   2.168   6.652   3.633
 3527SOL     OW11479   5.908   3.831   6.294
 3527SOL    HW111480   5.938   3.737   6.278
 3527SOL    HW211481   5.843   3.858   6.224
 3528SOL     OW11482   2.103   6.551   5.079
 3528SOL    HW111483   2.139   6.618   5.013
 3528SOL    HW211484   2.008   6.572   5.099
 3529SOL     OW11485   3.932   6.392   0.751
 3529SOL    HW111486   3.927   6.490   0.730
 3529SOL    HW211487   3.886   6.340   0.680
 3530SOL     OW11488   6.725   5.574   1.340
 3530SOL    HW111489   6.789   5.539   1.271
 3530SOL    HW211490   6.701   5.668   1.318
 3531SOL     OW11491   5.297   2.190   0.361
 3531SOL    HW111492   5.367   2.141   0.308
 3531SOL    HW211493   5.206   2.165   0.327
 3532SOL     OW11494   2.778   0.567   1.614
 3532SOL    HW111495   2.785   0.472   1.584
 3532SOL    HW211496   2.852   0.621   1.572
 3533SOL     OW11497   6.948   0.929   2.581
 3533SOL    HW111498   7.016   0.866   2.543
 3533SOL    HW211499   6.984   1.023   2.577
 3534SOL     OW11500   0.477   2.270   0.786
 3534SOL    HW111501   0.543   2.346   0.791
 3534SOL    HW211502   0.489   2.221   0.700
 3535SOL     OW11503   2.031   5.199   6.015
 3535SOL    HW111504   2.010   5.106   6.043
 3535SOL    HW211505   2.048   5.255   6.096
 3536SOL     OW11506   3.286   1.839   2.851
 3536SOL    HW111507   3.271   1.905   2.777
 3536SOL    HW211508   3.317   1.752   2.812
 3537SOL     OW11509   2.366   5.346   2.734
 3537SOL    HW111510   2.361   5.415   2.662
 3537SOL    HW211511   2.371   5.391   2.823
 3538SOL     OW11512   2.776   6.263   5.391
 3538SOL    HW111513   2.874   6.282   5.390
 3538SOL    HW211514   2.759   6.171   5.357
 3539SOL     OW11515   3.695   3.609   4.852
 3539SOL    HW111516   3.692   3.512   4.878
 3539SOL    HW211517   3.782   3.628   4.806
 3540SOL     OW11518   2.269   2.814   4.624
 3540SOL    HW111519   2.238   2.822   4.529
 3540SOL    HW211520   2.253   2.901   4.671
 3541SOL     OW11521   2.735   2.533   6.119
 3541SOL    HW111522   2.703   2.584   6.039
 3541SOL    HW211523   2.820   2.486   6.098
 3542SOL     OW11524   1.115   5.578   3.193
 3542SOL    HW111525   1.049   5.533   3.254
 3542SOL    HW211526   1.208   5.558   3.223
 3543SOL     OW11527   0.219   2.499   5.109
 3543SOL    HW111528   0.314   2.528   5.100
 3543SOL    HW211529   0.212   2.401   5.086
 3544SOL     OW11530   1.368   3.865   6.135
 3544SOL    HW111531   1.373   3.863   6.035
 3544SOL    HW211532   1.430   3.936   6.170
 3545SOL     OW11533   3.595   6.107   6.793
 3545SOL    HW111534   3.517   6.070   6.742
 3545SOL    HW211535   3.650   6.032   6.829
 3546SOL     OW11536   1.041   4.973   3.897
 3546SOL    HW111537   1.023   4.922   3.981
 3546SOL    HW211538   0.997   4.927   3.820
 3547SOL     OW11539   5.369   4.334   3.747
 3547SOL    HW111540   5.336   4.391   3.823
 3547SOL    HW211541   5.469   4.329   3.749
 3548SOL     OW11542   5.767   1.391   6.261
 3548SOL    HW111543   5.723   1.313   6.217
 3548SOL    HW211544   5.842   1.423   6.204
 3549SOL     OW11545   6.810   4.495   4.979
 3549SOL    HW111546   6.835   4.580   5.026
 3549SOL    HW211547   6.893   4.447   4.950
 3550SOL     OW11548   5.531   1.929   2.703
 3550SOL    HW111549   5.529   2.014   2.755
 3550SOL    HW211550   5.437   1.896   2.690
 3551SOL     OW11551   3.904   6.346   2.454
 3551SOL    HW111552   3.936   6.275   2.517
 3551SOL    HW211553   3.874   6.304   2.369
 3552SOL     OW11554   4.970   6.191   1.816
 3552SOL    HW111555   5.054   6.229   1.777
 3552SOL    HW211556   4.989   6.156   1.908
 3553SOL     OW11557   5.918   3.118   1.393
 3553SOL    HW111558   5.854   3.042   1.388
 3553SOL    HW211559   5.925   3.150   1.487
 3554SOL     OW11560   3.950   2.768   1.114
 3554SOL    HW111561   3.991   2.737   1.199
 3554SOL    HW211562   3.875   2.707   1.089
 3555SOL     OW11563   1.025   3.423   3.007
 3555SOL    HW111564   0.983   3.395   3.093
 3555SOL    HW211565   1.084   3.502   3.023
 3556SOL     OW11566   4.131   0.663   4.669
 3556SOL    HW111567   4.201   0.694   4.733
 3556SOL    HW211568   4.150   0.700   4.578
 3557SOL     OW11569   0.329   0.350   3.295
 3557SOL    HW111570   0.241   0.329   3.253
 3557SOL    HW211571   0.339   0.449   3.302
 3558SOL     OW11572   0.845   5.742   0.842
 3558SOL    HW111573   0.836   5.708   0.936
 3558SOL    HW211574   0.941   5.737   0.814
 3559SOL     OW11575   0.407   6.855   4.802
 3559SOL    HW111576   0.469   6.811   4.868
 3559SOL    HW211577   0.388   6.948   4.831
 3560SOL     OW11578   1.265   5.382   0.907
 3560SOL    HW111579   1.338   5.349   0.847
 3560SOL    HW211580   1.237   5.474   0.878
 3561SOL     OW11581   3.951   4.932   5.296
 3561SOL    HW111582   3.987   4.936   5.203
 3561SOL    HW211583   3.852   4.918   5.293
 3562SOL     OW11584   4.987   0.727   4.325
 3562SOL    HW111585   5.079   0.758   4.300
 3562SOL    HW211586   4.988   0.692   4.418
 3563SOL     OW11587   5.299   0.271   1.363
 3563SOL    HW111588   5.363   0.301   1.434
 3563SOL    HW211589   5.280   0.346   1.301
 3564SOL     OW11590   1.525   5.165   4.474
 3564SOL    HW111591   1.523   5.265   4.467
 3564SOL    HW211592   1.442   5.127   4.433
 3565SOL     OW11593   4.074   6.670   4.716
 3565SOL    HW111594   4.050   6.597   4.653
 3565SOL    HW211595   4.147   6.639   4.777
 3566SOL     OW11596   6.791   3.602   6.473
 3566SOL    HW111597   6.741   3.600   6.386
 3566SOL    HW211598   6.886   3.628   6.456
 3567SOL     OW11599   0.974   2.694   0.054
 3567SOL    HW111600   1.052   2.756   0.044
 3567SOL    HW211601   0.962   2.641   6.999
 3568SOL     OW11602   5.080   5.153   3.439
 3568SOL    HW111603   5.115   5.166   3.532
 3568SOL    HW211604   5.100   5.234   3.384
 3569SOL     OW11605   2.648   2.574   5.865
 3569SOL    HW111606   2.567   2.515   5.857
 3569SOL    HW211607   2.683   2.595   5.774
 3570SOL     OW11608   5.383   0.297   4.754
 3570SOL    HW111609   5.395   0.235   4.676
 3570SOL    HW211610   5.435   0.381   4.739
 3571SOL     OW11611   2.320   0.970   5.132
 3571SOL    HW111612   2.278   1.053   5.169
 3571SOL    HW211613   2.395   0.996   5.071
 3572SOL     OW11614   5.620   3.675   2.829
 3572SOL    HW111615   5.560   3.596   2.846
 3572SOL    HW211616   5.638   3.682   2.731
 3573SOL     OW11617   6.596   4.423   2.429
 3573SOL    HW111618   6.616   4.354   2.358
 3573SOL    HW211619   6.502   4.454   2.419
 3574SOL     OW11620   1.483   3.800   0.167
 3574SOL    HW111621   1.576   3.831   0.147
 3574SOL    HW211622   1.486   3.704   0.196
 3575SOL     OW11623   5.213   5.749   1.878
 3575SOL    HW111624   5.131   5.747   1.934
 3575SOL    HW211625   5.199   5.693   1.796
 3576SOL     OW11626   0.324   2.277   7.028
 3576SOL    HW111627   0.346   2.181   0.018
 3576SOL    HW211628   0.255   2.309   0.064
 3577SOL     OW11629   2.507   2.849   6.111
 3577SOL    HW111630   2.463   2.861   6.021
 3577SOL    HW211631   2.586   2.911   6.118
 3578SOL     OW11632   4.339   2.729   1.143
 3578SOL    HW111633   4.307   2.776   1.060
 3578SOL    HW211634   4.385   2.795   1.202
 3579SOL     OW11635   0.128   2.900   2.957
 3579SOL    HW111636   0.102   2.810   2.922
 3579SOL    HW211637   0.047   2.958   2.962
 3580SOL     OW11638   6.555   3.543   0.939
 3580SOL    HW111639   6.591   3.477   0.873
 3580SOL    HW211640   6.614   3.623   0.942
 3581SOL     OW11641   0.414   6.424   2.751
 3581SOL    HW111642   0.349   6.481   2.801
 3581SOL    HW211643   0.507   6.450   2.774
 3582SOL     OW11644   2.427   4.810   5.668
 3582SOL    HW111645   2.371   4.727   5.661
 3582SOL    HW211646   2.523   4.785   5.659
 3583SOL     OW11647   1.183   4.411   0.248
 3583SOL    HW111648   1.208   4.314   0.246
 3583SOL    HW211649   1.265   4.466   0.267
 3584SOL     OW11650   5.435   4.802   5.320
 3584SOL    HW111651   5.342   4.764   5.318
 3584SOL    HW211652   5.494   4.743   5.376
 3585SOL     OW11653   3.236   1.790   4.642
 3585SOL    HW111654   3.307   1.789   4.571
 3585SOL    HW211655   3.279   1.800   4.732
 3586SOL     OW11656   6.954   2.516   5.174
 3586SOL    HW111657   0.021   2.493   5.155
 3586SOL    HW211658   6.945   2.615   5.183
 3587SOL     OW11659   3.115   5.300   6.348
 3587SOL    HW111660   3.095   5.335   6.257
 3587SOL    HW211661   3.201   5.339   6.381
 3588SOL     OW11662   6.677   3.918   4.243
 3588SOL    HW111663   6.698   3.825   4.212
 3588SOL    HW211664   6.716   3.984   4.178
 3589SOL     OW11665   6.028   6.543   6.426
 3589SOL    HW111666   6.073   6.558   6.514
 3589SOL    HW211667   6.078   6.474   6.375
 3590SOL     OW11668   0.345   3.630   0.661
 3590SOL    HW111669   0.346   3.686   0.744
 3590SOL    HW211670   0.273   3.663   0.600
 3591SOL     OW11671   5.515   2.964   0.960
 3591SOL    HW111672   5.494   3.052   1.002
 3591SOL    HW211673   5.520   2.975   0.860
 3592SOL     OW11674   0.396   0.057   2.586
 3592SOL    HW111675   0.469   0.102   2.637
 3592SOL    HW211676   0.417   0.059   2.489
 3593SOL     OW11677   0.670   4.695   5.928
 3593SOL    HW111678   0.763   4.706   5.894
 3593SOL    HW211679   0.673   4.663   6.022
 3594SOL     OW11680   4.753   0.102   4.613
 3594SOL    HW111681   4.673   0.079   4.668
 3594SOL    HW211682   4.760   0.202   4.605
 3595SOL     OW11683   6.207   6.013   0.438
 3595SOL    HW111684   6.275   6.081   0.464
 3595SOL    HW211685   6.236   5.923   0.469
 3596SOL     OW11686   4.366   2.359   3.556
 3596SOL    HW111687   4.460   2.331   3.573
 3596SOL    HW211688   4.362   2.416   3.474
 3597SOL     OW11689   1.911   2.838   5.842
 3597SOL    HW111690   1.828   2.832   5.896
 3597SOL    HW211691   1.965   2.754   5.853
 3598SOL     OW11692   1.954   6.220   5.516
 3598SOL    HW111693   2.007   6.304   5.504
 3598SOL    HW211694   1.994   6.148   5.458
 3599SOL     OW11695   4.884   1.811   6.381
 3599SOL    HW111696   4.828   1.761   6.314
 3599SOL    HW211697   4.960   1.855   6.334
 3600SOL     OW11698   1.574   3.442   1.564
 3600SOL    HW111699   1.603   3.535   1.586
 3600SOL    HW211700   1.630   3.376   1.614
 3601SOL     OW11701   5.585   1.942   5.675
 3601SOL    HW111702   5.658   1.979   5.732
 3601SOL    HW211703   5.498   1.952   5.722
 3602SOL     OW11704   1.962   3.053   0.239
 3602SOL    HW111705   1.863   3.066   0.229
 3602SOL    HW211706   1.991   2.976   0.182
 3603SOL     OW11707   3.358   0.834   6.070
 3603SOL    HW111708   3.447   0.876   6.059
 3603SOL    HW211709   3.352   0.752   6.014
 3604SOL     OW11710   5.957   0.973   3.633
 3604SOL    HW111711   5.994   1.065   3.640
 3604SOL    HW211712   6.032   0.908   3.618
 3605SOL     OW11713   0.735   5.235   3.807
 3605SOL    HW111714   0.718   5.334   3.809
 3605SOL    HW211715   0.658   5.188   3.765
 3606SOL     OW11716   1.563   6.379   2.051
 3606SOL    HW111717   1.487   6.386   1.986
 3606SOL    HW211718   1.628   6.311   2.018
 3607SOL     OW11719   5.089   2.550   2.556
 3607SOL    HW111720   5.087   2.616   2.631
 3607SOL    HW211721   5.042   2.588   2.477
 3608SOL     OW11722   5.165   1.366   3.918
 3608SOL    HW111723   5.180   1.328   4.009
 3608SOL    HW211724   5.160   1.292   3.851
 3609SOL     OW11725   2.229   6.690   4.500
 3609SOL    HW111726   2.157   6.656   4.560
 3609SOL    HW211727   2.192   6.703   4.408
 3610SOL     OW11728   1.847   0.166   5.413
 3610SOL    HW111729   1.908   0.240   5.382
 3610SOL    HW211730   1.752   0.190   5.392
 3611SOL     OW11731   4.418   4.630   4.173
 3611SOL    HW111732   4.457   4.541   4.150
 3611SOL    HW211733   4.344   4.651   4.110
 3612SOL     OW11734   6.744   1.507   6.936
 3612SOL    HW111735   6.674   1.576   6.914
 3612SOL    HW211736   6.802   1.493   6.856
 3613SOL     OW11737   4.267   5.180   2.362
 3613SOL    HW111738   4.181   5.130   2.358
 3613SOL    HW211739   4.325   5.155   2.285
 3614SOL     OW11740   3.139   3.169   6.912
 3614SOL    HW111741   3.056   3.180   6.966
 3614SOL    HW211742   3.142   3.240   6.842
 3615SOL     OW11743   6.104   3.037   6.304
 3615SOL    HW111744   6.058   2.988   6.230
 3615SOL    HW211745   6.135   3.126   6.270
 3616SOL     OW11746   1.748   1.256   6.643
 3616SOL    HW111747   1.779   1.166   6.612
 3616SOL    HW211748   1.716   1.309   6.565
 3617SOL     OW11749   4.689   0.230   5.905
 3617SOL    HW111750   4.676   0.309   5.846
 3617SOL    HW211751   4.656   0.250   5.997
 3618SOL     OW11752   2.246   3.442   5.173
 3618SOL    HW111753   2.177   3.377   5.205
 3618SOL    HW211754   2.242   3.525   5.227
 3619SOL     OW11755   5.419   2.972   0.668
 3619SOL    HW111756   5.411   3.065   0.705
 3619SOL    HW211757   5.330   2.927   0.673
 3620SOL     OW11758   6.179   5.952   4.607
 3620SOL    HW111759   6.194   5.884   4.535
 3620SOL    HW211760   6.143   5.906   4.688
 3621SOL     OW11761   3.130   3.013   3.969
 3621SOL    HW111762   3.159   3.057   4.054
 3621SOL    HW211763   3.176   2.926   3.959
 3622SOL     OW11764   0.850   0.316   1.302
 3622SOL    HW111765   0.921   0.355   1.244
 3622SOL    HW211766   0.772   0.379   1.307
 3623SOL     OW11767   0.573   5.810   4.996
 3623SOL    HW111768   0.487   5.780   5.038
 3623SOL    HW211769   0.629   5.730   4.975
 3624SOL     OW11770   1.464   6.851   1.841
 3624SOL    HW111771   1.368   6.874   1.853
 3624SOL    HW211772   1.473   6.777   1.774
 3625SOL     OW11773   0.309   3.205   6.755
 3625SOL    HW111774   0.215   3.176   6.741
 3625SOL    HW211775   0.312   3.302   6.778
 3626SOL     OW11776   0.250   3.802   4.760
 3626SOL    HW111777   0.297   3.721   4.795
 3626SOL    HW211778   0.312   3.854   4.700
 3627SOL     OW11779   5.381   2.948   1.603
 3627SOL    HW111780   5.357   2.872   1.664
 3627SOL    HW211781   5.336   3.032   1.634
 3628SOL     OW11782   1.509   1.549   2.058
 3628SOL    HW111783   1.516   1.648   2.044
 3628SOL    HW211784   1.578   1.503   2.002
 3629SOL     OW11785   1.175   0.534   4.142
 3629SOL    HW111786   1.211   0.576   4.226
 3629SOL    HW211787   1.242   0.468   4.107
 3630SOL     OW11788   6.864   2.702   2.945
 3630SOL    HW111789   6.900   2.629   3.004
 3630SOL    HW211790   6.767   2.715   2.965
 3631SOL     OW11791   1.844   6.680   3.965
 3631SOL    HW111792   1.866   6.647   3.873
 3631SOL    HW211793   1.874   6.775   3.974
 3632SOL     OW11794   4.640   4.159   1.415
 3632SOL    HW111795   4.609   4.074   1.457
 3632SOL    HW211796   4.738   4.155   1.398
 3633SOL     OW11797   3.563   2.459   5.347
 3633SOL    HW111798   3.649   2.414   5.327
 3633SOL    HW211799   3.575   2.558   5.345
 3634SOL     OW11800   1.995   6.369   6.315
 3634SOL    HW111801   2.087   6.398   6.288
 3634SOL    HW211802   1.933   6.447   6.310
 3635SOL     OW11803   2.391   1.387   1.552
 3635SOL    HW111804   2.383   1.287   1.543
 3635SOL    HW211805   2.314   1.430   1.504
 3636SOL     OW11806   0.156   5.486   0.910
 3636SOL    HW111807   0.147   5.472   1.009
 3636SOL    HW211808   0.083   5.547   0.878
 3637SOL     OW11809   1.053   2.420   0.210
 3637SOL    HW111810   1.095   2.488   0.270
 3637SOL    HW211811   1.067   2.447   0.115
 3638SOL     OW11812   6.875   3.928   2.666
 3638SOL    HW111813   6.907   3.850   2.612
 3638SOL    HW211814   6.842   3.895   2.755
 3639SOL     OW11815   3.487   4.148   5.453
 3639SOL    HW111816   3.577   4.124   5.416
 3639SOL    HW211817   3.431   4.188   5.380
 3640SOL     OW11818   5.589   2.377   0.601
 3640SOL    HW111819   5.541   2.382   0.514
 3640SOL    HW211820   5.576   2.286   0.641
 3641SOL     OW11821   5.051   4.389   1.031
 3641SOL    HW111822   5.107   4.367   1.111
 3641SOL    HW211823   4.970   4.331   1.030
 3642SOL     OW11824   5.299   2.179   6.502
 3642SOL    HW111825   5.358   2.173   6.583
 3642SOL    HW211826   5.355   2.199   6.422
 3643SOL     OW11827   4.168   6.856   6.337
 3643SOL    HW111828   4.205   6.845   6.245
 3643SOL    HW211829   4.104   6.933   6.338
 3644SOL     OW11830   3.569   1.246   1.586
 3644SOL    HW111831   3.514   1.285   1.512
 3644SOL    HW211832   3.648   1.198   1.548
 3645SOL     OW11833   1.646   3.689   3.997
 3645SOL    HW111834   1.662   3.754   3.923
 3645SOL    HW211835   1.597   3.734   4.072
 3646SOL     OW11836   2.394   4.995   5.014
 3646SOL    HW111837   2.435   4.904   5.025
 3646SOL    HW211838   2.466   5.065   5.023
 3647SOL     OW11839   2.846   0.213   6.790
 3647SOL    HW111840   2.901   0.235   6.871
 3647SOL    HW211841   2.797   0.295   6.759
 3648SOL     OW11842   5.196   6.060   3.307
 3648SOL    HW111843   5.281   6.066   3.256
 3648SOL    HW211844   5.178   5.965   3.331
 3649SOL     OW11845   5.405   3.795   6.766
 3649SOL    HW111846   5.467   3.787   6.688
 3649SOL    HW211847   5.360   3.884   6.764
 3650SOL     OW11848   5.271   3.985   1.010
 3650SOL    HW111849   5.264   4.075   1.052
 3650SOL    HW211850   5.360   3.974   0.968
 3651SOL     OW11851   2.255   1.457   5.728
 3651SOL    HW111852   2.174   1.516   5.732
 3651SOL    HW211853   2.227   1.364   5.704
 3652SOL     OW11854   5.559   0.823   2.540
 3652SOL    HW111855   5.564   0.747   2.605
 3652SOL    HW211856   5.483   0.883   2.565
 3653SOL     OW11857   0.845   0.802   2.616
 3653SOL    HW111858   0.865   0.704   2.622
 3653SOL    HW211859   0.906   0.845   2.550
 3654SOL     OW11860   4.652   6.010   0.929
 3654SOL    HW111861   4.726   5.944   0.920
 3654SOL    HW211862   4.664   6.062   1.014
 3655SOL     OW11863   2.805   1.017   4.053
 3655SOL    HW111864   2.777   1.066   3.971
 3655SOL    HW211865   2.776   1.069   4.134
 3656SOL     OW11866   0.736   5.624   1.585
 3656SOL    HW111867   0.693   5.537   1.607
 3656SOL    HW211868   0.812   5.608   1.521
 3657SOL     OW11869   4.413   5.769   5.591
 3657SOL    HW111870   4.389   5.857   5.550
 3657SOL    HW211871   4.511   5.767   5.611
 3658SOL     OW11872   1.272   5.175   6.260
 3658SOL    HW111873   1.308   5.082   6.258
 3658SOL    HW211874   1.285   5.218   6.171
 3659SOL     OW11875   0.441   1.282   6.575
 3659SOL    HW111876   0.446   1.261   6.477
 3659SOL    HW211877   0.350   1.259   6.610
 3660SOL     OW11878   5.759   6.416   5.835
 3660SOL    HW111879   5.737   6.398   5.931
 3660SOL    HW211880   5.858   6.424   5.825
 3661SOL     OW11881   6.981   0.628   4.346
 3661SOL    HW111882   6.946   0.562   4.280
 3661SOL    HW211883   6.905   0.677   4.388
 3662SOL     OW11884   3.946   1.159   5.432
 3662SOL    HW111885   4.029   1.142   5.486
 3662SOL    HW211886   3.938   1.087   5.362
 3663SOL     OW11887   2.164   2.424   6.629
 3663SOL    HW111888   2.234   2.494   6.622
 3663SOL    HW211889   2.205   2.338   6.658
 3664SOL     OW11890   4.542   1.651   2.273
 3664SOL    HW111891   4.476   1.649   2.348
 3664SOL    HW211892   4.505   1.705   2.198
 3665SOL     OW11893   0.726   6.137   5.269
 3665SOL    HW111894   0.805   6.085   5.236
 3665SOL    HW211895   0.713   6.218   5.213
 3666SOL     OW11896   1.447   2.404   3.423
 3666SOL    HW111897   1.370   2.426   3.483
 3666SOL    HW211898   1.432   2.446   3.333
 3667SOL     OW11899   1.191   1.565   3.095
 3667SOL    HW111900   1.198   1.465   3.100
 3667SOL    HW211901   1.192   1.594   3.000
 3668SOL     OW11902   1.193   6.968   1.774
 3668SOL    HW111903   1.182   6.986   1.676
 3668SOL    HW211904   1.157   0.017   1.826
 3669SOL     OW11905   6.239   1.789   4.416
 3669SOL    HW111906   6.147   1.749   4.417
 3669SOL    HW211907   6.241   1.869   4.476
 3670SOL     OW11908   3.464   5.039   1.417
 3670SOL    HW111909   3.460   5.047   1.516
 3670SOL    HW211910   3.401   4.967   1.387
 3671SOL     OW11911   6.351   1.202   3.192
 3671SOL    HW111912   6.344   1.108   3.225
 3671SOL    HW211913   6.261   1.235   3.164
 3672SOL     OW11914   5.855   1.461   2.481
 3672SOL    HW111915   5.801   1.392   2.529
 3672SOL    HW211916   5.797   1.541   2.463
 3673SOL     OW11917   4.666   5.962   0.354
 3673SOL    HW111918   4.635   6.009   0.272
 3673SOL    HW211919   4.704   6.028   0.419
 3674SOL     OW11920   1.357   6.191   5.878
 3674SOL    HW111921   1.415   6.246   5.939
 3674SOL    HW211922   1.324   6.111   5.928
 3675SOL     OW11923   0.299   2.027   3.531
 3675SOL    HW111924   0.349   1.999   3.450
 3675SOL    HW211925   0.213   1.975   3.537
 3676SOL     OW11926   4.869   3.200   3.361
 3676SOL    HW111927   4.837   3.106   3.374
 3676SOL    HW211928   4.846   3.232   3.269
 3677SOL     OW11929   2.192   1.162   4.806
 3677SOL    HW111930   2.149   1.082   4.765
 3677SOL    HW211931   2.291   1.155   4.796
 3678SOL     OW11932   1.351   0.440   3.946
 3678SOL    HW111933   1.372   0.471   3.853
 3678SOL    HW211934   1.395   0.500   4.012
 3679SOL     OW11935   6.065   0.389   2.876
 3679SOL    HW111936   6.107   0.472   2.913
 3679SOL    HW211937   6.060   0.396   2.776
 3680SOL     OW11938   4.659   1.822   3.053
 3680SOL    HW111939   4.682   1.735   3.096
 3680SOL    HW211940   4.562   1.843   3.070
 3681SOL     OW11941   1.024   0.692   5.703
 3681SOL    HW111942   1.030   0.631   5.623
 3681SOL    HW211943   1.036   0.787   5.673
 3682SOL     OW11944   5.594   2.193   1.209
 3682SOL    HW111945   5.553   2.257   1.144
 3682SOL    HW211946   5.526   2.124   1.234
 3683SOL     OW11947   0.204   0.797   4.179
 3683SOL    HW111948   0.146   0.764   4.105
 3683SOL    HW211949   0.147   0.820   4.258
 3684SOL     OW11950   1.743   6.973   6.169
 3684SOL    HW111951   1.768   0.026   6.221
 3684SOL    HW211952   1.826   6.927   6.137
 3685SOL     OW11953   2.751   5.622   5.268
 3685SOL    HW111954   2.679   5.686   5.293
 3685SOL    HW211955   2.814   5.610   5.345
 3686SOL     OW11956   0.119   3.608   3.709
 3686SOL    HW111957   0.201   3.660   3.682
 3686SOL    HW211958   0.080   3.564   3.629
 3687SOL     OW11959   5.166   6.502   3.190
 3687SOL    HW111960   5.164   6.403   3.174
 3687SOL    HW211961   5.181   6.520   3.287
 3688SOL     OW11962   5.924   3.562   0.227
 3688SOL    HW111963   5.906   3.540   0.131
 3688SOL    HW211964   5.923   3.477   0.281
 3689SOL     OW11965   2.032   1.586   5.271
 3689SOL    HW111966   2.096   1.518   5.236
 3689SOL    HW211967   1.945   1.542   5.292
 3690SOL     OW11968   5.292   5.562   0.570
 3690SOL    HW111969   5.269   5.647   0.522
 3690SOL    HW211970   5.355   5.509   0.513
 3691SOL     OW11971   2.795   1.912   5.989
 3691SOL    HW111972   2.860   1.868   5.927
 3691SOL    HW211973   2.815   2.010   5.993
 3692SOL     OW11974   6.684   3.968   6.069
 3692SOL    HW111975   6.755   4.025   6.110
 3692SOL    HW211976   6.619   3.940   6.140
 3693SOL     OW11977   0.615   1.697   2.826
 3693SOL    HW111978   0.639   1.748   2.908
 3693SOL    HW211979   0.596   1.760   2.751
 3694SOL     OW11980   0.973   0.639   1.716
 3694SOL    HW111981   0.944   0.546   1.739
 3694SOL    HW211982   0.892   0.695   1.695
 3695SOL     OW11983   6.861   2.413   2.313
 3695SOL    HW111984   6.911   2.467   2.381
 3695SOL    HW211985   6.806   2.474   2.256
 3696SOL     OW11986   4.825   0.986   4.983
 3696SOL    HW111987   4.899   0.968   5.048
 3696SOL    HW211988   4.836   1.077   4.944
 3697SOL     OW11989   6.573   5.813   3.307
 3697SOL    HW111990   6.480   5.776   3.317
 3697SOL    HW211991   6.623   5.798   3.392
 3698SOL     OW11992   1.977   0.786   3.740
 3698SOL    HW111993   1.954   0.719   3.669
 3698SOL    HW211994   1.893   0.810   3.790
 3699SOL     OW11995   2.225   2.111   3.901
 3699SOL    HW111996   2.247   2.208   3.895
 3699SOL    HW211997   2.252   2.064   3.817
 3700SOL     OW11998   1.734   5.396   5.138
 3700SOL    HW111999   1.710   5.470   5.075
 3700SOL    HW212000   1.696   5.416   5.229
 3701SOL     OW12001   0.925   6.302   1.937
 3701SOL    HW112002   0.903   6.259   2.025
 3701SOL    HW212003   0.904   6.238   1.863
 3702SOL     OW12004   5.859   6.513   4.150
 3702SOL    HW112005   5.842   6.415   4.151
 3702SOL    HW212006   5.908   6.540   4.233
 3703SOL     OW12007   1.268   1.322   6.404
 3703SOL    HW112008   1.309   1.413   6.397
 3703SOL    HW212009   1.290   1.269   6.322
 3704SOL     OW12010   5.622   2.809   1.186
 3704SOL    HW112011   5.676   2.725   1.192
 3704SOL    HW212012   5.583   2.817   1.095
 3705SOL     OW12013   4.904   4.762   3.676
 3705SOL    HW112014   4.891   4.861   3.681
 3705SOL    HW212015   4.994   4.743   3.638
 3706SOL     OW12016   0.474   4.051   0.673
 3706SOL    HW112017   0.412   4.044   0.751
 3706SOL    HW212018   0.420   4.060   0.589
 3707SOL     OW12019   3.463   5.030   3.937
 3707SOL    HW112020   3.551   5.022   3.984
 3707SOL    HW212021   3.391   4.994   3.996
 3708SOL     OW12022   4.295   6.547   1.513
 3708SOL    HW112023   4.267   6.464   1.561
 3708SOL    HW212024   4.325   6.523   1.421
 3709SOL     OW12025   1.532   0.194   1.231
 3709SOL    HW112026   1.594   0.196   1.152
 3709SOL    HW212027   1.547   0.109   1.282
 3710SOL     OW12028   0.912   4.746   5.159
 3710SOL    HW112029   0.929   4.720   5.254
 3710SOL    HW212030   0.974   4.697   5.099
 3711SOL     OW12031   1.699   6.241   4.911
 3711SOL    HW112032   1.617   6.221   4.964
 3711SOL    HW212033   1.720   6.163   4.852
 3712SOL     OW12034   2.438   5.389   6.932
 3712SOL    HW112035   2.511   5.331   6.895
 3712SOL    HW212036   2.438   5.476   6.883
 3713SOL     OW12037   6.692   6.865   4.655
 3713SOL    HW112038   6.720   6.906   4.742
 3713SOL    HW212039   6.680   6.767   4.666
 3714SOL     OW12040   0.791   4.810   6.800
 3714SOL    HW112041   0.857   4.876   6.765
 3714SOL    HW212042   0.700   4.851   6.804
 3715SOL     OW12043   0.516   5.882   3.528
 3715SOL    HW112044   0.582   5.809   3.510
 3715SOL    HW212045   0.562   5.957   3.576
 3716SOL     OW12046   6.320   5.810   3.942
 3716SOL    HW112047   6.302   5.902   3.978
 3716SOL    HW212048   6.334   5.747   4.019
 3717SOL     OW12049   4.754   1.301   0.306
 3717SOL    HW112050   4.745   1.390   0.262
 3717SOL    HW212051   4.846   1.265   0.291
 3718SOL     OW12052   0.364   0.050   6.778
 3718SOL    HW112053   0.390   0.032   6.873
 3718SOL    HW212054   0.378   0.147   6.757
 3719SOL     OW12055   4.145   3.243   6.131
 3719SOL    HW112056   4.189   3.166   6.084
 3719SOL    HW212057   4.165   3.237   6.229
 3720SOL     OW12058   5.785   3.549   1.239
 3720SOL    HW112059   5.828   3.619   1.295
 3720SOL    HW212060   5.758   3.472   1.296
 3721SOL     OW12061   6.394   5.646   6.847
 3721SOL    HW112062   6.309   5.633   6.898
 3721SOL    HW212063   6.455   5.569   6.862
 3722SOL     OW12064   4.642   0.234   1.612
 3722SOL    HW112065   4.627   0.139   1.585
 3722SOL    HW212066   4.690   0.236   1.700
 3723SOL     OW12067   4.419   5.108   0.342
 3723SOL    HW112068   4.407   5.186   0.403
 3723SOL    HW212069   4.444   5.141   0.250
 3724SOL     OW12070   1.991   5.472   5.355
 3724SOL    HW112071   1.969   5.533   5.279
 3724SOL    HW212072   1.967   5.378   5.330
 3725SOL     OW12073   0.215   6.093   6.841
 3725SOL    HW112074   0.261   6.167   6.790
 3725SOL    HW212075   0.284   6.035   6.884
 3726SOL     OW12076   5.463   4.767   4.752
 3726SOL    HW112077   5.532   4.729   4.814
 3726SOL    HW212078   5.497   4.852   4.712
 3727SOL     OW12079   0.038   3.658   4.664
 3727SOL    HW112080   6.988   3.711   4.694
 3727SOL    HW212081   0.120   3.714   4.671
 3728SOL     OW12082   3.107   3.017   0.224
 3728SOL    HW112083   3.188   2.969   0.256
 3728SOL    HW212084   3.114   3.114   0.249
 3729SOL     OW12085   0.758   0.316   4.997
 3729SOL    HW112086   0.715   0.407   5.002
 3729SOL    HW212087   0.708   0.259   4.932
 3730SOL     OW12088   4.652   6.781   5.892
 3730SOL    HW112089   4.709   6.863   5.896
 3730SOL    HW212090   4.617   6.769   5.799
 3731SOL     OW12091   0.720   1.319   0.108
 3731SOL    HW112092   0.648   1.258   0.143
 3731SOL    HW212093   0.787   1.266   0.057
 3732SOL     OW12094   1.522   2.041   0.867
 3732SOL    HW112095   1.470   2.056   0.783
 3732SOL    HW212096   1.517   2.123   0.924
 3733SOL     OW12097   1.786   2.877   3.328
 3733SOL    HW112098   1.725   2.869   3.406
 3733SOL    HW212099   1.864   2.816   3.341
 3734SOL     OW12100   4.445   0.461   1.197
 3734SOL    HW112101   4.464   0.500   1.107
 3734SOL    HW212102   4.441   0.534   1.265
 3735SOL     OW12103   4.321   6.819   2.244
 3735SOL    HW112104   4.337   6.721   2.260
 3735SOL    HW212105   4.308   6.865   2.332
 3736SOL     OW12106   6.490   0.466   0.497
 3736SOL    HW112107   6.539   0.437   0.414
 3736SOL    HW212108   6.532   0.549   0.533
 3737SOL     OW12109   6.006   2.810   3.546
 3737SOL    HW112110   5.915   2.847   3.566
 3737SOL    HW212111   6.059   2.880   3.497
 3738SOL     OW12112   6.585   5.824   0.936
 3738SOL    HW112113   6.668   5.855   0.983
 3738SOL    HW212114   6.505   5.870   0.975
 3739SOL     OW12115   2.866   4.778   1.729
 3739SOL    HW112116   2.963   4.788   1.707
 3739SOL    HW212117   2.852   4.694   1.782
 3740SOL     OW12118   5.972   5.958   0.037
 3740SOL    HW112119   6.033   5.946   6.987
 3740SOL    HW212120   5.883   5.918   0.017
 3741SOL     OW12121   5.114   2.755   0.031
 3741SOL    HW112122   5.091   2.681   6.997
 3741SOL    HW212123   5.036   2.817   0.040
 3742SOL     OW12124   4.885   5.791   0.036
 3742SOL    HW112125   4.811   5.731   0.063
 3742SOL    HW212126   4.947   5.805   0.113
 3743SOL     OW12127   4.832   4.374   1.738
 3743SOL    HW112128   4.776   4.292   1.732
 3743SOL    HW212129   4.879   4.388   1.651
 3744SOL     OW12130   1.128   6.383   1.749
 3744SOL    HW112131   1.119   6.483   1.751
 3744SOL    HW212132   1.069   6.343   1.818
 3745SOL     OW12133   4.938   3.668   2.502
 3745SOL    HW112134   4.941   3.753   2.450
 3745SOL    HW212135   4.865   3.610   2.467
 3746SOL     OW12136   6.820   0.332   3.764
 3746SOL    HW112137   6.750   0.323   3.694
 3746SOL    HW212138   6.907   0.357   3.722
 3747SOL     OW12139   4.328   6.828   6.089
 3747SOL    HW112140   4.354   6.909   6.037
 3747SOL    HW212141   4.411   6.781   6.120
 3748SOL     OW12142   5.841   0.876   2.469
 3748SOL    HW112143   5.816   0.954   2.413
 3748SOL    HW212144   5.761   0.843   2.518
 3749SOL     OW12145   1.234   5.516   2.746
 3749SOL    HW112146   1.267   5.601   2.705
 3749SOL    HW212147   1.295   5.490   2.821
 3750SOL     OW12148   5.667   4.845   0.834
 3750SOL    HW112149   5.728   4.785   0.885
 3750SOL    HW212150   5.642   4.802   0.748
 3751SOL     OW12151   1.276   3.030   0.914
 3751SOL    HW112152   1.272   3.121   0.873
 3751SOL    HW212153   1.274   2.960   0.842
 3752SOL     OW12154   0.467   0.487   6.904
 3752SOL    HW112155   0.385   0.513   6.956
 3752SOL    HW212156   0.459   0.391   6.876
 3753SOL     OW12157   0.703   6.369   5.137
 3753SOL    HW112158   0.741   6.349   5.047
 3753SOL    HW212159   0.621   6.425   5.127
 3754SOL     OW12160   5.470   6.272   1.402
 3754SOL    HW112161   5.493   6.177   1.380
 3754SOL    HW212162   5.453   6.279   1.500
 3755SOL     OW12163   5.756   5.508   4.162
 3755SOL    HW112164   5.773   5.592   4.109
 3755SOL    HW212165   5.769   5.428   4.103
 3756SOL     OW12166   2.187   0.425   6.298
 3756SOL    HW112167   2.107   0.470   6.339
 3756SOL    HW212168   2.179   0.429   6.198
 3757SOL     OW12169   3.626   5.752   6.051
 3757SOL    HW112170   3.638   5.666   6.002
 3757SOL    HW212171   3.653   5.828   5.992
 3758SOL     OW12172   2.057   1.666   4.394
 3758SOL    HW112173   2.004   1.671   4.310
 3758SOL    HW212174   2.015   1.725   4.464
 3759SOL     OW12175   4.527   5.327   5.290
 3759SOL    HW112176   4.443   5.380   5.274
 3759SOL    HW212177   4.575   5.363   5.370
 3760SOL     OW12178   1.182   3.636   3.044
 3760SOL    HW112179   1.200   3.639   3.143
 3760SOL    HW212180   1.239   3.704   2.998
 3761SOL     OW12181   0.675   0.015   4.955
 3761SOL    HW112182   0.711   6.951   4.958
 3761SOL    HW212183   0.681   0.050   4.861
 3762SOL     OW12184   0.902   4.366   6.644
 3762SOL    HW112185   0.997   4.365   6.615
 3762SOL    HW212186   0.894   4.412   6.733
 3763SOL     OW12187   6.623   4.554   6.942
 3763SOL    HW112188   6.573   4.600   6.869
 3763SOL    HW212189   6.610   4.455   6.934
 3764SOL     OW12190   2.045   0.908   4.773
 3764SOL    HW112191   2.105   0.864   4.840
 3764SOL    HW212192   1.983   0.840   4.734
 3765SOL     OW12193   4.630   0.949   2.844
 3765SOL    HW112194   4.561   1.019   2.822
 3765SOL    HW212195   4.608   0.907   2.932
 3766SOL     OW12196   0.889   0.562   3.764
 3766SOL    HW112197   0.901   0.621   3.844
 3766SOL    HW212198   0.875   0.467   3.794
 3767SOL     OW12199   1.913   4.695   0.538
 3767SOL    HW112200   1.911   4.776   0.595
 3767SOL    HW212201   1.860   4.622   0.582
 3768SOL     OW12202   3.715   6.606   6.415
 3768SOL    HW112203   3.815   6.607   6.418
 3768SOL    HW212204   3.683   6.514   6.439
 3769SOL     OW12205   5.160   6.013   5.404
 3769SOL    HW112206   5.108   6.087   5.446
 3769SOL    HW212207   5.255   6.018   5.435
 3770SOL     OW12208   2.408   0.980   6.215
 3770SOL    HW112209   2.381   0.974   6.312
 3770SOL    HW212210   2.460   1.064   6.200
 3771SOL     OW12211   5.421   1.902   0.581
 3771SOL    HW112212   5.335   1.933   0.540
 3771SOL    HW212213   5.476   1.857   0.511
 3772SOL     OW12214   6.220   1.411   0.551
 3772SOL    HW112215   6.131   1.441   0.518
 3772SOL    HW212216   6.269   1.365   0.477
 3773SOL     OW12217   5.713   3.338   5.965
 3773SOL    HW112218   5.655   3.256   5.961
 3773SOL    HW212219   5.798   3.321   5.917
 3774SOL     OW12220   1.243   6.744   6.873
 3774SOL    HW112221   1.331   6.696   6.873
 3774SOL    HW212222   1.213   6.758   6.779
 3775SOL     OW12223   5.562   3.594   2.293
 3775SOL    HW112224   5.518   3.513   2.332
 3775SOL    HW212225   5.656   3.570   2.265
 3776SOL     OW12226   2.664   1.134   2.190
 3776SOL    HW112227   2.629   1.090   2.273
 3776SOL    HW212228   2.694   1.064   2.125
 3777SOL     OW12229   3.000   4.836   4.557
 3777SOL    HW112230   2.922   4.804   4.611
 3777SOL    HW212231   3.085   4.802   4.597
 3778SOL     OW12232   2.213   5.603   3.106
 3778SOL    HW112233   2.268   5.617   3.189
 3778SOL    HW212234   2.158   5.685   3.089
 3779SOL     OW12235   2.809   4.957   6.821
 3779SOL    HW112236   2.788   4.957   6.724
 3779SOL    HW212237   2.905   4.981   6.834
 3780SOL     OW12238   3.743   4.987   4.745
 3780SOL    HW112239   3.663   4.963   4.801
 3780SOL    HW212240   3.765   5.084   4.758
 3781SOL     OW12241   1.866   6.045   4.063
 3781SOL    HW112242   1.843   5.969   4.125
 3781SOL    HW212243   1.948   6.020   4.010
 3782SOL     OW12244   2.622   2.487   4.519
 3782SOL    HW112245   2.711   2.469   4.476
 3782SOL    HW212246   2.569   2.548   4.461
 3783SOL     OW12247   6.490   0.028   4.882
 3783SOL    HW112248   6.459   0.063   4.794
 3783SOL    HW212249   6.588   0.008   4.877
 3784SOL     OW12250   5.268   1.501   3.441
 3784SOL    HW112251   5.304   1.411   3.419
 3784SOL    HW212252   5.168   1.500   3.432
 3785SOL     OW12253   2.283   1.547   0.608
 3785SOL    HW112254   2.188   1.525   0.627
 3785SOL    HW212255   2.288   1.620   0.540
 3786SOL     OW12256   3.051   4.909   3.886
 3786SOL    HW112257   3.069   4.821   3.930
 3786SOL    HW212258   3.118   4.923   3.813
 3787SOL     OW12259   5.099   0.087   3.709
 3787SOL    HW112260   5.114   0.142   3.626
 3787SOL    HW212261   5.167   0.111   3.778
 3788SOL     OW12262   6.414   3.492   3.638
 3788SOL    HW112263   6.352   3.501   3.715
 3788SOL    HW212264   6.416   3.578   3.587
 3789SOL     OW12265   1.839   4.433   4.254
 3789SOL    HW112266   1.877   4.523   4.229
 3789SOL    HW212267   1.743   4.429   4.229
 3790SOL     OW12268   2.126   3.783   4.824
 3790SOL    HW112269   2.031   3.771   4.796
 3790SOL    HW212270   2.154   3.878   4.809
 3791SOL     OW12271   5.502   6.807   1.144
 3791SOL    HW112272   5.572   6.746   1.106
 3791SOL    HW212273   5.540   6.898   1.156
 3792SOL     OW12274   6.900   0.202   4.927
 3792SOL    HW112275   6.855   0.291   4.925
 3792SOL    HW212276   6.991   0.209   4.886
 3793SOL     OW12277   2.315   1.260   2.844
 3793SOL    HW112278   2.383   1.269   2.771
 3793SOL    HW212279   2.245   1.194   2.817
 3794SOL     OW12280   3.709   5.403   1.757
 3794SOL    HW112281   3.763   5.412   1.673
 3794SOL    HW212282   3.639   5.333   1.744
 3795SOL     OW12283   4.369   6.775   6.512
 3795SOL    HW112284   4.323   6.815   6.591
 3795SOL    HW212285   4.312   6.788   6.431
 3796SOL     OW12286   1.810   1.868   1.403
 3796SOL    HW112287   1.884   1.906   1.458
 3796SOL    HW212288   1.833   1.873   1.306
 3797SOL     OW12289   6.718   5.415   2.153
 3797SOL    HW112290   6.817   5.424   2.161
 3797SOL    HW212291   6.676   5.506   2.155
 3798SOL     OW12292   2.563   4.915   2.846
 3798SOL    HW112293   2.498   4.988   2.823
 3798SOL    HW212294   2.576   4.856   2.765
 3799SOL     OW12295   1.174   1.988   4.271
 3799SOL    HW112296   1.140   1.978   4.365
 3799SOL    HW212297   1.101   2.021   4.212
 3800SOL     OW12298   5.139   2.430   4.794
 3800SOL    HW112299   5.045   2.450   4.767
 3800SOL    HW212300   5.199   2.442   4.715
 3801SOL     OW12301   6.267   5.705   5.469
 3801SOL    HW112302   6.248   5.612   5.498
 3801SOL    HW212303   6.205   5.768   5.515
 3802SOL     OW12304   0.980   2.066   4.999
 3802SOL    HW112305   0.977   2.074   5.098
 3802SOL    HW212306   0.910   2.127   4.959
 3803SOL     OW12307   3.970   0.937   2.440
 3803SOL    HW112308   3.877   0.934   2.476
 3803SOL    HW212309   3.968   0.959   2.342
 3804SOL     OW12310   4.498   2.163   4.720
 3804SOL    HW112311   4.470   2.173   4.624
 3804SOL    HW212312   4.558   2.084   4.729
 3805SOL     OW12313   3.498   4.120   1.649
 3805SOL    HW112314   3.445   4.055   1.704
 3805SOL    HW212315   3.595   4.100   1.658
 3806SOL     OW12316   2.891   2.509   0.167
 3806SOL    HW112317   2.886   2.418   0.128
 3806SOL    HW212318   2.973   2.517   0.224
 3807SOL     OW12319   1.403   1.183   4.249
 3807SOL    HW112320   1.355   1.225   4.173
 3807SOL    HW212321   1.494   1.225   4.259
 3808SOL     OW12322   3.202   0.371   2.081
 3808SOL    HW112323   3.273   0.310   2.114
 3808SOL    HW212324   3.143   0.323   2.018
 3809SOL     OW12325   5.816   1.739   6.953
 3809SOL    HW112326   5.863   1.746   6.866
 3809SOL    HW212327   5.717   1.739   6.938
 3810SOL     OW12328   4.031   3.051   5.226
 3810SOL    HW112329   3.970   3.007   5.161
 3810SOL    HW212330   4.038   3.148   5.204
 3811SOL     OW12331   0.595   4.254   4.018
 3811SOL    HW112332   0.544   4.264   4.103
 3811SOL    HW212333   0.533   4.227   3.944
 3812SOL     OW12334   5.904   1.450   6.019
 3812SOL    HW112335   5.852   1.461   5.935
 3812SOL    HW212336   5.918   1.539   6.062
 3813SOL     OW12337   4.262   5.047   1.048
 3813SOL    HW112338   4.226   5.013   1.135
 3813SOL    HW212339   4.196   5.028   0.975
 3814SOL     OW12340   0.050   5.857   1.057
 3814SOL    HW112341   0.078   5.954   1.053
 3814SOL    HW212342   0.112   5.808   1.119
 3815SOL     OW12343   4.859   2.110   0.463
 3815SOL    HW112344   4.864   2.167   0.545
 3815SOL    HW212345   4.907   2.156   0.388
 3816SOL     OW12346   0.111   6.130   1.897
 3816SOL    HW112347   0.137   6.217   1.856
 3816SOL    HW212348   0.073   6.070   1.827
 3817SOL     OW12349   4.798   2.792   4.377
 3817SOL    HW112350   4.763   2.728   4.309
 3817SOL    HW212351   4.751   2.777   4.464
 3818SOL     OW12352   4.264   6.459   1.971
 3818SOL    HW112353   4.357   6.488   1.949
 3818SOL    HW212354   4.215   6.436   1.887
 3819SOL     OW12355   5.536   5.616   0.196
 3819SOL    HW112356   5.593   5.676   0.251
 3819SOL    HW212357   5.593   5.556   0.140
 3820SOL     OW12358   6.174   5.787   3.710
 3820SOL    HW112359   6.212   5.872   3.672
 3820SOL    HW212360   6.189   5.786   3.809
 3821SOL     OW12361   1.785   3.318   1.690
 3821SOL    HW112362   1.780   3.220   1.674
 3821SOL    HW212363   1.878   3.350   1.671
 3822SOL     OW12364   1.470   5.573   2.084
 3822SOL    HW112365   1.462   5.630   2.166
 3822SOL    HW212366   1.386   5.520   2.072
 3823SOL     OW12367   4.133   2.202   4.946
 3823SOL    HW112368   4.069   2.181   5.019
 3823SOL    HW212369   4.164   2.297   4.955
 3824SOL     OW12370   6.124   2.150   5.964
 3824SOL    HW112371   6.217   2.132   5.995
 3824SOL    HW212372   6.125   2.170   5.866
 3825SOL     OW12373   6.677   6.927   6.726
 3825SOL    HW112374   6.674   6.995   6.653
 3825SOL    HW212375   6.699   6.838   6.687
 3826SOL     OW12376   0.148   3.494   0.454
 3826SOL    HW112377   0.180   3.559   0.386
 3826SOL    HW212378   0.205   3.412   0.451
 3827SOL     OW12379   4.026   4.504   0.844
 3827SOL    HW112380   3.930   4.489   0.866
 3827SOL    HW212381   4.074   4.538   0.925
 3828SOL     OW12382   4.609   2.107   0.690
 3828SOL    HW112383   4.528   2.085   0.744
 3828SOL    HW212384   4.598   2.197   0.648
 3829SOL     OW12385   2.480   5.019   3.718
 3829SOL    HW112386   2.552   5.057   3.660
 3829SOL    HW212387   2.499   5.040   3.814
 3830SOL     OW12388   1.607   0.072   5.623
 3830SOL    HW112389   1.639   0.164   5.644
 3830SOL    HW212390   1.679   0.021   5.577
 3831SOL     OW12391   3.869   1.805   2.104
 3831SOL    HW112392   3.818   1.888   2.127
 3831SOL    HW212393   3.806   1.735   2.071
 3832SOL     OW12394   6.419   1.012   1.590
 3832SOL    HW112395   6.464   0.923   1.576
 3832SOL    HW212396   6.448   1.076   1.519
 3833SOL     OW12397   0.571   4.952   0.487
 3833SOL    HW112398   0.490   4.921   0.538
 3833SOL    HW212399   0.551   5.041   0.446
 3834SOL     OW12400   2.915   2.179   0.483
 3834SOL    HW112401   2.872   2.260   0.523
 3834SOL    HW212402   3.000   2.159   0.531
 3835SOL     OW12403   3.842   5.788   5.606
 3835SOL    HW112404   3.880   5.851   5.539
 3835SOL    HW212405   3.810   5.705   5.559
 3836SOL     OW12406   1.977   3.498   5.967
 3836SOL    HW112407   2.045   3.502   5.894
 3836SOL    HW212408   2.024   3.483   6.055
 3837SOL     OW12409   4.542   3.533   0.361
 3837SOL    HW112410   4.466   3.501   0.417
 3837SOL    HW212411   4.594   3.603   0.410
 3838SOL     OW12412   5.127   2.933   4.353
 3838SOL    HW112413   5.223   2.948   4.376
 3838SOL    HW212414   5.069   2.956   4.431
 3839SOL     OW12415   5.459   0.100   5.388
 3839SOL    HW112416   5.521   0.045   5.445
 3839SOL    HW212417   5.386   0.137   5.445
 3840SOL     OW12418   1.388   1.065   5.022
 3840SOL    HW112419   1.326   1.001   4.976
 3840SOL    HW212420   1.460   1.093   4.958
 3841SOL     OW12421   0.832   4.006   5.079
 3841SOL    HW112422   0.924   4.031   5.109
 3841SOL    HW212423   0.809   4.056   4.995
 3842SOL     OW12424   0.796   5.463   6.981
 3842SOL    HW112425   0.768   5.553   6.947
 3842SOL    HW212426   0.719   5.399   6.973
 3843SOL     OW12427   6.832   3.207   0.550
 3843SOL    HW112428   6.863   3.171   0.638
 3843SOL    HW212429   6.870   3.151   0.476
 3844SOL     OW12430   1.311   5.493   5.665
 3844SOL    HW112431   1.382   5.522   5.601
 3844SOL    HW212432   1.332   5.401   5.699
 3845SOL     OW12433   3.569   2.920   2.783
 3845SOL    HW112434   3.469   2.917   2.787
 3845SOL    HW212435   3.600   2.883   2.695
 3846SOL     OW12436   6.603   4.569   3.717
 3846SOL    HW112437   6.558   4.621   3.645
 3846SOL    HW212438   6.660   4.498   3.675
 3847SOL     OW12439   6.642   1.206   6.799
 3847SOL    HW112440   6.713   1.136   6.788
 3847SOL    HW212441   6.605   1.202   6.892
 3848SOL     OW12442   2.185   5.162   2.443
 3848SOL    HW112443   2.152   5.067   2.435
 3848SOL    HW212444   2.144   5.204   2.524
 3849SOL     OW12445   0.834   1.612   5.957
 3849SOL    HW112446   0.917   1.655   5.924
 3849SOL    HW212447   0.769   1.682   5.987
 3850SOL     OW12448   3.181   4.034   1.731
 3850SOL    HW112449   3.264   3.998   1.772
 3850SOL    HW212450   3.101   3.997   1.778
 3851SOL     OW12451   2.250   4.111   3.128
 3851SOL    HW112452   2.295   4.022   3.132
 3851SOL    HW212453   2.270   4.155   3.041
 3852SOL     OW12454   4.542   1.123   5.112
 3852SOL    HW112455   4.541   1.159   5.205
 3852SOL    HW212456   4.636   1.102   5.086
 3853SOL     OW12457   0.651   3.212   2.648
 3853SOL    HW112458   0.705   3.168   2.721
 3853SOL    HW212459   0.602   3.142   2.597
 3854SOL     OW12460   1.070   3.441   3.622
 3854SOL    HW112461   1.078   3.362   3.562
 3854SOL    HW212462   1.038   3.412   3.712
 3855SOL     OW12463   5.909   5.113   6.022
 3855SOL    HW112464   5.927   5.111   5.923
 3855SOL    HW212465   5.931   5.025   6.062
 3856SOL     OW12466   7.011   0.587   6.216
 3856SOL    HW112467   0.063   0.588   6.274
 3856SOL    HW212468   7.016   0.664   6.151
 3857SOL     OW12469   0.986   6.512   5.077
 3857SOL    HW112470   0.952   6.486   5.168
 3857SOL    HW212471   1.078   6.551   5.085
 3858SOL     OW12472   1.171   5.923   6.335
 3858SOL    HW112473   1.204   5.856   6.401
 3858SOL    HW212474   1.118   5.994   6.382
 3859SOL     OW12475   6.934   2.693   3.500
 3859SOL    HW112476   6.946   2.598   3.529
 3859SOL    HW212477   6.849   2.730   3.538
 3860SOL     OW12478   2.183   5.775   5.345
 3860SOL    HW112479   2.206   5.698   5.405
 3860SOL    HW212480   2.215   5.755   5.252
 3861SOL     OW12481   5.214   4.611   1.631
 3861SOL    HW112482   5.117   4.615   1.609
 3861SOL    HW212483   5.241   4.516   1.647
 3862SOL     OW12484   0.351   6.854   6.143
 3862SOL    HW112485   0.391   6.763   6.134
 3862SOL    HW212486   0.303   6.862   6.230
 3863SOL     OW12487   3.409   3.680   1.003
 3863SOL    HW112488   3.441   3.744   0.932
 3863SOL    HW212489   3.436   3.714   1.093
 3864SOL     OW12490   3.740   2.145   6.807
 3864SOL    HW112491   3.727   2.228   6.860
 3864SOL    HW212492   3.780   2.074   6.865
 3865SOL     OW12493   3.830   0.225   1.984
 3865SOL    HW112494   3.813   0.324   1.981
 3865SOL    HW212495   3.776   0.184   2.058
 3866SOL     OW12496   4.113   0.012   1.084
 3866SOL    HW112497   4.144   6.951   1.052
 3866SOL    HW212498   4.025   0.003   1.130
 3867SOL     OW12499   2.148   3.522   3.070
 3867SOL    HW112500   2.187   3.602   3.026
 3867SOL    HW212501   2.160   3.529   3.170
 3868SOL     OW12502   2.531   6.749   1.812
 3868SOL    HW112503   2.550   6.747   1.910
 3868SOL    HW212504   2.590   6.817   1.768
 3869SOL     OW12505   0.215   2.442   3.382
 3869SOL    HW112506   0.221   2.389   3.298
 3869SOL    HW212507   0.208   2.381   3.461
 3870SOL     OW12508   2.993   4.939   0.231
 3870SOL    HW112509   3.075   4.989   0.202
 3870SOL    HW212510   2.952   4.893   0.152
 3871SOL     OW12511   3.400   0.181   2.716
 3871SOL    HW112512   3.338   0.113   2.676
 3871SOL    HW212513   3.407   0.166   2.814
 3872SOL     OW12514   4.196   3.873   1.240
 3872SOL    HW112515   4.252   3.802   1.197
 3872SOL    HW212516   4.249   3.957   1.248
 3873SOL     OW12517   5.675   5.347   1.352
 3873SOL    HW112518   5.773   5.344   1.369
 3873SOL    HW212519   5.625   5.331   1.437
 3874SOL     OW12520   3.886   6.502   0.292
 3874SOL    HW112521   3.986   6.496   0.283
 3874SOL    HW212522   3.843   6.446   0.221
 3875SOL     OW12523   1.446   4.355   1.249
 3875SOL    HW112524   1.418   4.261   1.267
 3875SOL    HW212525   1.533   4.373   1.296
 3876SOL     OW12526   5.886   4.988   4.885
 3876SOL    HW112527   5.790   5.004   4.908
 3876SOL    HW212528   5.917   5.059   4.823
 3877SOL     OW12529   6.350   1.249   2.438
 3877SOL    HW112530   6.410   1.180   2.479
 3877SOL    HW212531   6.317   1.215   2.350
 3878SOL     OW12532   3.994   6.620   6.442
 3878SOL    HW112533   4.021   6.707   6.401
 3878SOL    HW212534   4.027   6.544   6.386
 3879SOL     OW12535   4.162   5.281   1.787
 3879SOL    HW112536   4.087   5.274   1.853
 3879SOL    HW212537   4.208   5.369   1.799
 3880SOL     OW12538   5.587   3.230   2.774
 3880SOL    HW112539   5.685   3.212   2.764
 3880SOL    HW212540   5.559   3.300   2.708
 3881SOL     OW12541   0.886   4.573   0.678
 3881SOL    HW112542   0.881   4.543   0.582
 3881SOL    HW212543   0.971   4.623   0.693
 3882SOL     OW12544   6.477   1.318   5.467
 3882SOL    HW112545   6.559   1.280   5.423
 3882SOL    HW212546   6.497   1.409   5.502
 3883SOL     OW12547   4.159   1.326   3.586
 3883SOL    HW112548   4.101   1.366   3.658
 3883SOL    HW212549   4.224   1.395   3.554
 3884SOL     OW12550   1.491   6.186   5.097
 3884SOL    HW112551   1.398   6.150   5.108
 3884SOL    HW212552   1.555   6.130   5.150
 3885SOL     OW12553   6.688   1.298   3.653
 3885SOL    HW112554   6.771   1.333   3.697
 3885SOL    HW212555   6.678   1.341   3.563
 3886SOL     OW12556   6.762   7.000   4.887
 3886SOL    HW112557   6.757   6.953   4.976
 3886SOL    HW212558   6.796   0.064   4.901
 3887SOL     OW12559   3.909   2.089   5.376
 3887SOL    HW112560   3.809   2.096   5.370
 3887SOL    HW212561   3.933   2.004   5.423
 3888SOL     OW12562   6.368   1.839   0.998
 3888SOL    HW112563   6.377   1.815   1.095
 3888SOL    HW212564   6.427   1.779   0.944
 3889SOL     OW12565   0.758   5.720   6.489
 3889SOL    HW112566   0.683   5.782   6.469
 3889SOL    HW212567   0.814   5.758   6.562
 3890SOL     OW12568   5.636   4.900   2.524
 3890SOL    HW112569   5.712   4.917   2.587
 3890SOL    HW212570   5.579   4.827   2.560
 3891SOL     OW12571   5.304   5.135   4.681
 3891SOL    HW112572   5.228   5.136   4.747
 3891SOL    HW212573   5.352   5.222   4.684
 3892SOL     OW12574   5.892   6.794   2.675
 3892SOL    HW112575   5.794   6.791   2.692
 3892SOL    HW212576   5.931   6.875   2.718
 3893SOL     OW12577   3.330   5.624   4.624
 3893SOL    HW112578   3.299   5.713   4.657
 3893SOL    HW212579   3.428   5.613   4.641
 3894SOL     OW12580   4.317   3.431   0.502
 3894SOL    HW112581   4.278   3.356   0.449
 3894SOL    HW212582   4.290   3.421   0.598
 3895SOL     OW12583   2.391   1.352   6.007
 3895SOL    HW112584   2.346   1.268   6.036
 3895SOL    HW212585   2.356   1.380   5.917
 3896SOL     OW12586   0.016   2.835   5.423
 3896SOL    HW112587   0.105   2.835   5.378
 3896SOL    HW212588   7.020   2.928   5.449
 3897SOL     OW12589   3.452   0.239   2.156
 3897SOL    HW112590   3.504   0.311   2.202
 3897SOL    HW212591   3.514   0.176   2.110
 3898SOL     OW12592   4.118   3.261   3.880
 3898SOL    HW112593   4.209   3.299   3.862
 3898SOL    HW212594   4.124   3.162   3.893
 3899SOL     OW12595   4.454   2.028   5.716
 3899SOL    HW112596   4.454   1.932   5.746
 3899SOL    HW212597   4.547   2.057   5.694
 3900SOL     OW12598   5.981   2.778   3.209
 3900SOL    HW112599   6.016   2.746   3.121
 3900SOL    HW212600   6.008   2.714   3.281
 3901SOL     OW12601   1.325   6.773   5.364
 3901SOL    HW112602   1.228   6.774   5.388
 3901SOL    HW212603   1.355   6.865   5.342
 3902SOL     OW12604   4.950   5.142   1.640
 3902SOL    HW112605   4.895   5.106   1.564
 3902SOL    HW212606   5.027   5.195   1.603
 3903SOL     OW12607   4.570   2.636   6.418
 3903SOL    HW112608   4.491   2.594   6.462
 3903SOL    HW212609   4.652   2.583   6.437
 3904SOL     OW12610   0.990   5.976   0.598
 3904SOL    HW112611   0.917   6.015   0.542
 3904SOL    HW212612   1.070   5.957   0.541
 3905SOL     OW12613   0.057   0.706   5.462
 3905SOL    HW112614   0.121   0.760   5.517
 3905SOL    HW212615   0.090   0.699   5.368
 3906SOL     OW12616   2.173   5.032   4.207
 3906SOL    HW112617   2.205   4.946   4.168
 3906SOL    HW212618   2.076   5.045   4.187
 3907SOL     OW12619   6.656   1.259   4.072
 3907SOL    HW112620   6.601   1.328   4.119
 3907SOL    HW212621   6.615   1.238   3.983
 3908SOL     OW12622   1.429   0.439   4.724
 3908SOL    HW112623   1.477   0.397   4.647
 3908SOL    HW212624   1.345   0.388   4.743
 3909SOL     OW12625   5.669   3.187   6.234
 3909SOL    HW112626   5.719   3.273   6.224
 3909SOL    HW212627   5.687   3.150   6.325
 3910SOL     OW12628   3.467   2.178   0.470
 3910SOL    HW112629   3.564   2.161   0.488
 3910SOL    HW212630   3.425   2.095   0.432
 3911SOL     OW12631   6.370   1.183   1.263
 3911SOL    HW112632   6.458   1.136   1.271
 3911SOL    HW212633   6.296   1.115   1.265
 3912SOL     OW12634   4.216   1.557   0.215
 3912SOL    HW112635   4.175   1.516   0.296
 3912SOL    HW212636   4.256   1.486   0.157
 3913SOL     OW12637   4.699   5.447   0.354
 3913SOL    HW112638   4.734   5.541   0.359
 3913SOL    HW212639   4.754   5.388   0.413
 3914SOL     OW12640   5.730   1.026   0.615
 3914SOL    HW112641   5.766   1.116   0.592
 3914SOL    HW212642   5.635   1.035   0.646
 3915SOL     OW12643   4.424   5.193   0.075
 3915SOL    HW112644   4.464   5.162   7.018
 3915SOL    HW212645   4.447   5.289   0.090
 3916SOL     OW12646   1.695   1.160   2.104
 3916SOL    HW112647   1.655   1.172   2.195
 3916SOL    HW212648   1.675   1.068   2.071
 3917SOL     OW12649   3.039   5.278   0.862
 3917SOL    HW112650   3.002   5.187   0.883
 3917SOL    HW212651   3.092   5.311   0.940
 3918SOL     OW12652   5.575   0.603   0.721
 3918SOL    HW112653   5.482   0.569   0.702
 3918SOL    HW212654   5.571   0.673   0.791
 3919SOL     OW12655   3.830   0.052   1.778
 3919SOL    HW112656   3.816   0.110   1.858
 3919SOL    HW212657   3.860   0.107   1.700
 3920SOL     OW12658   3.182   0.943   5.880
 3920SOL    HW112659   3.271   0.961   5.922
 3920SOL    HW212660   3.141   1.030   5.851
 3921SOL     OW12661   0.873   2.878   6.269
 3921SOL    HW112662   0.837   2.970   6.282
 3921SOL    HW212663   0.962   2.882   6.224
 3922SOL     OW12664   4.945   4.747   2.788
 3922SOL    HW112665   4.993   4.732   2.702
 3922SOL    HW212666   4.866   4.806   2.773
 3923SOL     OW12667   5.544   1.048   1.198
 3923SOL    HW112668   5.564   1.076   1.104
 3923SOL    HW212669   5.504   0.956   1.197
 3924SOL     OW12670   6.279   4.618   4.380
 3924SOL    HW112671   6.360   4.585   4.429
 3924SOL    HW212672   6.248   4.547   4.317
 3925SOL     OW12673   4.509   4.038   1.023
 3925SOL    HW112674   4.568   4.036   0.942
 3925SOL    HW212675   4.544   3.975   1.092
 3926SOL     OW12676   0.344   0.048   5.601
 3926SOL    HW112677   0.289   0.094   5.672
 3926SOL    HW212678   0.286   7.013   5.551
 3927SOL     OW12679   5.924   3.046   5.104
 3927SOL    HW112680   5.836   3.034   5.149
 3927SOL    HW212681   5.914   3.024   5.006
 3928SOL     OW12682   2.132   6.244   2.717
 3928SOL    HW112683   2.099   6.278   2.629
 3928SOL    HW212684   2.059   6.249   2.784
 3929SOL     OW12685   0.325   2.114   5.271
 3929SOL    HW112686   0.336   2.016   5.290
 3929SOL    HW212687   0.235   2.144   5.304
 3930SOL     OW12688   0.833   4.271   3.639
 3930SOL    HW112689   0.813   4.175   3.659
 3930SOL    HW212690   0.916   4.299   3.687
 3931SOL     OW12691   1.565   2.743   1.487
 3931SOL    HW112692   1.639   2.731   1.553
 3931SOL    HW212693   1.479   2.759   1.536
 3932SOL     OW12694   1.945   5.511   4.007
 3932SOL    HW112695   2.004   5.444   4.053
 3932SOL    HW212696   1.975   5.521   3.912
 3933SOL     OW12697   1.995   4.834   0.759
 3933SOL    HW112698   1.921   4.900   0.771
 3933SOL    HW212699   1.988   4.764   0.830
 3934SOL     OW12700   0.497   1.216   1.163
 3934SOL    HW112701   0.524   1.138   1.220
 3934SOL    HW212702   0.576   1.275   1.146
 3935SOL     OW12703   6.071   3.543   6.740
 3935SOL    HW112704   6.053   3.625   6.794
 3935SOL    HW212705   5.985   3.501   6.714
 3936SOL     OW12706   0.465   5.378   5.194
 3936SOL    HW112707   0.541   5.313   5.188
 3936SOL    HW212708   0.407   5.354   5.272
 3937SOL     OW12709   6.946   0.407   1.830
 3937SOL    HW112710   6.965   0.316   1.793
 3937SOL    HW212711   6.962   0.407   1.928
 3938SOL     OW12712   0.596   4.605   2.716
 3938SOL    HW112713   0.538   4.527   2.739
 3938SOL    HW212714   0.682   4.572   2.676
 3939SOL     OW12715   1.383   0.884   2.219
 3939SOL    HW112716   1.339   0.973   2.211
 3939SOL    HW212717   1.482   0.896   2.229
 3940SOL     OW12718   3.248   5.407   1.624
 3940SOL    HW112719   3.220   5.502   1.609
 3940SOL    HW212720   3.199   5.370   1.702
 3941SOL     OW12721   5.635   6.961   3.841
 3941SOL    HW112722   5.619   6.944   3.939
 3941SOL    HW212723   5.715   7.019   3.830
 3942SOL     OW12724   6.954   5.800   5.690
 3942SOL    HW112725   7.009   5.723   5.659
 3942SOL    HW212726   6.938   5.792   5.789
 3943SOL     OW12727   1.219   2.837   0.048
 3943SOL    HW112728   1.273   2.775   0.105
 3943SOL    HW212729   1.266   2.853   6.990
 3944SOL     OW12730   6.078   2.022   6.930
 3944SOL    HW112731   6.062   1.961   6.853
 3944SOL    HW212732   6.135   2.099   6.901
 3945SOL     OW12733   6.455   0.531   3.617
 3945SOL    HW112734   6.369   0.531   3.669
 3945SOL    HW212735   6.501   0.619   3.628
 3946SOL     OW12736   1.278   2.835   0.680
 3946SOL    HW112737   1.269   2.744   0.640
 3946SOL    HW212738   1.200   2.891   0.653
 3947SOL     OW12739   5.645   4.974   1.619
 3947SOL    HW112740   5.567   5.035   1.632
 3947SOL    HW212741   5.631   4.890   1.672
 3948SOL     OW12742   1.273   2.689   6.082
 3948SOL    HW112743   1.206   2.620   6.109
 3948SOL    HW212744   1.343   2.646   6.024
 3949SOL     OW12745   6.300   6.406   2.743
 3949SOL    HW112746   6.285   6.446   2.834
 3949SOL    HW212747   6.284   6.476   2.673
 3950SOL     OW12748   3.056   4.599   1.383
 3950SOL    HW112749   2.975   4.627   1.331
 3950SOL    HW212750   3.072   4.501   1.369
 3951SOL     OW12751   0.769   2.518   5.559
 3951SOL    HW112752   0.712   2.468   5.625
 3951SOL    HW212753   0.858   2.538   5.600
 3952SOL     OW12754   6.379   3.764   5.479
 3952SOL    HW112755   6.311   3.825   5.437
 3952SOL    HW212756   6.431   3.718   5.407
 3953SOL     OW12757   3.582   4.070   6.413
 3953SOL    HW112758   3.653   3.999   6.423
 3953SOL    HW212759   3.508   4.035   6.356
 3954SOL     OW12760   0.857   3.092   5.424
 3954SOL    HW112761   0.843   3.086   5.325
 3954SOL    HW212762   0.808   3.018   5.469
 3955SOL     OW12763   5.911   4.812   6.964
 3955SOL    HW112764   5.974   4.841   0.008
 3955SOL    HW212765   5.820   4.847   6.984
 3956SOL     OW12766   1.060   2.731   5.515
 3956SOL    HW112767   1.019   2.717   5.605
 3956SOL    HW212768   1.134   2.798   5.522
 3957SOL     OW12769   1.166   0.576   3.194
 3957SOL    HW112770   1.083   0.626   3.218
 3957SOL    HW212771   1.246   0.624   3.230
 3958SOL     OW12772   5.277   6.330   4.966
 3958SOL    HW112773   5.369   6.299   4.991
 3958SOL    HW212774   5.253   6.294   4.876
 3959SOL     OW12775   2.754   4.991   0.657
 3959SOL    HW112776   2.800   4.908   0.626
 3959SOL    HW212777   2.763   5.062   0.588
 3960SOL     OW12778   4.218   3.188   0.370
 3960SOL    HW112779   4.162   3.245   0.309
 3960SOL    HW212780   4.271   3.123   0.316
 3961SOL     OW12781   5.356   0.806   1.959
 3961SOL    HW112782   5.374   0.894   1.916
 3961SOL    HW212783   5.258   0.797   1.976
 3962SOL     OW12784   0.237   0.506   6.340
 3962SOL    HW112785   0.274   0.413   6.342
 3962SOL    HW212786   0.284   0.559   6.269
 3963SOL     OW12787   4.809   5.561   3.237
 3963SOL    HW112788   4.788   5.523   3.327
 3963SOL    HW212789   4.814   5.661   3.244
 3964SOL     OW12790   5.866   6.221   4.948
 3964SOL    HW112791   5.818   6.249   4.865
 3964SOL    HW212792   5.874   6.122   4.951
 3965SOL     OW12793   3.936   3.508   0.337
 3965SOL    HW112794   3.940   3.517   0.437
 3965SOL    HW212795   3.949   3.598   0.295
 3966SOL     OW12796   5.701   4.042   4.850
 3966SOL    HW112797   5.798   4.027   4.868
 3966SOL    HW212798   5.654   4.062   4.936
 3967SOL     OW12799   0.570   5.788   6.132
 3967SOL    HW112800   0.512   5.735   6.070
 3967SOL    HW212801   0.665   5.758   6.124
 3968SOL     OW12802   6.187   0.601   1.904
 3968SOL    HW112803   6.117   0.561   1.963
 3968SOL    HW212804   6.157   0.595   1.809
 3969SOL     OW12805   0.680   5.034   2.377
 3969SOL    HW112806   0.745   5.096   2.421
 3969SOL    HW212807   0.699   4.940   2.405
 3970SOL     OW12808   5.172   4.468   3.065
 3970SOL    HW112809   5.102   4.464   3.137
 3970SOL    HW212810   5.205   4.376   3.046
 3971SOL     OW12811   1.197   6.095   3.021
 3971SOL    HW112812   1.162   6.002   3.025
 3971SOL    HW212813   1.291   6.095   2.988
 3972SOL     OW12814   1.550   6.828   0.114
 3972SOL    HW112815   1.608   6.823   0.033
 3972SOL    HW212816   1.501   6.915   0.115
 3973SOL     OW12817   3.071   3.595   3.993
 3973SOL    HW112818   3.138   3.658   4.031
 3973SOL    HW212819   3.118   3.520   3.946
 3974SOL     OW12820   5.960   1.779   6.725
 3974SOL    HW112821   6.004   1.826   6.649
 3974SOL    HW212822   6.028   1.730   6.779
 3975SOL     OW12823   0.058   1.003   5.488
 3975SOL    HW112824   0.048   1.103   5.484
 3975SOL    HW212825   0.155   0.980   5.487
 3976SOL     OW12826   1.077   3.368   0.382
 3976SOL    HW112827   1.050   3.385   0.287
 3976SOL    HW212828   0.994   3.366   0.439
 3977SOL     OW12829   3.763   5.914   6.504
 3977SOL    HW112830   3.789   5.839   6.564
 3977SOL    HW212831   3.756   5.881   6.410
 3978SOL     OW12832   6.017   3.377   6.122
 3978SOL    HW112833   6.103   3.359   6.170
 3978SOL    HW212834   6.034   3.382   6.023
 3979SOL     OW12835   0.615   6.946   2.754
 3979SOL    HW112836   0.528   6.896   2.753
 3979SOL    HW212837   0.596   0.014   2.771
 3980SOL     OW12838   5.189   3.382   4.407
 3980SOL    HW112839   5.156   3.338   4.490
 3980SOL    HW212840   5.122   3.371   4.334
 3981SOL     OW12841   6.980   2.265   6.837
 3981SOL    HW112842   7.009   2.360   6.846
 3981SOL    HW212843   0.026   2.210   6.799
 3982SOL     OW12844   2.045   1.862   3.786
 3982SOL    HW112845   2.116   1.920   3.745
 3982SOL    HW212846   2.067   1.847   3.883
 3983SOL     OW12847   3.594   6.216   4.314
 3983SOL    HW112848   3.630   6.294   4.261
 3983SOL    HW212849   3.499   6.234   4.339
 3984SOL     OW12850   2.001   6.861   1.361
 3984SOL    HW112851   2.020   6.872   1.458
 3984SOL    HW212852   2.023   6.946   1.313
 3985SOL     OW12853   2.077   2.782   1.586
 3985SOL    HW112854   2.085   2.830   1.498
 3985SOL    HW212855   2.155   2.807   1.644
 3986SOL     OW12856   0.719   2.469   1.594
 3986SOL    HW112857   0.659   2.422   1.530
 3986SOL    HW212858   0.702   2.435   1.687
 3987SOL     OW12859   2.836   4.675   6.448
 3987SOL    HW112860   2.764   4.609   6.469
 3987SOL    HW212861   2.924   4.641   6.482
 3988SOL     OW12862   4.333   2.846   0.683
 3988SOL    HW112863   4.373   2.915   0.622
 3988SOL    HW212864   4.234   2.846   0.673
 3989SOL     OW12865   5.014   6.787   6.646
 3989SOL    HW112866   4.983   6.815   6.737
 3989SOL    HW212867   5.055   6.696   6.652
 3990SOL     OW12868   0.918   3.265   3.259
 3990SOL    HW112869   0.856   3.305   3.327
 3990SOL    HW212870   0.878   3.181   3.224
 3991SOL     OW12871   0.437   2.174   4.386
 3991SOL    HW112872   0.384   2.239   4.441
 3991SOL    HW212873   0.390   2.158   4.299
 3992SOL     OW12874   4.213   3.278   6.406
 3992SOL    HW112875   4.217   3.365   6.456
 3992SOL    HW212876   4.118   3.247   6.400
 3993SOL     OW12877   2.640   2.389   2.828
 3993SOL    HW112878   2.739   2.399   2.813
 3993SOL    HW212879   2.622   2.382   2.926
 3994SOL     OW12880   2.278   2.976   3.771
 3994SOL    HW112881   2.346   2.908   3.746
 3994SOL    HW212882   2.275   2.986   3.871
 3995SOL     OW12883   2.082   3.555   2.719
 3995SOL    HW112884   2.148   3.606   2.773
 3995SOL    HW212885   2.109   3.458   2.717
 3996SOL     OW12886   6.563   0.890   2.966
 3996SOL    HW112887   6.607   0.807   2.931
 3996SOL    HW212888   6.608   0.919   3.050
 3997SOL     OW12889   5.927   4.112   2.946
 3997SOL    HW112890   5.967   4.062   3.023
 3997SOL    HW212891   5.931   4.055   2.864
 3998SOL     OW12892   6.567   1.792   2.987
 3998SOL    HW112893   6.510   1.712   2.967
 3998SOL    HW212894   6.566   1.853   2.908
 3999SOL     OW12895   5.710   2.796   2.586
 3999SOL    HW112896   5.808   2.791   2.565
 3999SOL    HW212897   5.658   2.760   2.509
 4000SOL     OW12898   2.459   5.798   2.359
 4000SOL    HW112899   2.418   5.889   2.366
 4000SOL    HW212900   2.501   5.774   2.446
 4001SOL     OW12901   2.489   4.008   5.382
 4001SOL    HW112902   2.434   3.971   5.457
 4001SOL    HW212903   2.444   3.988   5.295
 4002SOL     OW12904   3.192   3.331   4.487
 4002SOL    HW112905   3.264   3.389   4.449
 4002SOL    HW212906   3.111   3.386   4.505
 4003SOL     OW12907   2.324   0.766   5.302
 4003SOL    HW112908   2.235   0.776   5.347
 4003SOL    HW212909   2.336   0.841   5.236
 4004SOL     OW12910   0.756   4.072   3.287
 4004SOL    HW112911   0.709   4.120   3.362
 4004SOL    HW212912   0.839   4.122   3.263
 4005SOL     OW12913   4.436   3.606   1.542
 4005SOL    HW112914   4.365   3.602   1.471
 4005SOL    HW212915   4.521   3.567   1.506
 4006SOL     OW12916   4.716   5.468   3.460
 4006SOL    HW112917   4.711   5.369   3.472
 4006SOL    HW212918   4.761   5.509   3.539
 4007SOL     OW12919   0.237   1.676   2.892
 4007SOL    HW112920   0.283   1.596   2.853
 4007SOL    HW212921   0.141   1.676   2.865
 4008SOL     OW12922   2.764   6.999   0.315
 4008SOL    HW112923   2.815   6.959   0.391
 4008SOL    HW212924   2.801   6.964   0.228
 4009SOL     OW12925   4.384   2.016   0.845
 4009SOL    HW112926   4.306   2.078   0.848
 4009SOL    HW212927   4.357   1.929   0.805
 4010SOL     OW12928   2.870   5.090   1.527
 4010SOL    HW112929   2.943   5.022   1.522
 4010SOL    HW212930   2.803   5.062   1.595
 4011SOL     OW12931   6.400   6.204   0.469
 4011SOL    HW112932   6.451   6.192   0.383
 4011SOL    HW212933   6.440   6.278   0.522
 4012SOL     OW12934   3.924   6.420   2.146
 4012SOL    HW112935   3.940   6.453   2.053
 4012SOL    HW212936   3.983   6.471   2.209
 4013SOL     OW12937   1.234   1.003   1.364
 4013SOL    HW112938   1.289   1.085   1.344
 4013SOL    HW212939   1.207   1.004   1.460
 4014SOL     OW12940   2.322   5.582   3.877
 4014SOL    HW112941   2.314   5.492   3.919
 4014SOL    HW212942   2.290   5.578   3.783
 4015SOL     OW12943   4.482   5.027   6.406
 4015SOL    HW112944   4.569   4.989   6.439
 4015SOL    HW212945   4.463   4.992   6.314
 4016SOL     OW12946   3.781   5.766   6.278
 4016SOL    HW112947   3.863   5.732   6.232
 4016SOL    HW212948   3.706   5.768   6.212
 4017SOL     OW12949   0.291   5.321   5.413
 4017SOL    HW112950   0.236   5.402   5.393
 4017SOL    HW212951   0.349   5.339   5.493
 4018SOL     OW12952   3.972   6.137   2.204
 4018SOL    HW112953   3.952   6.228   2.167
 4018SOL    HW212954   4.067   6.133   2.235
 4019SOL     OW12955   5.239   3.404   3.102
 4019SOL    HW112956   5.237   3.451   3.190
 4019SOL    HW212957   5.157   3.429   3.049
 4020SOL     OW12958   6.840   4.658   4.445
 4020SOL    HW112959   6.879   4.627   4.532
 4020SOL    HW212960   6.799   4.581   4.397
 4021SOL     OW12961   3.294   3.500   6.151
 4021SOL    HW112962   3.265   3.419   6.100
 4021SOL    HW212963   3.349   3.559   6.092
 4022SOL     OW12964   3.164   0.072   0.466
 4022SOL    HW112965   3.160   0.164   0.426
 4022SOL    HW212966   3.209   0.077   0.555
 4023SOL     OW12967   0.506   2.084   5.903
 4023SOL    HW112968   0.581   2.093   5.968
 4023SOL    HW212969   0.539   2.043   5.818
 4024SOL     OW12970   0.981   5.204   3.746
 4024SOL    HW112971   0.884   5.218   3.762
 4024SOL    HW212972   1.012   5.124   3.796
 4025SOL     OW12973   1.509   6.127   4.108
 4025SOL    HW112974   1.588   6.117   4.168
 4025SOL    HW212975   1.461   6.212   4.128
 4026SOL     OW12976   6.652   6.295   4.102
 4026SOL    HW112977   6.606   6.320   4.187
 4026SOL    HW212978   6.584   6.260   4.037
 4027SOL     OW12979   2.799   2.799   6.694
 4027SOL    HW112980   2.773   2.727   6.759
 4027SOL    HW212981   2.801   2.761   6.602
 4028SOL     OW12982   4.761   1.683   3.426
 4028SOL    HW112983   4.728   1.677   3.332
 4028SOL    HW212984   4.849   1.732   3.427
 4029SOL     OW12985   2.802   3.981   6.629
 4029SOL    HW112986   2.829   3.924   6.551
 4029SOL    HW212987   2.745   4.056   6.597
 4030SOL     OW12988   7.009   0.936   2.053
 4030SOL    HW112989   0.052   0.896   1.996
 4030SOL    HW212990   7.026   1.033   2.066
 4031SOL     OW12991   5.688   0.260   2.129
 4031SOL    HW112992   5.787   0.254   2.116
 4031SOL    HW212993   5.643   0.239   2.042
 4032SOL     OW12994   6.277   6.618   1.415
 4032SOL    HW112995   6.294   6.585   1.508
 4032SOL    HW212996   6.216   6.553   1.368
 4033SOL     OW12997   2.896   2.276   2.799
 4033SOL    HW112998   2.929   2.310   2.711
 4033SOL    HW212999   2.895   2.176   2.798
 4034SOL     OW13000   6.744   2.830   4.938
 4034SOL    HW113001   6.779   2.900   5.000
 4034SOL    HW213002   6.729   2.745   4.989
 4035SOL     OW13003   6.568   2.568   1.193
 4035SOL    HW113004   6.484   2.516   1.177
 4035SOL    HW213005   6.648   2.510   1.176
 4036SOL     OW13006   3.594   4.908   2.816
 4036SOL    HW113007   3.626   4.990   2.769
 4036SOL    HW213008   3.669   4.867   2.868
 4037SOL     OW13009   2.897   0.677   6.089
 4037SOL    HW113010   2.950   0.662   6.007
 4037SOL    HW213011   2.821   0.739   6.069
 4038SOL     OW13012   3.998   3.250   6.830
 4038SOL    HW113013   3.906   3.289   6.825
 4038SOL    HW213014   3.992   3.156   6.864
 4039SOL     OW13015   5.454   5.503   1.907
 4039SOL    HW113016   5.525   5.438   1.879
 4039SOL    HW213017   5.366   5.475   1.869
 4040SOL     OW13018   3.264   5.285   5.132
 4040SOL    HW113019   3.314   5.362   5.092
 4040SOL    HW213020   3.171   5.283   5.096
 4041SOL     OW13021   2.048   6.478   1.536
 4041SOL    HW113022   2.140   6.498   1.503
 4041SOL    HW213023   1.982   6.496   1.463
 4042SOL     OW13024   6.194   6.752   2.953
 4042SOL    HW113025   6.273   6.758   2.892
 4042SOL    HW213026   6.208   6.810   3.033
 4043SOL     OW13027   6.008   2.443   6.913
 4043SOL    HW113028   6.016   2.513   6.842
 4043SOL    HW213029   5.933   2.466   6.975
 4044SOL     OW13030   4.260   4.672   3.153
 4044SOL    HW113031   4.164   4.701   3.154
 4044SOL    HW213032   4.292   4.667   3.058
 4045SOL     OW13033   4.954   6.853   6.392
 4045SOL    HW113034   4.957   6.848   6.492
 4045SOL    HW213035   5.019   6.922   6.361
 4046SOL     OW13036   0.600   1.223   3.143
 4046SOL    HW113037   0.507   1.258   3.140
 4046SOL    HW213038   0.658   1.286   3.195
 4047SOL     OW13039   1.825   2.837   6.882
 4047SOL    HW113040   1.816   2.826   6.981
 4047SOL    HW213041   1.921   2.827   6.856
 4048SOL     OW13042   5.071   1.370   2.078
 4048SOL    HW113043   5.125   1.447   2.045
 4048SOL    HW213044   5.082   1.292   2.016
 4049SOL     OW13045   4.230   5.624   6.794
 4049SOL    HW113046   4.285   5.707   6.804
 4049SOL    HW213047   4.290   5.548   6.767
 4050SOL     OW13048   0.997   5.626   2.045
 4050SOL    HW113049   0.972   5.602   2.139
 4050SOL    HW213050   0.924   5.682   2.005
 4051SOL     OW13051   5.078   1.357   6.228
 4051SOL    HW113052   5.086   1.451   6.259
 4051SOL    HW213053   5.023   1.304   6.293
 4052SOL     OW13054   6.336   2.282   3.134
 4052SOL    HW113055   6.411   2.332   3.091
 4052SOL    HW213056   6.362   2.257   3.228
 4053SOL     OW13057   1.136   6.109   4.635
 4053SOL    HW113058   1.080   6.167   4.693
 4053SOL    HW213059   1.228   6.102   4.674
 4054SOL     OW13060   4.914   4.151   1.396
 4054SOL    HW113061   4.926   4.067   1.449
 4054SOL    HW213062   4.938   4.134   1.301
 4055SOL     OW13063   1.159   3.874   1.896
 4055SOL    HW113064   1.195   3.864   1.989
 4055SOL    HW213065   1.067   3.912   1.900
 4056SOL     OW13066   5.500   3.492   1.181
 4056SOL    HW113067   5.454   3.581   1.177
 4056SOL    HW213068   5.598   3.506   1.199
 4057SOL     OW13069   6.465   3.209   6.697
 4057SOL    HW113070   6.478   3.278   6.626
 4057SOL    HW213071   6.391   3.238   6.759
 4058SOL     OW13072   2.880   6.504   5.000
 4058SOL    HW113073   2.844   6.503   5.093
 4058SOL    HW213074   2.963   6.448   4.995
 4059SOL     OW13075   0.361   2.992   3.852
 4059SOL    HW113076   0.435   2.995   3.918
 4059SOL    HW213077   0.334   2.897   3.835
 4060SOL     OW13078   6.073   5.829   4.809
 4060SOL    HW113079   6.073   5.739   4.852
 4060SOL    HW213080   6.009   5.889   4.857
 4061SOL     OW13081   2.350   4.763   2.088
 4061SOL    HW113082   2.290   4.834   2.052
 4061SOL    HW213083   2.443   4.777   2.054
 4062SOL     OW13084   3.122   1.111   1.419
 4062SOL    HW113085   3.193   1.107   1.489
 4062SOL    HW213086   3.163   1.103   1.329
 4063SOL     OW13087   5.685   6.627   1.022
 4063SOL    HW113088   5.750   6.698   0.994
 4063SOL    HW213089   5.691   6.549   0.959
 4064SOL     OW13090   2.287   1.931   4.864
 4064SOL    HW113091   2.333   1.939   4.776
 4064SOL    HW213092   2.255   1.838   4.878
 4065SOL     OW13093   0.775   6.962   0.554
 4065SOL    HW113094   0.779   6.885   0.490
 4065SOL    HW213095   0.825   6.940   0.637
 4066SOL     OW13096   6.343   4.307   2.872
 4066SOL    HW113097   6.347   4.400   2.833
 4066SOL    HW213098   6.415   4.251   2.832
 4067SOL     OW13099   5.905   4.359   3.316
 4067SOL    HW113100   5.875   4.443   3.360
 4067SOL    HW213101   6.004   4.352   3.320
 4068SOL     OW13102   2.063   2.669   4.121
 4068SOL    HW113103   2.089   2.644   4.027
 4068SOL    HW213104   1.965   2.688   4.124
 4069SOL     OW13105   3.129   5.807   6.949
 4069SOL    HW113106   3.042   5.840   6.911
 4069SOL    HW213107   3.112   5.763   0.008
 4070SOL     OW13108   1.037   3.140   2.982
 4070SOL    HW113109   1.058   3.237   2.984
 4070SOL    HW213110   1.109   3.091   2.933
 4071SOL     OW13111   1.749   0.415   4.580
 4071SOL    HW113112   1.712   0.503   4.609
 4071SOL    HW213113   1.841   0.403   4.618
 4072SOL     OW13114   1.311   4.852   4.914
 4072SOL    HW113115   1.331   4.802   4.830
 4072SOL    HW213116   1.337   4.948   4.902
 4073SOL     OW13117   2.867   5.427   6.211
 4073SOL    HW113118   2.888   5.524   6.227
 4073SOL    HW213119   2.822   5.389   6.291
 4074SOL     OW13120   1.202   4.573   1.588
 4074SOL    HW113121   1.212   4.515   1.507
 4074SOL    HW213122   1.279   4.558   1.650
 4075SOL     OW13123   5.076   1.629   0.782
 4075SOL    HW113124   5.064   1.727   0.764
 4075SOL    HW213125   5.009   1.576   0.731
 4076SOL     OW13126   3.460   3.767   5.454
 4076SOL    HW113127   3.463   3.837   5.525
 4076SOL    HW213128   3.438   3.678   5.495
 4077SOL     OW13129   4.855   0.698   1.544
 4077SOL    HW113130   4.829   0.612   1.587
 4077SOL    HW213131   4.898   0.757   1.613
 4078SOL     OW13132   2.691   5.312   2.515
 4078SOL    HW113133   2.649   5.318   2.424
 4078SOL    HW213134   2.767   5.377   2.521
 4079SOL     OW13135   1.685   1.734   3.952
 4079SOL    HW113136   1.651   1.824   3.977
 4079SOL    HW213137   1.728   1.738   3.862
 4080SOL     OW13138   5.079   2.494   5.088
 4080SOL    HW113139   5.099   2.426   5.017
 4080SOL    HW213140   5.148   2.488   5.160
 4081SOL     OW13141   1.756   2.874   4.256
 4081SOL    HW113142   1.742   2.898   4.352
 4081SOL    HW213143   1.808   2.947   4.211
 4082SOL     OW13144   1.319   3.243   0.393
 4082SOL    HW113145   1.333   3.169   0.327
 4082SOL    HW213146   1.226   3.279   0.382
 4083SOL     OW13147   6.106   3.013   3.412
 4083SOL    HW113148   6.092   3.081   3.484
 4083SOL    HW213149   6.133   3.059   3.327
 4084SOL     OW13150   5.952   1.704   3.897
 4084SOL    HW113151   5.856   1.724   3.914
 4084SOL    HW213152   5.989   1.648   3.972
 4085SOL     OW13153   4.142   6.065   0.641
 4085SOL    HW113154   4.058   6.022   0.673
 4085SOL    HW213155   4.163   6.145   0.698
 4086SOL     OW13156   2.234   6.099   1.431
 4086SOL    HW113157   2.295   6.067   1.503
 4086SOL    HW213158   2.139   6.089   1.461
 4087SOL     OW13159   2.576   2.521   3.354
 4087SOL    HW113160   2.513   2.594   3.381
 4087SOL    HW213161   2.596   2.529   3.256
 4088SOL     OW13162   6.703   1.532   0.535
 4088SOL    HW113163   6.634   1.510   0.603
 4088SOL    HW213164   6.678   1.615   0.486
 4089SOL     OW13165   7.001   6.281   3.153
 4089SOL    HW113166   6.923   6.261   3.093
 4089SOL    HW213167   6.969   6.333   3.232
 4090SOL     OW13168   2.598   3.920   5.912
 4090SOL    HW113169   2.690   3.888   5.890
 4090SOL    HW213170   2.542   3.843   5.943
 4091SOL     OW13171   6.224   6.723   0.208
 4091SOL    HW113172   6.153   6.770   0.260
 4091SOL    HW213173   6.302   6.784   0.195
 4092SOL     OW13174   6.803   2.771   5.290
 4092SOL    HW113175   6.880   2.813   5.337
 4092SOL    HW213176   6.769   2.833   5.219
 4093SOL     OW13177   4.666   0.315   3.644
 4093SOL    HW113178   4.589   0.327   3.706
 4093SOL    HW213179   4.738   0.381   3.667
 4094SOL     OW13180   2.409   5.294   4.915
 4094SOL    HW113181   2.371   5.265   5.002
 4094SOL    HW213182   2.483   5.360   4.930
 4095SOL     OW13183   1.011   4.134   6.358
 4095SOL    HW113184   0.950   4.055   6.355
 4095SOL    HW213185   1.087   4.115   6.421
 4096SOL     OW13186   4.464   5.505   0.697
 4096SOL    HW113187   4.545   5.562   0.711
 4096SOL    HW213188   4.410   5.542   0.621
 4097SOL     OW13189   3.797   3.755   6.088
 4097SOL    HW113190   3.788   3.661   6.122
 4097SOL    HW213191   3.827   3.753   5.993
 4098SOL     OW13192   0.151   3.043   2.514
 4098SOL    HW113193   0.081   3.043   2.586
 4098SOL    HW213194   0.215   3.118   2.531
 4099SOL     OW13195   3.047   4.895   1.093
 4099SOL    HW113196   2.983   4.966   1.063
 4099SOL    HW213197   3.058   4.899   1.192
 4100SOL     OW13198   5.697   5.992   4.557
 4100SOL    HW113199   5.766   5.923   4.578
 4100SOL    HW213200   5.618   5.949   4.513
 4101SOL     OW13201   6.066   0.595   0.000
 4101SOL    HW113202   6.076   0.692   7.011
 4101SOL    HW213203   5.969   0.571   0.008
 4102SOL     OW13204   0.081   0.677   1.597
 4102SOL    HW113205   7.020   0.649   1.632
 4102SOL    HW213206   0.144   0.600   1.600
 4103SOL     OW13207   1.054   0.491   2.103
 4103SOL    HW113208   1.118   0.554   2.059
 4103SOL    HW213209   0.973   0.540   2.133
 4104SOL     OW13210   1.311   4.557   2.587
 4104SOL    HW113211   1.260   4.481   2.546
 4104SOL    HW213212   1.309   4.547   2.687
 4105SOL     OW13213   4.153   5.349   0.998
 4105SOL    HW113214   4.142   5.258   1.038
 4105SOL    HW213215   4.111   5.417   1.059
 4106SOL     OW13216   0.506   3.065   4.955
 4106SOL    HW113217   0.511   2.991   5.022
 4106SOL    HW213218   0.535   3.150   4.998
 4107SOL     OW13219   1.055   6.447   0.699
 4107SOL    HW113220   1.082   6.419   0.607
 4107SOL    HW213221   1.110   6.398   0.767
 4108SOL     OW13222   0.350   4.791   6.214
 4108SOL    HW113223   0.342   4.887   6.240
 4108SOL    HW213224   0.413   4.745   6.276
 4109SOL     OW13225   4.575   6.355   4.870
 4109SOL    HW113226   4.633   6.434   4.890
 4109SOL    HW213227   4.512   6.340   4.947
 4110SOL     OW13228   4.163   3.489   6.807
 4110SOL    HW113229   4.252   3.448   6.827
 4110SOL    HW213230   4.091   3.421   6.820
 4111SOL     OW13231   3.642   2.702   0.002
 4111SOL    HW113232   3.631   2.643   6.951
 4111SOL    HW213233   3.686   2.650   0.075
 4112SOL     OW13234   5.284   1.691   5.877
 4112SOL    HW113235   5.357   1.665   5.814
 4112SOL    HW213236   5.196   1.682   5.830
 4113SOL     OW13237   3.919   5.906   4.952
 4113SOL    HW113238   3.960   5.835   5.009
 4113SOL    HW213239   3.936   5.996   4.994
 4114SOL     OW13240   3.850   2.190   3.820
 4114SOL    HW113241   3.949   2.189   3.809
 4114SOL    HW213242   3.807   2.215   3.733
 4115SOL     OW13243   4.981   6.095   2.059
 4115SOL    HW113244   4.901   6.154   2.076
 4115SOL    HW213245   5.046   6.104   2.134
 4116SOL     OW13246   4.283   2.420   1.804
 4116SOL    HW113247   4.269   2.327   1.770
 4116SOL    HW213248   4.320   2.416   1.896
 4117SOL     OW13249   0.542   4.873   1.654
 4117SOL    HW113250   0.473   4.849   1.723
 4117SOL    HW213251   0.632   4.845   1.687
 4118SOL     OW13252   1.548   6.159   0.556
 4118SOL    HW113253   1.615   6.135   0.486
 4118SOL    HW213254   1.489   6.233   0.522
 4119SOL     OW13255   4.072   1.534   3.217
 4119SOL    HW113256   4.053   1.615   3.274
 4119SOL    HW213257   4.169   1.531   3.195
 4120SOL     OW13258   4.803   6.638   1.355
 4120SOL    HW113259   4.719   6.605   1.397
 4120SOL    HW213260   4.879   6.579   1.381
 4121SOL     OW13261   6.272   1.363   4.791
 4121SOL    HW113262   6.360   1.349   4.745
 4121SOL    HW213263   6.261   1.295   4.863
 4122SOL     OW13264   1.160   6.588   5.616
 4122SOL    HW113265   1.123   6.630   5.533
 4122SOL    HW213266   1.157   6.488   5.606
 4123SOL     OW13267   4.710   4.707   5.562
 4123SOL    HW113268   4.721   4.614   5.527
 4123SOL    HW213269   4.786   4.764   5.531
 4124SOL     OW13270   5.966   5.810   5.403
 4124SOL    HW113271   6.030   5.854   5.466
 4124SOL    HW213272   5.899   5.758   5.455
 4125SOL     OW13273   4.769   0.580   1.899
 4125SOL    HW113274   4.721   0.652   1.949
 4125SOL    HW213275   4.737   0.579   1.804
 4126SOL     OW13276   1.235   4.474   3.986
 4126SOL    HW113277   1.245   4.569   4.015
 4126SOL    HW213278   1.228   4.415   4.066
 4127SOL     OW13279   5.355   4.190   4.348
 4127SOL    HW113280   5.287   4.118   4.362
 4127SOL    HW213281   5.379   4.232   4.436
 4128SOL     OW13282   1.934   3.596   2.494
 4128SOL    HW113283   1.884   3.678   2.521
 4128SOL    HW213284   2.007   3.577   2.560
 4129SOL     OW13285   5.699   1.737   6.657
 4129SOL    HW113286   5.636   1.705   6.727
 4129SOL    HW213287   5.791   1.744   6.695
 4130SOL     OW13288   0.104   3.784   5.857
 4130SOL    HW113289   0.193   3.776   5.813
 4130SOL    HW213290   0.069   3.693   5.879
 4131SOL     OW13291   0.883   5.948   3.698
 4131SOL    HW113292   0.904   5.851   3.706
 4131SOL    HW213293   0.913   5.981   3.609
 4132SOL     OW13294   5.855   4.086   4.087
 4132SOL    HW113295   5.779   4.027   4.117
 4132SOL    HW213296   5.818   4.163   4.034
 4133SOL     OW13297   2.951   6.592   1.706
 4133SOL    HW113298   3.032   6.543   1.738
 4133SOL    HW213299   2.909   6.542   1.630
 4134SOL     OW13300   1.535   2.425   0.671
 4134SOL    HW113301   1.586   2.339   0.657
 4134SOL    HW213302   1.600   2.499   0.687
 4135SOL     OW13303   2.234   0.961   2.757
 4135SOL    HW113304   2.303   0.914   2.701
 4135SOL    HW213305   2.145   0.955   2.712
 4136SOL     OW13306   0.497   1.810   3.894
 4136SOL    HW113307   0.476   1.720   3.857
 4136SOL    HW213308   0.484   1.879   3.822
 4137SOL     OW13309   2.342   3.875   1.256
 4137SOL    HW113310   2.342   3.941   1.181
 4137SOL    HW213311   2.381   3.788   1.224
 4138SOL     OW13312   3.958   5.382   3.880
 4138SOL    HW113313   3.981   5.478   3.864
 4138SOL    HW213314   3.869   5.376   3.925
 4139SOL     OW13315   2.321   2.045   6.068
 4139SOL    HW113316   2.239   2.027   6.122
 4139SOL    HW213317   2.295   2.067   5.974
 4140SOL     OW13318   3.638   0.389   5.082
 4140SOL    HW113319   3.618   0.322   5.154
 4140SOL    HW213320   3.662   0.476   5.125
 4141SOL     OW13321   5.003   5.623   0.905
 4141SOL    HW113322   4.912   5.594   0.932
 4141SOL    HW213323   5.034   5.568   0.827
 4142SOL     OW13324   6.627   5.636   0.741
 4142SOL    HW113325   6.570   5.711   0.773
 4142SOL    HW213326   6.721   5.668   0.728
 4143SOL     OW13327   6.893   3.584   0.889
 4143SOL    HW113328   6.913   3.600   0.792
 4143SOL    HW213329   6.834   3.657   0.923
 4144SOL     OW13330   5.768   2.289   0.869
 4144SOL    HW113331   5.806   2.252   0.784
 4144SOL    HW213332   5.727   2.379   0.851
 4145SOL     OW13333   7.007   5.998   1.638
 4145SOL    HW113334   0.012   6.025   1.548
 4145SOL    HW213335   0.017   5.909   1.662
 4146SOL     OW13336   5.913   0.626   5.114
 4146SOL    HW113337   5.890   0.640   5.018
 4146SOL    HW213338   5.983   0.692   5.142
 4147SOL     OW13339   3.521   1.854   5.155
 4147SOL    HW113340   3.512   1.754   5.147
 4147SOL    HW213341   3.436   1.892   5.190
 4148SOL     OW13342   0.553   0.143   3.593
 4148SOL    HW113343   0.604   0.228   3.581
 4148SOL    HW213344   0.616   0.068   3.611
 4149SOL     OW13345   0.564   3.805   0.475
 4149SOL    HW113346   0.630   3.749   0.525
 4149SOL    HW213347   0.471   3.775   0.498
 4150SOL     OW13348   6.003   0.695   6.085
 4150SOL    HW113349   6.087   0.735   6.046
 4150SOL    HW213350   5.971   0.752   6.160
 4151SOL     OW13351   5.440   6.351   6.659
 4151SOL    HW113352   5.468   6.260   6.629
 4151SOL    HW213353   5.340   6.358   6.655
 4152SOL     OW13354   2.946   5.347   1.408
 4152SOL    HW113355   2.934   5.429   1.463
 4152SOL    HW213356   2.941   5.266   1.466
 4153SOL     OW13357   5.370   5.489   6.122
 4153SOL    HW113358   5.326   5.424   6.060
 4153SOL    HW213359   5.357   5.458   6.217
 4154SOL     OW13360   6.597   4.032   5.242
 4154SOL    HW113361   6.624   4.071   5.330
 4154SOL    HW213362   6.662   4.060   5.171
 4155SOL     OW13363   0.283   3.187   3.531
 4155SOL    HW113364   0.259   3.098   3.492
 4155SOL    HW213365   0.356   3.177   3.598
 4156SOL     OW13366   5.747   6.992   5.273
 4156SOL    HW113367   5.688   6.984   5.354
 4156SOL    HW213368   5.788   6.903   5.253
 4157SOL     OW13369   3.669   0.081   3.493
 4157SOL    HW113370   3.604   0.080   3.416
 4157SOL    HW213371   3.619   0.100   3.578
 4158SOL     OW13372   1.715   5.264   3.909
 4158SOL    HW113373   1.691   5.205   3.986
 4158SOL    HW213374   1.737   5.356   3.944
 4159SOL     OW13375   1.739   3.249   4.041
 4159SOL    HW113376   1.767   3.319   3.974
 4159SOL    HW213377   1.664   3.284   4.096
 4160SOL     OW13378   6.455   0.377   0.784
 4160SOL    HW113379   6.478   0.423   0.698
 4160SOL    HW213380   6.365   0.409   0.815
 4161SOL     OW13381   1.742   6.828   6.429
 4161SOL    HW113382   1.787   6.911   6.397
 4161SOL    HW213383   1.649   6.850   6.460
 4162SOL     OW13384   6.246   0.477   4.947
 4162SOL    HW113385   6.235   0.383   4.980
 4162SOL    HW213386   6.171   0.499   4.885
 4163SOL     OW13387   6.255   1.533   3.302
 4163SOL    HW113388   6.240   1.456   3.239
 4163SOL    HW213389   6.168   1.557   3.347
 4164SOL     OW13390   1.557   0.226   6.615
 4164SOL    HW113391   1.549   0.130   6.639
 4164SOL    HW213392   1.529   0.240   6.520
 4165SOL     OW13393   4.684   6.985   1.011
 4165SOL    HW113394   4.754   7.023   0.951
 4165SOL    HW213395   4.628   0.030   1.049
 4166SOL     OW13396   5.148   2.426   1.178
 4166SOL    HW113397   5.122   2.501   1.239
 4166SOL    HW213398   5.121   2.449   1.084
 4167SOL     OW13399   2.569   3.293   1.152
 4167SOL    HW113400   2.621   3.209   1.134
 4167SOL    HW213401   2.615   3.371   1.108
 4168SOL     OW13402   0.272   4.861   1.189
 4168SOL    HW113403   0.225   4.928   1.132
 4168SOL    HW213404   0.371   4.874   1.180
 4169SOL     OW13405   5.157   3.981   4.524
 4169SOL    HW113406   5.095   3.904   4.505
 4169SOL    HW213407   5.245   3.946   4.555
 4170SOL     OW13408   3.785   2.967   4.682
 4170SOL    HW113409   3.837   2.960   4.596
 4170SOL    HW213410   3.688   2.955   4.663
 4171SOL     OW13411   5.292   4.241   1.116
 4171SOL    HW113412   5.292   4.215   1.212
 4171SOL    HW213413   5.347   4.323   1.102
 4172SOL     OW13414   0.058   2.517   6.698
 4172SOL    HW113415   0.003   2.596   6.725
 4172SOL    HW213416   0.117   2.543   6.622
 4173SOL     OW13417   5.573   3.247   5.353
 4173SOL    HW113418   5.655   3.302   5.365
 4173SOL    HW213419   5.492   3.303   5.369
 4174SOL     OW13420   5.019   0.664   4.056
 4174SOL    HW113421   5.119   0.658   4.059
 4174SOL    HW213422   4.985   0.698   4.144
 4175SOL     OW13423   3.037   6.638   4.512
 4175SOL    HW113424   3.124   6.616   4.557
 4175SOL    HW213425   3.047   6.721   4.457
 4176SOL     OW13426   3.792   0.334   2.289
 4176SOL    HW113427   3.746   0.421   2.272
 4176SOL    HW213428   3.729   0.270   2.332
 4177SOL     OW13429   0.646   5.175   5.230
 4177SOL    HW113430   0.738   5.147   5.203
 4177SOL    HW213431   0.603   5.101   5.282
 4178SOL     OW13432   3.771   1.085   5.018
 4178SOL    HW113433   3.748   1.180   4.999
 4178SOL    HW213434   3.805   1.076   5.111
 4179SOL     OW13435   5.498   3.495   4.067
 4179SOL    HW113436   5.472   3.464   4.159
 4179SOL    HW213437   5.425   3.554   4.031
 4180SOL     OW13438   5.461   4.653   2.124
 4180SOL    HW113439   5.442   4.584   2.054
 4180SOL    HW213440   5.452   4.744   2.084
 4181SOL     OW13441   1.659   1.974   6.215
 4181SOL    HW113442   1.719   2.016   6.146
 4181SOL    HW213443   1.714   1.946   6.293
 4182SOL     OW13444   6.939   0.628   2.920
 4182SOL    HW113445   6.932   0.564   2.843
 4182SOL    HW213446   6.922   0.721   2.888
 4183SOL     OW13447   2.819   1.419   2.012
 4183SOL    HW113448   2.740   1.475   2.033
 4183SOL    HW213449   2.789   1.329   1.980
 4184SOL     OW13450   3.994   4.795   1.379
 4184SOL    HW113451   4.040   4.823   1.464
 4184SOL    HW213452   3.895   4.805   1.390
 4185SOL     OW13453   0.607   5.567   3.251
 4185SOL    HW113454   0.569   5.627   3.180
 4185SOL    HW213455   0.533   5.535   3.310
 4186SOL     OW13456   1.973   4.469   0.058
 4186SOL    HW113457   1.957   4.543   0.124
 4186SOL    HW213458   2.067   4.473   0.025
 4187SOL     OW13459   3.738   3.583   5.583
 4187SOL    HW113460   3.753   3.634   5.498
 4187SOL    HW213461   3.641   3.565   5.595
 4188SOL     OW13462   4.802   0.947   4.305
 4188SOL    HW113463   4.877   0.882   4.299
 4188SOL    HW213464   4.764   0.946   4.397
 4189SOL     OW13465   2.857   1.988   4.349
 4189SOL    HW113466   2.923   2.063   4.350
 4189SOL    HW213467   2.790   2.004   4.276
 4190SOL     OW13468   3.218   0.154   6.145
 4190SOL    HW113469   3.227   0.132   6.242
 4190SOL    HW213470   3.131   0.203   6.131
 4191SOL     OW13471   5.580   3.301   3.181
 4191SOL    HW113472   5.551   3.211   3.212
 4191SOL    HW213473   5.643   3.292   3.104
 4192SOL     OW13474   6.678   1.873   3.210
 4192SOL    HW113475   6.598   1.911   3.258
 4192SOL    HW213476   6.647   1.824   3.129
 4193SOL     OW13477   2.274   6.529   1.903
 4193SOL    HW113478   2.221   6.571   1.976
 4193SOL    HW213479   2.256   6.577   1.817
 4194SOL     OW13480   6.748   1.888   4.483
 4194SOL    HW113481   6.772   1.939   4.566
 4194SOL    HW213482   6.671   1.828   4.502
 4195SOL     OW13483   4.188   0.702   1.300
 4195SOL    HW113484   4.132   0.620   1.306
 4195SOL    HW213485   4.215   0.717   1.205
 4196SOL     OW13486   5.646   2.914   4.107
 4196SOL    HW113487   5.710   2.838   4.094
 4196SOL    HW213488   5.558   2.890   4.067
 4197SOL     OW13489   5.241   4.405   3.996
 4197SOL    HW113490   5.213   4.493   4.034
 4197SOL    HW213491   5.160   4.349   3.979
 4198SOL     OW13492   6.415   3.748   6.750
 4198SOL    HW113493   6.407   3.794   6.838
 4198SOL    HW213494   6.487   3.679   6.756
 4199SOL     OW13495   3.033   3.221   5.421
 4199SOL    HW113496   2.935   3.231   5.404
 4199SOL    HW213497   3.079   3.194   5.337
 4200SOL     OW13498   2.821   6.673   6.189
 4200SOL    HW113499   2.754   6.626   6.131
 4200SOL    HW213500   2.774   6.736   6.250
 4201SOL     OW13501   6.408   6.500   3.546
 4201SOL    HW113502   6.313   6.525   3.525
 4201SOL    HW213503   6.458   6.582   3.574
 4202SOL     OW13504   5.011   4.532   5.799
 4202SOL    HW113505   4.950   4.479   5.740
 4202SOL    HW213506   4.998   4.503   5.894
 4203SOL     OW13507   4.515   6.074   2.946
 4203SOL    HW113508   4.599   6.024   2.964
 4203SOL    HW213509   4.473   6.041   2.862
 4204SOL     OW13510   3.186   2.972   2.008
 4204SOL    HW113511   3.137   3.026   2.077
 4204SOL    HW213512   3.281   3.002   2.004
 4205SOL     OW13513   3.750   4.972   3.968
 4205SOL    HW113514   3.802   4.989   3.884
 4205SOL    HW213515   3.796   4.900   4.021
 4206SOL     OW13516   4.854   0.843   5.940
 4206SOL    HW113517   4.885   0.880   6.027
 4206SOL    HW213518   4.771   0.788   5.955
 4207SOL     OW13519   1.907   1.365   1.680
 4207SOL    HW113520   1.997   1.379   1.721
 4207SOL    HW213521   1.916   1.350   1.582
 4208SOL     OW13522   1.429   2.386   1.217
 4208SOL    HW113523   1.394   2.478   1.231
 4208SOL    HW213524   1.422   2.361   1.120
 4209SOL     OW13525   1.708   0.876   5.338
 4209SOL    HW113526   1.686   0.840   5.429
 4209SOL    HW213527   1.737   0.971   5.346
 4210SOL     OW13528   3.620   3.391   1.590
 4210SOL    HW113529   3.582   3.303   1.618
 4210SOL    HW213530   3.559   3.434   1.524
 4211SOL     OW13531   4.667   5.094   5.059
 4211SOL    HW113532   4.725   5.173   5.039
 4211SOL    HW213533   4.687   5.061   5.152
 4212SOL     OW13534   6.618   1.658   2.049
 4212SOL    HW113535   6.588   1.692   2.138
 4212SOL    HW213536   6.629   1.735   1.986
 4213SOL     OW13537   2.443   0.829   2.632
 4213SOL    HW113538   2.411   0.740   2.663
 4213SOL    HW213539   2.498   0.819   2.549
 4214SOL     OW13540   0.378   3.826   6.416
 4214SOL    HW113541   0.431   3.832   6.501
 4214SOL    HW213542   0.395   3.907   6.360
 4215SOL     OW13543   0.445   5.759   4.281
 4215SOL    HW113544   0.543   5.765   4.264
 4215SOL    HW213545   0.396   5.818   4.216
 4216SOL     OW13546   1.323   2.216   4.318
 4216SOL    HW113547   1.280   2.128   4.299
 4216SOL    HW213548   1.379   2.244   4.240
 4217SOL     OW13549   0.040   6.872   2.724
 4217SOL    HW113550   0.072   6.815   2.800
 4217SOL    HW213551   0.009   6.813   2.650
 4218SOL     OW13552   5.028   0.253   1.744
 4218SOL    HW113553   5.043   0.196   1.663
 4218SOL    HW213554   4.935   0.238   1.779
 4219SOL     OW13555   3.341   4.755   5.299
 4219SOL    HW113556   3.403   4.678   5.286
 4219SOL    HW213557   3.247   4.724   5.287
 4220SOL     OW13558   6.583   3.789   3.054
 4220SOL    HW113559   6.497   3.739   3.063
 4220SOL    HW213560   6.587   3.862   3.122
 4221SOL     OW13561   5.401   5.995   6.660
 4221SOL    HW113562   5.318   6.025   6.614
 4221SOL    HW213563   5.473   5.975   6.593
 4222SOL     OW13564   5.986   1.841   2.274
 4222SOL    HW113565   6.002   1.846   2.372
 4222SOL    HW213566   6.009   1.749   2.241
 4223SOL     OW13567   3.627   3.166   2.745
 4223SOL    HW113568   3.559   3.216   2.692
 4223SOL    HW213569   3.596   3.071   2.757
 4224SOL     OW13570   4.908   3.045   4.485
 4224SOL    HW113571   4.904   2.990   4.569
 4224SOL    HW213572   4.872   2.992   4.409
 4225SOL     OW13573   5.464   1.124   4.901
 4225SOL    HW113574   5.378   1.175   4.898
 4225SOL    HW213575   5.497   1.110   4.807
 4226SOL     OW13576   1.692   1.335   3.788
 4226SOL    HW113577   1.710   1.430   3.761
 4226SOL    HW213578   1.772   1.279   3.770
 4227SOL     OW13579   3.804   4.634   6.710
 4227SOL    HW113580   3.878   4.582   6.666
 4227SOL    HW213581   3.824   4.732   6.704
 4228SOL     OW13582   5.655   6.647   4.027
 4228SOL    HW113583   5.722   6.580   4.058
 4228SOL    HW213584   5.609   6.612   3.945
 4229SOL     OW13585   3.767   4.712   6.082
 4229SOL    HW113586   3.823   4.671   6.154
 4229SOL    HW213587   3.670   4.692   6.098
 4230SOL     OW13588   2.623   0.134   5.340
 4230SOL    HW113589   2.614   0.138   5.440
 4230SOL    HW213590   2.707   0.181   5.312
 4231SOL     OW13591   4.868   6.198   5.253
 4231SOL    HW113592   4.842   6.178   5.347
 4231SOL    HW213593   4.956   6.245   5.252
 4232SOL     OW13594   1.234   5.706   1.800
 4232SOL    HW113595   1.163   5.649   1.841
 4232SOL    HW213596   1.287   5.652   1.735
 4233SOL     OW13597   6.541   0.832   6.827
 4233SOL    HW113598   6.633   0.827   6.789
 4233SOL    HW213599   6.516   0.745   6.869
 4234SOL     OW13600   2.477   4.906   6.062
 4234SOL    HW113601   2.506   4.815   6.034
 4234SOL    HW213602   2.408   4.941   5.998
 4235SOL     OW13603   6.441   4.534   5.586
 4235SOL    HW113604   6.430   4.465   5.658
 4235SOL    HW213605   6.487   4.615   5.624
 4236SOL     OW13606   0.090   2.362   3.872
 4236SOL    HW113607   0.169   2.409   3.911
 4236SOL    HW213608   0.035   2.426   3.818
 4237SOL     OW13609   6.001   4.150   4.666
 4237SOL    HW113610   5.906   4.134   4.642
 4237SOL    HW213611   6.059   4.079   4.627
 4238SOL     OW13612   4.208   5.048   3.455
 4238SOL    HW113613   4.254   5.090   3.534
 4238SOL    HW213614   4.252   5.079   3.371
 4239SOL     OW13615   4.541   0.059   4.789
 4239SOL    HW113616   4.586   0.080   4.876
 4239SOL    HW213617   4.447   0.029   4.805
 4240SOL     OW13618   2.841   5.494   6.788
 4240SOL    HW113619   2.862   5.482   6.885
 4240SOL    HW213620   2.777   5.423   6.759
 4241SOL     OW13621   4.970   0.272   1.183
 4241SOL    HW113622   4.906   0.217   1.237
 4241SOL    HW213623   5.010   0.343   1.241
 4242SOL     OW13624   2.213   6.542   2.671
 4242SOL    HW113625   2.191   6.453   2.710
 4242SOL    HW213626   2.303   6.539   2.628
 4243SOL     OW13627   0.573   3.648   2.314
 4243SOL    HW113628   0.552   3.744   2.329
 4243SOL    HW213629   0.656   3.623   2.363
 4244SOL     OW13630   4.973   6.478   1.015
 4244SOL    HW113631   5.058   6.462   0.965
 4244SOL    HW213632   4.954   6.399   1.074
 4245SOL     OW13633   6.375   3.135   0.158
 4245SOL    HW113634   6.385   3.194   0.239
 4245SOL    HW213635   6.282   3.142   0.124
 4246SOL     OW13636   5.485   2.497   3.121
 4246SOL    HW113637   5.450   2.412   3.159
 4246SOL    HW213638   5.580   2.511   3.151
 4247SOL     OW13639   2.308   5.286   4.663
 4247SOL    HW113640   2.401   5.297   4.629
 4247SOL    HW213641   2.310   5.277   4.763
 4248SOL     OW13642   1.692   0.578   2.911
 4248SOL    HW113643   1.719   0.662   2.958
 4248SOL    HW213644   1.723   0.499   2.964
 4249SOL     OW13645   0.146   1.617   4.464
 4249SOL    HW113646   0.237   1.602   4.424
 4249SOL    HW213647   0.078   1.619   4.390
 4250SOL     OW13648   0.671   5.643   3.905
 4250SOL    HW113649   0.676   5.587   3.988
 4250SOL    HW213650   0.637   5.587   3.829
 4251SOL     OW13651   5.782   2.841   6.965
 4251SOL    HW113652   5.791   2.905   0.013
 4251SOL    HW213653   5.721   2.880   6.896
 4252SOL     OW13654   6.107   6.226   5.323
 4252SOL    HW113655   6.037   6.262   5.262
 4252SOL    HW213656   6.153   6.301   5.370
 4253SOL     OW13657   3.838   5.875   2.218
 4253SOL    HW113658   3.839   5.845   2.122
 4253SOL    HW213659   3.852   5.974   2.222
 4254SOL     OW13660   2.383   3.318   0.329
 4254SOL    HW113661   2.393   3.250   0.402
 4254SOL    HW213662   2.398   3.410   0.366
 4255SOL     OW13663   0.839   4.583   3.236
 4255SOL    HW113664   0.907   4.578   3.164
 4255SOL    HW213665   0.787   4.668   3.227
 4256SOL     OW13666   0.641   4.566   1.766
 4256SOL    HW113667   0.663   4.496   1.834
 4256SOL    HW213668   0.544   4.560   1.742
 4257SOL     OW13669   6.104   1.778   5.260
 4257SOL    HW113670   6.030   1.836   5.292
 4257SOL    HW213671   6.067   1.695   5.219
 4258SOL     OW13672   3.096   5.565   0.881
 4258SOL    HW113673   3.055   5.475   0.897
 4258SOL    HW213674   3.172   5.555   0.816
 4259SOL     OW13675   1.594   6.757   1.332
 4259SOL    HW113676   1.666   6.702   1.373
 4259SOL    HW213677   1.536   6.699   1.274
 4260SOL     OW13678   4.711   6.605   4.596
 4260SOL    HW113679   4.688   6.635   4.689
 4260SOL    HW213680   4.706   6.683   4.534
 4261SOL     OW13681   2.366   0.209   4.890
 4261SOL    HW113682   2.293   0.153   4.851
 4261SOL    HW213683   2.400   0.272   4.820
 4262SOL     OW13684   1.187   4.838   6.372
 4262SOL    HW113685   1.190   4.849   6.273
 4262SOL    HW213686   1.176   4.741   6.394
 4263SOL     OW13687   2.837   2.248   3.338
 4263SOL    HW113688   2.749   2.229   3.381
 4263SOL    HW213689   2.839   2.210   3.246
 4264SOL     OW13690   5.395   1.269   4.405
 4264SOL    HW113691   5.487   1.301   4.383
 4264SOL    HW213692   5.373   1.294   4.499
 4265SOL     OW13693   2.761   0.117   1.114
 4265SOL    HW113694   2.720   0.179   1.047
 4265SOL    HW213695   2.784   0.030   1.069
 4266SOL     OW13696   1.199   6.980   0.434
 4266SOL    HW113697   1.224   0.034   0.483
 4266SOL    HW213698   1.143   7.004   0.354
 4267SOL     OW13699   2.200   3.946   3.752
 4267SOL    HW113700   2.251   4.030   3.739
 4267SOL    HW213701   2.143   3.953   3.833
 4268SOL     OW13702   1.294   4.939   6.600
 4268SOL    HW113703   1.294   4.919   6.501
 4268SOL    HW213704   1.214   4.896   6.642
 4269SOL     OW13705   3.011   1.777   4.243
 4269SOL    HW113706   2.963   1.850   4.291
 4269SOL    HW213707   3.070   1.817   4.173
 4270SOL     OW13708   3.526   3.188   1.226
 4270SOL    HW113709   3.486   3.147   1.144
 4270SOL    HW213710   3.464   3.175   1.303
 4271SOL     OW13711   6.562   0.429   1.128
 4271SOL    HW113712   6.567   0.528   1.142
 4271SOL    HW213713   6.508   0.410   1.046
 4272SOL     OW13714   7.018   3.112   5.475
 4272SOL    HW113715   0.041   3.170   5.411
 4272SOL    HW213716   0.033   3.116   5.565
 4273SOL     OW13717   4.565   6.238   4.554
 4273SOL    HW113718   4.489   6.295   4.524
 4273SOL    HW213719   4.599   6.269   4.643
 4274SOL     OW13720   6.900   6.343   1.598
 4274SOL    HW113721   6.872   6.394   1.679
 4274SOL    HW213722   6.859   6.252   1.601
 4275SOL     OW13723   0.816   2.411   3.709
 4275SOL    HW113724   0.898   2.360   3.736
 4275SOL    HW213725   0.765   2.437   3.792
 4276SOL     OW13726   2.780   5.409   4.172
 4276SOL    HW113727   2.783   5.490   4.231
 4276SOL    HW213728   2.719   5.427   4.094
 4277SOL     OW13729   6.640   5.434   3.946
 4277SOL    HW113730   6.644   5.350   4.000
 4277SOL    HW213731   6.713   5.496   3.975
 4278SOL     OW13732   0.091   6.420   2.740
 4278SOL    HW113733   0.132   6.498   2.693
 4278SOL    HW213734   7.022   6.435   2.750
 4279SOL     OW13735   1.280   1.710   2.403
 4279SOL    HW113736   1.237   1.783   2.456
 4279SOL    HW213737   1.220   1.683   2.328
 4280SOL     OW13738   6.623   6.747   6.374
 4280SOL    HW113739   6.632   6.703   6.285
 4280SOL    HW213740   6.611   6.845   6.361
 4281SOL     OW13741   4.443   5.633   3.872
 4281SOL    HW113742   4.512   5.606   3.939
 4281SOL    HW213743   4.441   5.732   3.864
 4282SOL     OW13744   2.893   4.086   1.213
 4282SOL    HW113745   2.956   4.088   1.291
 4282SOL    HW213746   2.940   4.047   1.134
 4283SOL     OW13747   4.846   0.843   3.242
 4283SOL    HW113748   4.827   0.916   3.308
 4283SOL    HW213749   4.769   0.835   3.178
 4284SOL     OW13750   5.094   5.403   0.043
 4284SOL    HW113751   5.079   5.316   7.025
 4284SOL    HW213752   5.008   5.453   0.051
 4285SOL     OW13753   3.387   0.658   6.307
 4285SOL    HW113754   3.355   0.725   6.240
 4285SOL    HW213755   3.423   0.578   6.259
 4286SOL     OW13756   6.397   1.267   7.003
 4286SOL    HW113757   6.448   1.342   0.015
 4286SOL    HW213758   6.321   1.303   6.948
 4287SOL     OW13759   4.298   0.964   0.084
 4287SOL    HW113760   4.229   1.034   0.102
 4287SOL    HW213761   4.388   1.007   0.079
 4288SOL     OW13762   6.310   6.131   1.664
 4288SOL    HW113763   6.334   6.161   1.756
 4288SOL    HW213764   6.225   6.077   1.669
 4289SOL     OW13765   0.769   2.846   5.515
 4289SOL    HW113766   0.827   2.801   5.447
 4289SOL    HW213767   0.747   2.781   5.588
 4290SOL     OW13768   0.159   0.649   2.778
 4290SOL    HW113769   0.144   0.747   2.793
 4290SOL    HW213770   0.090   0.596   2.827
 4291SOL     OW13771   5.026   3.213   5.781
 4291SOL    HW113772   4.930   3.234   5.797
 4291SOL    HW213773   5.034   3.122   5.740
 4292SOL     OW13774   5.161   1.976   0.542
 4292SOL    HW113775   5.084   2.023   0.501
 4292SOL    HW213776   5.141   1.955   0.638
 4293SOL     OW13777   5.139   3.869   6.671
 4293SOL    HW113778   5.207   3.799   6.648
 4293SOL    HW213779   5.058   3.826   6.710
 4294SOL     OW13780   3.199   2.113   6.235
 4294SOL    HW113781   3.279   2.061   6.265
 4294SOL    HW213782   3.222   2.210   6.231
 4295SOL     OW13783   4.502   6.546   1.858
 4295SOL    HW113784   4.533   6.577   1.768
 4295SOL    HW213785   4.511   6.621   1.923
 4296SOL     OW13786   2.921   6.592   1.298
 4296SOL    HW113787   2.955   6.579   1.204
 4296SOL    HW213788   2.842   6.533   1.313
 4297SOL     OW13789   6.480   5.223   1.028
 4297SOL    HW113790   6.526   5.156   1.086
 4297SOL    HW213791   6.412   5.177   0.971
 4298SOL     OW13792   3.339   6.214   1.399
 4298SOL    HW113793   3.275   6.272   1.448
 4298SOL    HW213794   3.322   6.222   1.300
 4299SOL     OW13795   0.627   2.605   0.143
 4299SOL    HW113796   0.683   2.674   0.188
 4299SOL    HW213797   0.645   2.606   0.045
 4300SOL     OW13798   3.937   0.758   0.875
 4300SOL    HW113799   3.853   0.796   0.912
 4300SOL    HW213800   3.916   0.696   0.800
 4301SOL     OW13801   3.165   6.070   1.887
 4301SOL    HW113802   3.220   6.133   1.942
 4301SOL    HW213803   3.111   6.012   1.948
 4302SOL     OW13804   1.366   6.500   6.553
 4302SOL    HW113805   1.463   6.482   6.539
 4302SOL    HW213806   1.312   6.424   6.518
 4303SOL     OW13807   6.553   4.534   4.115
 4303SOL    HW113808   6.602   4.535   4.202
 4303SOL    HW213809   6.480   4.466   4.118
 4304SOL     OW13810   3.156   3.768   1.559
 4304SOL    HW113811   3.256   3.762   1.567
 4304SOL    HW213812   3.131   3.783   1.464
 4305SOL     OW13813   0.082   0.378   5.789
 4305SOL    HW113814   0.044   0.402   5.879
 4305SOL    HW213815   0.019   0.411   5.718
 4306SOL     OW13816   4.892   3.888   4.731
 4306SOL    HW113817   4.901   3.792   4.758
 4306SOL    HW213818   4.830   3.934   4.795
 4307SOL     OW13819   6.412   2.761   5.275
 4307SOL    HW113820   6.456   2.807   5.351
 4307SOL    HW213821   6.342   2.820   5.236
 4308SOL     OW13822   5.422   4.793   1.688
 4308SOL    HW113823   5.344   4.739   1.656
 4308SOL    HW213824   5.505   4.737   1.687
 4309SOL     OW13825   0.882   3.352   0.558
 4309SOL    HW113826   0.935   3.377   0.640
 4309SOL    HW213827   0.785   3.364   0.577
 4310SOL     OW13828   0.258   1.799   2.438
 4310SOL    HW113829   0.283   1.861   2.512
 4310SOL    HW213830   0.296   1.833   2.352
 4311SOL     OW13831   0.922   6.176   2.179
 4311SOL    HW113832   0.944   6.080   2.160
 4311SOL    HW213833   0.827   6.183   2.211
 4312SOL     OW13834   0.902   5.013   1.936
 4312SOL    HW113835   0.802   5.018   1.930
 4312SOL    HW213836   0.941   5.013   1.844
 4313SOL     OW13837   5.527   1.741   0.392
 4313SOL    HW113838   5.548   1.675   0.464
 4313SOL    HW213839   5.607   1.754   0.334
 4314SOL     OW13840   6.466   2.741   5.587
 4314SOL    HW113841   6.387   2.800   5.607
 4314SOL    HW213842   6.550   2.788   5.615
 4315SOL     OW13843   2.359   1.364   3.787
 4315SOL    HW113844   2.395   1.448   3.829
 4315SOL    HW213845   2.305   1.388   3.707
 4316SOL     OW13846   5.451   0.543   2.219
 4316SOL    HW113847   5.464   0.642   2.211
 4316SOL    HW213848   5.527   0.504   2.271
 4317SOL     OW13849   4.507   0.912   5.649
 4317SOL    HW113850   4.510   0.959   5.737
 4317SOL    HW213851   4.413   0.909   5.615
 4318SOL     OW13852   0.600   0.789   3.766
 4318SOL    HW113853   0.651   0.866   3.804
 4318SOL    HW213854   0.551   0.742   3.839
 4319SOL     OW13855   1.540   3.074   1.961
 4319SOL    HW113856   1.562   3.002   2.027
 4319SOL    HW213857   1.564   3.163   1.999
 4320SOL     OW13858   3.497   6.273   0.840
 4320SOL    HW113859   3.406   6.295   0.876
 4320SOL    HW213860   3.494   6.276   0.740
 4321SOL     OW13861   6.686   5.820   2.386
 4321SOL    HW113862   6.656   5.736   2.432
 4321SOL    HW213863   6.613   5.888   2.388
 4322SOL     OW13864   0.617   2.165   5.364
 4322SOL    HW113865   0.655   2.224   5.292
 4322SOL    HW213866   0.523   2.141   5.341
 4323SOL     OW13867   3.813   5.487   0.036
 4323SOL    HW113868   3.873   5.412   0.008
 4323SOL    HW213869   3.836   5.569   7.012
 4324SOL     OW13870   0.112   3.893   5.583
 4324SOL    HW113871   0.064   3.861   5.664
 4324SOL    HW213872   0.203   3.925   5.609
 4325SOL     OW13873   3.000   0.541   3.262
 4325SOL    HW113874   2.962   0.465   3.314
 4325SOL    HW213875   2.951   0.551   3.175
 4326SOL     OW13876   5.349   2.453   2.408
 4326SOL    HW113877   5.257   2.439   2.445
 4326SOL    HW213878   5.410   2.381   2.441
 4327SOL     OW13879   3.483   5.458   4.255
 4327SOL    HW113880   3.474   5.556   4.237
 4327SOL    HW213881   3.574   5.440   4.294
 4328SOL     OW13882   6.202   5.461   5.531
 4328SOL    HW113883   6.183   5.406   5.449
 4328SOL    HW213884   6.191   5.403   5.613
 4329SOL     OW13885   5.663   3.054   5.646
 4329SOL    HW113886   5.566   3.070   5.628
 4329SOL    HW213887   5.693   2.972   5.597
 4330SOL     OW13888   2.556   5.797   5.286
 4330SOL    HW113889   2.507   5.758   5.208
 4330SOL    HW213890   2.510   5.770   5.371
 4331SOL     OW13891   6.305   0.550   1.550
 4331SOL    HW113892   6.249   0.469   1.534
 4331SOL    HW213893   6.301   0.610   1.470
 4332SOL     OW13894   6.527   4.089   2.792
 4332SOL    HW113895   6.446   4.040   2.761
 4332SOL    HW213896   6.597   4.085   2.721
 4333SOL     OW13897   4.281   2.006   4.824
 4333SOL    HW113898   4.229   2.088   4.847
 4333SOL    HW213899   4.374   2.031   4.797
 4334SOL     OW13900   1.147   2.526   2.986
 4334SOL    HW113901   1.183   2.586   2.914
 4334SOL    HW213902   1.055   2.556   3.011
 4335SOL     OW13903   3.422   3.044   1.002
 4335SOL    HW113904   3.433   3.095   0.917
 4335SOL    HW213905   3.503   2.987   1.018
 4336SOL     OW13906   1.832   5.570   6.372
 4336SOL    HW113907   1.803   5.577   6.276
 4336SOL    HW213908   1.882   5.652   6.397
 4337SOL     OW13909   1.038   5.923   2.155
 4337SOL    HW113910   0.997   5.878   2.076
 4337SOL    HW213911   1.137   5.911   2.154
 4338SOL     OW13912   6.098   0.465   5.517
 4338SOL    HW113913   6.053   0.430   5.434
 4338SOL    HW213914   6.050   0.429   5.597
 4339SOL     OW13915   4.007   2.643   6.359
 4339SOL    HW113916   4.090   2.687   6.393
 4339SOL    HW213917   3.993   2.666   6.263
 4340SOL     OW13918   6.461   4.205   0.718
 4340SOL    HW113919   6.528   4.277   0.733
 4340SOL    HW213920   6.496   4.142   0.649
 4341SOL     OW13921   1.049   6.010   1.768
 4341SOL    HW113922   1.148   5.993   1.772
 4341SOL    HW213923   1.007   5.944   1.706
 4342SOL     OW13924   5.161   3.764   2.610
 4342SOL    HW113925   5.098   3.707   2.557
 4342SOL    HW213926   5.197   3.711   2.687
 4343SOL     OW13927   4.714   0.508   5.405
 4343SOL    HW113928   4.622   0.499   5.365
 4343SOL    HW213929   4.712   0.579   5.475
 4344SOL     OW13930   0.474   3.113   4.159
 4344SOL    HW113931   0.377   3.107   4.180
 4344SOL    HW213932   0.525   3.048   4.215
 4345SOL     OW13933   2.909   3.501   2.383
 4345SOL    HW113934   2.816   3.488   2.348
 4345SOL    HW213935   2.956   3.569   2.327
 4346SOL     OW13936   2.450   2.549   2.732
 4346SOL    HW113937   2.447   2.534   2.634
 4346SOL    HW213938   2.508   2.480   2.775
 4347SOL     OW13939   5.938   5.259   1.486
 4347SOL    HW113940   5.910   5.273   1.581
 4347SOL    HW213941   5.971   5.165   1.474
 4348SOL     OW13942   6.960   6.246   3.581
 4348SOL    HW113943   0.019   6.286   3.609
 4348SOL    HW213944   6.916   6.204   3.660
 4349SOL     OW13945   0.181   3.915   3.640
 4349SOL    HW113946   0.200   3.834   3.584
 4349SOL    HW213947   0.189   3.997   3.583
 4350SOL     OW13948   5.622   1.483   4.892
 4350SOL    HW113949   5.590   1.567   4.936
 4350SOL    HW213950   5.597   1.404   4.949
 4351SOL     OW13951   1.177   0.047   1.121
 4351SOL    HW113952   1.224   0.076   1.205
 4351SOL    HW213953   1.079   0.062   1.131
 4352SOL     OW13954   4.601   4.268   1.157
 4352SOL    HW113955   4.533   4.204   1.123
 4352SOL    HW213956   4.620   4.249   1.254
 4353SOL     OW13957   3.014   3.652   6.653
 4353SOL    HW113958   3.110   3.628   6.642
 4353SOL    HW213959   2.996   3.740   6.609
 4354SOL     OW13960   6.715   0.110   3.909
 4354SOL    HW113961   6.781   0.182   3.887
 4354SOL    HW213962   6.725   0.085   4.005
 4355SOL     OW13963   1.100   0.294   3.945
 4355SOL    HW113964   1.087   0.246   4.032
 4355SOL    HW213965   1.191   0.335   3.943
 4356SOL     OW13966   5.061   2.892   5.886
 4356SOL    HW113967   4.998   2.905   5.810
 4356SOL    HW213968   5.152   2.923   5.859
 4357SOL     OW13969   6.350   0.920   2.124
 4357SOL    HW113970   6.293   0.985   2.173
 4357SOL    HW213971   6.441   0.960   2.109
 4358SOL     OW13972   0.617   1.087   0.208
 4358SOL    HW113973   0.634   1.039   0.294
 4358SOL    HW213974   0.620   1.021   0.132
 4359SOL     OW13975   2.440   0.908   6.799
 4359SOL    HW113976   2.347   0.876   6.816
 4359SOL    HW213977   2.453   0.997   6.842
 4360SOL     OW13978   1.336   2.580   3.225
 4360SOL    HW113979   1.296   2.664   3.261
 4360SOL    HW213980   1.269   2.535   3.165
 4361SOL     OW13981   1.128   1.978   1.231
 4361SOL    HW113982   1.172   1.908   1.288
 4361SOL    HW213983   1.046   1.940   1.189
 4362SOL     OW13984   0.775   6.282   3.924
 4362SOL    HW113985   0.791   6.184   3.934
 4362SOL    HW213986   0.766   6.323   4.015
 4363SOL     OW13987   4.344   0.865   2.946
 4363SOL    HW113988   4.360   0.947   2.891
 4363SOL    HW213989   4.347   0.784   2.887
 4364SOL     OW13990   3.034   3.940   2.591
 4364SOL    HW113991   3.100   3.988   2.649
 4364SOL    HW213992   3.002   4.001   2.519
 4365SOL     OW13993   2.773   2.197   1.831
 4365SOL    HW113994   2.810   2.239   1.914
 4365SOL    HW213995   2.839   2.204   1.757
 4366SOL     OW13996   4.891   5.712   5.281
 4366SOL    HW113997   4.859   5.636   5.224
 4366SOL    HW213998   4.899   5.795   5.226
 4367SOL     OW13999   3.091   5.266   4.037
 4367SOL    HW114000   3.058   5.326   3.965
 4367SOL    HW214001   3.191   5.271   4.042
 4368SOL     OW14002   5.178   5.640   2.685
 4368SOL    HW114003   5.238   5.568   2.652
 4368SOL    HW214004   5.087   5.629   2.645
 4369SOL     OW14005   4.862   5.306   2.803
 4369SOL    HW114006   4.933   5.337   2.740
 4369SOL    HW214007   4.896   5.227   2.854
 4370SOL     OW14008   3.706   4.766   1.460
 4370SOL    HW114009   3.709   4.673   1.497
 4370SOL    HW214010   3.636   4.818   1.507
 4371SOL     OW14011   2.282   0.576   1.679
 4371SOL    HW114012   2.201   0.575   1.620
 4371SOL    HW214013   2.357   0.530   1.632
 4372SOL     OW14014   1.714   2.340   4.744
 4372SOL    HW114015   1.664   2.286   4.676
 4372SOL    HW214016   1.692   2.306   4.835
 4373SOL     OW14017   4.503   0.926   5.979
 4373SOL    HW114018   4.495   0.966   6.071
 4373SOL    HW214019   4.556   0.842   5.983
 4374SOL     OW14020   2.681   2.007   1.298
 4374SOL    HW114021   2.721   1.928   1.346
 4374SOL    HW214022   2.682   2.086   1.359
 4375SOL     OW14023   3.479   0.382   3.299
 4375SOL    HW114024   3.398   0.414   3.250
 4375SOL    HW214025   3.491   0.284   3.284
 4376SOL     OW14026   6.461   6.343   1.303
 4376SOL    HW114027   6.441   6.310   1.210
 4376SOL    HW214028   6.482   6.440   1.300
 4377SOL     OW14029   5.800   6.371   6.908
 4377SOL    HW114030   5.775   6.320   6.991
 4377SOL    HW214031   5.899   6.370   6.897
 4378SOL     OW14032   2.026   5.807   2.511
 4378SOL    HW114033   2.028   5.862   2.428
 4378SOL    HW214034   2.074   5.855   2.584
 4379SOL     OW14035   1.142   0.735   1.911
 4379SOL    HW114036   1.068   0.698   1.855
 4379SOL    HW214037   1.218   0.762   1.852
 4380SOL     OW14038   2.093   6.052   5.353
 4380SOL    HW114039   2.135   5.963   5.371
 4380SOL    HW214040   2.033   6.045   5.273
 4381SOL     OW14041   4.331   6.145   4.338
 4381SOL    HW114042   4.382   6.095   4.408
 4381SOL    HW214043   4.286   6.080   4.277
 4382SOL     OW14044   4.833   4.064   4.529
 4382SOL    HW114045   4.845   3.991   4.596
 4382SOL    HW214046   4.910   4.127   4.533
 4383SOL     OW14047   1.651   1.967   5.854
 4383SOL    HW114048   1.600   1.898   5.906
 4383SOL    HW214049   1.718   2.011   5.914
 4384SOL     OW14050   3.888   6.662   1.086
 4384SOL    HW114051   3.978   6.624   1.064
 4384SOL    HW214052   3.881   6.678   1.184
 4385SOL     OW14053   0.162   1.753   3.725
 4385SOL    HW114054   0.082   1.737   3.666
 4385SOL    HW214055   0.240   1.702   3.690
 4386SOL     OW14056   0.676   3.800   6.872
 4386SOL    HW114057   0.754   3.858   6.894
 4386SOL    HW214058   0.706   3.705   6.865
 4387SOL     OW14059   6.438   3.256   1.498
 4387SOL    HW114060   6.475   3.258   1.405
 4387SOL    HW214061   6.361   3.192   1.502
 4388SOL     OW14062   3.909   0.271   6.255
 4388SOL    HW114063   3.848   0.338   6.298
 4388SOL    HW214064   3.866   0.181   6.258
 4389SOL     OW14065   5.834   2.846   1.475
 4389SOL    HW114066   5.744   2.804   1.481
 4389SOL    HW214067   5.880   2.816   1.391
 4390SOL     OW14068   5.024   2.132   1.638
 4390SOL    HW114069   5.066   2.092   1.719
 4390SOL    HW214070   5.054   2.226   1.628
 4391SOL     OW14071   1.073   5.759   0.055
 4391SOL    HW114072   1.114   5.824   0.119
 4391SOL    HW214073   1.087   5.793   6.990
 4392SOL     OW14074   5.081   3.217   4.628
 4392SOL    HW114075   5.116   3.160   4.702
 4392SOL    HW214076   5.013   3.165   4.575
 4393SOL     OW14077   5.196   0.146   3.197
 4393SOL    HW114078   5.152   0.195   3.121
 4393SOL    HW214079   5.126   0.115   3.261
 4394SOL     OW14080   6.200   6.173   2.896
 4394SOL    HW114081   6.202   6.244   2.826
 4394SOL    HW214082   6.158   6.090   2.858
 4395SOL     OW14083   4.441   1.847   2.105
 4395SOL    HW114084   4.520   1.908   2.111
 4395SOL    HW214085   4.357   1.900   2.108
 4396SOL     OW14086   1.173   1.429   4.277
 4396SOL    HW114087   1.162   1.378   4.362
 4396SOL    HW214088   1.115   1.510   4.280
 4397SOL     OW14089   0.111   1.347   4.541
 4397SOL    HW114090   0.096   1.446   4.530
 4397SOL    HW214091   0.149   1.310   4.456
 4398SOL     OW14092   0.905   3.797   4.387
 4398SOL    HW114093   0.876   3.857   4.312
 4398SOL    HW214094   0.977   3.843   4.439
 4399SOL     OW14095   2.295   0.705   0.369
 4399SOL    HW114096   2.352   0.718   0.288
 4399SOL    HW214097   2.353   0.681   0.447
 4400SOL     OW14098   2.515   6.747   4.291
 4400SOL    HW114099   2.524   6.760   4.192
 4400SOL    HW214100   2.488   6.652   4.309
 4401SOL     OW14101   5.584   5.987   4.888
 4401SOL    HW114102   5.568   5.977   4.789
 4401SOL    HW214103   5.678   5.961   4.909
 4402SOL     OW14104   0.870   5.674   2.723
 4402SOL    HW114105   0.891   5.617   2.802
 4402SOL    HW214106   0.913   5.764   2.733
 4403SOL     OW14107   6.702   0.113   3.301
 4403SOL    HW114108   6.772   0.042   3.288
 4403SOL    HW214109   6.747   0.202   3.315
 4404SOL     OW14110   1.081   4.498   3.679
 4404SOL    HW114111   1.070   4.560   3.601
 4404SOL    HW214112   1.177   4.476   3.691
 4405SOL     OW14113   3.091   4.595   6.104
 4405SOL    HW114114   3.009   4.541   6.119
 4405SOL    HW214115   3.122   4.635   6.190
 4406SOL     OW14116   4.862   4.807   1.659
 4406SOL    HW114117   4.913   4.742   1.604
 4406SOL    HW214118   4.825   4.760   1.740
 4407SOL     OW14119   6.999   6.149   0.431
 4407SOL    HW114120   6.951   6.190   0.353
 4407SOL    HW214121   0.052   6.202   0.452
 4408SOL     OW14122   4.559   0.580   0.552
 4408SOL    HW114123   4.539   0.655   0.615
 4408SOL    HW214124   4.616   0.512   0.598
 4409SOL     OW14125   4.210   1.870   1.832
 4409SOL    HW114126   4.204   1.810   1.752
 4409SOL    HW214127   4.196   1.815   1.915
 4410SOL     OW14128   2.502   4.852   0.496
 4410SOL    HW114129   2.587   4.903   0.480
 4410SOL    HW214130   2.521   4.773   0.554
 4411SOL     OW14131   3.600   3.376   2.951
 4411SOL    HW114132   3.596   3.321   3.035
 4411SOL    HW214133   3.612   3.316   2.872
 4412SOL     OW14134   3.878   1.383   5.830
 4412SOL    HW114135   3.887   1.447   5.753
 4412SOL    HW214136   3.969   1.352   5.858
 4413SOL     OW14137   3.983   5.648   3.858
 4413SOL    HW114138   3.913   5.663   3.928
 4413SOL    HW214139   4.055   5.716   3.869
 4414SOL     OW14140   4.107   4.778   2.223
 4414SOL    HW114141   4.163   4.702   2.191
 4414SOL    HW214142   4.165   4.857   2.242
 4415SOL     OW14143   5.646   4.086   5.826
 4415SOL    HW114144   5.653   4.147   5.905
 4415SOL    HW214145   5.707   4.117   5.754
 4416SOL     OW14146   2.768   1.518   4.629
 4416SOL    HW114147   2.692   1.509   4.693
 4416SOL    HW214148   2.791   1.615   4.618
 4417SOL     OW14149   0.290   4.863   1.790
 4417SOL    HW114150   0.282   4.894   1.885
 4417SOL    HW214151   0.199   4.855   1.749
 4418SOL     OW14152   4.355   6.594   3.686
 4418SOL    HW114153   4.286   6.664   3.669
 4418SOL    HW214154   4.325   6.535   3.761
 4419SOL     OW14155   6.258   5.309   0.737
 4419SOL    HW114156   6.326   5.379   0.717
 4419SOL    HW214157   6.169   5.353   0.753
 4420SOL     OW14158   4.574   0.743   0.993
 4420SOL    HW114159   4.639   0.746   0.917
 4420SOL    HW214160   4.611   0.797   1.069
 4421SOL     OW14161   1.836   1.488   2.423
 4421SOL    HW114162   1.908   1.536   2.372
 4421SOL    HW214163   1.874   1.451   2.507
 4422SOL     OW14164   3.011   3.493   5.931
 4422SOL    HW114165   3.005   3.457   5.837
 4422SOL    HW214166   3.096   3.462   5.972
 4423SOL     OW14167   1.129   1.985   6.311
 4423SOL    HW114168   1.114   1.903   6.366
 4423SOL    HW214169   1.224   1.988   6.281
 4424SOL     OW14170   5.389   6.343   3.300
 4424SOL    HW114171   5.354   6.419   3.355
 4424SOL    HW214172   5.483   6.362   3.273
 4425SOL     OW14173   3.639   5.591   5.461
 4425SOL    HW114174   3.645   5.520   5.532
 4425SOL    HW214175   3.589   5.555   5.382
 4426SOL     OW14176   6.978   0.946   5.107
 4426SOL    HW114177   0.035   0.981   5.143
 4426SOL    HW214178   6.994   0.895   5.023
 4427SOL     OW14179   0.268   0.764   3.102
 4427SOL    HW114180   0.261   0.700   3.026
 4427SOL    HW214181   0.333   0.836   3.079
 4428SOL     OW14182   2.774   4.713   4.316
 4428SOL    HW114183   2.844   4.784   4.317
 4428SOL    HW214184   2.779   4.661   4.401
 4429SOL     OW14185   2.959   6.895   3.217
 4429SOL    HW114186   2.936   6.831   3.143
 4429SOL    HW214187   2.895   6.972   3.215
 4430SOL     OW14188   3.973   2.120   2.790
 4430SOL    HW114189   4.065   2.158   2.798
 4430SOL    HW214190   3.962   2.076   2.701
 4431SOL     OW14191   2.974   1.948   3.586
 4431SOL    HW114192   3.035   1.908   3.655
 4431SOL    HW214193   3.027   2.011   3.528
 4432SOL     OW14194   3.570   2.921   3.051
 4432SOL    HW114195   3.655   2.918   3.104
 4432SOL    HW214196   3.591   2.921   2.954
 4433SOL     OW14197   5.776   7.009   3.191
 4433SOL    HW114198   5.758   6.969   3.280
 4433SOL    HW214199   5.873   6.999   3.169
 4434SOL     OW14200   5.272   1.771   4.094
 4434SOL    HW114201   5.294   1.815   4.007
 4434SOL    HW214202   5.238   1.839   4.159
 4435SOL     OW14203   3.605   3.050   1.454
 4435SOL    HW114204   3.629   3.119   1.385
 4435SOL    HW214205   3.664   2.970   1.442
 4436SOL     OW14206   3.099   2.356   0.648
 4436SOL    HW114207   3.132   2.262   0.650
 4436SOL    HW214208   3.100   2.394   0.740
 4437SOL     OW14209   4.161   0.725   4.405
 4437SOL    HW114210   4.110   0.663   4.345
 4437SOL    HW214211   4.255   0.735   4.371
 4438SOL     OW14212   4.104   2.326   0.300
 4438SOL    HW114213   4.127   2.286   0.389
 4438SOL    HW214214   4.163   2.404   0.283
 4439SOL     OW14215   0.711   5.357   1.574
 4439SOL    HW114216   0.794   5.327   1.623
 4439SOL    HW214217   0.639   5.290   1.588
 4440SOL     OW14218   2.143   5.662   0.192
 4440SOL    HW114219   2.126   5.577   0.242
 4440SOL    HW214220   2.110   5.653   0.098
 4441SOL     OW14221   6.432   2.703   2.189
 4441SOL    HW114222   6.479   2.690   2.102
 4441SOL    HW214223   6.379   2.621   2.211
 4442SOL     OW14224   3.789   6.137   3.422
 4442SOL    HW114225   3.827   6.204   3.359
 4442SOL    HW214226   3.862   6.083   3.462
 4443SOL     OW14227   2.320   1.968   6.501
 4443SOL    HW114228   2.340   2.063   6.477
 4443SOL    HW214229   2.362   1.907   6.435
 4444SOL     OW14230   4.801   6.599   0.813
 4444SOL    HW114231   4.882   6.558   0.854
 4444SOL    HW214232   4.735   6.621   0.884
 4445SOL     OW14233   1.313   0.828   6.456
 4445SOL    HW114234   1.252   0.889   6.505
 4445SOL    HW214235   1.384   0.881   6.409
 4446SOL     OW14236   5.706   0.459   1.771
 4446SOL    HW114237   5.692   0.531   1.838
 4446SOL    HW214238   5.649   0.380   1.795
 4447SOL     OW14239   5.398   3.156   5.572
 4447SOL    HW114240   5.346   3.158   5.487
 4447SOL    HW214241   5.395   3.246   5.616
 4448SOL     OW14242   2.985   3.675   0.365
 4448SOL    HW114243   3.078   3.657   0.332
 4448SOL    HW214244   2.952   3.596   0.416
 4449SOL     OW14245   2.834   0.603   5.540
 4449SOL    HW114246   2.874   0.512   5.548
 4449SOL    HW214247   2.891   0.669   5.590
 4450SOL     OW14248   3.163   3.401   2.515
 4450SOL    HW114249   3.073   3.444   2.506
 4450SOL    HW214250   3.231   3.454   2.464
 4451SOL     OW14251   6.221   4.388   2.444
 4451SOL    HW114252   6.265   4.477   2.441
 4451SOL    HW214253   6.196   4.360   2.352
 4452SOL     OW14254   6.012   6.647   5.603
 4452SOL    HW114255   5.927   6.605   5.570
 4452SOL    HW214256   5.990   6.735   5.646
 4453SOL     OW14257   6.176   2.801   1.640
 4453SOL    HW114258   6.238   2.828   1.566
 4453SOL    HW214259   6.111   2.733   1.606
 4454SOL     OW14260   5.390   2.386   1.073
 4454SOL    HW114261   5.424   2.470   1.030
 4454SOL    HW214262   5.307   2.407   1.125
 4455SOL     OW14263   3.365   6.512   1.985
 4455SOL    HW114264   3.443   6.450   1.970
 4455SOL    HW214265   3.396   6.592   2.037
 4456SOL     OW14266   2.217   5.418   2.247
 4456SOL    HW114267   2.262   5.359   2.313
 4456SOL    HW214268   2.144   5.469   2.292
 4457SOL     OW14269   4.394   2.137   6.248
 4457SOL    HW114270   4.371   2.061   6.308
 4457SOL    HW214271   4.403   2.221   6.302
 4458SOL     OW14272   2.614   3.235   6.476
 4458SOL    HW114273   2.664   3.296   6.414
 4458SOL    HW214274   2.639   3.255   6.570
 4459SOL     OW14275   4.568   0.035   4.423
 4459SOL    HW114276   4.639   0.043   4.492
 4459SOL    HW214277   4.508   0.116   4.427
 4460SOL     OW14278   2.348   3.321   6.918
 4460SOL    HW114279   2.375   3.328   7.014
 4460SOL    HW214280   2.267   3.264   6.910
 4461SOL     OW14281   1.045   6.852   2.450
 4461SOL    HW114282   1.091   6.814   2.370
 4461SOL    HW214283   0.950   6.873   2.426
 4462SOL     OW14284   6.120   4.926   1.065
 4462SOL    HW114285   6.095   4.950   1.159
 4462SOL    HW214286   6.189   4.990   1.031
 4463SOL     OW14287   2.084   3.020   6.438
 4463SOL    HW114288   2.147   3.095   6.454
 4463SOL    HW214289   2.013   3.050   6.374
 4464SOL     OW14290   6.241   4.664   6.555
 4464SOL    HW114291   6.172   4.657   6.627
 4464SOL    HW214292   6.207   4.723   6.482
 4465SOL     OW14293   1.997   6.511   2.311
 4465SOL    HW114294   1.980   6.540   2.405
 4465SOL    HW214295   1.910   6.496   2.265
 4466SOL     OW14296   0.783   1.244   2.333
 4466SOL    HW114297   0.743   1.152   2.336
 4466SOL    HW214298   0.780   1.284   2.425
 4467SOL     OW14299   1.527   0.012   3.178
 4467SOL    HW114300   1.546   6.944   3.192
 4467SOL    HW214301   1.611   0.065   3.190
 4468SOL     OW14302   0.922   1.989   6.819
 4468SOL    HW114303   1.002   1.996   6.879
 4468SOL    HW214304   0.856   1.924   6.858
 4469SOL     OW14305   3.225   0.270   1.694
 4469SOL    HW114306   3.313   0.302   1.658
 4469SOL    HW214307   3.222   0.287   1.792
 4470SOL     OW14308   5.271   3.698   1.947
 4470SOL    HW114309   5.241   3.705   2.043
 4470SOL    HW214310   5.330   3.775   1.925
 4471SOL     OW14311   0.691   2.789   0.938
 4471SOL    HW114312   0.602   2.751   0.910
 4471SOL    HW214313   0.683   2.825   1.030
 4472SOL     OW14314   1.813   3.886   2.458
 4472SOL    HW114315   1.905   3.915   2.487
 4472SOL    HW214316   1.780   3.947   2.387
 4473SOL     OW14317   0.104   0.537   4.863
 4473SOL    HW114318   0.051   0.557   4.945
 4473SOL    HW214319   0.179   0.603   4.855
 4474SOL     OW14320   3.666   0.064   2.106
 4474SOL    HW114321   3.635   7.027   2.038
 4474SOL    HW214322   3.706   0.016   2.184
 4475SOL     OW14323   1.301   3.706   1.172
 4475SOL    HW114324   1.268   3.794   1.205
 4475SOL    HW214325   1.395   3.691   1.204
 4476SOL     OW14326   5.348   6.582   2.723
 4476SOL    HW114327   5.366   6.525   2.804
 4476SOL    HW214328   5.283   6.654   2.747
 4477SOL     OW14329   2.168   0.492   6.746
 4477SOL    HW114330   2.131   0.407   6.709
 4477SOL    HW214331   2.150   0.497   6.844
 4478SOL     OW14332   2.357   6.617   2.314
 4478SOL    HW114333   2.428   6.595   2.247
 4478SOL    HW214334   2.378   6.570   2.400
 4479SOL     OW14335   0.876   0.450   6.357
 4479SOL    HW114336   0.845   0.357   6.378
 4479SOL    HW214337   0.867   0.508   6.438
 4480SOL     OW14338   1.585   3.906   4.432
 4480SOL    HW114339   1.617   3.990   4.476
 4480SOL    HW214340   1.664   3.853   4.402
 4481SOL     OW14341   1.828   6.469   4.468
 4481SOL    HW114342   1.870   6.406   4.533
 4481SOL    HW214343   1.894   6.494   4.398
 4482SOL     OW14344   0.941   4.405   4.269
 4482SOL    HW114345   0.918   4.348   4.191
 4482SOL    HW214346   0.865   4.469   4.287
 4483SOL     OW14347   6.687   3.056   1.251
 4483SOL    HW114348   6.646   2.966   1.260
 4483SOL    HW214349   6.624   3.125   1.287
 4484SOL     OW14350   3.896   2.745   5.326
 4484SOL    HW114351   3.907   2.775   5.232
 4484SOL    HW214352   3.950   2.662   5.341
 4485SOL     OW14353   4.892   2.432   6.296
 4485SOL    HW114354   4.959   2.363   6.325
 4485SOL    HW214355   4.830   2.392   6.229
 4486SOL     OW14356   0.100   4.214   5.329
 4486SOL    HW114357   0.118   4.124   5.290
 4486SOL    HW214358   0.185   4.266   5.334
 4487SOL     OW14359   2.544   3.851   6.486
 4487SOL    HW114360   2.601   3.926   6.454
 4487SOL    HW214361   2.483   3.884   6.559
 4488SOL     OW14362   5.912   2.506   5.573
 4488SOL    HW114363   5.966   2.426   5.548
 4488SOL    HW214364   5.926   2.578   5.505
 4489SOL     OW14365   5.739   5.576   4.706
 4489SOL    HW114366   5.796   5.656   4.688
 4489SOL    HW214367   5.645   5.606   4.724
 4490SOL     OW14368   6.088   1.430   1.394
 4490SOL    HW114369   6.056   1.457   1.485
 4490SOL    HW214370   6.187   1.444   1.388
 4491SOL     OW14371   1.288   3.625   2.410
 4491SOL    HW114372   1.374   3.608   2.458
 4491SOL    HW214373   1.256   3.717   2.432
 4492SOL     OW14374   5.023   2.534   6.942
 4492SOL    HW114375   5.063   2.497   6.858
 4492SOL    HW214376   4.957   2.469   6.979
 4493SOL     OW14377   4.483   5.341   4.728
 4493SOL    HW114378   4.485   5.296   4.818
 4493SOL    HW214379   4.556   5.304   4.671
 4494SOL     OW14380   0.303   3.247   5.740
 4494SOL    HW114381   0.231   3.182   5.714
 4494SOL    HW214382   0.263   3.321   5.794
 4495SOL     OW14383   5.536   6.737   2.607
 4495SOL    HW114384   5.451   6.693   2.634
 4495SOL    HW214385   5.565   6.801   2.678
 4496SOL     OW14386   5.360   4.878   6.856
 4496SOL    HW114387   5.261   4.863   6.857
 4496SOL    HW214388   5.405   4.797   6.819
 4497SOL     OW14389   5.227   6.104   6.471
 4497SOL    HW114390   5.222   6.050   6.387
 4497SOL    HW214391   5.139   6.149   6.487
 4498SOL     OW14392   0.191   4.293   6.920
 4498SOL    HW114393   0.095   4.278   6.897
 4498SOL    HW214394   0.218   4.230   6.993
 4499SOL     OW14395   6.785   3.092   4.434
 4499SOL    HW114396   6.834   3.034   4.499
 4499SOL    HW214397   6.786   3.049   4.343
 4500SOL     OW14398   3.307   4.064   3.893
 4500SOL    HW114399   3.402   4.053   3.921
 4500SOL    HW214400   3.295   4.031   3.800
 4501SOL     OW14401   1.352   3.802   5.609
 4501SOL    HW114402   1.256   3.780   5.591
 4501SOL    HW214403   1.376   3.773   5.702
 4502SOL     OW14404   1.946   2.359   6.208
 4502SOL    HW114405   1.990   2.413   6.137
 4502SOL    HW214406   1.963   2.401   6.297
 4503SOL     OW14407   2.487   1.119   3.495
 4503SOL    HW114408   2.438   1.165   3.569
 4503SOL    HW214409   2.579   1.094   3.526
 4504SOL     OW14410   6.155   2.450   5.751
 4504SOL    HW114411   6.066   2.471   5.710
 4504SOL    HW214412   6.227   2.470   5.685
 4505SOL     OW14413   0.496   6.100   4.682
 4505SOL    HW114414   0.497   6.123   4.585
 4505SOL    HW214415   0.434   6.023   4.698
 4506SOL     OW14416   3.504   1.487   4.710
 4506SOL    HW114417   3.494   1.497   4.809
 4506SOL    HW214418   3.590   1.528   4.680
 4507SOL     OW14419   4.896   4.978   1.206
 4507SOL    HW114420   4.838   5.002   1.284
 4507SOL    HW214421   4.990   5.007   1.223
 4508SOL     OW14422   1.757   3.830   7.016
 4508SOL    HW114423   1.786   3.926   7.012
 4508SOL    HW214424   1.834   3.774   0.019
 4509SOL     OW14425   4.336   1.936   4.452
 4509SOL    HW114426   4.382   1.875   4.516
 4509SOL    HW214427   4.239   1.910   4.444
 4510SOL     OW14428   5.593   0.813   4.991
 4510SOL    HW114429   5.636   0.883   5.047
 4510SOL    HW214430   5.572   0.733   5.047
 4511SOL     OW14431   0.335   3.288   0.393
 4511SOL    HW114432   0.310   3.229   0.316
 4511SOL    HW214433   0.411   3.348   0.366
 4512SOL     OW14434   2.758   6.979   6.832
 4512SOL    HW114435   2.799   0.035   6.799
 4512SOL    HW214436   2.662   6.975   6.803
 4513SOL     OW14437   4.613   6.375   1.262
 4513SOL    HW114438   4.560   6.293   1.242
 4513SOL    HW214439   4.628   6.383   1.360
 4514SOL     OW14440   3.816   1.252   4.671
 4514SOL    HW114441   3.873   1.295   4.600
 4514SOL    HW214442   3.852   1.161   4.692
 4515SOL     OW14443   6.480   4.592   6.674
 4515SOL    HW114444   6.397   4.626   6.631
 4515SOL    HW214445   6.509   4.508   6.629
 4516SOL     OW14446   1.132   0.886   5.536
 4516SOL    HW114447   1.120   0.963   5.473
 4516SOL    HW214448   1.229   0.876   5.558
 4517SOL     OW14449   3.067   7.003   6.698
 4517SOL    HW114450   3.038   6.922   6.648
 4517SOL    HW214451   3.015   0.054   6.667
 4518SOL     OW14452   0.814   2.057   3.901
 4518SOL    HW114453   0.776   1.978   3.853
 4518SOL    HW214454   0.910   2.068   3.877
 4519SOL     OW14455   0.397   1.599   3.707
 4519SOL    HW114456   0.366   1.505   3.722
 4519SOL    HW214457   0.484   1.597   3.658
 4520SOL     OW14458   5.913   4.613   2.724
 4520SOL    HW114459   6.001   4.573   2.752
 4520SOL    HW214460   5.843   4.542   2.726
 4521SOL     OW14461   4.883   2.307   5.862
 4521SOL    HW114462   4.973   2.290   5.903
 4521SOL    HW214463   4.848   2.222   5.825
 4522SOL     OW14464   5.264   6.645   4.154
 4522SOL    HW114465   5.324   6.593   4.215
 4522SOL    HW214466   5.318   6.712   4.103
 4523SOL     OW14467   2.885   4.821   0.027
 4523SOL    HW114468   2.831   4.856   6.979
 4523SOL    HW214469   2.895   4.722   0.019
 4524SOL     OW14470   5.443   1.676   5.625
 4524SOL    HW114471   5.428   1.775   5.628
 4524SOL    HW214472   5.538   1.656   5.652
 4525SOL     OW14473   6.540   1.936   3.963
 4525SOL    HW114474   6.450   1.898   3.985
 4525SOL    HW214475   6.600   1.929   4.043
 4526SOL     OW14476   5.345   0.013   1.289
 4526SOL    HW114477   5.354   0.009   1.190
 4526SOL    HW214478   5.330   0.108   1.317
 4527SOL     OW14479   4.190   0.726   3.397
 4527SOL    HW114480   4.150   0.690   3.482
 4527SOL    HW214481   4.264   0.666   3.368
 4528SOL     OW14482   4.915   6.904   6.912
 4528SOL    HW114483   4.832   6.951   6.943
 4528SOL    HW214484   4.994   6.964   6.922
 4529SOL     OW14485   2.746   1.057   3.565
 4529SOL    HW114486   2.797   1.139   3.540
 4529SOL    HW214487   2.802   0.976   3.547
 4530SOL     OW14488   0.536   3.225   5.623
 4530SOL    HW114489   0.525   3.174   5.538
 4530SOL    HW214490   0.449   3.228   5.672
 4531SOL     OW14491   1.334   3.971   2.827
 4531SOL    HW114492   1.250   3.934   2.785
 4531SOL    HW214493   1.311   4.051   2.882
 4532SOL     OW14494   6.544   1.046   1.009
 4532SOL    HW114495   6.568   1.033   1.105
 4532SOL    HW214496   6.497   1.134   0.998
 4533SOL     OW14497   1.372   0.025   3.748
 4533SOL    HW114498   1.354   0.111   3.701
 4533SOL    HW214499   1.356   6.978   3.686
 4534SOL     OW14500   5.996   3.813   5.207
 4534SOL    HW114501   5.972   3.716   5.203
 4534SOL    HW214502   5.941   3.858   5.277
 4535SOL     OW14503   4.783   2.713   2.094
 4535SOL    HW114504   4.751   2.749   2.007
 4535SOL    HW214505   4.815   2.788   2.152
 4536SOL     OW14506   4.753   0.953   4.566
 4536SOL    HW114507   4.757   0.853   4.564
 4536SOL    HW214508   4.845   0.991   4.570
 4537SOL     OW14509   3.716   3.068   6.678
 4537SOL    HW114510   3.706   3.110   6.769
 4537SOL    HW214511   3.810   3.080   6.646
 4538SOL     OW14512   3.507   1.733   3.662
 4538SOL    HW114513   3.557   1.687   3.735
 4538SOL    HW214514   3.446   1.669   3.616
 4539SOL     OW14515   2.923   2.280   4.019
 4539SOL    HW114516   2.833   2.250   3.987
 4539SOL    HW214517   2.994   2.233   3.968
 4540SOL     OW14518   3.512   3.742   3.923
 4540SOL    HW114519   3.469   3.698   3.844
 4540SOL    HW214520   3.612   3.734   3.915
 4541SOL     OW14521   5.285   0.611   0.088
 4541SOL    HW114522   5.365   0.652   0.133
 4541SOL    HW214523   5.244   0.678   0.026
 4542SOL     OW14524   6.062   6.002   1.657
 4542SOL    HW114525   6.021   6.085   1.618
 4542SOL    HW214526   6.043   5.924   1.597
 4543SOL     OW14527   4.735   1.902   0.592
 4543SOL    HW114528   4.667   1.973   0.610
 4543SOL    HW214529   4.815   1.942   0.547
 4544SOL     OW14530   2.248   6.225   0.018
 4544SOL    HW114531   2.341   6.260   0.006
 4544SOL    HW214532   2.196   6.288   0.075
 4545SOL     OW14533   4.283   2.156   5.219
 4545SOL    HW114534   4.255   2.097   5.144
 4545SOL    HW214535   4.261   2.112   5.306
 4546SOL     OW14536   0.732   7.024   6.115
 4546SOL    HW114537   0.811   0.035   6.068
 4546SOL    HW214538   0.685   6.961   6.053
 4547SOL     OW14539   5.453   2.468   1.374
 4547SOL    HW114540   5.448   2.384   1.428
 4547SOL    HW214541   5.439   2.447   1.277
 4548SOL     OW14542   0.933   4.988   4.257
 4548SOL    HW114543   0.896   5.048   4.185
 4548SOL    HW214544   0.904   5.022   4.346
 4549SOL     OW14545   6.944   3.266   3.661
 4549SOL    HW114546   6.962   3.348   3.606
 4549SOL    HW214547   6.966   3.185   3.607
 4550SOL     OW14548   0.905   6.378   3.720
 4550SOL    HW114549   0.862   6.348   3.805
 4550SOL    HW214550   0.984   6.318   3.700
 4551SOL     OW14551   0.491   2.555   5.114
 4551SOL    HW114552   0.534   2.554   5.204
 4551SOL    HW214553   0.530   2.481   5.058
 4552SOL     OW14554   0.623   3.055   5.864
 4552SOL    HW114555   0.582   3.100   5.785
 4552SOL    HW214556   0.698   3.111   5.899
 4553SOL     OW14557   4.238   4.580   6.919
 4553SOL    HW114558   4.161   4.643   6.913
 4553SOL    HW214559   4.236   4.534   7.008
 4554SOL     OW14560   4.207   0.483   2.281
 4554SOL    HW114561   4.293   0.440   2.306
 4554SOL    HW214562   4.150   0.496   2.362
 4555SOL     OW14563   4.414   2.214   6.636
 4555SOL    HW114564   4.410   2.126   6.683
 4555SOL    HW214565   4.471   2.277   6.689
 4556SOL     OW14566   3.949   0.926   3.474
 4556SOL    HW114567   3.989   0.920   3.383
 4556SOL    HW214568   3.859   0.882   3.473
 4557SOL     OW14569   4.998   0.273   4.939
 4557SOL    HW114570   5.007   0.176   4.960
 4557SOL    HW214571   5.084   0.320   4.960
 4558SOL     OW14572   6.448   3.928   6.220
 4558SOL    HW114573   6.427   3.988   6.297
 4558SOL    HW214574   6.414   3.970   6.135
 4559SOL     OW14575   1.409   6.595   1.244
 4559SOL    HW114576   1.422   6.507   1.198
 4559SOL    HW214577   1.322   6.636   1.215
 4560SOL     OW14578   4.897   3.729   3.288
 4560SOL    HW114579   4.936   3.736   3.196
 4560SOL    HW214580   4.895   3.634   3.317
 4561SOL     OW14581   2.826   1.184   0.241
 4561SOL    HW114582   2.810   1.283   0.251
 4561SOL    HW214583   2.753   1.134   0.287
 4562SOL     OW14584   3.134   5.686   5.730
 4562SOL    HW114585   3.197   5.654   5.800
 4562SOL    HW214586   3.182   5.748   5.668
 4563SOL     OW14587   5.765   2.483   0.293
 4563SOL    HW114588   5.666   2.475   0.295
 4563SOL    HW214589   5.806   2.402   0.337
 4564SOL     OW14590   0.733   5.315   0.465
 4564SOL    HW114591   0.705   5.371   0.542
 4564SOL    HW214592   0.656   5.303   0.402
 4565SOL     OW14593   0.428   1.846   5.291
 4565SOL    HW114594   0.375   1.792   5.226
 4565SOL    HW214595   0.525   1.843   5.267
 4566SOL     OW14596   6.850   0.354   6.638
 4566SOL    HW114597   6.752   0.373   6.633
 4566SOL    HW214598   6.892   0.372   6.549
 4567SOL     OW14599   0.302   0.401   0.999
 4567SOL    HW114600   0.369   0.356   0.940
 4567SOL    HW214601   0.213   0.402   0.953
 4568SOL     OW14602   2.498   4.687   5.292
 4568SOL    HW114603   2.541   4.748   5.224
 4568SOL    HW214604   2.453   4.611   5.245
 4569SOL     OW14605   0.928   2.025   4.163
 4569SOL    HW114606   0.880   2.023   4.075
 4569SOL    HW214607   0.873   2.077   4.229
 4570SOL     OW14608   6.992   6.027   3.273
 4570SOL    HW114609   0.043   6.024   3.333
 4570SOL    HW214610   6.990   6.115   3.225
 4571SOL     OW14611   3.161   3.625   4.805
 4571SOL    HW114612   3.229   3.600   4.874
 4571SOL    HW214613   3.075   3.579   4.826
 4572SOL     OW14614   0.253   6.665   0.536
 4572SOL    HW114615   0.343   6.623   0.550
 4572SOL    HW214616   0.230   6.723   0.613
 4573SOL     OW14617   5.610   6.047   1.338
 4573SOL    HW114618   5.605   6.049   1.238
 4573SOL    HW214619   5.541   5.985   1.375
 4574SOL     OW14620   0.001   4.832   1.350
 4574SOL    HW114621   6.990   4.853   1.260
 4574SOL    HW214622   0.089   4.878   1.359
 4575SOL     OW14623   6.286   2.000   0.326
 4575SOL    HW114624   6.220   1.926   0.341
 4575SOL    HW214625   6.237   2.083   0.299
 4576SOL     OW14626   2.866   5.723   6.646
 4576SOL    HW114627   2.870   5.633   6.691
 4576SOL    HW214628   2.876   5.711   6.548
 4577SOL     OW14629   0.880   3.736   2.980
 4577SOL    HW114630   0.856   3.783   3.065
 4577SOL    HW214631   0.976   3.709   2.983
 4578SOL     OW14632   0.709   3.606   3.560
 4578SOL    HW114633   0.699   3.548   3.641
 4578SOL    HW214634   0.743   3.551   3.484
 4579SOL     OW14635   4.572   1.863   2.793
 4579SOL    HW114636   4.618   1.881   2.879
 4579SOL    HW214637   4.514   1.782   2.801
 4580SOL     OW14638   5.928   4.998   0.590
 4580SOL    HW114639   5.994   5.064   0.553
 4580SOL    HW214640   5.974   4.911   0.608
 4581SOL     OW14641   3.135   4.877   3.479
 4581SOL    HW114642   3.201   4.892   3.406
 4581SOL    HW214643   3.064   4.814   3.448
 4582SOL     OW14644   5.727   6.887   4.135
 4582SOL    HW114645   5.684   6.805   4.097
 4582SOL    HW214646   5.743   6.874   4.233
 4583SOL     OW14647   3.095   2.039   5.110
 4583SOL    HW114648   3.089   2.138   5.093
 4583SOL    HW214649   3.104   1.991   5.023
 4584SOL     OW14650   7.026   6.091   5.701
 4584SOL    HW114651   0.030   5.997   5.692
 4584SOL    HW214652   7.023   6.116   5.798
 4585SOL     OW14653   3.304   6.425   2.552
 4585SOL    HW114654   3.278   6.513   2.511
 4585SOL    HW214655   3.403   6.417   2.552
 4586SOL     OW14656   3.374   4.876   1.149
 4586SOL    HW114657   3.371   4.816   1.229
 4586SOL    HW214658   3.283   4.879   1.107
 4587SOL     OW14659   4.138   3.624   1.849
 4587SOL    HW114660   4.101   3.634   1.941
 4587SOL    HW214661   4.203   3.548   1.847
 4588SOL     OW14662   3.970   3.894   4.790
 4588SOL    HW114663   3.877   3.891   4.752
 4588SOL    HW214664   4.036   3.895   4.716
 4589SOL     OW14665   6.141   2.176   2.404
 4589SOL    HW114666   6.065   2.152   2.464
 4589SOL    HW214667   6.107   2.224   2.323
 4590SOL     OW14668   4.546   6.310   2.824
 4590SOL    HW114669   4.641   6.329   2.801
 4590SOL    HW214670   4.540   6.222   2.872
 4591SOL     OW14671   6.448   5.853   5.628
 4591SOL    HW114672   6.399   5.800   5.559
 4591SOL    HW214673   6.495   5.930   5.583
 4592SOL     OW14674   4.373   2.940   0.952
 4592SOL    HW114675   4.355   2.909   0.858
 4592SOL    HW214676   4.318   3.021   0.972
 4593SOL     OW14677   4.333   5.651   3.030
 4593SOL    HW114678   4.305   5.746   3.046
 4593SOL    HW214679   4.252   5.593   3.021
 4594SOL     OW14680   3.571   2.099   2.370
 4594SOL    HW114681   3.530   2.182   2.409
 4594SOL    HW214682   3.511   2.063   2.299
 4595SOL     OW14683   3.474   2.901   6.572
 4595SOL    HW114684   3.562   2.924   6.614
 4595SOL    HW214685   3.454   2.804   6.589
 4596SOL     OW14686   6.111   6.210   2.127
 4596SOL    HW114687   6.059   6.156   2.193
 4596SOL    HW214688   6.145   6.294   2.171
 4597SOL     OW14689   5.281   5.409   6.341
 4597SOL    HW114690   5.296   5.450   6.431
 4597SOL    HW214691   5.198   5.447   6.300
 4598SOL     OW14692   1.593   5.061   6.270
 4598SOL    HW114693   1.548   4.984   6.224
 4598SOL    HW214694   1.682   5.032   6.306
 4599SOL     OW14695   1.349   4.011   1.016
 4599SOL    HW114696   1.305   4.065   0.944
 4599SOL    HW214697   1.340   3.914   0.994
 4600SOL     OW14698   2.729   5.283   6.403
 4600SOL    HW114699   2.672   5.219   6.353
 4600SOL    HW214700   2.682   5.311   6.487
 4601SOL     OW14701   1.675   0.758   5.572
 4601SOL    HW114702   1.725   0.797   5.650
 4601SOL    HW214703   1.613   0.687   5.605
 4602SOL     OW14704   1.177   6.743   1.188
 4602SOL    HW114705   1.193   6.782   1.279
 4602SOL    HW214706   1.097   6.786   1.146
 4603SOL     OW14707   3.527   6.367   1.684
 4603SOL    HW114708   3.589   6.310   1.631
 4603SOL    HW214709   3.474   6.425   1.623
 4604SOL     OW14710   4.095   0.406   1.573
 4604SOL    HW114711   4.040   0.441   1.650
 4604SOL    HW214712   4.191   0.406   1.598
 4605SOL     OW14713   4.642   0.461   4.110
 4605SOL    HW114714   4.702   0.434   4.186
 4605SOL    HW214715   4.590   0.381   4.078
 4606SOL     OW14716   0.321   6.672   3.480
 4606SOL    HW114717   0.407   6.623   3.490
 4606SOL    HW214718   0.338   6.763   3.443
 4607SOL     OW14719   2.791   2.630   1.320
 4607SOL    HW114720   2.886   2.638   1.350
 4607SOL    HW214721   2.736   2.592   1.395
 4608SOL     OW14722   1.700   5.155   5.045
 4608SOL    HW114723   1.617   5.115   5.084
 4608SOL    HW214724   1.723   5.239   5.094
 4609SOL     OW14725   4.150   5.705   6.412
 4609SOL    HW114726   4.158   5.779   6.479
 4609SOL    HW214727   4.133   5.619   6.459
 4610SOL     OW14728   6.601   2.348   0.551
 4610SOL    HW114729   6.612   2.427   0.491
 4610SOL    HW214730   6.660   2.274   0.519
 4611SOL     OW14731   6.123   3.900   0.015
 4611SOL    HW114732   6.124   3.829   0.085
 4611SOL    HW214733   6.044   3.886   6.984
 4612SOL     OW14734   2.010   6.076   6.474
 4612SOL    HW114735   1.971   6.100   6.386
 4612SOL    HW214736   2.091   6.131   6.492
 4613SOL     OW14737   2.407   5.459   2.970
 4613SOL    HW114738   2.326   5.492   3.019
 4613SOL    HW214739   2.481   5.444   3.035
 4614SOL     OW14740   1.659   5.155   6.768
 4614SOL    HW114741   1.655   5.169   6.669
 4614SOL    HW214742   1.706   5.070   6.788
 4615SOL     OW14743   1.493   1.416   0.792
 4615SOL    HW114744   1.454   1.456   0.709
 4615SOL    HW214745   1.523   1.322   0.772
 4616SOL     OW14746   6.539   0.606   6.934
 4616SOL    HW114747   6.478   0.550   6.878
 4616SOL    HW214748   6.503   0.613   7.026
 4617SOL     OW14749   0.798   2.409   2.657
 4617SOL    HW114750   0.767   2.357   2.578
 4617SOL    HW214751   0.897   2.401   2.666
 4618SOL     OW14752   1.324   2.046   5.515
 4618SOL    HW114753   1.358   2.137   5.539
 4618SOL    HW214754   1.383   1.976   5.556
 4619SOL     OW14755   4.315   0.407   3.536
 4619SOL    HW114756   4.356   0.419   3.627
 4619SOL    HW214757   4.260   0.323   3.536
 4620SOL     OW14758   3.978   4.171   0.043
 4620SOL    HW114759   3.965   4.231   6.993
 4620SOL    HW214760   4.057   4.202   0.096
 4621SOL     OW14761   6.460   1.550   4.959
 4621SOL    HW114762   6.458   1.531   5.057
 4621SOL    HW214763   6.378   1.513   4.916
 4622SOL     OW14764   1.430   2.720   0.999
 4622SOL    HW114765   1.341   2.756   0.971
 4622SOL    HW214766   1.420   2.668   1.083
 4623SOL     OW14767   0.104   5.131   1.041
 4623SOL    HW114768   0.156   5.185   1.107
 4623SOL    HW214769   0.020   5.098   1.083
 4624SOL     OW14770   4.640   0.931   3.769
 4624SOL    HW114771   4.721   0.874   3.783
 4624SOL    HW214772   4.558   0.873   3.770
 4625SOL     OW14773   1.244   4.293   6.852
 4625SOL    HW114774   1.253   4.349   6.769
 4625SOL    HW214775   1.314   4.320   6.918
 4626SOL     OW14776   6.532   4.524   1.614
 4626SOL    HW114777   6.579   4.495   1.531
 4626SOL    HW214778   6.556   4.462   1.689
 4627SOL     OW14779   3.622   6.174   5.914
 4627SOL    HW114780   3.627   6.078   5.886
 4627SOL    HW214781   3.659   6.184   6.006
 4628SOL     OW14782   6.376   4.521   2.081
 4628SOL    HW114783   6.298   4.496   2.023
 4628SOL    HW214784   6.355   4.605   2.131
 4629SOL     OW14785   1.884   4.883   6.204
 4629SOL    HW114786   1.884   4.918   6.111
 4629SOL    HW214787   1.822   4.804   6.210
 4630SOL     OW14788   2.673   5.959   3.904
 4630SOL    HW114789   2.576   5.938   3.887
 4630SOL    HW214790   2.729   5.880   3.880
 4631SOL     OW14791   2.280   6.581   3.499
 4631SOL    HW114792   2.269   6.602   3.402
 4631SOL    HW214793   2.375   6.593   3.525
 4632SOL     OW14794   4.457   5.260   4.023
 4632SOL    HW114795   4.519   5.326   4.063
 4632SOL    HW214796   4.399   5.305   3.954
 4633SOL     OW14797   6.843   2.263   5.284
 4633SOL    HW114798   6.854   2.358   5.255
 4633SOL    HW214799   6.837   2.204   5.204
 4634SOL     OW14800   2.597   4.580   0.214
 4634SOL    HW114801   2.576   4.487   0.247
 4634SOL    HW214802   2.652   4.628   0.282
 4635SOL     OW14803   5.524   3.428   2.606
 4635SOL    HW114804   5.428   3.431   2.575
 4635SOL    HW214805   5.567   3.517   2.588
 4636SOL     OW14806   2.656   5.258   6.746
 4636SOL    HW114807   2.581   5.254   6.680
 4636SOL    HW214808   2.680   5.166   6.775
 4637SOL     OW14809   1.479   0.661   6.997
 4637SOL    HW114810   1.426   0.737   6.960
 4637SOL    HW214811   1.477   0.584   6.933
 4638SOL     OW14812   3.677   2.932   5.958
 4638SOL    HW114813   3.689   2.886   6.046
 4638SOL    HW214814   3.630   2.872   5.894
 4639SOL     OW14815   1.015   3.941   5.880
 4639SOL    HW114816   0.969   3.853   5.885
 4639SOL    HW214817   1.012   3.985   5.969
 4640SOL     OW14818   4.883   4.551   4.115
 4640SOL    HW114819   4.858   4.487   4.042
 4640SOL    HW214820   4.801   4.582   4.163
 4641SOL     OW14821   2.630   4.953   4.221
 4641SOL    HW114822   2.671   4.863   4.236
 4641SOL    HW214823   2.683   5.022   4.271
 4642SOL     OW14824   6.394   5.136   4.961
 4642SOL    HW114825   6.447   5.152   5.044
 4642SOL    HW214826   6.442   5.071   4.903
 4643SOL     OW14827   4.749   2.425   0.752
 4643SOL    HW114828   4.706   2.487   0.688
 4643SOL    HW214829   4.687   2.407   0.829
 4644SOL     OW14830   1.274   5.397   4.744
 4644SOL    HW114831   1.299   5.316   4.796
 4644SOL    HW214832   1.175   5.398   4.730
 4645SOL     OW14833   2.231   6.153   4.649
 4645SOL    HW114834   2.279   6.177   4.733
 4645SOL    HW214835   2.182   6.233   4.614
 4646SOL     OW14836   2.625   0.271   2.360
 4646SOL    HW114837   2.603   0.275   2.263
 4646SOL    HW214838   2.703   0.330   2.379
 4647SOL     OW14839   0.910   6.898   3.414
 4647SOL    HW114840   1.004   6.931   3.420
 4647SOL    HW214841   0.855   6.963   3.361
 4648SOL     OW14842   3.421   6.735   2.147
 4648SOL    HW114843   3.410   6.759   2.243
 4648SOL    HW214844   3.516   6.750   2.119
 4649SOL     OW14845   4.880   1.158   5.890
 4649SOL    HW114846   4.865   1.059   5.897
 4649SOL    HW214847   4.840   1.204   5.969
 4650SOL     OW14848   3.685   6.222   2.966
 4650SOL    HW114849   3.730   6.154   3.023
 4650SOL    HW214850   3.623   6.177   2.901
 4651SOL     OW14851   0.501   2.463   1.829
 4651SOL    HW114852   0.417   2.418   1.857
 4651SOL    HW214853   0.480   2.533   1.760
 4652SOL     OW14854   0.755   0.076   3.305
 4652SOL    HW114855   0.742   0.047   3.210
 4652SOL    HW214856   0.710   0.164   3.319
 4653SOL     OW14857   6.867   6.110   0.101
 4653SOL    HW114858   6.847   6.061   0.016
 4653SOL    HW214859   6.802   6.081   0.172
 4654SOL     OW14860   0.744   0.033   0.080
 4654SOL    HW114861   0.751   6.979   0.137
 4654SOL    HW214862   0.822   0.092   0.098
 4655SOL     OW14863   0.766   5.053   2.714
 4655SOL    HW114864   0.775   5.126   2.646
 4655SOL    HW214865   0.673   5.017   2.712
 4656SOL     OW14866   0.973   0.263   3.205
 4656SOL    HW114867   1.072   0.263   3.219
 4656SOL    HW214868   0.944   0.173   3.172
 4657SOL     OW14869   5.069   0.097   1.530
 4657SOL    HW114870   5.088   0.015   1.585
 4657SOL    HW214871   5.135   0.102   1.455
 4658SOL     OW14872   3.931   6.964   2.621
 4658SOL    HW114873   3.970   6.916   2.542
 4658SOL    HW214874   3.904   0.027   2.593
 4659SOL     OW14875   1.522   3.193   5.208
 4659SOL    HW114876   1.449   3.131   5.236
 4659SOL    HW214877   1.591   3.198   5.280
 4660SOL     OW14878   1.246   1.988   4.979
 4660SOL    HW114879   1.259   1.987   5.078
 4660SOL    HW214880   1.167   2.045   4.956
 4661SOL     OW14881   3.476   3.973   4.699
 4661SOL    HW114882   3.423   3.891   4.679
 4661SOL    HW214883   3.419   4.054   4.685
 4662SOL     OW14884   5.134   0.486   5.535
 4662SOL    HW114885   5.193   0.417   5.493
 4662SOL    HW214886   5.083   0.534   5.464
 4663SOL     OW14887   0.195   2.185   2.323
 4663SOL    HW114888   0.211   2.278   2.288
 4663SOL    HW214889   0.101   2.158   2.305
 4664SOL     OW14890   2.422   2.533   6.644
 4664SOL    HW114891   2.501   2.479   6.614
 4664SOL    HW214892   2.432   2.627   6.611
 4665SOL     OW14893   4.681   0.258   6.508
 4665SOL    HW114894   4.728   0.301   6.431
 4665SOL    HW214895   4.596   0.309   6.528
 4666SOL     OW14896   2.642   1.790   0.305
 4666SOL    HW114897   2.619   1.780   0.402
 4666SOL    HW214898   2.655   1.887   0.284
 4667SOL     OW14899   0.002   5.052   6.257
 4667SOL    HW114900   0.091   5.030   6.299
 4667SOL    HW214901   0.017   5.112   6.179
 4668SOL     OW14902   0.104   1.805   4.640
 4668SOL    HW114903   0.103   1.759   4.729
 4668SOL    HW214904   0.112   1.736   4.568
 4669SOL     OW14905   2.065   6.105   0.352
 4669SOL    HW114906   2.011   6.103   0.268
 4669SOL    HW214907   2.011   6.145   0.426
 4670SOL     OW14908   3.120   0.948   4.582
 4670SOL    HW114909   3.160   1.025   4.632
 4670SOL    HW214910   3.097   0.977   4.489
 4671SOL     OW14911   6.267   2.957   1.855
 4671SOL    HW114912   6.251   2.888   1.784
 4671SOL    HW214913   6.215   2.933   1.937
 4672SOL     OW14914   2.159   3.890   5.950
 4672SOL    HW114915   2.193   3.869   5.859
 4672SOL    HW214916   2.060   3.873   5.953
 4673SOL     OW14917   3.579   7.017   1.503
 4673SOL    HW114918   3.601   6.922   1.482
 4673SOL    HW214919   3.485   0.007   1.473
 4674SOL     OW14920   5.393   6.072   5.531
 4674SOL    HW114921   5.453   6.000   5.495
 4674SOL    HW214922   5.424   6.100   5.622
 4675SOL     OW14923   1.324   3.775   0.892
 4675SOL    HW114924   1.354   3.771   0.797
 4675SOL    HW214925   1.342   3.688   0.937
 4676SOL     OW14926   0.972   6.019   3.466
 4676SOL    HW114927   1.052   5.960   3.454
 4676SOL    HW214928   0.989   6.108   3.426
 4677SOL     OW14929   1.574   1.516   1.046
 4677SOL    HW114930   1.512   1.495   0.970
 4677SOL    HW214931   1.569   1.614   1.066
 4678SOL     OW14932   2.115   3.918   2.560
 4678SOL    HW114933   2.098   3.946   2.655
 4678SOL    HW214934   2.198   3.862   2.557
 4679SOL     OW14935   5.095   6.509   2.006
 4679SOL    HW114936   5.123   6.553   2.091
 4679SOL    HW214937   5.174   6.466   1.963
 4680SOL     OW14938   3.717   1.055   1.228
 4680SOL    HW114939   3.722   1.036   1.326
 4680SOL    HW214940   3.807   1.084   1.194
 4681SOL     OW14941   4.704   4.535   0.032
 4681SOL    HW114942   4.685   4.619   7.010
 4681SOL    HW214943   4.724   4.461   6.997
 4682SOL     OW14944   4.904   3.518   6.614
 4682SOL    HW114945   4.986   3.461   6.609
 4682SOL    HW214946   4.897   3.575   6.532
 4683SOL     OW14947   5.627   4.560   2.835
 4683SOL    HW114948   5.619   4.556   2.934
 4683SOL    HW214949   5.657   4.471   2.800
 4684SOL     OW14950   4.277   6.096   6.780
 4684SOL    HW114951   4.226   6.054   6.855
 4684SOL    HW214952   4.227   6.175   6.746
 4685SOL     OW14953   1.739   3.645   6.250
 4685SOL    HW114954   1.650   3.684   6.274
 4685SOL    HW214955   1.759   3.665   6.154
 4686SOL     OW14956   3.524   6.060   0.501
 4686SOL    HW114957   3.478   6.036   0.415
 4686SOL    HW214958   3.529   6.160   0.509
 4687SOL     OW14959   3.476   1.876   3.110
 4687SOL    HW114960   3.528   1.855   3.027
 4687SOL    HW214961   3.396   1.816   3.115
 4688SOL     OW14962   5.714   2.599   5.827
 4688SOL    HW114963   5.662   2.682   5.809
 4688SOL    HW214964   5.793   2.594   5.765
 4689SOL     OW14965   5.791   0.053   1.477
 4689SOL    HW114966   5.707   0.027   1.525
 4689SOL    HW214967   5.797   0.153   1.472
 4690SOL     OW14968   1.632   1.109   1.089
 4690SOL    HW114969   1.674   1.031   1.042
 4690SOL    HW214970   1.660   1.194   1.045
 4691SOL     OW14971   4.905   4.181   0.675
 4691SOL    HW114972   4.854   4.141   0.600
 4691SOL    HW214973   4.898   4.281   0.671
 4692SOL     OW14974   6.350   4.619   2.801
 4692SOL    HW114975   6.363   4.676   2.882
 4692SOL    HW214976   6.381   4.668   2.720
 4693SOL     OW14977   1.678   1.259   4.228
 4693SOL    HW114978   1.725   1.221   4.308
 4693SOL    HW214979   1.690   1.359   4.227
 4694SOL     OW14980   2.070   1.758   0.595
 4694SOL    HW114981   2.114   1.723   0.512
 4694SOL    HW214982   2.080   1.857   0.598
 4695SOL     OW14983   1.882   5.570   0.803
 4695SOL    HW114984   1.957   5.507   0.821
 4695SOL    HW214985   1.819   5.571   0.881
 4696SOL     OW14986   0.889   5.025   5.921
 4696SOL    HW114987   0.870   4.972   6.003
 4696SOL    HW214988   0.806   5.032   5.866
 4697SOL     OW14989   0.955   3.501   1.897
 4697SOL    HW114990   1.002   3.471   1.979
 4697SOL    HW214991   1.014   3.564   1.846
 4698SOL     OW14992   4.596   0.387   3.005
 4698SOL    HW114993   4.512   0.334   2.995
 4698SOL    HW214994   4.604   0.419   3.100
 4699SOL     OW14995   0.302   0.348   2.120
 4699SOL    HW114996   0.302   0.438   2.076
 4699SOL    HW214997   0.284   0.359   2.217
 4700SOL     OW14998   6.669   1.975   2.431
 4700SOL    HW114999   6.698   1.892   2.479
 4700SOL    HW215000   6.569   1.979   2.428
 4701SOL     OW15001   3.338   1.975   2.225
 4701SOL    HW115002   3.254   2.023   2.251
 4701SOL    HW215003   3.355   1.988   2.127
 4702SOL     OW15004   4.857   4.743   0.183
 4702SOL    HW115005   4.784   4.748   0.114
 4702SOL    HW215006   4.917   4.821   0.174
 4703SOL     OW15007   1.241   5.586   2.450
 4703SOL    HW115008   1.148   5.621   2.457
 4703SOL    HW215009   1.287   5.630   2.373
 4704SOL     OW15010   0.351   6.547   5.764
 4704SOL    HW115011   0.367   6.580   5.857
 4704SOL    HW215012   0.361   6.448   5.761
 4705SOL     OW15013   3.157   3.012   1.030
 4705SOL    HW115014   3.254   3.026   1.051
 4705SOL    HW215015   3.142   2.915   1.008
 4706SOL     OW15016   1.367   6.943   0.942
 4706SOL    HW115017   1.320   6.976   1.024
 4706SOL    HW215018   1.466   6.939   0.959
 4707SOL     OW15019   1.476   6.359   1.127
 4707SOL    HW115020   1.562   6.355   1.178
 4707SOL    HW215021   1.483   6.300   1.046
 4708SOL     OW15022   1.379   1.760   4.922
 4708SOL    HW115023   1.368   1.741   4.824
 4708SOL    HW215024   1.355   1.855   4.940
 4709SOL     OW15025   4.875   5.313   5.008
 4709SOL    HW115026   4.929   5.321   5.092
 4709SOL    HW215027   4.913   5.374   4.938
 4710SOL     OW15028   5.977   6.773   4.145
 4710SOL    HW115029   5.949   6.677   4.157
 4710SOL    HW215030   5.897   6.832   4.153
 4711SOL     OW15031   6.280   2.791   3.389
 4711SOL    HW115032   6.339   2.845   3.450
 4711SOL    HW215033   6.193   2.838   3.376
 4712SOL     OW15034   4.606   4.067   6.075
 4712SOL    HW115035   4.670   4.097   6.004
 4712SOL    HW215036   4.580   4.145   6.132
 4713SOL     OW15037   5.101   5.293   1.085
 4713SOL    HW115038   5.199   5.313   1.093
 4713SOL    HW215039   5.049   5.353   1.147
 4714SOL     OW15040   6.720   2.012   6.548
 4714SOL    HW115041   6.679   2.009   6.639
 4714SOL    HW215042   6.657   1.971   6.482
 4715SOL     OW15043   6.351   1.868   1.538
 4715SOL    HW115044   6.323   1.787   1.486
 4715SOL    HW215045   6.271   1.923   1.560
 4716SOL     OW15046   4.091   5.533   5.526
 4716SOL    HW115047   4.152   5.588   5.470
 4716SOL    HW215048   4.125   5.439   5.532
 4717SOL     OW15049   2.198   5.872   5.899
 4717SOL    HW115050   2.219   5.780   5.930
 4717SOL    HW215051   2.251   5.938   5.952
 4718SOL     OW15052   5.254   2.767   1.065
 4718SOL    HW115053   5.241   2.781   1.163
 4718SOL    HW215054   5.209   2.682   1.037
 4719SOL     OW15055   5.819   3.514   3.371
 4719SOL    HW115056   5.744   3.557   3.321
 4719SOL    HW215057   5.881   3.471   3.306
 4720SOL     OW15058   3.065   4.962   6.832
 4720SOL    HW115059   3.109   4.992   6.747
 4720SOL    HW215060   3.130   4.909   6.886
 4721SOL     OW15061   6.201   3.132   1.489
 4721SOL    HW115062   6.114   3.138   1.441
 4721SOL    HW215063   6.234   3.037   1.485
 4722SOL     OW15064   0.957   4.931   0.279
 4722SOL    HW115065   1.002   4.859   0.331
 4722SOL    HW215066   0.922   4.894   0.193
 4723SOL     OW15067   3.330   4.254   5.244
 4723SOL    HW115068   3.284   4.171   5.212
 4723SOL    HW215069   3.336   4.320   5.170
 4724SOL     OW15070   6.938   6.557   3.978
 4724SOL    HW115071   7.025   6.591   4.013
 4724SOL    HW215072   6.918   6.468   4.020
 4725SOL     OW15073   5.649   4.932   0.466
 4725SOL    HW115074   5.618   4.855   0.522
 4725SOL    HW215075   5.744   4.953   0.489
 4726SOL     OW15076   2.026   2.604   5.596
 4726SOL    HW115077   1.963   2.620   5.672
 4726SOL    HW215078   2.083   2.685   5.583
 4727SOL     OW15079   0.894   5.706   0.325
 4727SOL    HW115080   0.925   5.713   0.230
 4727SOL    HW215081   0.947   5.636   0.372
 4728SOL     OW15082   6.097   1.474   2.652
 4728SOL    HW115083   6.146   1.398   2.696
 4728SOL    HW215084   6.014   1.439   2.609
 4729SOL     OW15085   4.829   0.451   6.936
 4729SOL    HW115086   4.885   0.466   6.854
 4729SOL    HW215087   4.888   0.422   7.011
 4730SOL     OW15088   3.835   6.830   4.864
 4730SOL    HW115089   3.808   6.820   4.769
 4730SOL    HW215090   3.930   6.861   4.869
 4731SOL     OW15091   2.907   0.610   0.782
 4731SOL    HW115092   2.948   0.698   0.806
 4731SOL    HW215093   2.930   0.587   0.688
 4732SOL     OW15094   1.022   3.458   5.226
 4732SOL    HW115095   1.069   3.412   5.302
 4732SOL    HW215096   0.973   3.537   5.261
 4733SOL     OW15097   1.895   4.362   3.165
 4733SOL    HW115098   1.896   4.316   3.076
 4733SOL    HW215099   1.960   4.438   3.164
 4734SOL     OW15100   5.115   3.339   6.650
 4734SOL    HW115101   5.122   3.342   6.749
 4734SOL    HW215102   5.206   3.345   6.609
 4735SOL     OW15103   0.161   6.366   3.688
 4735SOL    HW115104   0.153   6.423   3.771
 4735SOL    HW215105   0.253   6.328   3.683
 4736SOL     OW15106   6.178   2.396   4.067
 4736SOL    HW115107   6.196   2.342   4.149
 4736SOL    HW215108   6.084   2.430   4.069
 4737SOL     OW15109   2.059   4.354   0.785
 4737SOL    HW115110   2.151   4.319   0.765
 4737SOL    HW215111   2.015   4.295   0.853
 4738SOL     OW15112   3.344   6.890   3.618
 4738SOL    HW115113   3.269   6.896   3.553
 4738SOL    HW215114   3.345   6.798   3.660
 4739SOL     OW15115   6.481   2.570   4.415
 4739SOL    HW115116   6.484   2.506   4.491
 4739SOL    HW215117   6.573   2.586   4.380
 4740SOL     OW15118   0.757   0.791   1.330
 4740SOL    HW115119   0.817   0.783   1.251
 4740SOL    HW215120   0.789   0.866   1.388
 4741SOL     OW15121   4.548   4.618   1.260
 4741SOL    HW115122   4.498   4.629   1.174
 4741SOL    HW215123   4.525   4.529   1.300
 4742SOL     OW15124   2.627   5.413   1.482
 4742SOL    HW115125   2.621   5.353   1.562
 4742SOL    HW215126   2.721   5.445   1.471
 4743SOL     OW15127   2.415   1.176   5.654
 4743SOL    HW115128   2.338   1.170   5.718
 4743SOL    HW215129   2.408   1.260   5.601
 4744SOL     OW15130   2.186   2.522   5.274
 4744SOL    HW115131   2.240   2.592   5.321
 4744SOL    HW215132   2.170   2.550   5.179
 4745SOL     OW15133   3.233   4.960   5.876
 4745SOL    HW115134   3.163   4.892   5.854
 4745SOL    HW215135   3.318   4.913   5.903
 4746SOL     OW15136   6.007   5.635   0.542
 4746SOL    HW115137   5.983   5.731   0.526
 4746SOL    HW215138   5.949   5.576   0.486
 4747SOL     OW15139   0.189   2.863   6.738
 4747SOL    HW115140   0.182   2.815   6.826
 4747SOL    HW215141   0.114   2.927   6.729
 4748SOL     OW15142   1.318   0.495   1.909
 4748SOL    HW115143   1.328   0.589   1.876
 4748SOL    HW215144   1.269   0.441   1.841
 4749SOL     OW15145   2.639   6.704   6.781
 4749SOL    HW115146   2.686   6.791   6.796
 4749SOL    HW215147   2.596   6.706   6.690
 4750SOL     OW15148   0.033   1.599   4.218
 4750SOL    HW115149   0.099   1.614   4.144
 4750SOL    HW215150   6.969   1.608   4.183
 4751SOL     OW15151   2.051   3.804   6.994
 4751SOL    HW115152   2.144   3.792   6.958
 4751SOL    HW215153   2.035   3.901   7.012
 4752SOL     OW15154   2.672   6.003   1.017
 4752SOL    HW115155   2.627   6.086   0.984
 4752SOL    HW215156   2.693   5.942   0.940
 4753SOL     OW15157   5.778   0.218   4.725
 4753SOL    HW115158   5.816   0.156   4.793
 4753SOL    HW215159   5.773   0.171   4.636
 4754SOL     OW15160   6.279   1.082   6.249
 4754SOL    HW115161   6.310   1.173   6.222
 4754SOL    HW215162   6.205   1.053   6.189
 4755SOL     OW15163   2.510   0.408   6.095
 4755SOL    HW115164   2.552   0.327   6.054
 4755SOL    HW215165   2.503   0.395   6.194
 4756SOL     OW15166   5.609   2.299   1.952
 4756SOL    HW115167   5.582   2.343   1.866
 4756SOL    HW215168   5.534   2.243   1.986
 4757SOL     OW15169   2.318   2.300   2.363
 4757SOL    HW115170   2.370   2.214   2.359
 4757SOL    HW215171   2.298   2.330   2.269
 4758SOL     OW15172   4.109   6.173   5.414
 4758SOL    HW115173   4.100   6.273   5.418
 4758SOL    HW215174   4.026   6.134   5.373
 4759SOL     OW15175   5.183   5.621   4.998
 4759SOL    HW115176   5.136   5.696   5.044
 4759SOL    HW215177   5.244   5.575   5.063
 4760SOL     OW15178   2.562   1.688   1.323
 4760SOL    HW115179   2.516   1.654   1.405
 4760SOL    HW215180   2.657   1.712   1.345
 4761SOL     OW15181   6.375   0.364   6.191
 4761SOL    HW115182   6.422   0.407   6.268
 4761SOL    HW215183   6.439   0.351   6.116
 4762SOL     OW15184   1.947   4.396   2.501
 4762SOL    HW115185   1.988   4.327   2.440
 4762SOL    HW215186   1.966   4.487   2.465
 4763SOL     OW15187   6.177   5.940   3.142
 4763SOL    HW115188   6.236   5.904   3.069
 4763SOL    HW215189   6.175   6.040   3.136
 4764SOL     OW15190   4.545   3.883   5.360
 4764SOL    HW115191   4.585   3.793   5.342
 4764SOL    HW215192   4.614   3.953   5.344
 4765SOL     OW15193   4.706   6.758   4.874
 4765SOL    HW115194   4.717   6.683   4.939
 4765SOL    HW215195   4.722   6.845   4.920
 4766SOL     OW15196   3.158   0.707   3.438
 4766SOL    HW115197   3.101   0.667   3.366
 4766SOL    HW215198   3.139   0.662   3.525
 4767SOL     OW15199   4.273   6.362   1.304
 4767SOL    HW115200   4.340   6.288   1.299
 4767SOL    HW215201   4.267   6.408   1.215
 4768SOL     OW15202   5.249   1.791   4.909
 4768SOL    HW115203   5.182   1.852   4.949
 4768SOL    HW215204   5.331   1.790   4.967
 4769SOL     OW15205   3.823   5.569   1.569
 4769SOL    HW115206   3.739   5.622   1.580
 4769SOL    HW215207   3.902   5.629   1.581
 4770SOL     OW15208   2.047   0.063   3.003
 4770SOL    HW115209   2.027   0.127   3.077
 4770SOL    HW215210   2.146   0.054   2.992
 4771SOL     OW15211   3.365   4.614   5.563
 4771SOL    HW115212   3.436   4.615   5.633
 4771SOL    HW215213   3.406   4.588   5.475
 4772SOL     OW15214   2.595   6.757   1.029
 4772SOL    HW115215   2.617   6.703   0.948
 4772SOL    HW215216   2.537   6.835   1.002
 4773SOL     OW15217   0.285   5.570   4.362
 4773SOL    HW115218   0.357   5.637   4.343
 4773SOL    HW215219   0.285   5.500   4.291
 4774SOL     OW15220   0.843   2.991   2.280
 4774SOL    HW115221   0.889   2.938   2.350
 4774SOL    HW215222   0.825   3.083   2.313
 4775SOL     OW15223   5.569   0.359   3.365
 4775SOL    HW115224   5.497   0.290   3.366
 4775SOL    HW215225   5.617   0.356   3.277
 4776SOL     OW15226   2.608   6.561   3.008
 4776SOL    HW115227   2.682   6.552   2.940
 4776SOL    HW215228   2.522   6.580   2.960
 4777SOL     OW15229   2.483   4.235   1.250
 4777SOL    HW115230   2.384   4.234   1.259
 4777SOL    HW215231   2.521   4.316   1.294
 4778SOL     OW15232   5.353   2.481   1.823
 4778SOL    HW115233   5.326   2.388   1.796
 4778SOL    HW215234   5.360   2.485   1.923
 4779SOL     OW15235   6.447   0.159   2.518
 4779SOL    HW115236   6.539   0.122   2.535
 4779SOL    HW215237   6.448   0.212   2.434
 4780SOL     OW15238   0.360   0.654   6.129
 4780SOL    HW115239   0.396   0.606   6.049
 4780SOL    HW215240   0.375   0.752   6.119
 4781SOL     OW15241   2.727   5.796   1.506
 4781SOL    HW115242   2.779   5.880   1.526
 4781SOL    HW215243   2.696   5.798   1.411
 4782SOL     OW15244   4.673   7.007   7.004
 4782SOL    HW115245   4.606   6.973   6.939
 4782SOL    HW215246   4.664   0.078   7.013
 4783SOL     OW15247   4.452   4.684   0.438
 4783SOL    HW115248   4.552   4.679   0.441
 4783SOL    HW215249   4.414   4.599   0.476
 4784SOL     OW15250   6.213   5.409   6.005
 4784SOL    HW115251   6.114   5.404   6.005
 4784SOL    HW215252   6.250   5.352   6.079
 4785SOL     OW15253   6.643   6.285   0.891
 4785SOL    HW115254   6.648   6.229   0.973
 4785SOL    HW215255   6.735   6.315   0.866
 4786SOL     OW15256   1.746   2.260   2.524
 4786SOL    HW115257   1.811   2.234   2.453
 4786SOL    HW215258   1.786   2.330   2.583
 4787SOL     OW15259   3.614   1.956   3.757
 4787SOL    HW115260   3.708   1.931   3.780
 4787SOL    HW215261   3.562   1.874   3.732
 4788SOL     OW15262   1.333   5.691   5.844
 4788SOL    HW115263   1.292   5.618   5.789
 4788SOL    HW215264   1.394   5.745   5.786
 4789SOL     OW15265   5.173   0.746   6.885
 4789SOL    HW115266   5.167   0.676   6.814
 4789SOL    HW215267   5.082   0.780   6.906
 4790SOL     OW15268   5.853   3.532   6.983
 4790SOL    HW115269   5.893   3.441   6.989
 4790SOL    HW215270   5.826   3.550   6.888
 4791SOL     OW15271   6.033   1.380   1.979
 4791SOL    HW115272   5.951   1.390   1.922
 4791SOL    HW215273   6.086   1.302   1.948
 4792SOL     OW15274   1.890   2.488   2.626
 4792SOL    HW115275   1.967   2.440   2.583
 4792SOL    HW215276   1.834   2.531   2.556
 4793SOL     OW15277   1.440   1.220   5.812
 4793SOL    HW115278   1.464   1.178   5.900
 4793SOL    HW215279   1.481   1.167   5.738
 4794SOL     OW15280   3.683   0.456   2.753
 4794SOL    HW115281   3.627   0.421   2.828
 4794SOL    HW215282   3.777   0.471   2.785
 4795SOL     OW15283   6.663   2.676   4.169
 4795SOL    HW115284   6.671   2.587   4.123
 4795SOL    HW215285   6.723   2.676   4.250
 4796SOL     OW15286   5.276   2.367   0.066
 4796SOL    HW115287   5.316   2.441   0.011
 4796SOL    HW215288   5.180   2.355   0.041
 4797SOL     OW15289   1.750   6.010   5.538
 4797SOL    HW115290   1.789   6.096   5.569
 4797SOL    HW215291   1.822   5.941   5.531
 4798SOL     OW15292   0.442   3.979   5.352
 4798SOL    HW115293   0.479   4.043   5.284
 4798SOL    HW215294   0.348   3.957   5.328
 4799SOL     OW15295   5.344   1.476   5.472
 4799SOL    HW115296   5.286   1.538   5.418
 4799SOL    HW215297   5.383   1.527   5.548
 4800SOL     OW15298   3.471   3.506   5.677
 4800SOL    HW115299   3.374   3.526   5.686
 4800SOL    HW215300   3.501   3.451   5.755
 4801SOL     OW15301   2.573   2.283   0.466
 4801SOL    HW115302   2.521   2.367   0.458
 4801SOL    HW215303   2.634   2.288   0.546
 4802SOL     OW15304   1.170   6.215   2.286
 4802SOL    HW115305   1.122   6.221   2.373
 4802SOL    HW215306   1.104   6.219   2.211
 4803SOL     OW15307   0.860   6.652   0.771
 4803SOL    HW115308   0.782   6.601   0.806
 4803SOL    HW215309   0.926   6.590   0.729
 4804SOL     OW15310   4.391   5.201   6.627
 4804SOL    HW115311   4.320   5.136   6.653
 4804SOL    HW215312   4.437   5.169   6.544
 4805SOL     OW15313   6.730   6.958   0.402
 4805SOL    HW115314   6.779   6.933   0.318
 4805SOL    HW215315   6.702   6.876   0.451
 4806SOL     OW15316   6.694   3.836   3.889
 4806SOL    HW115317   6.747   3.896   3.950
 4806SOL    HW215318   6.756   3.785   3.831
 4807SOL     OW15319   1.110   5.519   1.182
 4807SOL    HW115320   1.179   5.456   1.216
 4807SOL    HW215321   1.148   5.612   1.178
 4808SOL     OW15322   5.786   3.612   0.693
 4808SOL    HW115323   5.798   3.652   0.784
 4808SOL    HW215324   5.689   3.613   0.668
 4809SOL     OW15325   3.473   4.203   6.920
 4809SOL    HW115326   3.489   4.205   6.822
 4809SOL    HW215327   3.551   4.245   6.967
 4810SOL     OW15328   1.508   4.941   1.296
 4810SOL    HW115329   1.533   4.899   1.209
 4810SOL    HW215330   1.436   4.888   1.339
 4811SOL     OW15331   2.597   4.836   2.347
 4811SOL    HW115332   2.500   4.859   2.347
 4811SOL    HW215333   2.649   4.911   2.388
 4812SOL     OW15334   6.596   4.812   5.454
 4812SOL    HW115335   6.577   4.728   5.403
 4812SOL    HW215336   6.665   4.793   5.524
 4813SOL     OW15337   4.577   1.146   2.517
 4813SOL    HW115338   4.485   1.105   2.521
 4813SOL    HW215339   4.641   1.080   2.477
 4814SOL     OW15340   6.047   4.920   0.164
 4814SOL    HW115341   6.118   4.988   0.145
 4814SOL    HW215342   6.082   4.851   0.226
 4815SOL     OW15343   5.050   5.369   2.600
 4815SOL    HW115344   5.005   5.351   2.513
 4815SOL    HW215345   5.120   5.300   2.617
 4816SOL     OW15346   5.557   5.389   3.493
 4816SOL    HW115347   5.537   5.384   3.395
 4816SOL    HW215348   5.475   5.420   3.542
 4817SOL     OW15349   0.776   2.048   6.405
 4817SOL    HW115350   0.691   2.005   6.437
 4817SOL    HW215351   0.826   2.084   6.484
 4818SOL     OW15352   0.865   6.994   3.859
 4818SOL    HW115353   0.802   6.916   3.864
 4818SOL    HW215354   0.849   0.015   3.773
 4819SOL     OW15355   1.414   3.111   0.119
 4819SOL    HW115356   1.318   3.136   0.124
 4819SOL    HW215357   1.434   3.073   0.028
 4820SOL     OW15358   6.803   3.066   2.088
 4820SOL    HW115359   6.814   3.129   2.011
 4820SOL    HW215360   6.747   2.988   2.059
 4821SOL     OW15361   0.564   5.948   1.962
 4821SOL    HW115362   0.467   5.922   1.962
 4821SOL    HW215363   0.579   6.019   1.894
 4822SOL     OW15364   1.604   4.100   4.028
 4822SOL    HW115365   1.592   4.070   3.934
 4822SOL    HW215366   1.675   4.045   4.072
 4823SOL     OW15367   1.143   1.922   2.536
 4823SOL    HW115368   1.053   1.934   2.576
 4823SOL    HW215369   1.213   1.954   2.600
 4824SOL     OW15370   4.896   1.675   5.416
 4824SOL    HW115371   4.828   1.727   5.365
 4824SOL    HW215372   4.963   1.637   5.353
 4825SOL     OW15373   0.984   1.075   4.270
 4825SOL    HW115374   0.996   0.976   4.263
 4825SOL    HW215375   0.890   1.095   4.298
 4826SOL     OW15376   5.039   0.587   0.916
 4826SOL    HW115377   5.001   0.627   0.832
 4826SOL    HW215378   4.973   0.523   0.955
 4827SOL     OW15379   6.509   1.470   0.117
 4827SOL    HW115380   6.605   1.440   0.123
 4827SOL    HW215381   6.506   1.569   0.110
 4828SOL     OW15382   4.270   0.148   1.713
 4828SOL    HW115383   4.277   0.195   1.625
 4828SOL    HW215384   4.213   0.201   1.776
 4829SOL     OW15385   3.627   6.803   6.580
 4829SOL    HW115386   3.655   6.737   6.510
 4829SOL    HW215387   3.626   6.759   6.669
 4830SOL     OW15388   3.856   5.807   3.669
 4830SOL    HW115389   3.895   5.734   3.725
 4830SOL    HW215390   3.802   5.767   3.595
 4831SOL     OW15391   3.054   5.845   6.012
 4831SOL    HW115392   2.994   5.797   5.948
 4831SOL    HW215393   3.149   5.816   5.997
 4832SOL     OW15394   3.447   3.469   4.376
 4832SOL    HW115395   3.507   3.540   4.339
 4832SOL    HW215396   3.501   3.386   4.395
 4833SOL     OW15397   5.763   2.048   3.835
 4833SOL    HW115398   5.857   2.077   3.814
 4833SOL    HW215399   5.765   1.959   3.881
 4834SOL     OW15400   2.701   5.539   2.843
 4834SOL    HW115401   2.668   5.445   2.838
 4834SOL    HW215402   2.778   5.545   2.906
 4835SOL     OW15403   6.289   3.971   5.970
 4835SOL    HW115404   6.316   3.908   5.897
 4835SOL    HW215405   6.191   3.962   5.987
 4836SOL     OW15406   4.526   1.221   5.377
 4836SOL    HW115407   4.601   1.233   5.442
 4836SOL    HW215408   4.482   1.309   5.360
 4837SOL     OW15409   6.405   2.950   3.619
 4837SOL    HW115410   6.494   2.909   3.639
 4837SOL    HW215411   6.414   3.050   3.615
 4838SOL     OW15412   1.182   5.059   5.942
 4838SOL    HW115413   1.250   4.995   5.978
 4838SOL    HW215414   1.093   5.038   5.982
 4839SOL     OW15415   1.540   2.565   6.599
 4839SOL    HW115416   1.440   2.566   6.604
 4839SOL    HW215417   1.575   2.657   6.612
 4840SOL     OW15418   5.396   4.015   5.320
 4840SOL    HW115419   5.496   4.023   5.313
 4840SOL    HW215420   5.363   3.951   5.251
 4841SOL     OW15421   3.079   5.109   3.613
 4841SOL    HW115422   3.150   5.109   3.684
 4841SOL    HW215423   3.083   5.024   3.561
 4842SOL     OW15424   2.244   5.115   3.668
 4842SOL    HW115425   2.248   5.122   3.568
 4842SOL    HW215426   2.325   5.067   3.702
 4843SOL     OW15427   0.282   3.020   2.254
 4843SOL    HW115428   0.255   3.068   2.171
 4843SOL    HW215429   0.229   3.054   2.332
 4844SOL     OW15430   1.213   4.355   5.146
 4844SOL    HW115431   1.190   4.307   5.061
 4844SOL    HW215432   1.278   4.300   5.198
 4845SOL     OW15433   4.505   4.674   5.148
 4845SOL    HW115434   4.577   4.622   5.195
 4845SOL    HW215435   4.475   4.623   5.067
 4846SOL     OW15436   0.372   2.201   4.115
 4846SOL    HW115437   0.365   2.294   4.080
 4846SOL    HW215438   0.464   2.166   4.099
 4847SOL     OW15439   2.650   0.132   5.625
 4847SOL    HW115440   2.561   0.091   5.647
 4847SOL    HW215441   2.722   0.081   5.673
 4848SOL     OW15442   1.901   1.199   3.768
 4848SOL    HW115443   1.895   1.127   3.699
 4848SOL    HW215444   1.997   1.215   3.791
 4849SOL     OW15445   1.591   0.283   0.447
 4849SOL    HW115446   1.633   0.290   0.538
 4849SOL    HW215447   1.595   0.371   0.401
 4850SOL     OW15448   4.693   0.518   1.346
 4850SOL    HW115449   4.630   0.468   1.287
 4850SOL    HW215450   4.775   0.542   1.295
 4851SOL     OW15451   3.683   5.705   0.404
 4851SOL    HW115452   3.732   5.631   0.358
 4851SOL    HW215453   3.587   5.704   0.375
 4852SOL     OW15454   3.502   5.853   5.111
 4852SOL    HW115455   3.560   5.917   5.061
 4852SOL    HW215456   3.545   5.832   5.199
 4853SOL     OW15457   3.306   0.620   2.765
 4853SOL    HW115458   3.258   0.706   2.782
 4853SOL    HW215459   3.398   0.638   2.730
 4854SOL     OW15460   5.398   6.649   1.894
 4854SOL    HW115461   5.496   6.655   1.877
 4854SOL    HW215462   5.373   6.554   1.911
 4855SOL     OW15463   0.195   3.968   4.962
 4855SOL    HW115464   0.208   3.895   4.894
 4855SOL    HW215465   0.135   3.936   5.035
 4856SOL     OW15466   0.416   3.541   2.894
 4856SOL    HW115467   0.512   3.522   2.876
 4856SOL    HW215468   0.359   3.492   2.827
 4857SOL     OW15469   2.908   2.297   4.326
 4857SOL    HW115470   2.994   2.293   4.276
 4857SOL    HW215471   2.848   2.365   4.284
 4858SOL     OW15472   0.306   0.083   4.895
 4858SOL    HW115473   0.229   0.133   4.855
 4858SOL    HW215474   0.341   0.133   4.974
 4859SOL     OW15475   0.964   5.555   2.313
 4859SOL    HW115476   0.920   5.485   2.369
 4859SOL    HW215477   0.988   5.634   2.370
 4860SOL     OW15478   4.485   5.468   0.180
 4860SOL    HW115479   4.502   5.563   0.152
 4860SOL    HW215480   4.548   5.443   0.254
 4861SOL     OW15481   6.563   4.740   5.767
 4861SOL    HW115482   6.556   4.835   5.798
 4861SOL    HW215483   6.653   4.725   5.725
 4862SOL     OW15484   2.642   4.834   5.060
 4862SOL    HW115485   2.707   4.758   5.052
 4862SOL    HW215486   2.686   4.912   5.104
 4863SOL     OW15487   4.862   3.160   3.056
 4863SOL    HW115488   4.930   3.132   2.987
 4863SOL    HW215489   4.869   3.258   3.070
 4864SOL     OW15490   3.314   1.779   1.905
 4864SOL    HW115491   3.232   1.771   1.847
 4864SOL    HW215492   3.317   1.871   1.945
 4865SOL     OW15493   3.248   5.111   5.638
 4865SOL    HW115494   3.274   5.055   5.560
 4865SOL    HW215495   3.244   5.054   5.720
 4866SOL     OW15496   6.260   4.754   1.825
 4866SOL    HW115497   6.242   4.658   1.847
 4866SOL    HW215498   6.291   4.802   1.907
 4867SOL     OW15499   5.179   5.391   2.880
 4867SOL    HW115500   5.095   5.393   2.934
 4867SOL    HW215501   5.177   5.313   2.818
 4868SOL     OW15502   0.714   5.723   1.315
 4868SOL    HW115503   0.808   5.689   1.306
 4868SOL    HW215504   0.671   5.682   1.396
 4869SOL     OW15505   0.051   1.962   0.122
 4869SOL    HW115506   0.028   2.051   0.083
 4869SOL    HW215507   0.137   1.968   0.172
 4870SOL     OW15508   4.247   6.248   2.144
 4870SOL    HW115509   4.267   6.163   2.095
 4870SOL    HW215510   4.285   6.326   2.094
 4871SOL     OW15511   1.329   1.772   3.255
 4871SOL    HW115512   1.301   1.712   3.179
 4871SOL    HW215513   1.318   1.723   3.342
 4872SOL     OW15514   0.920   0.346   2.792
 4872SOL    HW115515   0.853   0.367   2.863
 4872SOL    HW215516   1.012   0.373   2.824
 4873SOL     OW15517   0.298   5.287   4.838
 4873SOL    HW115518   0.219   5.302   4.779
 4873SOL    HW215519   0.299   5.357   4.910
 4874SOL     OW15520   5.001   3.725   3.021
 4874SOL    HW115521   4.974   3.680   2.936
 4874SOL    HW215522   5.069   3.796   3.002
 4875SOL     OW15523   5.932   1.251   1.216
 4875SOL    HW115524   5.873   1.210   1.285
 4875SOL    HW215525   5.987   1.324   1.258
 4876SOL     OW15526   5.900   0.785   6.312
 4876SOL    HW115527   5.802   0.783   6.332
 4876SOL    HW215528   5.946   0.717   6.368
 4877SOL     OW15529   6.133   1.951   0.822
 4877SOL    HW115530   6.126   2.043   0.860
 4877SOL    HW215531   6.198   1.897   0.876
 4878SOL     OW15532   0.268   1.618   1.982
 4878SOL    HW115533   0.208   1.666   2.046
 4878SOL    HW215534   0.285   1.525   2.015
 4879SOL     OW15535   4.262   4.685   3.597
 4879SOL    HW115536   4.294   4.640   3.513
 4879SOL    HW215537   4.336   4.686   3.665
 4880SOL     OW15538   5.783   0.864   0.117
 4880SOL    HW115539   5.796   0.859   0.216
 4880SOL    HW215540   5.772   0.959   0.090
 4881SOL     OW15541   2.874   6.301   6.201
 4881SOL    HW115542   2.872   6.233   6.128
 4881SOL    HW215543   2.936   6.270   6.273
 4882SOL     OW15544   6.156   1.583   5.468
 4882SOL    HW115545   6.150   1.663   5.408
 4882SOL    HW215546   6.105   1.507   5.427
 4883SOL     OW15547   6.135   4.338   2.206
 4883SOL    HW115548   6.053   4.383   2.172
 4883SOL    HW215549   6.160   4.263   2.144
 4884SOL     OW15550   4.031   6.670   1.656
 4884SOL    HW115551   4.120   6.629   1.640
 4884SOL    HW215552   4.042   6.758   1.702
 4885SOL     OW15553   2.020   6.664   1.159
 4885SOL    HW115554   1.985   6.731   1.224
 4885SOL    HW215555   2.043   6.580   1.208
 4886SOL     OW15556   6.491   6.917   6.936
 4886SOL    HW115557   6.555   6.908   6.860
 4886SOL    HW215558   6.429   6.993   6.919
 4887SOL     OW15559   6.725   2.256   3.577
 4887SOL    HW115560   6.754   2.207   3.494
 4887SOL    HW215561   6.704   2.190   3.649
 4888SOL     OW15562   1.749   6.146   3.136
 4888SOL    HW115563   1.827   6.162   3.076
 4888SOL    HW215564   1.679   6.216   3.120
 4889SOL     OW15565   1.269   2.177   0.100
 4889SOL    HW115566   1.326   2.223   0.168
 4889SOL    HW215567   1.183   2.148   0.142
 4890SOL     OW15568   0.579   1.019   4.015
 4890SOL    HW115569   0.540   1.111   4.002
 4890SOL    HW215570   0.668   1.014   3.972
 4891SOL     OW15571   1.069   4.898   0.578
 4891SOL    HW115572   1.141   4.959   0.610
 4891SOL    HW215573   0.979   4.935   0.602
 4892SOL     OW15574   1.611   5.948   1.666
 4892SOL    HW115575   1.512   5.947   1.651
 4892SOL    HW215576   1.658   5.980   1.584
 4893SOL     OW15577   6.528   4.161   6.628
 4893SOL    HW115578   6.547   4.065   6.607
 4893SOL    HW215579   6.431   4.180   6.616
 4894SOL     OW15580   1.634   0.334   3.410
 4894SOL    HW115581   1.577   0.363   3.333
 4894SOL    HW215582   1.703   0.269   3.377
 4895SOL     OW15583   0.883   3.791   0.607
 4895SOL    HW115584   0.922   3.795   0.515
 4895SOL    HW215585   0.945   3.836   0.671
 4896SOL     OW15586   3.665   5.136   4.177
 4896SOL    HW115587   3.731   5.087   4.119
 4896SOL    HW215588   3.639   5.078   4.254
 4897SOL     OW15589   3.598   5.496   6.724
 4897SOL    HW115590   3.531   5.486   6.797
 4897SOL    HW215591   3.553   5.533   6.643
 4898SOL     OW15592   5.539   2.228   5.335
 4898SOL    HW115593   5.531   2.129   5.346
 4898SOL    HW215594   5.595   2.267   5.408
 4899SOL     OW15595   6.123   4.737   3.245
 4899SOL    HW115596   6.162   4.828   3.230
 4899SOL    HW215597   6.092   4.729   3.340
 4900SOL     OW15598   0.430   6.622   5.501
 4900SOL    HW115599   0.391   6.604   5.591
 4900SOL    HW215600   0.491   6.701   5.506
 4901SOL     OW15601   1.285   0.093   4.383
 4901SOL    HW115602   1.229   0.039   4.446
 4901SOL    HW215603   1.279   0.190   4.407
 4902SOL     OW15604   2.184   4.441   1.665
 4902SOL    HW115605   2.185   4.445   1.765
 4902SOL    HW215606   2.229   4.357   1.634
 4903SOL     OW15607   3.749   6.601   6.758
 4903SOL    HW115608   3.798   6.552   6.686
 4903SOL    HW215609   3.813   6.630   6.828
 4904SOL     OW15610   1.622   5.647   4.505
 4904SOL    HW115611   1.557   5.571   4.502
 4904SOL    HW215612   1.622   5.687   4.597
 4905SOL     OW15613   4.938   2.666   2.350
 4905SOL    HW115614   4.963   2.718   2.269
 4905SOL    HW215615   4.885   2.724   2.412
 4906SOL     OW15616   4.647   0.053   0.414
 4906SOL    HW115617   4.585   7.007   0.437
 4906SOL    HW215618   4.700   0.079   0.495
 4907SOL     OW15619   4.044   6.840   3.968
 4907SOL    HW115620   4.128   6.834   3.914
 4907SOL    HW215621   4.045   6.771   4.040
 4908SOL     OW15622   3.790   5.680   6.682
 4908SOL    HW115623   3.855   5.692   6.757
 4908SOL    HW215624   3.709   5.632   6.716
 4909SOL     OW15625   6.125   6.720   5.331
 4909SOL    HW115626   6.174   6.639   5.297
 4909SOL    HW215627   6.084   6.698   5.420
 4910SOL     OW15628   5.416   0.773   5.378
 4910SOL    HW115629   5.501   0.803   5.420
 4910SOL    HW215630   5.339   0.800   5.436
 4911SOL     OW15631   0.294   2.288   6.052
 4911SOL    HW115632   0.292   2.359   6.123
 4911SOL    HW215633   0.350   2.320   5.975
 4912SOL     OW15634   3.742   1.763   2.647
 4912SOL    HW115635   3.731   1.852   2.603
 4912SOL    HW215636   3.743   1.692   2.577
 4913SOL     OW15637   3.536   4.111   3.630
 4913SOL    HW115638   3.493   4.075   3.547
 4913SOL    HW215639   3.495   4.199   3.653
 4914SOL     OW15640   2.857   0.294   4.080
 4914SOL    HW115641   2.941   0.295   4.133
 4914SOL    HW215642   2.783   0.256   4.136
 4915SOL     OW15643   4.400   6.491   4.580
 4915SOL    HW115644   4.446   6.542   4.653
 4915SOL    HW215645   4.365   6.555   4.512
 4916SOL     OW15646   3.082   2.105   3.376
 4916SOL    HW115647   2.999   2.160   3.384
 4916SOL    HW215648   3.111   2.103   3.280
 4917SOL     OW15649   1.560   3.902   0.764
 4917SOL    HW115650   1.526   3.965   0.835
 4917SOL    HW215651   1.617   3.832   0.806
 4918SOL     OW15652   2.861   0.450   2.382
 4918SOL    HW115653   2.931   0.484   2.319
 4918SOL    HW215654   2.815   0.528   2.425
 4919SOL     OW15655   1.635   1.540   2.746
 4919SOL    HW115656   1.648   1.441   2.738
 4919SOL    HW215657   1.574   1.571   2.673
 4920SOL     OW15658   4.545   0.839   0.362
 4920SOL    HW115659   4.616   0.792   0.310
 4920SOL    HW215660   4.456   0.801   0.337
 4921SOL     OW15661   2.498   4.248   1.633
 4921SOL    HW115662   2.474   4.274   1.727
 4921SOL    HW215663   2.415   4.244   1.577
 4922SOL     OW15664   1.704   3.210   5.442
 4922SOL    HW115665   1.677   3.146   5.514
 4922SOL    HW215666   1.791   3.253   5.467
 4923SOL     OW15667   5.272   0.371   2.103
 4923SOL    HW115668   5.300   0.341   2.012
 4923SOL    HW215669   5.341   0.433   2.140
 4924SOL     OW15670   1.513   3.902   4.173
 4924SOL    HW115671   1.495   3.991   4.132
 4924SOL    HW215672   1.531   3.914   4.271
 4925SOL     OW15673   4.639   6.697   1.025
 4925SOL    HW115674   4.650   6.680   1.123
 4925SOL    HW215675   4.635   6.796   1.008
 4926SOL     OW15676   5.799   2.598   1.680
 4926SOL    HW115677   5.743   2.647   1.612
 4926SOL    HW215678   5.746   2.522   1.717
 4927SOL     OW15679   3.629   2.922   2.447
 4927SOL    HW115680   3.720   2.908   2.409
 4927SOL    HW215681   3.565   2.947   2.374
 4928SOL     OW15682   0.828   6.727   6.699
 4928SOL    HW115683   0.796   6.808   6.748
 4928SOL    HW215684   0.849   6.655   6.765
 4929SOL     OW15685   1.506   4.520   4.945
 4929SOL    HW115686   1.438   4.538   5.016
 4929SOL    HW215687   1.519   4.603   4.890
 4930SOL     OW15688   0.958   1.819   0.364
 4930SOL    HW115689   0.987   1.883   0.292
 4930SOL    HW215690   0.858   1.821   0.372
 4931SOL     OW15691   0.775   6.946   6.841
 4931SOL    HW115692   0.742   6.964   6.934
 4931SOL    HW215693   0.709   6.982   6.774
 4932SOL     OW15694   2.778   2.789   1.584
 4932SOL    HW115695   2.875   2.803   1.560
 4932SOL    HW215696   2.768   2.702   1.633
 4933SOL     OW15697   2.507   1.385   4.481
 4933SOL    HW115698   2.589   1.436   4.453
 4933SOL    HW215699   2.433   1.405   4.417
 4934SOL     OW15700   0.454   5.037   3.935
 4934SOL    HW115701   0.416   4.947   3.957
 4934SOL    HW215702   0.521   5.028   3.861
 4935SOL     OW15703   2.220   1.150   6.642
 4935SOL    HW115704   2.231   1.158   6.741
 4935SOL    HW215705   2.232   1.239   6.600
 4936SOL     OW15706   2.898   5.588   1.575
 4936SOL    HW115707   2.979   5.645   1.559
 4936SOL    HW215708   2.816   5.638   1.551
 4937SOL     OW15709   0.549   3.996   6.196
 4937SOL    HW115710   0.614   3.954   6.132
 4937SOL    HW215711   0.473   4.036   6.145
 4938SOL     OW15712   3.154   4.332   0.967
 4938SOL    HW115713   3.130   4.241   0.934
 4938SOL    HW215714   3.073   4.377   1.005
 4939SOL     OW15715   1.867   1.632   1.771
 4939SOL    HW115716   1.808   1.591   1.701
 4939SOL    HW215717   1.850   1.589   1.859
 4940SOL     OW15718   6.955   2.697   4.774
 4940SOL    HW115719   7.008   2.647   4.705
 4940SOL    HW215720   7.015   2.724   4.849
 4941SOL     OW15721   4.050   2.513   5.370
 4941SOL    HW115722   4.112   2.471   5.437
 4941SOL    HW215723   4.101   2.532   5.286
 4942SOL     OW15724   5.626   3.146   3.712
 4942SOL    HW115725   5.632   3.211   3.636
 4942SOL    HW215726   5.591   3.192   3.793
 4943SOL     OW15727   5.759   3.517   6.735
 4943SOL    HW115728   5.733   3.568   6.654
 4943SOL    HW215729   5.762   3.420   6.714
 4944SOL     OW15730   1.559   4.853   0.657
 4944SOL    HW115731   1.546   4.815   0.565
 4944SOL    HW215732   1.584   4.780   0.720
 4945SOL     OW15733   1.864   1.212   5.145
 4945SOL    HW115734   1.963   1.221   5.132
 4945SOL    HW215735   1.818   1.221   5.057
 4946SOL     OW15736   0.951   4.232   6.920
 4946SOL    HW115737   0.904   4.291   6.985
 4946SOL    HW215738   1.034   4.277   6.887
 4947SOL     OW15739   2.239   0.802   1.833
 4947SOL    HW115740   2.238   0.705   1.808
 4947SOL    HW215741   2.252   0.810   1.932
 4948SOL     OW15742   1.917   1.850   1.993
 4948SOL    HW115743   1.863   1.868   1.911
 4948SOL    HW215744   1.967   1.764   1.982
 4949SOL     OW15745   6.734   3.607   5.887
 4949SOL    HW115746   6.668   3.544   5.846
 4949SOL    HW215747   6.742   3.689   5.830
 4950SOL     OW15748   2.472   4.423   5.574
 4950SOL    HW115749   2.485   4.441   5.477
 4950SOL    HW215750   2.403   4.486   5.610
 4951SOL     OW15751   6.052   6.516   3.615
 4951SOL    HW115752   6.098   6.603   3.634
 4951SOL    HW215753   6.015   6.479   3.700
 4952SOL     OW15754   6.791   0.436   6.342
 4952SOL    HW115755   6.870   0.487   6.308
 4952SOL    HW215756   6.709   0.492   6.333
 4953SOL     OW15757   1.090   1.580   4.753
 4953SOL    HW115758   1.062   1.660   4.806
 4953SOL    HW215759   1.046   1.584   4.663
 4954SOL     OW15760   2.405   4.087   5.762
 4954SOL    HW115761   2.324   4.035   5.736
 4954SOL    HW215762   2.466   4.028   5.815
 4955SOL     OW15763   3.100   5.418   0.207
 4955SOL    HW115764   3.067   5.339   0.260
 4955SOL    HW215765   3.127   5.387   0.116
 4956SOL     OW15766   2.728   0.616   5.304
 4956SOL    HW115767   2.773   0.627   5.392
 4956SOL    HW215768   2.636   0.581   5.318
 4957SOL     OW15769   6.280   4.310   6.892
 4957SOL    HW115770   6.298   4.407   6.911
 4957SOL    HW215771   6.232   4.302   6.804
 4958SOL     OW15772   2.296   7.004   5.995
 4958SOL    HW115773   2.294   6.986   5.897
 4958SOL    HW215774   2.210   0.018   6.023
 4959SOL     OW15775   6.953   2.434   1.445
 4959SOL    HW115776   0.015   2.436   1.487
 4959SOL    HW215777   6.884   2.418   1.516
 4960SOL     OW15778   4.305   5.165   3.680
 4960SOL    HW115779   4.271   5.246   3.728
 4960SOL    HW215780   4.381   5.125   3.731
 4961SOL     OW15781   3.009   1.236   6.677
 4961SOL    HW115782   3.009   1.262   6.774
 4961SOL    HW215783   2.948   1.158   6.664
 4962SOL     OW15784   6.627   3.343   0.767
 4962SOL    HW115785   6.651   3.399   0.688
 4962SOL    HW215786   6.705   3.285   0.792
 4963SOL     OW15787   0.917   4.873   0.885
 4963SOL    HW115788   0.911   4.924   0.800
 4963SOL    HW215789   0.825   4.856   0.921
 4964SOL     OW15790   2.600   6.822   4.807
 4964SOL    HW115791   2.541   6.809   4.727
 4964SOL    HW215792   2.685   6.771   4.794
 4965SOL     OW15793   1.234   7.015   2.881
 4965SOL    HW115794   1.220   6.959   2.963
 4965SOL    HW215795   1.204   6.964   2.800
 4966SOL     OW15796   3.080   6.220   4.403
 4966SOL    HW115797   3.099   6.203   4.500
 4966SOL    HW215798   3.016   6.151   4.369
 4967SOL     OW15799   4.054   4.632   5.258
 4967SOL    HW115800   3.969   4.665   5.298
 4967SOL    HW215801   4.072   4.539   5.290
 4968SOL     OW15802   0.535   0.938   4.259
 4968SOL    HW115803   0.562   0.971   4.169
 4968SOL    HW215804   0.550   0.840   4.265
 4969SOL     OW15805   0.470   6.753   2.202
 4969SOL    HW115806   0.560   6.792   2.220
 4969SOL    HW215807   0.458   6.743   2.103
 4970SOL     OW15808   1.460   0.666   1.583
 4970SOL    HW115809   1.509   0.720   1.514
 4970SOL    HW215810   1.399   0.726   1.634
 4971SOL     OW15811   6.580   6.112   2.743
 4971SOL    HW115812   6.523   6.108   2.661
 4971SOL    HW215813   6.570   6.201   2.786
 4972SOL     OW15814   1.247   4.218   1.492
 4972SOL    HW115815   1.154   4.182   1.495
 4972SOL    HW215816   1.292   4.188   1.408
 4973SOL     OW15817   7.018   0.463   1.343
 4973SOL    HW115818   6.980   0.531   1.281
 4973SOL    HW215819   7.010   0.495   1.438
 4974SOL     OW15820   4.292   3.646   6.277
 4974SOL    HW115821   4.389   3.625   6.285
 4974SOL    HW215822   4.242   3.602   6.352
 4975SOL     OW15823   5.460   4.274   0.810
 4975SOL    HW115824   5.404   4.258   0.891
 4975SOL    HW215825   5.529   4.344   0.830
 4976SOL     OW15826   0.485   0.528   4.743
 4976SOL    HW115827   0.433   0.465   4.685
 4976SOL    HW215828   0.471   0.504   4.839
 4977SOL     OW15829   3.046   4.003   6.758
 4977SOL    HW115830   3.087   4.090   6.730
 4977SOL    HW215831   2.964   3.986   6.704
 4978SOL     OW15832   4.834   4.380   5.284
 4978SOL    HW115833   4.868   4.474   5.287
 4978SOL    HW215834   4.911   4.317   5.276
 4979SOL     OW15835   1.171   6.422   6.744
 4979SOL    HW115836   1.220   6.360   6.805
 4979SOL    HW215837   1.237   6.479   6.694
 4980SOL     OW15838   0.013   4.526   2.720
 4980SOL    HW115839   6.992   4.509   2.805
 4980SOL    HW215840   6.984   4.580   2.658
 4981SOL     OW15841   3.289   4.845   1.892
 4981SOL    HW115842   3.258   4.878   1.981
 4981SOL    HW215843   3.368   4.785   1.905
 4982SOL     OW15844   4.399   1.736   6.539
 4982SOL    HW115845   4.469   1.793   6.581
 4982SOL    HW215846   4.326   1.718   6.605
 4983SOL     OW15847   6.325   5.157   4.135
 4983SOL    HW115848   6.294   5.121   4.047
 4983SOL    HW215849   6.266   5.233   4.163
 4984SOL     OW15850   4.696   4.242   3.024
 4984SOL    HW115851   4.616   4.301   3.011
 4984SOL    HW215852   4.686   4.160   2.968
 4985SOL     OW15853   5.307   6.133   2.690
 4985SOL    HW115854   5.404   6.148   2.673
 4985SOL    HW215855   5.290   6.133   2.789
 4986SOL     OW15856   6.943   4.361   1.809
 4986SOL    HW115857   7.014   4.421   1.772
 4986SOL    HW215858   6.966   4.335   1.902
 4987SOL     OW15859   0.772   6.947   2.387
 4987SOL    HW115860   0.768   0.018   2.385
 4987SOL    HW215861   0.713   6.913   2.460
 4988SOL     OW15862   5.954   0.622   3.980
 4988SOL    HW115863   5.856   0.604   3.981
 4988SOL    HW215864   6.000   0.555   3.924
 4989SOL     OW15865   5.158   0.545   1.492
 4989SOL    HW115866   5.087   0.476   1.480
 4989SOL    HW215867   5.185   0.549   1.588
 4990SOL     OW15868   3.853   1.912   6.974
 4990SOL    HW115869   3.830   1.815   6.977
 4990SOL    HW215870   3.909   1.935   0.025
 4991SOL     OW15871   0.314   5.925   4.076
 4991SOL    HW115872   0.334   5.974   3.991
 4991SOL    HW215873   0.226   5.956   4.113
 4992SOL     OW15874   6.695   0.932   3.195
 4992SOL    HW115875   6.740   0.894   3.276
 4992SOL    HW215876   6.756   0.998   3.151
 4993SOL     OW15877   4.733   6.961   5.053
 4993SOL    HW115878   4.801   6.943   5.123
 4993SOL    HW215879   4.714   0.030   5.049
 4994SOL     OW15880   2.146   5.215   5.054
 4994SOL    HW115881   2.140   5.126   5.100
 4994SOL    HW215882   2.085   5.215   4.975
 4995SOL     OW15883   0.687   0.542   4.548
 4995SOL    HW115884   0.736   0.454   4.549
 4995SOL    HW215885   0.627   0.548   4.627
 4996SOL     OW15886   0.318   1.411   4.145
 4996SOL    HW115887   0.365   1.484   4.195
 4996SOL    HW215888   0.251   1.451   4.083
 4997SOL     OW15889   3.663   2.277   1.467
 4997SOL    HW115890   3.748   2.285   1.519
 4997SOL    HW215891   3.591   2.242   1.527
 4998SOL     OW15892   1.831   3.419   3.238
 4998SOL    HW115893   1.821   3.323   3.265
 4998SOL    HW215894   1.867   3.424   3.144
 4999SOL     OW15895   0.813   3.243   5.107
 4999SOL    HW115896   0.854   3.316   5.162
 4999SOL    HW215897   0.863   3.158   5.122
 5000SOL     OW15898   2.997   6.574   3.187
 5000SOL    HW115899   2.970   6.609   3.276
 5000SOL    HW215900   3.065   6.502   3.198
 5001SOL     OW15901   0.214   5.361   2.685
 5001SOL    HW115902   0.156   5.439   2.710
 5001SOL    HW215903   0.234   5.308   2.767
 5002SOL     OW15904   0.998   4.637   2.416
 5002SOL    HW115905   1.052   4.556   2.392
 5002SOL    HW215906   1.047   4.719   2.385
 5003SOL     OW15907   4.067   5.949   2.790
 5003SOL    HW115908   4.098   5.859   2.760
 5003SOL    HW215909   4.049   5.947   2.888
 5004SOL     OW15910   2.941   5.462   5.683
 5004SOL    HW115911   2.842   5.467   5.692
 5004SOL    HW215912   2.983   5.543   5.723
 5005SOL     OW15913   2.103   3.465   6.225
 5005SOL    HW115914   2.131   3.369   6.221
 5005SOL    HW215915   2.013   3.472   6.267
 5006SOL     OW15916   5.321   1.147   2.218
 5006SOL    HW115917   5.305   1.050   2.199
 5006SOL    HW215918   5.394   1.181   2.159
 5007SOL     OW15919   6.702   0.554   0.283
 5007SOL    HW115920   6.757   0.560   0.367
 5007SOL    HW215921   6.653   0.640   0.269
 5008SOL     OW15922   6.614   5.652   1.704
 5008SOL    HW115923   6.711   5.667   1.726
 5008SOL    HW215924   6.605   5.567   1.652
 5009SOL     OW15925   0.824   2.743   0.268
 5009SOL    HW115926   0.873   2.710   0.187
 5009SOL    HW215927   0.890   2.779   0.334
 5010SOL     OW15928   3.762   2.182   0.535
 5010SOL    HW115929   3.826   2.131   0.593
 5010SOL    HW215930   3.774   2.154   0.440
 5011SOL     OW15931   1.807   4.484   0.698
 5011SOL    HW115932   1.748   4.416   0.656
 5011SOL    HW215933   1.893   4.442   0.725
 5012SOL     OW15934   5.870   3.096   5.819
 5012SOL    HW115935   5.788   3.090   5.762
 5012SOL    HW215936   5.912   3.186   5.805
 5013SOL     OW15937   6.010   0.408   5.249
 5013SOL    HW115938   6.087   0.409   5.185
 5013SOL    HW215939   5.948   0.483   5.227
 5014SOL     OW15940   6.665   4.354   0.322
 5014SOL    HW115941   6.708   4.308   0.244
 5014SOL    HW215942   6.567   4.333   0.323
 5015SOL     OW15943   5.211   0.951   4.758
 5015SOL    HW115944   5.188   0.854   4.768
 5015SOL    HW215945   5.309   0.960   4.745
 5016SOL     OW15946   1.084   2.813   5.013
 5016SOL    HW115947   0.986   2.793   5.021
 5016SOL    HW215948   1.117   2.781   4.924
 5017SOL     OW15949   1.108   2.612   1.050
 5017SOL    HW115950   1.181   2.595   1.116
 5017SOL    HW215951   1.050   2.686   1.083
 5018SOL     OW15952   1.140   4.836   2.305
 5018SOL    HW115953   1.147   4.871   2.211
 5018SOL    HW215954   1.211   4.878   2.362
 5019SOL     OW15955   1.931   5.791   5.493
 5019SOL    HW115956   2.010   5.763   5.439
 5019SOL    HW215957   1.923   5.732   5.573
 5020SOL     OW15958   0.089   6.474   5.223
 5020SOL    HW115959   0.003   6.430   5.250
 5020SOL    HW215960   0.069   6.563   5.182
 5021SOL     OW15961   1.182   0.348   1.724
 5021SOL    HW115962   1.270   0.311   1.693
 5021SOL    HW215963   1.111   0.322   1.659
 5022SOL     OW15964   0.164   2.992   1.554
 5022SOL    HW115965   0.142   3.072   1.498
 5022SOL    HW215966   0.240   2.942   1.513
 5023SOL     OW15967   6.877   4.433   1.523
 5023SOL    HW115968   6.904   4.390   1.609
 5023SOL    HW215969   6.957   4.477   1.481
 5024SOL     OW15970   5.433   4.931   0.903
 5024SOL    HW115971   5.375   4.850   0.897
 5024SOL    HW215972   5.529   4.904   0.895
 5025SOL     OW15973   3.622   1.571   3.839
 5025SOL    HW115974   3.561   1.491   3.838
 5025SOL    HW215975   3.618   1.614   3.929
 5026SOL     OW15976   6.997   5.110   4.824
 5026SOL    HW115977   0.026   5.099   4.905
 5026SOL    HW215978   0.007   5.181   4.765
 5027SOL     OW15979   6.198   0.468   0.887
 5027SOL    HW115980   6.178   0.563   0.864
 5027SOL    HW215981   6.117   0.412   0.872
 5028SOL     OW15982   6.812   2.119   3.279
 5028SOL    HW115983   6.759   2.047   3.233
 5028SOL    HW215984   6.858   2.080   3.359
 5029SOL     OW15985   6.697   2.900   2.531
 5029SOL    HW115986   6.751   2.944   2.459
 5029SOL    HW215987   6.653   2.818   2.495
 5030SOL     OW15988   6.970   6.127   6.076
 5030SOL    HW115989   6.892   6.076   6.039
 5030SOL    HW215990   7.020   6.068   6.140
 5031SOL     OW15991   6.843   0.983   5.366
 5031SOL    HW115992   6.863   0.906   5.305
 5031SOL    HW215993   6.924   1.002   5.422
 5032SOL     OW15994   2.750   1.916   6.346
 5032SOL    HW115995   2.825   1.867   6.305
 5032SOL    HW215996   2.728   1.997   6.291
 5033SOL     OW15997   2.164   0.919   0.154
 5033SOL    HW115998   2.083   0.964   0.192
 5033SOL    HW215999   2.246   0.956   0.196
 5034SOL     OW16000   4.891   6.916   3.878
 5034SOL    HW116001   4.924   6.958   3.963
 5034SOL    HW216002   4.897   6.984   3.804
 5035SOL     OW16003   0.977   3.794   5.266
 5035SOL    HW116004   0.991   3.892   5.284
 5035SOL    HW216005   0.881   3.779   5.242
 5036SOL     OW16006   6.329   4.965   6.365
 5036SOL    HW116007   6.243   4.916   6.365
 5036SOL    HW216008   6.360   4.980   6.271
 5037SOL     OW16009   4.621   4.556   1.642
 5037SOL    HW116010   4.701   4.512   1.682
 5037SOL    HW216011   4.541   4.539   1.701
 5038SOL     OW16012   3.948   3.048   4.162
 5038SOL    HW116013   4.037   3.084   4.136
 5038SOL    HW216014   3.882   3.123   4.169
 5039SOL     OW16015   2.454   3.406   5.650
 5039SOL    HW116016   2.462   3.345   5.729
 5039SOL    HW216017   2.440   3.500   5.681
 5040SOL     OW16018   0.721   5.450   5.112
 5040SOL    HW116019   0.752   5.526   5.054
 5040SOL    HW216020   0.633   5.473   5.153
 5041SOL     OW16021   1.238   2.123   2.270
 5041SOL    HW116022   1.198   2.062   2.339
 5041SOL    HW216023   1.237   2.078   2.181
 5042SOL     OW16024   6.605   2.908   0.655
 5042SOL    HW116025   6.627   2.867   0.743
 5042SOL    HW216026   6.588   3.005   0.667
 5043SOL     OW16027   4.201   0.717   0.055
 5043SOL    HW116028   4.245   0.641   0.008
 5043SOL    HW216029   4.260   0.797   0.053
 5044SOL     OW16030   0.949   5.932   1.329
 5044SOL    HW116031   0.992   6.018   1.358
 5044SOL    HW216032   0.878   5.907   1.395
 5045SOL     OW16033   6.611   5.646   6.019
 5045SOL    HW116034   6.621   5.722   6.084
 5045SOL    HW216035   6.621   5.680   5.926
 5046SOL     OW16036   3.711   3.909   3.675
 5046SOL    HW116037   3.649   3.986   3.659
 5046SOL    HW216038   3.690   3.835   3.611
 5047SOL     OW16039   2.165   3.753   2.890
 5047SOL    HW116040   2.146   3.799   2.977
 5047SOL    HW216041   2.187   3.820   2.820
 5048SOL     OW16042   1.421   0.849   4.776
 5048SOL    HW116043   1.345   0.880   4.719
 5048SOL    HW216044   1.505   0.897   4.750
 5049SOL     OW16045   5.254   1.436   6.552
 5049SOL    HW116046   5.211   1.419   6.640
 5049SOL    HW216047   5.302   1.354   6.521
 5050SOL     OW16048   1.974   1.189   7.013
 5050SOL    HW116049   2.073   1.192   7.022
 5050SOL    HW216050   1.946   1.236   6.930
 5051SOL     OW16051   4.543   4.421   1.437
 5051SOL    HW116052   4.578   4.476   1.513
 5051SOL    HW216053   4.574   4.327   1.446
 5052SOL     OW16054   3.522   2.161   6.146
 5052SOL    HW116055   3.510   2.078   6.201
 5052SOL    HW216056   3.606   2.154   6.092
 5053SOL     OW16057   0.962   5.159   3.142
 5053SOL    HW116058   0.911   5.234   3.183
 5053SOL    HW216059   1.014   5.194   3.063
 5054SOL     OW16060   2.928   4.922   5.470
 5054SOL    HW116061   2.862   4.849   5.450
 5054SOL    HW216062   3.005   4.885   5.521
 5055SOL     OW16063   1.063   2.336   5.572
 5055SOL    HW116064   1.100   2.302   5.485
 5055SOL    HW216065   0.966   2.358   5.560
 5056SOL     OW16066   5.049   3.744   5.381
 5056SOL    HW116067   4.977   3.812   5.400
 5056SOL    HW216068   5.045   3.671   5.449
 5057SOL     OW16069   0.375   6.822   2.672
 5057SOL    HW116070   0.313   6.750   2.641
 5057SOL    HW216071   0.352   6.908   2.626
 5058SOL     OW16072   3.292   4.769   6.877
 5058SOL    HW116073   3.305   4.681   6.922
 5058SOL    HW216074   3.342   4.840   6.928
 5059SOL     OW16075   6.951   0.698   3.386
 5059SOL    HW116076   6.908   0.650   3.310
 5059SOL    HW216077   0.009   0.653   3.409
 5060SOL     OW16078   6.610   2.487   6.520
 5060SOL    HW116079   6.571   2.526   6.436
 5060SOL    HW216080   6.624   2.561   6.587
 5061SOL     OW16081   4.678   2.444   0.197
 5061SOL    HW116082   4.705   2.446   0.293
 5061SOL    HW216083   4.599   2.385   0.185
 5062SOL     OW16084   6.511   0.014   2.184
 5062SOL    HW116085   6.594   0.011   2.128
 5062SOL    HW216086   6.467   6.953   2.184
 5063SOL     OW16087   0.190   6.342   1.731
 5063SOL    HW116088   0.261   6.408   1.705
 5063SOL    HW216089   0.100   6.384   1.718
 5064SOL     OW16090   4.922   2.849   0.699
 5064SOL    HW116091   4.998   2.914   0.695
 5064SOL    HW216092   4.873   2.849   0.612
 5065SOL     OW16093   3.379   0.586   5.254
 5065SOL    HW116094   3.358   0.621   5.163
 5065SOL    HW216095   3.332   0.499   5.268
 5066SOL     OW16096   5.116   4.105   2.319
 5066SOL    HW116097   5.029   4.056   2.322
 5066SOL    HW216098   5.177   4.069   2.390
 5067SOL     OW16099   5.319   1.254   0.815
 5067SOL    HW116100   5.237   1.286   0.768
 5067SOL    HW216101   5.388   1.327   0.815
 5068SOL     OW16102   2.274   4.550   1.072
 5068SOL    HW116103   2.298   4.526   0.978
 5068SOL    HW216104   2.330   4.627   1.102
 5069SOL     OW16105   1.187   3.926   2.403
 5069SOL    HW116106   1.232   4.014   2.416
 5069SOL    HW216107   1.185   3.876   2.490
 5070SOL     OW16108   4.912   3.634   3.678
 5070SOL    HW116109   4.983   3.603   3.616
 5070SOL    HW216110   4.841   3.564   3.685
 5071SOL     OW16111   4.425   2.458   4.800
 5071SOL    HW116112   4.447   2.364   4.774
 5071SOL    HW216113   4.350   2.457   4.866
 5072SOL     OW16114   0.641   5.791   0.338
 5072SOL    HW116115   0.726   5.739   0.344
 5072SOL    HW216116   0.662   5.885   0.309
 5073SOL     OW16117   6.823   6.379   2.772
 5073SOL    HW116118   6.732   6.388   2.731
 5073SOL    HW216119   6.821   6.309   2.843
 5074SOL     OW16120   3.633   3.804   0.013
 5074SOL    HW116121   3.561   3.818   0.082
 5074SOL    HW216122   3.601   3.739   6.973
 5075SOL     OW16123   0.237   1.051   5.738
 5075SOL    HW116124   0.238   0.967   5.684
 5075SOL    HW216125   0.142   1.077   5.757
 5076SOL     OW16126   4.341   1.200   1.378
 5076SOL    HW116127   4.295   1.168   1.295
 5076SOL    HW216128   4.338   1.129   1.448
 5077SOL     OW16129   1.132   2.052   3.624
 5077SOL    HW116130   1.196   2.054   3.547
 5077SOL    HW216131   1.141   1.965   3.672
 5078SOL     OW16132   0.999   1.642   3.302
 5078SOL    HW116133   1.071   1.605   3.243
 5078SOL    HW216134   0.920   1.669   3.245
 5079SOL     OW16135   2.587   4.643   5.951
 5079SOL    HW116136   2.662   4.656   6.015
 5079SOL    HW216137   2.576   4.546   5.929
 5080SOL     OW16138   5.695   6.733   4.910
 5080SOL    HW116139   5.739   6.752   4.998
 5080SOL    HW216140   5.648   6.645   4.916
 5081SOL     OW16141   3.547   3.863   2.992
 5081SOL    HW116142   3.604   3.909   3.060
 5081SOL    HW216143   3.486   3.798   3.037
 5082SOL     OW16144   5.562   6.475   4.883
 5082SOL    HW116145   5.582   6.388   4.928
 5082SOL    HW216146   5.503   6.458   4.804
 5083SOL     OW16147   1.753   6.543   2.165
 5083SOL    HW116148   1.694   6.569   2.242
 5083SOL    HW216149   1.698   6.496   2.096
 5084SOL     OW16150   1.404   4.476   4.310
 5084SOL    HW116151   1.348   4.432   4.381
 5084SOL    HW216152   1.466   4.408   4.271
 5085SOL     OW16153   5.097   2.131   6.700
 5085SOL    HW116154   5.178   2.125   6.641
 5085SOL    HW216155   5.017   2.099   6.649
 5086SOL     OW16156   6.385   4.770   4.000
 5086SOL    HW116157   6.428   4.714   4.071
 5086SOL    HW216158   6.436   4.856   3.991
 5087SOL     OW16159   6.813   6.141   3.772
 5087SOL    HW116160   6.783   6.180   3.859
 5087SOL    HW216161   6.756   6.063   3.748
 5088SOL     OW16162   6.109   1.289   6.120
 5088SOL    HW116163   6.174   1.280   6.045
 5088SOL    HW216164   6.028   1.338   6.088
 5089SOL     OW16165   6.411   3.742   3.529
 5089SOL    HW116166   6.477   3.793   3.585
 5089SOL    HW216167   6.401   3.789   3.441
 5090SOL     OW16168   2.026   4.081   1.372
 5090SOL    HW116169   2.048   4.097   1.276
 5090SOL    HW216170   1.933   4.113   1.390
 5091SOL     OW16171   1.034   6.390   2.654
 5091SOL    HW116172   1.039   6.359   2.749
 5091SOL    HW216173   1.025   6.312   2.593
 5092SOL     OW16174   3.955   2.572   1.593
 5092SOL    HW116175   4.012   2.522   1.658
 5092SOL    HW216176   3.861   2.577   1.629
 5093SOL     OW16177   0.903   2.298   1.912
 5093SOL    HW116178   0.917   2.290   2.011
 5093SOL    HW216179   0.989   2.322   1.868
 5094SOL     OW16180   0.838   0.384   5.684
 5094SOL    HW116181   0.918   0.356   5.737
 5094SOL    HW216182   0.862   0.460   5.624
 5095SOL     OW16183   1.242   0.580   4.587
 5095SOL    HW116184   1.333   0.563   4.626
 5095SOL    HW216185   1.183   0.623   4.656
 5096SOL     OW16186   4.365   3.723   0.659
 5096SOL    HW116187   4.310   3.777   0.723
 5096SOL    HW216188   4.363   3.767   0.569
 5097SOL     OW16189   1.525   0.434   6.212
 5097SOL    HW116190   1.521   0.492   6.131
 5097SOL    HW216191   1.570   0.483   6.287
 5098SOL     OW16192   0.683   0.592   1.835
 5098SOL    HW116193   0.633   0.510   1.806
 5098SOL    HW216194   0.687   0.658   1.760
 5099SOL     OW16195   0.696   0.639   5.766
 5099SOL    HW116196   0.737   0.726   5.793
 5099SOL    HW216197   0.766   0.568   5.766
 5100SOL     OW16198   4.763   6.978   6.226
 5100SOL    HW116199   4.826   6.949   6.298
 5100SOL    HW216200   4.777   6.922   6.144
 5101SOL     OW16201   5.094   6.398   6.850
 5101SOL    HW116202   5.010   6.439   6.814
 5101SOL    HW216203   5.109   6.430   6.944
 5102SOL     OW16204   5.698   0.996   5.195
 5102SOL    HW116205   5.793   0.975   5.220
 5102SOL    HW216206   5.652   1.038   5.273
 5103SOL     OW16207   0.027   0.964   4.518
 5103SOL    HW116208   7.024   0.960   4.423
 5103SOL    HW216209   7.014   1.044   4.563
 5104SOL     OW16210   2.006   6.872   0.963
 5104SOL    HW116211   1.992   6.819   0.879
 5104SOL    HW216212   2.015   6.809   1.040
 5105SOL     OW16213   4.496   3.672   6.717
 5105SOL    HW116214   4.494   3.724   6.802
 5105SOL    HW216215   4.511   3.735   6.640
 5106SOL     OW16216   3.597   0.052   2.596
 5106SOL    HW116217   3.600   6.991   2.639
 5106SOL    HW216218   3.513   0.099   2.622
 5107SOL     OW16219   2.827   0.768   0.256
 5107SOL    HW116220   2.805   0.743   0.350
 5107SOL    HW216221   2.926   0.758   0.242
 5108SOL     OW16222   3.254   3.892   3.668
 5108SOL    HW116223   3.318   3.825   3.705
 5108SOL    HW216224   3.295   3.938   3.590
 5109SOL     OW16225   0.907   1.888   1.139
 5109SOL    HW116226   0.835   1.938   1.187
 5109SOL    HW216227   0.879   1.792   1.128
 5110SOL     OW16228   1.657   6.753   6.038
 5110SOL    HW116229   1.702   6.817   6.100
 5110SOL    HW216230   1.584   6.706   6.086
 5111SOL     OW16231   0.721   1.245   6.327
 5111SOL    HW116232   0.793   1.179   6.304
 5111SOL    HW216233   0.719   1.257   6.427
 5112SOL     OW16234   0.183   6.740   3.725
 5112SOL    HW116235   0.253   6.733   3.655
 5112SOL    HW216236   0.117   6.811   3.699
 5113SOL     OW16237   0.327   0.715   1.055
 5113SOL    HW116238   0.396   0.750   1.119
 5113SOL    HW216239   0.250   0.677   1.107
 5114SOL     OW16240   3.401   3.856   0.200
 5114SOL    HW116241   3.314   3.898   0.175
 5114SOL    HW216242   3.465   3.927   0.228
 5115SOL     OW16243   1.464   4.347   5.922
 5115SOL    HW116244   1.477   4.443   5.894
 5115SOL    HW216245   1.457   4.290   5.840
 5116SOL     OW16246   5.058   5.258   6.077
 5116SOL    HW116247   4.965   5.252   6.039
 5116SOL    HW216248   5.090   5.166   6.099
 5117SOL     OW16249   2.254   4.645   3.761
 5117SOL    HW116250   2.157   4.663   3.777
 5117SOL    HW216251   2.285   4.697   3.681
 5118SOL     OW16252   4.707   6.582   0.561
 5118SOL    HW116253   4.666   6.663   0.518
 5118SOL    HW216254   4.725   6.601   0.657
 5119SOL     OW16255   5.321   0.315   1.824
 5119SOL    HW116256   5.301   0.396   1.769
 5119SOL    HW216257   5.264   0.239   1.794
 5120SOL     OW16258   6.184   1.537   2.916
 5120SOL    HW116259   6.193   1.632   2.943
 5120SOL    HW216260   6.104   1.527   2.857
 5121SOL     OW16261   0.728   3.131   6.325
 5121SOL    HW116262   0.821   3.163   6.344
 5121SOL    HW216263   0.674   3.132   6.409
 5122SOL     OW16264   2.858   0.827   3.521
 5122SOL    HW116265   2.903   0.867   3.441
 5122SOL    HW216266   2.820   0.738   3.497
 5123SOL     OW16267   5.627   3.598   3.631
 5123SOL    HW116268   5.707   3.622   3.577
 5123SOL    HW216269   5.655   3.560   3.719
 5124SOL     OW16270   2.679   6.037   6.696
 5124SOL    HW116271   2.760   5.985   6.723
 5124SOL    HW216272   2.619   5.978   6.641
 5125SOL     OW16273   0.577   3.749   4.351
 5125SOL    HW116274   0.609   3.658   4.377
 5125SOL    HW216275   0.520   3.743   4.270
 5126SOL     OW16276   6.346   5.268   6.221
 5126SOL    HW116277   6.292   5.278   6.304
 5126SOL    HW216278   6.328   5.178   6.181
 5127SOL     OW16279   5.539   4.065   6.907
 5127SOL    HW116280   5.476   4.036   6.978
 5127SOL    HW216281   5.606   3.993   6.889
 5128SOL     OW16282   1.420   0.472   6.760
 5128SOL    HW116283   1.497   0.424   6.801
 5128SOL    HW216284   1.364   0.408   6.707
 5129SOL     OW16285   5.573   0.237   3.020
 5129SOL    HW116286   5.603   0.249   2.925
 5129SOL    HW216287   5.651   0.245   3.081
 5130SOL     OW16288   1.034   5.232   4.583
 5130SOL    HW116289   0.960   5.166   4.572
 5130SOL    HW216290   1.122   5.185   4.572
 5131SOL     OW16291   3.266   4.919   3.726
 5131SOL    HW116292   3.281   4.908   3.628
 5131SOL    HW216293   3.352   4.943   3.771
 5132SOL     OW16294   3.303   1.743   6.360
 5132SOL    HW116295   3.388   1.702   6.395
 5132SOL    HW216296   3.245   1.671   6.322
 5133SOL     OW16297   3.428   5.400   6.244
 5133SOL    HW116298   3.526   5.421   6.246
 5133SOL    HW216299   3.413   5.306   6.274
 5134SOL     OW16300   6.359   0.082   1.491
 5134SOL    HW116301   6.407   0.129   1.416
 5134SOL    HW216302   6.376   7.012   1.484
 5135SOL     OW16303   6.416   3.242   2.793
 5135SOL    HW116304   6.453   3.178   2.726
 5135SOL    HW216305   6.410   3.197   2.883
 5136SOL     OW16306   0.564   0.931   6.145
 5136SOL    HW116307   0.526   0.920   6.237
 5136SOL    HW216308   0.491   0.922   6.077
 5137SOL     OW16309   4.972   2.846   5.232
 5137SOL    HW116310   5.048   2.844   5.298
 5137SOL    HW216311   4.938   2.753   5.218
 5138SOL     OW16312   4.016   3.947   4.203
 5138SOL    HW116313   4.036   3.900   4.117
 5138SOL    HW216314   4.060   3.899   4.278
 5139SOL     OW16315   1.705   0.665   4.947
 5139SOL    HW116316   1.654   0.741   4.989
 5139SOL    HW216317   1.740   0.694   4.858
 5140SOL     OW16318   4.185   2.024   5.883
 5140SOL    HW116319   4.248   2.061   5.815
 5140SOL    HW216320   4.113   1.972   5.837
 5141SOL     OW16321   6.526   2.984   1.901
 5141SOL    HW116322   6.574   2.952   1.820
 5141SOL    HW216323   6.427   2.971   1.889
 5142SOL     OW16324   6.313   6.945   3.424
 5142SOL    HW116325   6.356   6.860   3.454
 5142SOL    HW216326   6.374   7.022   3.444
 5143SOL     OW16327   0.784   4.609   4.401
 5143SOL    HW116328   0.859   4.656   4.447
 5143SOL    HW216329   0.749   4.535   4.459
 5144SOL     OW16330   1.997   3.552   6.841
 5144SOL    HW116331   1.987   3.488   6.917
 5144SOL    HW216332   2.030   3.640   6.875
 5145SOL     OW16333   3.289   6.041   6.319
 5145SOL    HW116334   3.317   6.054   6.223
 5145SOL    HW216335   3.365   6.001   6.370
 5146SOL     OW16336   4.376   4.420   5.640
 5146SOL    HW116337   4.286   4.382   5.661
 5146SOL    HW216338   4.444   4.378   5.701
 5147SOL     OW16339   4.854   3.896   3.767
 5147SOL    HW116340   4.846   3.797   3.754
 5147SOL    HW216341   4.920   3.934   3.702
 5148SOL     OW16342   0.372   0.311   1.801
 5148SOL    HW116343   0.458   0.362   1.789
 5148SOL    HW216344   0.379   0.252   1.881
 5149SOL     OW16345   5.619   4.448   3.932
 5149SOL    HW116346   5.538   4.411   3.978
 5149SOL    HW216347   5.666   4.511   3.993
 5150SOL     OW16348   1.521   5.552   3.562
 5150SOL    HW116349   1.482   5.523   3.649
 5150SOL    HW216350   1.481   5.640   3.535
 5151SOL     OW16351   5.759   4.897   1.373
 5151SOL    HW116352   5.745   4.929   1.466
 5151SOL    HW216353   5.672   4.893   1.325
 5152SOL     OW16354   1.983   0.036   6.597
 5152SOL    HW116355   1.905   0.014   6.654
 5152SOL    HW216356   2.025   6.981   6.562
 5153SOL     OW16357   1.739   0.921   0.920
 5153SOL    HW116358   1.797   0.860   0.975
 5153SOL    HW216359   1.650   0.878   0.905
 5154SOL     OW16360   1.253   2.862   6.782
 5154SOL    HW116361   1.302   2.875   6.696
 5154SOL    HW216362   1.190   2.784   6.773
 5155SOL     OW16363   2.364   1.746   0.768
 5155SOL    HW116364   2.321   1.670   0.719
 5155SOL    HW216365   2.302   1.824   0.769
 5156SOL     OW16366   5.364   5.323   5.341
 5156SOL    HW116367   5.405   5.232   5.329
 5156SOL    HW216368   5.295   5.318   5.414
 5157SOL     OW16369   4.122   1.748   2.049
 5157SOL    HW116370   4.029   1.729   2.081
 5157SOL    HW216371   4.187   1.698   2.106
 5158SOL     OW16372   3.799   1.363   2.086
 5158SOL    HW116373   3.844   1.401   2.005
 5158SOL    HW216374   3.733   1.429   2.122
 5159SOL     OW16375   5.789   3.870   6.552
 5159SOL    HW116376   5.809   3.965   6.575
 5159SOL    HW216377   5.836   3.845   6.468
 5160SOL     OW16378   6.591   6.786   3.191
 5160SOL    HW116379   6.556   6.708   3.140
 5160SOL    HW216380   6.639   6.754   3.272
 5161SOL     OW16381   0.758   3.316   0.085
 5161SOL    HW116382   0.796   3.340   0.175
 5161SOL    HW216383   0.794   3.227   0.057
 5162SOL     OW16384   0.271   5.854   2.635
 5162SOL    HW116385   0.340   5.917   2.672
 5162SOL    HW216386   0.180   5.893   2.649
 5163SOL     OW16387   3.187   5.755   1.878
 5163SOL    HW116388   3.286   5.749   1.893
 5163SOL    HW216389   3.169   5.819   1.803
 5164SOL     OW16390   2.912   3.308   0.837
 5164SOL    HW116391   2.830   3.254   0.858
 5164SOL    HW216392   2.886   3.404   0.829
 5165SOL     OW16393   1.422   4.818   6.856
 5165SOL    HW116394   1.395   4.897   6.801
 5165SOL    HW216395   1.353   4.746   6.846
 5166SOL     OW16396   2.163   5.814   1.621
 5166SOL    HW116397   2.228   5.798   1.696
 5166SOL    HW216398   2.119   5.902   1.635
 5167SOL     OW16399   5.583   3.629   5.595
 5167SOL    HW116400   5.669   3.678   5.611
 5167SOL    HW216401   5.575   3.605   5.498
 5168SOL     OW16402   4.825   2.412   2.419
 5168SOL    HW116403   4.845   2.505   2.391
 5168SOL    HW216404   4.755   2.373   2.358
 5169SOL     OW16405   4.220   1.064   4.122
 5169SOL    HW116406   4.305   1.113   4.142
 5169SOL    HW216407   4.234   1.001   4.046
 5170SOL     OW16408   1.379   3.645   6.474
 5170SOL    HW116409   1.436   3.719   6.510
 5170SOL    HW216410   1.430   3.559   6.478
 5171SOL     OW16411   1.976   5.514   5.956
 5171SOL    HW116412   1.969   5.436   6.019
 5171SOL    HW216413   2.073   5.529   5.934
 5172SOL     OW16414   0.931   4.551   3.956
 5172SOL    HW116415   0.951   4.625   4.020
 5172SOL    HW216416   0.996   4.553   3.880
 5173SOL     OW16417   4.781   3.457   6.047
 5173SOL    HW116418   4.806   3.553   6.031
 5173SOL    HW216419   4.786   3.406   5.961
 5174SOL     OW16420   1.680   6.836   3.690
 5174SOL    HW116421   1.667   6.894   3.771
 5174SOL    HW216422   1.756   6.773   3.706
 5175SOL     OW16423   2.814   4.570   6.924
 5175SOL    HW116424   2.812   4.511   6.844
 5175SOL    HW216425   2.829   4.515   7.006
 5176SOL     OW16426   5.489   5.577   6.576
 5176SOL    HW116427   5.572   5.535   6.539
 5176SOL    HW216428   5.460   5.527   6.657
 5177SOL     OW16429   4.780   0.456   1.047
 5177SOL    HW116430   4.848   0.491   1.111
 5177SOL    HW216431   4.757   0.362   1.071
 5178SOL     OW16432   0.720   3.805   1.542
 5178SOL    HW116433   0.692   3.773   1.452
 5178SOL    HW216434   0.641   3.838   1.593
 5179SOL     OW16435   5.464   4.405   2.464
 5179SOL    HW116436   5.387   4.361   2.419
 5179SOL    HW216437   5.550   4.365   2.432
 5180SOL     OW16438   2.531   6.593   1.233
 5180SOL    HW116439   2.559   6.644   1.152
 5180SOL    HW216440   2.597   6.520   1.251
 5181SOL     OW16441   0.163   1.202   6.575
 5181SOL    HW116442   0.104   1.262   6.522
 5181SOL    HW216443   0.117   1.175   6.659
 5182SOL     OW16444   4.363   4.574   3.368
 5182SOL    HW116445   4.298   4.611   3.301
 5182SOL    HW216446   4.452   4.563   3.324
 5183SOL     OW16447   4.058   1.750   3.363
 5183SOL    HW116448   3.997   1.775   3.438
 5183SOL    HW216449   4.052   1.820   3.291
 5184SOL     OW16450   1.958   2.147   3.844
 5184SOL    HW116451   1.964   2.224   3.780
 5184SOL    HW216452   2.050   2.116   3.868
 5185SOL     OW16453   4.953   0.492   2.229
 5185SOL    HW116454   4.970   0.586   2.259
 5185SOL    HW216455   5.016   0.469   2.156
 5186SOL     OW16456   6.876   3.293   5.874
 5186SOL    HW116457   6.793   3.346   5.855
 5186SOL    HW216458   6.852   3.211   5.926
 5187SOL     OW16459   2.168   4.977   4.827
 5187SOL    HW116460   2.234   5.025   4.885
 5187SOL    HW216461   2.162   4.881   4.856
 5188SOL     OW16462   6.589   6.324   1.712
 5188SOL    HW116463   6.631   6.311   1.802
 5188SOL    HW216464   6.620   6.252   1.649
 5189SOL     OW16465   5.694   0.163   6.367
 5189SOL    HW116466   5.711   0.068   6.340
 5189SOL    HW216467   5.693   0.170   6.466
 5190SOL     OW16468   1.989   3.056   1.834
 5190SOL    HW116469   1.954   3.036   1.743
 5190SOL    HW216470   2.082   3.093   1.827
 5191SOL     OW16471   2.937   5.500   2.593
 5191SOL    HW116472   2.982   5.434   2.653
 5191SOL    HW216473   2.874   5.557   2.646
 5192SOL     OW16474   1.813   6.026   1.458
 5192SOL    HW116475   1.795   5.931   1.430
 5192SOL    HW216476   1.896   6.029   1.515
 5193SOL     OW16477   5.603   0.712   6.833
 5193SOL    HW116478   5.581   0.620   6.865
 5193SOL    HW216479   5.684   0.709   6.774
 5194SOL     OW16480   3.965   1.907   6.700
 5194SOL    HW116481   3.917   1.829   6.659
 5194SOL    HW216482   3.919   1.932   6.785
 5195SOL     OW16483   0.328   0.625   3.326
 5195SOL    HW116484   0.422   0.659   3.338
 5195SOL    HW216485   0.292   0.659   3.238
 5196SOL     OW16486   4.268   6.786   3.086
 5196SOL    HW116487   4.329   6.857   3.120
 5196SOL    HW216488   4.173   6.812   3.103
 5197SOL     OW16489   1.449   3.717   5.887
 5197SOL    HW116490   1.444   3.628   5.932
 5197SOL    HW216491   1.541   3.731   5.850
 5198SOL     OW16492   4.768   5.821   3.272
 5198SOL    HW116493   4.669   5.806   3.276
 5198SOL    HW216494   4.787   5.919   3.271
 5199SOL     OW16495   6.776   5.143   0.898
 5199SOL    HW116496   6.723   5.075   0.848
 5199SOL    HW216497   6.841   5.187   0.835
 5200SOL     OW16498   0.184   3.947   5.309
 5200SOL    HW116499   0.130   3.880   5.258
 5200SOL    HW216500   0.155   3.948   5.405
 5201SOL     OW16501   1.153   6.241   3.772
 5201SOL    HW116502   1.156   6.296   3.856
 5201SOL    HW216503   1.245   6.238   3.732
 5202SOL     OW16504   6.895   3.060   0.115
 5202SOL    HW116505   6.907   2.962   0.133
 5202SOL    HW216506   6.798   3.081   0.105
 5203SOL     OW16507   0.573   2.959   0.138
 5203SOL    HW116508   0.668   2.986   0.125
 5203SOL    HW216509   0.543   2.981   0.231
 5204SOL     OW16510   4.269   5.164   0.641
 5204SOL    HW116511   4.329   5.223   0.694
 5204SOL    HW216512   4.315   5.077   0.623
 5205SOL     OW16513   1.696   0.238   1.001
 5205SOL    HW116514   1.716   0.337   1.001
 5205SOL    HW216515   1.780   0.188   0.980
 5206SOL     OW16516   6.907   4.529   6.851
 5206SOL    HW116517   6.922   4.615   6.802
 5206SOL    HW216518   6.837   4.542   6.921
 5207SOL     OW16519   1.203   5.369   4.325
 5207SOL    HW116520   1.178   5.274   4.347
 5207SOL    HW216521   1.170   5.429   4.398
 5208SOL     OW16522   3.772   0.941   0.283
 5208SOL    HW116523   3.851   0.937   0.221
 5208SOL    HW216524   3.743   1.036   0.293
 5209SOL     OW16525   6.030   5.809   3.349
 5209SOL    HW116526   6.099   5.853   3.292
 5209SOL    HW216527   6.072   5.736   3.404
 5210SOL     OW16528   5.173   3.631   4.667
 5210SOL    HW116529   5.240   3.665   4.733
 5210SOL    HW216530   5.088   3.608   4.714
 5211SOL     OW16531   3.366   3.210   4.067
 5211SOL    HW116532   3.357   3.296   4.018
 5211SOL    HW216533   3.285   3.195   4.124
 5212SOL     OW16534   0.159   2.515   0.415
 5212SOL    HW116535   0.127   2.434   0.465
 5212SOL    HW216536   0.245   2.546   0.454
 5213SOL     OW16537   5.124   2.620   6.022
 5213SOL    HW116538   5.090   2.695   5.965
 5213SOL    HW216539   5.144   2.654   6.114
 5214SOL     OW16540   5.358   2.013   5.428
 5214SOL    HW116541   5.385   2.034   5.522
 5214SOL    HW216542   5.260   2.026   5.418
 5215SOL     OW16543   5.340   4.420   3.303
 5215SOL    HW116544   5.275   4.448   3.232
 5215SOL    HW216545   5.376   4.500   3.350
 5216SOL     OW16546   5.321   5.144   1.433
 5216SOL    HW116547   5.389   5.085   1.389
 5216SOL    HW216548   5.351   5.168   1.525
 5217SOL     OW16549   2.853   5.067   3.987
 5217SOL    HW116550   2.888   5.129   4.057
 5217SOL    HW216551   2.923   5.000   3.964
 5218SOL     OW16552   1.816   0.048   4.221
 5218SOL    HW116553   1.747   0.120   4.227
 5218SOL    HW216554   1.839   0.015   4.312
 5219SOL     OW16555   3.764   7.023   6.695
 5219SOL    HW116556   3.778   0.069   6.631
 5219SOL    HW216557   3.694   6.961   6.659
 5220SOL     OW16558   1.221   5.453   2.059
 5220SOL    HW116559   1.134   5.501   2.062
 5220SOL    HW216560   1.219   5.376   2.124
 5221SOL     OW16561   5.489   1.548   4.662
 5221SOL    HW116562   5.399   1.569   4.701
 5221SOL    HW216563   5.543   1.499   4.730
 5222SOL     OW16564   2.448   0.222   3.877
 5222SOL    HW116565   2.532   0.173   3.852
 5222SOL    HW216566   2.427   0.205   3.973
 5223SOL     OW16567   4.807   0.122   1.332
 5223SOL    HW116568   4.847   0.052   1.391
 5223SOL    HW216569   4.711   0.101   1.316
 5224SOL     OW16570   6.893   2.872   2.732
 5224SOL    HW116571   6.879   2.815   2.814
 5224SOL    HW216572   6.813   2.865   2.673
 5225SOL     OW16573   6.869   0.541   3.177
 5225SOL    HW116574   6.775   0.509   3.168
 5225SOL    HW216575   6.907   0.560   3.086
 5226SOL     OW16576   0.488   6.420   4.880
 5226SOL    HW116577   0.412   6.355   4.880
 5226SOL    HW216578   0.542   6.408   4.797
 5227SOL     OW16579   6.850   5.110   3.199
 5227SOL    HW116580   6.875   5.026   3.152
 5227SOL    HW216581   6.925   5.175   3.193
 5228SOL     OW16582   6.339   2.404   0.363
 5228SOL    HW116583   6.262   2.422   0.424
 5228SOL    HW216584   6.307   2.401   0.268
 5229SOL     OW16585   1.310   4.232   6.459
 5229SOL    HW116586   1.315   4.139   6.497
 5229SOL    HW216587   1.332   4.229   6.362
 5230SOL     OW16588   0.184   0.157   0.762
 5230SOL    HW116589   0.211   0.075   0.813
 5230SOL    HW216590   0.132   0.130   0.681
 5231SOL     OW16591   3.137   3.070   4.494
 5231SOL    HW116592   3.095   3.031   4.576
 5231SOL    HW216593   3.134   3.170   4.500
 5232SOL     OW16594   3.717   2.325   6.401
 5232SOL    HW116595   3.749   2.236   6.433
 5232SOL    HW216596   3.746   2.339   6.307
 5233SOL     OW16597   6.870   6.346   1.227
 5233SOL    HW116598   6.855   6.385   1.318
 5233SOL    HW216599   6.967   6.353   1.204
 5234SOL     OW16600   3.374   0.798   0.418
 5234SOL    HW116601   3.341   0.817   0.511
 5234SOL    HW216602   3.452   0.735   0.423
 5235SOL     OW16603   1.575   2.943   0.866
 5235SOL    HW116604   1.534   2.868   0.917
 5235SOL    HW216605   1.537   2.945   0.773
 5236SOL     OW16606   5.590   2.695   1.506
 5236SOL    HW116607   5.554   2.612   1.463
 5236SOL    HW216608   5.544   2.711   1.593
 5237SOL     OW16609   2.647   2.103   5.240
 5237SOL    HW116610   2.609   2.026   5.189
 5237SOL    HW216611   2.718   2.148   5.185
 5238SOL     OW16612   1.134   5.181   0.326
 5238SOL    HW116613   1.081   5.108   0.283
 5238SOL    HW216614   1.200   5.217   0.259
 5239SOL     OW16615   3.540   3.886   4.235
 5239SOL    HW116616   3.448   3.864   4.268
 5239SOL    HW216617   3.588   3.938   4.305
 5240SOL     OW16618   2.920   1.847   5.179
 5240SOL    HW116619   2.966   1.933   5.154
 5240SOL    HW216620   2.878   1.807   5.097
 5241SOL     OW16621   0.647   6.061   6.527
 5241SOL    HW116622   0.568   6.028   6.476
 5241SOL    HW216623   0.653   6.161   6.519
 5242SOL     OW16624   6.194   1.354   5.728
 5242SOL    HW116625   6.095   1.348   5.713
 5242SOL    HW216626   6.239   1.276   5.686
 5243SOL     OW16627   0.896   6.008   0.862
 5243SOL    HW116628   0.853   5.919   0.874
 5243SOL    HW216629   0.951   6.008   0.778
 5244SOL     OW16630   4.205   3.904   5.785
 5244SOL    HW116631   4.144   3.917   5.863
 5244SOL    HW216632   4.277   3.974   5.787
 5245SOL     OW16633   4.554   3.651   5.916
 5245SOL    HW116634   4.533   3.711   5.839
 5245SOL    HW216635   4.511   3.562   5.901
 5246SOL     OW16636   0.165   4.246   2.368
 5246SOL    HW116637   0.175   4.147   2.368
 5246SOL    HW216638   0.233   4.286   2.306
 5247SOL     OW16639   0.805   5.933   6.722
 5247SOL    HW116640   0.743   5.976   6.656
 5247SOL    HW216641   0.843   6.004   6.783
 5248SOL     OW16642   5.802   0.646   5.605
 5248SOL    HW116643   5.883   0.672   5.554
 5248SOL    HW216644   5.828   0.612   5.695
 5249SOL     OW16645   0.938   4.862   4.619
 5249SOL    HW116646   0.866   4.929   4.602
 5249SOL    HW216647   0.973   4.874   4.712
 5250SOL     OW16648   0.550   1.468   6.180
 5250SOL    HW116649   0.470   1.492   6.236
 5250SOL    HW216650   0.599   1.393   6.224
 5251SOL     OW16651   0.117   3.075   1.133
 5251SOL    HW116652   0.040   3.018   1.162
 5251SOL    HW216653   0.130   3.066   1.034
 5252SOL     OW16654   1.744   5.290   1.151
 5252SOL    HW116655   1.724   5.231   1.073
 5252SOL    HW216656   1.689   5.263   1.229
 5253SOL     OW16657   5.840   3.271   4.553
 5253SOL    HW116658   5.793   3.225   4.478
 5253SOL    HW216659   5.809   3.233   4.640
 5254SOL     OW16660   4.881   1.078   3.424
 5254SOL    HW116661   4.942   1.121   3.357
 5254SOL    HW216662   4.802   1.137   3.441
 5255SOL     OW16663   4.163   0.362   4.353
 5255SOL    HW116664   4.197   0.408   4.271
 5255SOL    HW216665   4.203   0.404   4.434
 5256SOL     OW16666   4.708   1.280   2.816
 5256SOL    HW116667   4.640   1.324   2.757
 5256SOL    HW216668   4.700   1.317   2.908
 5257SOL     OW16669   4.300   6.967   2.007
 5257SOL    HW116670   4.388   6.954   1.961
 5257SOL    HW216671   4.293   6.906   2.085
 5258SOL     OW16672   5.278   4.071   2.057
 5258SOL    HW116673   5.372   4.044   2.077
 5258SOL    HW216674   5.239   4.116   2.137
 5259SOL     OW16675   4.639   6.052   2.116
 5259SOL    HW116676   4.670   6.049   2.211
 5259SOL    HW216677   4.618   6.147   2.091
 5260SOL     OW16678   4.645   3.691   0.561
 5260SOL    HW116679   4.552   3.726   0.566
 5260SOL    HW216680   4.670   3.650   0.649
 5261SOL     OW16681   1.174   2.276   5.324
 5261SOL    HW116682   1.262   2.268   5.278
 5261SOL    HW216683   1.114   2.202   5.294
 5262SOL     OW16684   2.523   0.058   2.511
 5262SOL    HW116685   2.554   0.140   2.463
 5262SOL    HW216686   2.584   0.039   2.588
 5263SOL     OW16687   1.175   0.168   6.195
 5263SOL    HW116688   1.239   0.215   6.135
 5263SOL    HW216689   1.197   0.071   6.198
 5264SOL     OW16690   6.439   1.437   1.313
 5264SOL    HW116691   6.537   1.425   1.330
 5264SOL    HW216692   6.397   1.347   1.300
 5265SOL     OW16693   5.589   3.910   2.229
 5265SOL    HW116694   5.669   3.863   2.266
 5265SOL    HW216695   5.506   3.859   2.253
 5266SOL     OW16696   2.728   6.398   1.588
 5266SOL    HW116697   2.767   6.320   1.637
 5266SOL    HW216698   2.649   6.432   1.638
 5267SOL     OW16699   4.331   4.890   5.905
 5267SOL    HW116700   4.383   4.852   5.829
 5267SOL    HW216701   4.332   4.990   5.900
 5268SOL     OW16702   6.290   5.776   5.180
 5268SOL    HW116703   6.215   5.710   5.185
 5268SOL    HW216704   6.335   5.783   5.269
 5269SOL     OW16705   2.195   6.036   3.907
 5269SOL    HW116706   2.216   5.939   3.923
 5269SOL    HW216707   2.101   6.044   3.872
 5270SOL     OW16708   4.894   1.998   1.432
 5270SOL    HW116709   4.965   2.028   1.495
 5270SOL    HW216710   4.823   1.948   1.483
 5271SOL     OW16711   4.157   5.138   4.551
 5271SOL    HW116712   4.117   5.055   4.511
 5271SOL    HW216713   4.194   5.195   4.478
 5272SOL     OW16714   0.885   5.997   4.226
 5272SOL    HW116715   0.917   6.031   4.138
 5272SOL    HW216716   0.961   5.996   4.291
 5273SOL     OW16717   1.245   2.873   3.610
 5273SOL    HW116718   1.282   2.955   3.654
 5273SOL    HW216719   1.268   2.793   3.664
 5274SOL     OW16720   6.193   5.031   3.217
 5274SOL    HW116721   6.231   5.106   3.163
 5274SOL    HW216722   6.208   5.051   3.314
 5275SOL     OW16723   3.116   0.298   6.422
 5275SOL    HW116724   3.215   0.288   6.428
 5275SOL    HW216725   3.093   0.369   6.356
 5276SOL     OW16726   7.010   6.462   0.347
 5276SOL    HW116727   0.068   6.443   0.392
 5276SOL    HW216728   7.026   6.487   0.252
 5277SOL     OW16729   2.057   1.571   3.131
 5277SOL    HW116730   2.026   1.509   3.203
 5277SOL    HW216731   2.128   1.526   3.077
 5278SOL     OW16732   5.534   6.589   5.857
 5278SOL    HW116733   5.477   6.535   5.795
 5278SOL    HW216734   5.616   6.538   5.880
 5279SOL     OW16735   1.168   5.977   6.840
 5279SOL    HW116736   1.245   6.003   6.783
 5279SOL    HW216737   1.131   5.889   6.808
 5280SOL     OW16738   3.806   5.980   5.205
 5280SOL    HW116739   3.736   5.930   5.256
 5280SOL    HW216740   3.795   6.078   5.221
 5281SOL     OW16741   0.968   0.805   4.333
 5281SOL    HW116742   0.919   0.733   4.284
 5281SOL    HW216743   0.943   0.802   4.430
 5282SOL     OW16744   1.777   0.299   2.603
 5282SOL    HW116745   1.691   0.267   2.643
 5282SOL    HW216746   1.779   0.399   2.605
 5283SOL     OW16747   1.528   0.758   3.590
 5283SOL    HW116748   1.580   0.679   3.561
 5283SOL    HW216749   1.579   0.842   3.571
 5284SOL     OW16750   4.566   2.247   2.813
 5284SOL    HW116751   4.593   2.201   2.897
 5284SOL    HW216752   4.646   2.289   2.770
 5285SOL     OW16753   1.160   4.083   4.043
 5285SOL    HW116754   1.121   4.121   3.959
 5285SOL    HW216755   1.087   4.071   4.111
 5286SOL     OW16756   6.195   3.076   1.176
 5286SOL    HW116757   6.115   3.112   1.129
 5286SOL    HW216758   6.241   3.010   1.117
 5287SOL     OW16759   2.842   5.054   2.205
 5287SOL    HW116760   2.747   5.059   2.173
 5287SOL    HW216761   2.843   5.039   2.304
 5288SOL     OW16762   4.998   0.372   2.934
 5288SOL    HW116763   4.975   0.458   2.888
 5288SOL    HW216764   4.987   0.382   3.032
 5289SOL     OW16765   2.295   5.141   6.876
 5289SOL    HW116766   2.344   5.227   6.893
 5289SOL    HW216767   2.359   5.065   6.885
 5290SOL     OW16768   1.640   3.854   5.480
 5290SOL    HW116769   1.545   3.840   5.506
 5290SOL    HW216770   1.647   3.856   5.380
 5291SOL     OW16771   3.109   4.226   5.953
 5291SOL    HW116772   3.184   4.292   5.950
 5291SOL    HW216773   3.026   4.268   5.918
 5292SOL     OW16774   5.839   4.725   6.515
 5292SOL    HW116775   5.918   4.720   6.575
 5292SOL    HW216776   5.783   4.642   6.526
 5293SOL     OW16777   2.241   5.885   4.719
 5293SOL    HW116778   2.187   5.842   4.646
 5293SOL    HW216779   2.251   5.982   4.701
 5294SOL     OW16780   4.455   1.851   5.274
 5294SOL    HW116781   4.424   1.865   5.180
 5294SOL    HW216782   4.378   1.821   5.331
 5295SOL     OW16783   3.874   0.504   3.484
 5295SOL    HW116784   3.906   0.598   3.472
 5295SOL    HW216785   3.778   0.505   3.513
 5296SOL     OW16786   3.894   3.741   0.206
 5296SOL    HW116787   3.971   3.801   0.184
 5296SOL    HW216788   3.823   3.752   0.136
 5297SOL     OW16789   2.029   3.533   0.439
 5297SOL    HW116790   2.077   3.543   0.527
 5297SOL    HW216791   2.095   3.537   0.364
 5298SOL     OW16792   1.895   6.134   6.237
 5298SOL    HW116793   1.974   6.092   6.191
 5298SOL    HW216794   1.914   6.230   6.253
 5299SOL     OW16795   2.855   2.733   0.941
 5299SOL    HW116796   2.948   2.750   0.972
 5299SOL    HW216797   2.791   2.758   1.013
 5300SOL     OW16798   0.848   5.200   0.952
 5300SOL    HW116799   0.816   5.106   0.953
 5300SOL    HW216800   0.904   5.217   1.033
 5301SOL     OW16801   3.880   1.066   6.703
 5301SOL    HW116802   3.928   1.099   6.622
 5301SOL    HW216803   3.788   1.036   6.677
 5302SOL     OW16804   5.796   6.211   3.486
 5302SOL    HW116805   5.874   6.218   3.547
 5302SOL    HW216806   5.714   6.189   3.538
 5303SOL     OW16807   0.137   5.069   5.038
 5303SOL    HW116808   0.146   5.073   5.137
 5303SOL    HW216809   0.154   4.975   5.007
 5304SOL     OW16810   5.865   0.884   0.437
 5304SOL    HW116811   5.802   0.935   0.496
 5304SOL    HW216812   5.952   0.932   0.431
 5305SOL     OW16813   0.731   5.354   2.841
 5305SOL    HW116814   0.698   5.269   2.882
 5305SOL    HW216815   0.716   5.351   2.742
 5306SOL     OW16816   1.004   4.490   5.306
 5306SOL    HW116817   0.966   4.403   5.339
 5306SOL    HW216818   1.076   4.471   5.239
 5307SOL     OW16819   4.030   1.876   0.174
 5307SOL    HW116820   4.127   1.851   0.180
 5307SOL    HW216821   3.975   1.804   0.216
 5308SOL     OW16822   1.390   4.753   2.400
 5308SOL    HW116823   1.368   4.702   2.317
 5308SOL    HW216824   1.358   4.702   2.480
 5309SOL     OW16825   3.835   4.856   2.238
 5309SOL    HW116826   3.751   4.825   2.193
 5309SOL    HW216827   3.911   4.797   2.211
 5310SOL     OW16828   6.415   3.473   2.144
 5310SOL    HW116829   6.512   3.453   2.134
 5310SOL    HW216830   6.369   3.459   2.057
 5311SOL     OW16831   5.934   6.736   6.899
 5311SOL    HW116832   5.940   6.748   6.799
 5311SOL    HW216833   5.944   6.825   6.943
 5312SOL     OW16834   0.469   5.463   1.760
 5312SOL    HW116835   0.420   5.546   1.787
 5312SOL    HW216836   0.549   5.450   1.819
 5313SOL     OW16837   1.383   3.531   6.097
 5313SOL    HW116838   1.357   3.613   6.148
 5313SOL    HW216839   1.302   3.495   6.049
 5314SOL     OW16840   4.134   6.714   0.549
 5314SOL    HW116841   4.053   6.730   0.606
 5314SOL    HW216842   4.138   6.783   0.477
 5315SOL     OW16843   5.075   3.091   2.884
 5315SOL    HW116844   5.128   3.144   2.950
 5315SOL    HW216845   5.136   3.036   2.828
 5316SOL     OW16846   1.330   3.535   5.207
 5316SOL    HW116847   1.243   3.577   5.181
 5316SOL    HW216848   1.313   3.456   5.265
 5317SOL     OW16849   6.321   1.897   5.641
 5317SOL    HW116850   6.289   1.809   5.676
 5317SOL    HW216851   6.357   1.952   5.716
 5318SOL     OW16852   0.617   2.752   0.499
 5318SOL    HW116853   0.682   2.807   0.553
 5318SOL    HW216854   0.666   2.707   0.424
 5319SOL     OW16855   4.432   6.170   1.208
 5319SOL    HW116856   4.446   6.196   1.112
 5319SOL    HW216857   4.386   6.082   1.212
 5320SOL     OW16858   4.370   5.306   0.854
 5320SOL    HW116859   4.295   5.346   0.907
 5320SOL    HW216860   4.426   5.380   0.815
 5321SOL     OW16861   1.957   4.471   5.097
 5321SOL    HW116862   2.014   4.392   5.073
 5321SOL    HW216863   1.872   4.439   5.138
 5322SOL     OW16864   5.546   6.423   0.170
 5322SOL    HW116865   5.524   6.398   0.076
 5322SOL    HW216866   5.630   6.378   0.197
 5323SOL     OW16867   3.343   1.367   5.774
 5323SOL    HW116868   3.321   1.464   5.785
 5323SOL    HW216869   3.309   1.335   5.685
 5324SOL     OW16870   3.469   2.036   0.868
 5324SOL    HW116871   3.370   2.047   0.857
 5324SOL    HW216872   3.514   2.125   0.857
 5325SOL     OW16873   4.437   0.791   4.288
 5325SOL    HW116874   4.477   0.882   4.295
 5325SOL    HW216875   4.474   0.733   4.360
 5326SOL     OW16876   6.660   5.562   3.129
 5326SOL    HW116877   6.614   5.619   3.197
 5326SOL    HW216878   6.685   5.474   3.170
 5327SOL     OW16879   6.150   2.838   5.109
 5327SOL    HW116880   6.126   2.888   5.026
 5327SOL    HW216881   6.120   2.890   5.189
 5328SOL     OW16882   3.376   3.701   6.352
 5328SOL    HW116883   3.462   3.741   6.320
 5328SOL    HW216884   3.350   3.625   6.292
 5329SOL     OW16885   0.494   5.280   6.487
 5329SOL    HW116886   0.448   5.204   6.532
 5329SOL    HW216887   0.512   5.257   6.392
 5330SOL     OW16888   4.487   3.836   6.972
 5330SOL    HW116889   4.391   3.814   6.953
 5330SOL    HW216890   4.523   3.772   0.010
 5331SOL     OW16891   5.986   1.680   6.145
 5331SOL    HW116892   6.007   1.693   6.241
 5331SOL    HW216893   6.048   1.734   6.089
 5332SOL     OW16894   1.159   3.161   1.717
 5332SOL    HW116895   1.181   3.253   1.685
 5332SOL    HW216896   1.068   3.161   1.757
 5333SOL     OW16897   0.829   0.931   2.880
 5333SOL    HW116898   0.805   0.865   2.808
 5333SOL    HW216899   0.795   1.021   2.854
 5334SOL     OW16900   3.283   0.302   4.428
 5334SOL    HW116901   3.235   0.309   4.515
 5334SOL    HW216902   3.218   0.318   4.353
 5335SOL     OW16903   0.180   5.888   0.468
 5335SOL    HW116904   0.081   5.884   0.452
 5335SOL    HW216905   0.222   5.805   0.431
 5336SOL     OW16906   2.164   3.047   2.739
 5336SOL    HW116907   2.159   2.948   2.751
 5336SOL    HW216908   2.198   3.090   2.823
 5337SOL     OW16909   5.048   4.868   0.657
 5337SOL    HW116910   5.012   4.920   0.579
 5337SOL    HW216911   5.109   4.796   0.625
 5338SOL     OW16912   5.843   1.263   0.487
 5338SOL    HW116913   5.782   1.250   0.409
 5338SOL    HW216914   5.894   1.348   0.476
 5339SOL     OW16915   6.764   1.590   4.132
 5339SOL    HW116916   6.691   1.552   4.189
 5339SOL    HW216917   6.738   1.582   4.036
 5340SOL     OW16918   5.153   4.496   0.809
 5340SOL    HW116919   5.134   4.429   0.881
 5340SOL    HW216920   5.069   4.517   0.760
 5341SOL     OW16921   3.739   2.710   6.473
 5341SOL    HW116922   3.833   2.681   6.456
 5341SOL    HW216923   3.681   2.629   6.486
 5342SOL     OW16924   3.506   0.156   4.362
 5342SOL    HW116925   3.423   0.211   4.368
 5342SOL    HW216926   3.582   0.213   4.332
 5343SOL     OW16927   3.294   3.763   4.088
 5343SOL    HW116928   3.383   3.785   4.047
 5343SOL    HW216929   3.235   3.844   4.083
 5344SOL     OW16930   1.918   2.337   2.317
 5344SOL    HW116931   2.000   2.338   2.373
 5344SOL    HW216932   1.938   2.293   2.229
 5345SOL     OW16933   4.199   6.382   1.722
 5345SOL    HW116934   4.276   6.318   1.723
 5345SOL    HW216935   4.121   6.338   1.678
 5346SOL     OW16936   3.386   6.179   4.044
 5346SOL    HW116937   3.374   6.247   4.116
 5346SOL    HW216938   3.398   6.224   3.956
 5347SOL     OW16939   0.114   2.524   2.251
 5347SOL    HW116940   0.078   2.617   2.248
 5347SOL    HW216941   0.074   2.470   2.177
 5348SOL     OW16942   0.405   1.142   0.866
 5348SOL    HW116943   0.486   1.087   0.886
 5348SOL    HW216944   0.325   1.100   0.909
 5349SOL     OW16945   1.191   2.405   6.969
 5349SOL    HW116946   1.281   2.447   6.979
 5349SOL    HW216947   1.192   2.313   7.006
 5350SOL     OW16948   1.320   0.216   5.960
 5350SOL    HW116949   1.238   0.200   5.905
 5350SOL    HW216950   1.371   0.293   5.922
 5351SOL     OW16951   5.821   5.683   1.735
 5351SOL    HW116952   5.760   5.750   1.693
 5351SOL    HW216953   5.892   5.658   1.669
 5352SOL     OW16954   1.749   5.410   4.612
 5352SOL    HW116955   1.723   5.475   4.540
 5352SOL    HW216956   1.818   5.347   4.575
 5353SOL     OW16957   3.310   5.879   4.357
 5353SOL    HW116958   3.315   5.890   4.258
 5353SOL    HW216959   3.393   5.834   4.389
 5354SOL     OW16960   1.941   5.330   1.837
 5354SOL    HW116961   1.938   5.306   1.740
 5354SOL    HW216962   1.980   5.422   1.848
 5355SOL     OW16963   4.927   2.396   3.953
 5355SOL    HW116964   4.832   2.423   3.972
 5355SOL    HW216965   4.989   2.466   3.988
 5356SOL     OW16966   5.831   4.069   1.502
 5356SOL    HW116967   5.901   4.140   1.514
 5356SOL    HW216968   5.860   3.985   1.547
 5357SOL     OW16969   3.541   6.657   0.584
 5357SOL    HW116970   3.535   6.756   0.574
 5357SOL    HW216971   3.451   6.617   0.565
 5358SOL     OW16972   4.354   1.547   1.104
 5358SOL    HW116973   4.279   1.603   1.068
 5358SOL    HW216974   4.348   1.455   1.065
 5359SOL     OW16975   1.936   1.864   0.316
 5359SOL    HW116976   2.036   1.875   0.320
 5359SOL    HW216977   1.892   1.947   0.350
 5360SOL     OW16978   4.390   6.115   5.404
 5360SOL    HW116979   4.442   6.125   5.319
 5360SOL    HW216980   4.294   6.138   5.387
 5361SOL     OW16981   2.194   6.865   4.822
 5361SOL    HW116982   2.273   6.852   4.881
 5361SOL    HW216983   2.223   6.861   4.726
 5362SOL     OW16984   5.010   4.463   3.498
 5362SOL    HW116985   5.018   4.471   3.399
 5362SOL    HW216986   5.063   4.536   3.542
 5363SOL     OW16987   0.808   6.804   6.283
 5363SOL    HW116988   0.864   6.822   6.202
 5363SOL    HW216989   0.757   6.886   6.307
 5364SOL     OW16990   6.887   5.805   1.391
 5364SOL    HW116991   6.925   5.718   1.421
 5364SOL    HW216992   6.953   5.878   1.406
 5365SOL     OW16993   3.662   3.202   6.901
 5365SOL    HW116994   3.635   3.286   6.947
 5365SOL    HW216995   3.676   3.130   6.969
 5366SOL     OW16996   5.192   5.426   1.796
 5366SOL    HW116997   5.208   5.348   1.857
 5366SOL    HW216998   5.155   5.394   1.709
 5367SOL     OW16999   0.326   5.261   0.460
 5367SOL    HW117000   0.360   5.270   0.554
 5367SOL    HW217001   0.401   5.279   0.396
 5368SOL     OW17002   4.884   0.661   2.975
 5368SOL    HW117003   4.968   0.687   2.928
 5368SOL    HW217004   4.838   0.743   3.011
 5369SOL     OW17005   3.373   6.730   2.799
 5369SOL    HW117006   3.428   6.671   2.740
 5369SOL    HW217007   3.378   6.698   2.893
 5370SOL     OW17008   4.500   2.907   1.272
 5370SOL    HW117009   4.533   2.845   1.344
 5370SOL    HW217010   4.578   2.938   1.217
 5371SOL     OW17011   1.773   3.486   4.326
 5371SOL    HW117012   1.778   3.403   4.269
 5371SOL    HW217013   1.813   3.466   4.416
 5372SOL     OW17014   2.421   5.844   3.819
 5372SOL    HW117015   2.359   5.875   3.747
 5372SOL    HW217016   2.410   5.746   3.834
 5373SOL     OW17017   3.275   5.324   4.410
 5373SOL    HW117018   3.349   5.379   4.370
 5373SOL    HW217019   3.269   5.344   4.508
 5374SOL     OW17020   0.946   3.982   0.168
 5374SOL    HW117021   0.909   3.962   0.077
 5374SOL    HW217022   0.874   4.022   0.225
 5375SOL     OW17023   1.788   4.344   4.734
 5375SOL    HW117024   1.781   4.402   4.654
 5375SOL    HW217025   1.882   4.310   4.743
 5376SOL     OW17026   1.792   3.043   0.666
 5376SOL    HW117027   1.779   3.135   0.630
 5376SOL    HW217028   1.724   3.024   0.736
 5377SOL     OW17029   0.045   6.941   1.415
 5377SOL    HW117030   7.019   7.024   1.402
 5377SOL    HW217031   7.023   6.876   1.472
 5378SOL     OW17032   6.858   0.647   1.746
 5378SOL    HW117033   6.765   0.645   1.709
 5378SOL    HW217034   6.884   0.555   1.776
 5379SOL     OW17035   0.923   5.288   5.133
 5379SOL    HW117036   0.929   5.232   5.051
 5379SOL    HW217037   0.832   5.329   5.139
 5380SOL     OW17038   1.730   0.939   3.480
 5380SOL    HW117039   1.821   0.961   3.513
 5380SOL    HW217040   1.683   1.023   3.451
 5381SOL     OW17041   6.163   4.528   0.816
 5381SOL    HW117042   6.192   4.487   0.730
 5381SOL    HW217043   6.242   4.567   0.862
 5382SOL     OW17044   3.318   0.496   1.883
 5382SOL    HW117045   3.292   0.473   1.977
 5382SOL    HW217046   3.400   0.553   1.884
 5383SOL     OW17047   2.628   2.730   5.367
 5383SOL    HW117048   2.536   2.711   5.331
 5383SOL    HW217049   2.626   2.814   5.421
 5384SOL     OW17050   6.135   0.315   4.254
 5384SOL    HW117051   6.223   0.351   4.221
 5384SOL    HW217052   6.062   0.379   4.230
 5385SOL     OW17053   2.890   3.554   3.688
 5385SOL    HW117054   2.925   3.641   3.724
 5385SOL    HW217055   2.844   3.504   3.761
 5386SOL     OW17056   4.300   0.460   4.144
 5386SOL    HW117057   4.283   0.492   4.051
 5386SOL    HW217058   4.399   0.450   4.157
 5387SOL     OW17059   2.695   6.103   3.682
 5387SOL    HW117060   2.688   6.066   3.775
 5387SOL    HW217061   2.629   6.177   3.671
 5388SOL     OW17062   5.957   0.445   3.352
 5388SOL    HW117063   5.939   0.398   3.439
 5388SOL    HW217064   6.015   0.387   3.295
 5389SOL     OW17065   5.486   0.430   1.526
 5389SOL    HW117066   5.486   0.488   1.444
 5389SOL    HW217067   5.500   0.487   1.607
 5390SOL     OW17068   4.523   4.475   3.554
 5390SOL    HW117069   4.438   4.501   3.509
 5390SOL    HW217070   4.600   4.520   3.508
 5391SOL     OW17071   1.926   2.439   1.108
 5391SOL    HW117072   1.862   2.402   1.176
 5391SOL    HW217073   2.020   2.423   1.139
 5392SOL     OW17074   6.055   3.378   0.804
 5392SOL    HW117075   5.957   3.370   0.783
 5392SOL    HW217076   6.069   3.372   0.903
 5393SOL     OW17077   5.435   6.914   6.301
 5393SOL    HW117078   5.462   6.956   6.387
 5393SOL    HW217079   5.510   6.859   6.265
 5394SOL     OW17080   6.552   4.285   6.892
 5394SOL    HW117081   6.456   4.282   6.918
 5394SOL    HW217082   6.562   4.254   6.797
 5395SOL     OW17083   5.015   1.174   1.907
 5395SOL    HW117084   4.963   1.097   1.943
 5395SOL    HW217085   5.014   1.171   1.807
 5396SOL     OW17086   5.077   4.271   2.680
 5396SOL    HW117087   5.006   4.312   2.737
 5396SOL    HW217088   5.050   4.177   2.656
 5397SOL     OW17089   6.675   2.833   2.112
 5397SOL    HW117090   6.618   2.845   2.031
 5397SOL    HW217091   6.631   2.875   2.191
 5398SOL     OW17092   3.397   1.919   2.595
 5398SOL    HW117093   3.340   1.855   2.545
 5398SOL    HW217094   3.364   2.012   2.579
 5399SOL     OW17095   2.110   5.697   6.947
 5399SOL    HW117096   2.156   5.781   6.975
 5399SOL    HW217097   2.172   5.642   6.891
 5400SOL     OW17098   2.713   3.855   0.921
 5400SOL    HW117099   2.808   3.881   0.934
 5400SOL    HW217100   2.676   3.817   1.006
 5401SOL     OW17101   5.922   3.658   1.845
 5401SOL    HW117102   5.836   3.665   1.895
 5401SOL    HW217103   5.924   3.573   1.793
 5402SOL     OW17104   2.515   4.739   1.746
 5402SOL    HW117105   2.544   4.643   1.742
 5402SOL    HW217106   2.581   4.795   1.696
 5403SOL     OW17107   6.251   2.811   6.418
 5403SOL    HW117108   6.221   2.882   6.354
 5403SOL    HW217109   6.293   2.736   6.366
 5404SOL     OW17110   0.691   1.457   2.913
 5404SOL    HW117111   0.783   1.477   2.948
 5404SOL    HW217112   0.657   1.535   2.861
 5405SOL     OW17113   6.149   5.619   6.980
 5405SOL    HW117114   6.070   5.623   6.920
 5405SOL    HW217115   6.152   5.700   0.010
 5406SOL     OW17116   2.257   1.208   6.976
 5406SOL    HW117117   2.270   1.306   6.993
 5406SOL    HW217118   2.345   1.162   6.980
 5407SOL     OW17119   4.764   3.009   0.884
 5407SOL    HW117120   4.851   2.981   0.844
 5407SOL    HW217121   4.704   2.929   0.891
 5408SOL     OW17122   3.420   1.511   6.596
 5408SOL    HW117123   3.509   1.515   6.550
 5408SOL    HW217124   3.414   1.584   6.664
 5409SOL     OW17125   5.351   0.687   3.757
 5409SOL    HW117126   5.451   0.683   3.760
 5409SOL    HW217127   5.316   0.604   3.714
 5410SOL     OW17128   3.001   2.394   1.450
 5410SOL    HW117129   3.010   2.490   1.476
 5410SOL    HW217130   3.051   2.378   1.365
 5411SOL     OW17131   6.538   5.455   5.564
 5411SOL    HW117132   6.439   5.472   5.571
 5411SOL    HW217133   6.565   5.389   5.634
 5412SOL     OW17134   4.546   1.556   0.053
 5412SOL    HW117135   4.546   1.626   7.010
 5412SOL    HW217136   4.615   1.579   0.122
 5413SOL     OW17137   2.453   1.877   1.146
 5413SOL    HW117138   2.502   1.832   1.220
 5413SOL    HW217139   2.461   1.823   1.062
 5414SOL     OW17140   4.797   2.246   4.907
 5414SOL    HW117141   4.824   2.341   4.924
 5414SOL    HW217142   4.864   2.203   4.846
 5415SOL     OW17143   1.508   5.771   0.926
 5415SOL    HW117144   1.426   5.809   0.969
 5415SOL    HW217145   1.553   5.708   0.990
 5416SOL     OW17146   4.435   5.188   5.671
 5416SOL    HW117147   4.531   5.180   5.699
 5416SOL    HW217148   4.409   5.284   5.670
 5417SOL     OW17149   4.147   6.510   5.497
 5417SOL    HW117150   4.231   6.466   5.530
 5417SOL    HW217151   4.082   6.518   5.573
 5418SOL     OW17152   3.608   6.750   3.569
 5418SOL    HW117153   3.703   6.779   3.583
 5418SOL    HW217154   3.547   6.815   3.614
 5419SOL     OW17155   3.405   5.158   0.314
 5419SOL    HW117156   3.445   5.237   0.362
 5419SOL    HW217157   3.462   5.077   0.331
 5420SOL     OW17158   1.511   2.402   2.551
 5420SOL    HW117159   1.602   2.372   2.524
 5420SOL    HW217160   1.447   2.387   2.476
 5421SOL     OW17161   2.481   2.521   2.454
 5421SOL    HW117162   2.425   2.441   2.436
 5421SOL    HW217163   2.446   2.599   2.402
 5422SOL     OW17164   0.524   5.296   0.286
 5422SOL    HW117165   0.573   5.232   0.226
 5422SOL    HW217166   0.536   5.389   0.251
 5423SOL     OW17167   6.141   2.835   6.950
 5423SOL    HW117168   6.155   2.780   0.003
 5423SOL    HW217169   6.065   2.798   6.896
 5424SOL     OW17170   5.566   3.247   3.986
 5424SOL    HW117171   5.658   3.250   4.023
 5424SOL    HW217172   5.520   3.334   4.004
 5425SOL     OW17173   4.023   1.199   4.240
 5425SOL    HW117174   4.089   1.153   4.181
 5425SOL    HW217175   4.056   1.197   4.335
 5426SOL     OW17176   6.373   5.708   4.195
 5426SOL    HW117177   6.329   5.622   4.221
 5426SOL    HW217178   6.471   5.702   4.211
 5427SOL     OW17179   4.695   4.806   6.987
 5427SOL    HW117180   4.600   4.797   6.958
 5427SOL    HW217181   4.744   4.866   6.924
 5428SOL     OW17182   0.052   6.714   1.247
 5428SOL    HW117183   0.008   6.641   1.299
 5428SOL    HW217184   0.075   6.789   1.308
 5429SOL     OW17185   2.203   2.199   6.782
 5429SOL    HW117186   2.114   2.157   6.763
 5429SOL    HW217187   2.271   2.127   6.798
 5430SOL     OW17188   0.073   3.117   6.104
 5430SOL    HW117189   0.145   3.185   6.115
 5430SOL    HW217190   0.097   3.055   6.029
 5431SOL     OW17191   3.067   5.983   0.244
 5431SOL    HW117192   3.156   6.001   0.201
 5431SOL    HW217193   2.994   6.002   0.179
 5432SOL     OW17194   5.540   6.731   6.749
 5432SOL    HW117195   5.453   6.686   6.728
 5432SOL    HW217196   5.614   6.664   6.746
 5433SOL     OW17197   0.443   1.513   4.742
 5433SOL    HW117198   0.399   1.459   4.814
 5433SOL    HW217199   0.438   1.463   4.656
 5434SOL     OW17200   3.943   0.767   5.441
 5434SOL    HW117201   4.028   0.715   5.433
 5434SOL    HW217202   3.880   0.719   5.501
 5435SOL     OW17203   5.503   0.663   1.676
 5435SOL    HW117204   5.574   0.716   1.631
 5435SOL    HW217205   5.523   0.655   1.774
 5436SOL     OW17206   5.272   4.013   4.033
 5436SOL    HW117207   5.175   4.010   4.008
 5436SOL    HW217208   5.299   3.925   4.072
 5437SOL     OW17209   3.116   4.541   6.797
 5437SOL    HW117210   3.055   4.587   6.861
 5437SOL    HW217211   3.160   4.609   6.739
 5438SOL     OW17212   6.731   3.421   2.775
 5438SOL    HW117213   6.670   3.342   2.783
 5438SOL    HW217214   6.685   3.503   2.808
 5439SOL     OW17215   0.872   2.252   0.309
 5439SOL    HW117216   0.779   2.272   0.281
 5439SOL    HW217217   0.935   2.316   0.265
 5440SOL     OW17218   0.839   1.025   1.483
 5440SOL    HW117219   0.856   1.086   1.560
 5440SOL    HW217220   0.900   1.049   1.407
 5441SOL     OW17221   4.833   2.447   3.199
 5441SOL    HW117222   4.871   2.464   3.290
 5441SOL    HW217223   4.784   2.528   3.167
 5442SOL     OW17224   3.080   5.824   3.970
 5442SOL    HW117225   3.043   5.884   3.898
 5442SOL    HW217226   3.017   5.821   4.047
 5443SOL     OW17227   2.609   0.850   3.979
 5443SOL    HW117228   2.684   0.904   4.017
 5443SOL    HW217229   2.630   0.824   3.884
 5444SOL     OW17230   1.587   0.638   4.620
 5444SOL    HW117231   1.607   0.736   4.622
 5444SOL    HW217232   1.518   0.616   4.688
 5445SOL     OW17233   6.042   3.913   3.673
 5445SOL    HW117234   6.101   3.906   3.753
 5445SOL    HW217235   5.948   3.928   3.702
 5446SOL     OW17236   6.887   4.856   4.857
 5446SOL    HW117237   6.811   4.872   4.919
 5446SOL    HW217238   6.933   4.943   4.837
 5447SOL     OW17239   2.828   1.829   6.769
 5447SOL    HW117240   2.750   1.844   6.708
 5447SOL    HW217241   2.883   1.753   6.736
 5448SOL     OW17242   4.540   2.797   5.257
 5448SOL    HW117243   4.553   2.892   5.284
 5448SOL    HW217244   4.452   2.764   5.291
 5449SOL     OW17245   1.774   2.941   6.518
 5449SOL    HW117246   1.729   3.027   6.493
 5449SOL    HW217247   1.869   2.960   6.545
 5450SOL     OW17248   1.465   0.085   1.815
 5450SOL    HW117249   1.482   7.016   1.809
 5450SOL    HW217250   1.452   0.123   1.723
 5451SOL     OW17251   1.386   6.506   3.718
 5451SOL    HW117252   1.412   6.412   3.695
 5451SOL    HW217253   1.395   6.520   3.817
 5452SOL     OW17254   2.228   4.464   6.626
 5452SOL    HW117255   2.154   4.406   6.660
 5452SOL    HW217256   2.200   4.560   6.633
 5453SOL     OW17257   5.494   4.443   1.350
 5453SOL    HW117258   5.522   4.441   1.254
 5453SOL    HW217259   5.420   4.509   1.362
 5454SOL     OW17260   6.950   4.236   6.873
 5454SOL    HW117261   6.909   4.324   6.898
 5454SOL    HW217262   6.941   4.222   6.774
 5455SOL     OW17263   6.333   3.249   0.416
 5455SOL    HW117264   6.374   3.211   0.498
 5455SOL    HW217265   6.235   3.263   0.430
 5456SOL     OW17266   3.652   0.113   6.881
 5456SOL    HW117267   3.586   0.049   6.921
 5456SOL    HW217268   3.704   0.068   6.809
 5457SOL     OW17269   5.919   2.265   0.431
 5457SOL    HW117270   5.987   2.237   0.363
 5457SOL    HW217271   5.925   2.205   0.511
 5458SOL     OW17272   0.539   5.043   0.108
 5458SOL    HW117273   0.479   5.028   0.187
 5458SOL    HW217274   0.583   4.957   0.083
 5459SOL     OW17275   2.655   4.519   6.573
 5459SOL    HW117276   2.668   4.590   6.643
 5459SOL    HW217277   2.567   4.533   6.528
 5460SOL     OW17278   3.405   6.844   2.406
 5460SOL    HW117279   3.389   6.943   2.404
 5460SOL    HW217280   3.484   6.824   2.464
 5461SOL     OW17281   5.866   6.751   5.179
 5461SOL    HW117282   5.805   6.682   5.218
 5461SOL    HW217283   5.958   6.739   5.215
 5462SOL     OW17284   1.123   0.978   6.589
 5462SOL    HW117285   1.178   1.054   6.624
 5462SOL    HW217286   1.064   0.943   6.663
 5463SOL     OW17287   6.365   2.006   0.045
 5463SOL    HW117288   6.391   1.959   0.129
 5463SOL    HW217289   6.269   1.984   0.024
 5464SOL     OW17290   1.250   1.285   4.015
 5464SOL    HW117291   1.308   1.336   3.952
 5464SOL    HW217292   1.224   1.343   4.092
 5465SOL     OW17293   3.953   6.247   3.214
 5465SOL    HW117294   4.027   6.292   3.264
 5465SOL    HW217295   3.920   6.308   3.142
 5466SOL     OW17296   5.627   4.288   5.493
 5466SOL    HW117297   5.567   4.366   5.508
 5466SOL    HW217298   5.601   4.241   5.409
 5467SOL     OW17299   5.129   2.749   3.122
 5467SOL    HW117300   5.067   2.758   3.045
 5467SOL    HW217301   5.223   2.762   3.091
 5468SOL     OW17302   5.254   2.038   4.495
 5468SOL    HW117303   5.210   1.954   4.528
 5468SOL    HW217304   5.185   2.098   4.455
 5469SOL     OW17305   3.494   4.653   6.507
 5469SOL    HW117306   3.490   4.613   6.416
 5469SOL    HW217307   3.461   4.588   6.574
 5470SOL     OW17308   3.158   5.892   2.638
 5470SOL    HW117309   3.213   5.875   2.556
 5470SOL    HW217310   3.152   5.990   2.655
 5471SOL     OW17311   5.187   6.833   2.496
 5471SOL    HW117312   5.195   6.762   2.426
 5471SOL    HW217313   5.247   6.909   2.473
 5472SOL     OW17314   3.855   3.611   5.839
 5472SOL    HW117315   3.951   3.586   5.843
 5472SOL    HW217316   3.821   3.603   5.746
 5473SOL     OW17317   0.755   3.305   3.485
 5473SOL    HW117318   0.752   3.318   3.584
 5473SOL    HW217319   0.675   3.252   3.457
 5474SOL     OW17320   1.204   4.376   4.490
 5474SOL    HW117321   1.132   4.329   4.438
 5474SOL    HW217322   1.163   4.421   4.570
 5475SOL     OW17323   2.413   2.361   1.267
 5475SOL    HW117324   2.435   2.314   1.353
 5475SOL    HW217325   2.327   2.411   1.278
 5476SOL     OW17326   2.061   4.258   5.797
 5476SOL    HW117327   2.133   4.268   5.729
 5476SOL    HW217328   2.047   4.345   5.844
 5477SOL     OW17329   2.035   4.041   3.305
 5477SOL    HW117330   2.047   4.062   3.403
 5477SOL    HW217331   2.098   4.098   3.251
 5478SOL     OW17332   4.329   4.830   5.360
 5478SOL    HW117333   4.343   4.768   5.438
 5478SOL    HW217334   4.351   4.924   5.388
 5479SOL     OW17335   4.733   1.227   6.123
 5479SOL    HW117336   4.648   1.175   6.127
 5479SOL    HW217337   4.759   1.256   6.215
 5480SOL     OW17338   0.303   3.695   3.500
 5480SOL    HW117339   0.308   3.754   3.419
 5480SOL    HW217340   0.299   3.600   3.471
 5481SOL     OW17341   3.927   0.960   4.079
 5481SOL    HW117342   3.873   1.009   4.147
 5481SOL    HW217343   4.023   0.954   4.109
 5482SOL     OW17344   3.709   4.558   1.644
 5482SOL    HW117345   3.800   4.594   1.665
 5482SOL    HW217346   3.642   4.600   1.705
 5483SOL     OW17347   0.341   2.380   5.766
 5483SOL    HW117348   0.361   2.294   5.719
 5483SOL    HW217349   0.262   2.423   5.723
 5484SOL     OW17350   4.618   0.806   5.051
 5484SOL    HW117351   4.667   0.884   5.012
 5484SOL    HW217352   4.676   0.725   5.048
 5485SOL     OW17353   4.270   0.353   5.585
 5485SOL    HW117354   4.275   0.396   5.676
 5485SOL    HW217355   4.298   0.257   5.593
 5486SOL     OW17356   2.789   5.959   5.499
 5486SOL    HW117357   2.699   5.936   5.461
 5486SOL    HW217358   2.860   5.942   5.431
 5487SOL     OW17359   3.281   3.613   6.628
 5487SOL    HW117360   3.312   3.627   6.534
 5487SOL    HW217361   3.279   3.515   6.649
 5488SOL     OW17362   6.549   0.709   0.615
 5488SOL    HW117363   6.646   0.721   0.592
 5488SOL    HW217364   6.514   0.793   0.657
 5489SOL     OW17365   6.250   3.468   1.657
 5489SOL    HW117366   6.245   3.372   1.687
 5489SOL    HW217367   6.346   3.494   1.646
 5490SOL     OW17368   1.853   7.004   2.645
 5490SOL    HW117369   1.810   6.976   2.559
 5490SOL    HW217370   1.901   0.062   2.631
 5491SOL     OW17371   0.453   2.942   0.679
 5491SOL    HW117372   0.429   3.038   0.695
 5491SOL    HW217373   0.505   2.935   0.594
 5492SOL     OW17374   1.135   3.233   5.740
 5492SOL    HW117375   1.211   3.193   5.791
 5492SOL    HW217376   1.155   3.329   5.720
 5493SOL     OW17377   4.019   3.688   2.411
 5493SOL    HW117378   3.986   3.748   2.483
 5493SOL    HW217379   4.020   3.594   2.443
 5494SOL     OW17380   6.760   4.109   5.050
 5494SOL    HW117381   6.851   4.149   5.055
 5494SOL    HW217382   6.744   4.077   4.956
 5495SOL     OW17383   5.687   0.847   0.984
 5495SOL    HW117384   5.761   0.911   0.962
 5495SOL    HW217385   5.725   0.754   0.989
 5496SOL     OW17386   4.450   0.470   3.770
 5496SOL    HW117387   4.398   0.552   3.792
 5496SOL    HW217388   4.539   0.474   3.815
 5497SOL     OW17389   0.252   1.468   5.377
 5497SOL    HW117390   0.321   1.436   5.311
 5497SOL    HW217391   0.267   1.424   5.465
 5498SOL     OW17392   0.281   5.291   1.847
 5498SOL    HW117393   0.230   5.250   1.771
 5498SOL    HW217394   0.329   5.373   1.815
 5499SOL     OW17395   0.576   0.654   3.537
 5499SOL    HW117396   0.603   0.693   3.625
 5499SOL    HW217397   0.625   0.567   3.523
 5500SOL     OW17398   1.597   0.525   0.181
 5500SOL    HW117399   1.688   0.492   0.156
 5500SOL    HW217400   1.572   0.602   0.123
 5501SOL     OW17401   3.983   2.065   0.646
 5501SOL    HW117402   4.029   2.127   0.710
 5501SOL    HW217403   4.038   2.055   0.564
 5502SOL     OW17404   5.396   3.793   6.240
 5502SOL    HW117405   5.479   3.764   6.289
 5502SOL    HW217406   5.413   3.791   6.141
 5503SOL     OW17407   0.312   4.534   1.378
 5503SOL    HW117408   0.368   4.473   1.322
 5503SOL    HW217409   0.370   4.602   1.423
 5504SOL     OW17410   4.315   1.391   5.683
 5504SOL    HW117411   4.274   1.482   5.672
 5504SOL    HW217412   4.357   1.385   5.773
 5505SOL     OW17413   2.331   4.287   3.626
 5505SOL    HW117414   2.416   4.291   3.574
 5505SOL    HW217415   2.256   4.325   3.571
 5506SOL     OW17416   6.924   3.563   0.074
 5506SOL    HW117417   6.996   3.494   0.083
 5506SOL    HW217418   6.871   3.545   7.020
 5507SOL     OW17419   3.747   0.960   6.328
 5507SOL    HW117420   3.671   0.898   6.307
 5507SOL    HW217421   3.753   1.031   6.257
 5508SOL     OW17422   1.216   0.642   0.078
 5508SOL    HW117423   1.231   0.711   0.149
 5508SOL    HW217424   1.303   0.600   0.053
 5509SOL     OW17425   0.653   5.751   0.665
 5509SOL    HW117426   0.658   5.825   0.598
 5509SOL    HW217427   0.721   5.766   0.737
 5510SOL     OW17428   5.082   5.196   6.404
 5510SOL    HW117429   5.069   5.205   6.503
 5510SOL    HW217430   5.163   5.248   6.376
 5511SOL     OW17431   0.921   1.025   5.175
 5511SOL    HW117432   0.991   1.050   5.242
 5511SOL    HW217433   0.938   1.073   5.089
 5512SOL     OW17434   3.435   1.050   0.935
 5512SOL    HW117435   3.443   1.067   1.033
 5512SOL    HW217436   3.367   1.111   0.895
 5513SOL     OW17437   3.043   4.655   5.847
 5513SOL    HW117438   3.069   4.635   5.942
 5513SOL    HW217439   2.964   4.716   5.846
 5514SOL     OW17440   3.750   6.939   5.266
 5514SOL    HW117441   3.798   6.875   5.326
 5514SOL    HW217442   3.812   7.012   5.238
 5515SOL     OW17443   1.812   5.819   1.796
 5515SOL    HW117444   1.796   5.830   1.894
 5515SOL    HW217445   1.734   5.853   1.744
 5516SOL     OW17446   2.361   2.779   5.254
 5516SOL    HW117447   2.371   2.721   5.173
 5516SOL    HW217448   2.414   2.863   5.243
 5517SOL     OW17449   1.673   3.648   1.922
 5517SOL    HW117450   1.620   3.683   1.999
 5517SOL    HW217451   1.703   3.555   1.942
 5518SOL     OW17452   6.337   5.037   6.089
 5518SOL    HW117453   6.256   5.024   6.033
 5518SOL    HW217454   6.416   4.997   6.043
 5519SOL     OW17455   5.150   3.097   3.769
 5519SOL    HW117456   5.129   3.050   3.684
 5519SOL    HW217457   5.179   3.191   3.749
 5520SOL     OW17458   5.558   6.245   2.616
 5520SOL    HW117459   5.617   6.194   2.553
 5520SOL    HW217460   5.568   6.343   2.598
 5521SOL     OW17461   5.346   5.971   1.428
 5521SOL    HW117462   5.318   5.967   1.524
 5521SOL    HW217463   5.297   5.900   1.376
 5522SOL     OW17464   6.603   5.429   1.547
 5522SOL    HW117465   6.638   5.467   1.462
 5522SOL    HW217466   6.510   5.396   1.533
 5523SOL     OW17467   4.777   0.725   2.700
 5523SOL    HW117468   4.725   0.806   2.725
 5523SOL    HW217469   4.822   0.687   2.781
 5524SOL     OW17470   3.883   6.757   5.402
 5524SOL    HW117471   3.862   6.727   5.495
 5524SOL    HW217472   3.981   6.773   5.393
 5525SOL     OW17473   0.187   2.894   0.351
 5525SOL    HW117474   0.188   2.830   0.428
 5525SOL    HW217475   0.170   2.844   0.266
 5526SOL     OW17476   4.593   4.393   2.607
 5526SOL    HW117477   4.563   4.320   2.669
 5526SOL    HW217478   4.518   4.459   2.595
 5527SOL     OW17479   5.022   3.652   3.929
 5527SOL    HW117480   4.989   3.700   4.011
 5527SOL    HW217481   4.965   3.679   3.851
 5528SOL     OW17482   0.883   1.420   1.530
 5528SOL    HW117483   0.966   1.366   1.546
 5528SOL    HW217484   0.907   1.516   1.517
 5529SOL     OW17485   2.555   6.576   3.542
 5529SOL    HW117486   2.588   6.579   3.447
 5529SOL    HW217487   2.559   6.482   3.575
 5530SOL     OW17488   6.800   2.603   2.088
 5530SOL    HW117489   6.755   2.691   2.100
 5530SOL    HW217490   6.742   2.543   2.034
 5531SOL     OW17491   4.091   4.017   1.629
 5531SOL    HW117492   4.084   3.917   1.631
 5531SOL    HW217493   4.186   4.045   1.641
 5532SOL     OW17494   1.900   2.793   0.555
 5532SOL    HW117495   1.871   2.868   0.613
 5532SOL    HW217496   1.937   2.719   0.612
 5533SOL     OW17497   4.996   1.426   4.301
 5533SOL    HW117498   4.962   1.436   4.395
 5533SOL    HW217499   5.076   1.485   4.288
 5534SOL     OW17500   1.115   1.151   5.785
 5534SOL    HW117501   1.190   1.216   5.779
 5534SOL    HW217502   1.083   1.145   5.880
 5535SOL     OW17503   0.865   1.414   2.578
 5535SOL    HW117504   0.900   1.471   2.503
 5535SOL    HW217505   0.768   1.437   2.594
 5536SOL     OW17506   3.766   0.721   4.376
 5536SOL    HW117507   3.755   0.703   4.279
 5536SOL    HW217508   3.679   0.756   4.414
 5537SOL     OW17509   3.866   1.565   2.405
 5537SOL    HW117510   3.810   1.578   2.323
 5537SOL    HW217511   3.863   1.468   2.433
 5538SOL     OW17512   4.338   5.827   4.785
 5538SOL    HW117513   4.292   5.867   4.706
 5538SOL    HW217514   4.331   5.727   4.780
 5539SOL     OW17515   1.926   3.570   1.028
 5539SOL    HW117516   1.986   3.491   1.012
 5539SOL    HW217517   1.967   3.629   1.097
 5540SOL     OW17518   4.728   4.629   3.841
 5540SOL    HW117519   4.789   4.656   3.767
 5540SOL    HW217520   4.759   4.542   3.880
 5541SOL     OW17521   4.129   1.719   6.365
 5541SOL    HW117522   4.141   1.703   6.268
 5541SOL    HW217523   4.165   1.809   6.389
 5542SOL     OW17524   3.881   3.306   6.083
 5542SOL    HW117525   3.831   3.264   6.008
 5542SOL    HW217526   3.977   3.275   6.080
 5543SOL     OW17527   5.942   3.818   6.802
 5543SOL    HW117528   5.885   3.819   6.720
 5543SOL    HW217529   5.886   3.790   6.881
 5544SOL     OW17530   5.560   0.878   6.150
 5544SOL    HW117531   5.613   0.892   6.066
 5544SOL    HW217532   5.612   0.821   6.214
 5545SOL     OW17533   4.048   2.088   2.522
 5545SOL    HW117534   4.075   2.025   2.448
 5545SOL    HW217535   4.097   2.175   2.511
 5546SOL     OW17536   1.809   5.157   5.648
 5546SOL    HW117537   1.746   5.234   5.657
 5546SOL    HW217538   1.862   5.169   5.564
 5547SOL     OW17539   3.279   5.754   4.973
 5547SOL    HW117540   3.354   5.801   5.021
 5547SOL    HW217541   3.273   5.789   4.879
 5548SOL     OW17542   6.127   3.597   5.524
 5548SOL    HW117543   6.215   3.643   5.516
 5548SOL    HW217544   6.091   3.578   5.432
 5549SOL     OW17545   3.404   5.196   6.563
 5549SOL    HW117546   3.482   5.174   6.621
 5549SOL    HW217547   3.394   5.295   6.557
 5550SOL     OW17548   2.063   5.802   1.368
 5550SOL    HW117549   2.082   5.792   1.466
 5550SOL    HW217550   2.148   5.791   1.316
 5551SOL     OW17551   1.402   0.692   3.325
 5551SOL    HW117552   1.417   0.732   3.415
 5551SOL    HW217553   1.427   0.758   3.254
 5552SOL     OW17554   0.184   1.829   0.709
 5552SOL    HW117555   0.188   1.745   0.763
 5552SOL    HW217556   0.273   1.844   0.664
 5553SOL     OW17557   4.194   6.545   6.929
 5553SOL    HW117558   4.189   6.446   6.921
 5553SOL    HW217559   4.171   6.587   6.841
 5554SOL     OW17560   2.853   2.297   5.078
 5554SOL    HW117561   2.822   2.376   5.130
 5554SOL    HW217562   2.953   2.293   5.079
 5555SOL     OW17563   0.341   5.554   3.599
 5555SOL    HW117564   0.430   5.535   3.640
 5555SOL    HW217565   0.318   5.651   3.613
 5556SOL     OW17566   0.711   1.881   5.225
 5556SOL    HW117567   0.793   1.936   5.239
 5556SOL    HW217568   0.723   1.792   5.270
 5557SOL     OW17569   1.932   6.021   3.761
 5557SOL    HW117570   1.951   6.010   3.663
 5557SOL    HW217571   1.920   6.118   3.782
 5558SOL     OW17572   5.513   2.691   4.975
 5558SOL    HW117573   5.475   2.783   4.967
 5558SOL    HW217574   5.609   2.692   4.948
 5559SOL     OW17575   2.232   0.304   1.085
 5559SOL    HW117576   2.241   0.210   1.054
 5559SOL    HW217577   2.222   0.365   1.006
 5560SOL     OW17578   0.254   1.113   3.393
 5560SOL    HW117579   0.322   1.047   3.426
 5560SOL    HW217580   0.291   1.164   3.316
 5561SOL     OW17581   1.675   3.189   3.451
 5561SOL    HW117582   1.678   3.120   3.379
 5561SOL    HW217583   1.610   3.261   3.426
 5562SOL     OW17584   2.275   3.044   5.979
 5562SOL    HW117585   2.317   3.079   5.895
 5562SOL    HW217586   2.280   2.945   5.979
 5563SOL     OW17587   4.533   6.243   2.498
 5563SOL    HW117588   4.519   6.286   2.587
 5563SOL    HW217589   4.446   6.235   2.450
 5564SOL     OW17590   5.139   4.056   1.824
 5564SOL    HW117591   5.226   4.057   1.874
 5564SOL    HW217592   5.065   4.034   1.887
 5565SOL     OW17593   3.871   2.311   5.588
 5565SOL    HW117594   3.812   2.386   5.616
 5565SOL    HW217595   3.887   2.316   5.489
 5566SOL     OW17596   2.047   5.025   1.055
 5566SOL    HW117597   2.042   5.056   1.150
 5566SOL    HW217598   2.051   4.925   1.053
 5567SOL     OW17599   1.806   5.750   1.414
 5567SOL    HW117600   1.794   5.695   1.497
 5567SOL    HW217601   1.903   5.754   1.391
 5568SOL     OW17602   4.604   1.338   1.432
 5568SOL    HW117603   4.622   1.422   1.382
 5568SOL    HW217604   4.528   1.289   1.390
 5569SOL     OW17605   4.059   1.453   1.155
 5569SOL    HW117606   4.141   1.399   1.136
 5569SOL    HW217607   3.994   1.398   1.206
 5570SOL     OW17608   6.528   4.561   5.340
 5570SOL    HW117609   6.565   4.487   5.285
 5570SOL    HW217610   6.491   4.524   5.426
 5571SOL     OW17611   6.997   5.722   0.637
 5571SOL    HW117612   0.052   5.754   0.681
 5571SOL    HW217613   6.961   5.794   0.578
 5572SOL     OW17614   4.282   2.410   6.285
 5572SOL    HW117615   4.182   2.414   6.291
 5572SOL    HW217616   4.313   2.458   6.202
 5573SOL     OW17617   1.058   3.857   0.833
 5573SOL    HW117618   1.024   3.834   0.925
 5573SOL    HW217619   1.155   3.834   0.827
 5574SOL     OW17620   0.686   6.108   4.894
 5574SOL    HW117621   0.615   6.134   4.829
 5574SOL    HW217622   0.655   6.031   4.949
 5575SOL     OW17623   1.192   0.937   0.530
 5575SOL    HW117624   1.159   0.887   0.611
 5575SOL    HW217625   1.128   1.011   0.508
 5576SOL     OW17626   5.405   6.134   0.350
 5576SOL    HW117627   5.368   6.155   0.260
 5576SOL    HW217628   5.374   6.203   0.416
 5577SOL     OW17629   2.076   3.859   5.332
 5577SOL    HW117630   2.088   3.904   5.243
 5577SOL    HW217631   2.152   3.797   5.348
 5578SOL     OW17632   4.363   2.977   0.227
 5578SOL    HW117633   4.290   2.979   0.158
 5578SOL    HW217634   4.441   3.029   0.194
 5579SOL     OW17635   5.426   3.540   6.802
 5579SOL    HW117636   5.492   3.520   6.874
 5579SOL    HW217637   5.418   3.639   6.791
 5580SOL     OW17638   5.282   0.966   0.370
 5580SOL    HW117639   5.324   1.048   0.408
 5580SOL    HW217640   5.349   0.892   0.367
 5581SOL     OW17641   2.010   1.078   6.454
 5581SOL    HW117642   2.102   1.054   6.486
 5581SOL    HW217643   1.944   1.016   6.494
 5582SOL     OW17644   3.498   3.208   3.513
 5582SOL    HW117645   3.597   3.195   3.510
 5582SOL    HW217646   3.462   3.213   3.420
 5583SOL     OW17647   3.711   0.227   1.429
 5583SOL    HW117648   3.650   0.153   1.457
 5583SOL    HW217649   3.805   0.194   1.427
 5584SOL     OW17650   6.797   3.892   2.923
 5584SOL    HW117651   6.852   3.808   2.923
 5584SOL    HW217652   6.705   3.872   2.956
 5585SOL     OW17653   6.302   0.720   4.040
 5585SOL    HW117654   6.388   0.765   4.064
 5585SOL    HW217655   6.236   0.788   4.006
 5586SOL     OW17656   2.134   0.967   5.494
 5586SOL    HW117657   2.145   0.941   5.590
 5586SOL    HW217658   2.193   1.046   5.474
 5587SOL     OW17659   4.110   0.654   3.650
 5587SOL    HW117660   4.147   0.592   3.720
 5587SOL    HW217661   4.020   0.687   3.680
 5588SOL     OW17662   2.395   0.044   5.701
 5588SOL    HW117663   2.307   0.058   5.654
 5588SOL    HW217664   2.417   6.975   5.702
 5589SOL     OW17665   4.572   2.734   5.899
 5589SOL    HW117666   4.582   2.789   5.981
 5589SOL    HW217667   4.522   2.787   5.830
 5590SOL     OW17668   0.407   5.840   4.555
 5590SOL    HW117669   0.390   5.853   4.458
 5590SOL    HW217670   0.346   5.769   4.590
 5591SOL     OW17671   5.296   0.351   0.023
 5591SOL    HW117672   5.294   0.272   0.084
 5591SOL    HW217673   5.301   0.435   0.077
 5592SOL     OW17674   1.639   3.291   2.583
 5592SOL    HW117675   1.663   3.197   2.560
 5592SOL    HW217676   1.659   3.309   2.679
 5593SOL     OW17677   2.051   2.497   5.898
 5593SOL    HW117678   2.046   2.521   5.995
 5593SOL    HW217679   1.975   2.436   5.875
 5594SOL     OW17680   2.295   0.395   0.581
 5594SOL    HW117681   2.337   0.305   0.592
 5594SOL    HW217682   2.243   0.397   0.496
 5595SOL     OW17683   0.021   2.306   5.963
 5595SOL    HW117684   0.010   2.213   5.929
 5595SOL    HW217685   0.115   2.319   5.994
 5596SOL     OW17686   5.308   0.491   2.808
 5596SOL    HW117687   5.323   0.481   2.906
 5596SOL    HW217688   5.316   0.402   2.763
 5597SOL     OW17689   6.571   1.079   6.524
 5597SOL    HW117690   6.599   1.106   6.616
 5597SOL    HW217691   6.631   1.007   6.490
 5598SOL     OW17692   6.227   1.977   3.576
 5598SOL    HW117693   6.185   1.966   3.666
 5598SOL    HW217694   6.265   2.069   3.567
 5599SOL     OW17695   4.882   3.928   2.367
 5599SOL    HW117696   4.791   3.969   2.366
 5599SOL    HW217697   4.901   3.887   2.278
 5600SOL     OW17698   2.457   1.260   2.628
 5600SOL    HW117699   2.370   1.247   2.580
 5600SOL    HW217700   2.518   1.316   2.572
 5601SOL     OW17701   5.281   2.935   5.677
 5601SOL    HW117702   5.250   2.891   5.593
 5601SOL    HW217703   5.329   3.020   5.654
 5602SOL     OW17704   0.356   2.626   3.205
 5602SOL    HW117705   0.296   2.613   3.284
 5602SOL    HW217706   0.430   2.559   3.208
 5603SOL     OW17707   4.204   2.278   4.498
 5603SOL    HW117708   4.144   2.314   4.427
 5603SOL    HW217709   4.294   2.258   4.459
 5604SOL     OW17710   0.335   0.111   3.773
 5604SOL    HW117711   0.390   0.052   3.832
 5604SOL    HW217712   0.375   0.113   3.681
 5605SOL     OW17713   3.035   5.973   4.626
 5605SOL    HW117714   2.957   5.918   4.656
 5605SOL    HW217715   3.044   5.967   4.526
 5606SOL     OW17716   4.551   2.012   0.363
 5606SOL    HW117717   4.521   2.107   0.369
 5606SOL    HW217718   4.647   2.009   0.337
 5607SOL     OW17719   5.947   2.623   1.924
 5607SOL    HW117720   5.899   2.614   1.836
 5607SOL    HW217721   5.885   2.597   1.998
 5608SOL     OW17722   4.379   1.219   3.445
 5608SOL    HW117723   4.363   1.316   3.462
 5608SOL    HW217724   4.306   1.165   3.488
 5609SOL     OW17725   6.507   6.771   0.823
 5609SOL    HW117726   6.475   6.807   0.735
 5609SOL    HW217727   6.606   6.755   0.819
 5610SOL     OW17728   5.361   4.638   0.036
 5610SOL    HW117729   5.327   4.546   0.057
 5610SOL    HW217730   5.452   4.631   7.024
 5611SOL     OW17731   0.051   5.137   1.706
 5611SOL    HW117732   7.026   5.059   1.736
 5611SOL    HW217733   7.019   5.207   1.667
 5612SOL     OW17734   2.665   0.713   0.906
 5612SOL    HW117735   2.732   0.663   0.852
 5612SOL    HW217736   2.588   0.654   0.929
 5613SOL     OW17737   6.567   5.273   5.199
 5613SOL    HW117738   6.542   5.252   5.293
 5613SOL    HW217739   6.581   5.372   5.189
 5614SOL     OW17740   5.973   2.031   4.284
 5614SOL    HW117741   5.942   1.944   4.246
 5614SOL    HW217742   6.072   2.039   4.274
 5615SOL     OW17743   0.287   3.197   2.999
 5615SOL    HW117744   0.378   3.173   3.034
 5615SOL    HW217745   0.241   3.256   3.065
 5616SOL     OW17746   1.631   3.035   2.936
 5616SOL    HW117747   1.724   3.060   2.910
 5616SOL    HW217748   1.624   2.935   2.942
 5617SOL     OW17749   1.934   5.184   6.470
 5617SOL    HW117750   1.961   5.088   6.465
 5617SOL    HW217751   1.835   5.191   6.477
 5618SOL     OW17752   6.532   5.915   3.793
 5618SOL    HW117753   6.456   5.851   3.806
 5618SOL    HW217754   6.577   5.931   3.881
 5619SOL     OW17755   3.560   3.224   4.300
 5619SOL    HW117756   3.504   3.228   4.217
 5619SOL    HW217757   3.519   3.160   4.365
 5620SOL     OW17758   4.869   4.357   5.642
 5620SOL    HW117759   4.776   4.367   5.605
 5620SOL    HW217760   4.932   4.410   5.586
 5621SOL     OW17761   1.917   2.203   5.224
 5621SOL    HW117762   1.846   2.135   5.207
 5621SOL    HW217763   1.887   2.264   5.297
 5622SOL     OW17764   4.859   5.844   4.860
 5622SOL    HW117765   4.856   5.841   4.960
 5622SOL    HW217766   4.795   5.777   4.823
 5623SOL     OW17767   5.052   6.334   4.222
 5623SOL    HW117768   5.036   6.431   4.242
 5623SOL    HW217769   4.997   6.278   4.284
 5624SOL     OW17770   6.737   4.906   4.613
 5624SOL    HW117771   6.800   4.895   4.690
 5624SOL    HW217772   6.767   4.850   4.536
 5625SOL     OW17773   1.074   5.844   4.747
 5625SOL    HW117774   1.068   5.943   4.737
 5625SOL    HW217775   1.170   5.816   4.745
 5626SOL     OW17776   1.920   3.956   4.601
 5626SOL    HW117777   1.896   3.868   4.643
 5626SOL    HW217778   1.990   4.001   4.656
 5627SOL     OW17779   1.160   5.403   6.913
 5627SOL    HW117780   1.097   5.340   6.959
 5627SOL    HW217781   1.225   5.440   6.979
 5628SOL     OW17782   2.456   2.965   0.974
 5628SOL    HW117783   2.441   2.971   1.072
 5628SOL    HW217784   2.528   2.898   0.955
 5629SOL     OW17785   4.963   3.807   1.555
 5629SOL    HW117786   4.937   3.718   1.592
 5629SOL    HW217787   5.038   3.845   1.609
 5630SOL     OW17788   2.366   4.021   6.643
 5630SOL    HW117789   2.276   4.018   6.686
 5630SOL    HW217790   2.391   4.116   6.625
 5631SOL     OW17791   4.539   0.768   1.759
 5631SOL    HW117792   4.543   0.747   1.662
 5631SOL    HW217793   4.443   0.772   1.788
 5632SOL     OW17794   5.791   0.001   5.966
 5632SOL    HW117795   5.845   0.066   6.019
 5632SOL    HW217796   5.694   0.027   5.970
 5633SOL     OW17797   0.646   5.035   5.697
 5633SOL    HW117798   0.563   4.980   5.692
 5633SOL    HW217799   0.622   5.132   5.689
 5634SOL     OW17800   2.793   6.606   0.085
 5634SOL    HW117801   2.869   6.596   0.021
 5634SOL    HW217802   2.728   6.531   0.072
 5635SOL     OW17803   2.466   0.256   6.794
 5635SOL    HW117804   2.481   0.286   6.888
 5635SOL    HW217805   2.542   0.288   6.737
 5636SOL     OW17806   6.818   1.420   5.625
 5636SOL    HW117807   6.786   1.349   5.563
 5636SOL    HW217808   6.892   1.472   5.582
 5637SOL     OW17809   5.014   6.754   4.467
 5637SOL    HW117810   5.078   6.823   4.433
 5637SOL    HW217811   5.021   6.749   4.567
 5638SOL     OW17812   5.149   5.441   0.744
 5638SOL    HW117813   5.202   5.496   0.679
 5638SOL    HW217814   5.200   5.433   0.830
 5639SOL     OW17815   0.498   0.328   1.389
 5639SOL    HW117816   0.539   0.411   1.354
 5639SOL    HW217817   0.398   0.338   1.392
 5640SOL     OW17818   3.189   5.724   3.337
 5640SOL    HW117819   3.119   5.789   3.368
 5640SOL    HW217820   3.231   5.758   3.253
 5641SOL     OW17821   0.650   4.504   3.906
 5641SOL    HW117822   0.746   4.531   3.901
 5641SOL    HW217823   0.644   4.411   3.943
 5642SOL     OW17824   1.473   4.463   0.317
 5642SOL    HW117825   1.484   4.557   0.284
 5642SOL    HW217826   1.528   4.401   0.261
 5643SOL     OW17827   4.449   2.180   4.431
 5643SOL    HW117828   4.411   2.217   4.346
 5643SOL    HW217829   4.415   2.087   4.446
 5644SOL     OW17830   4.711   1.749   5.250
 5644SOL    HW117831   4.625   1.785   5.286
 5644SOL    HW217832   4.714   1.762   5.151
 5645SOL     OW17833   6.161   5.608   3.505
 5645SOL    HW117834   6.160   5.679   3.575
 5645SOL    HW217835   6.127   5.522   3.544
 5646SOL     OW17836   0.560   6.550   3.469
 5646SOL    HW117837   0.621   6.479   3.503
 5646SOL    HW217838   0.599   6.640   3.488
 5647SOL     OW17839   5.935   5.697   6.820
 5647SOL    HW117840   5.930   5.741   6.730
 5647SOL    HW217841   5.848   5.709   6.867
 5648SOL     OW17842   1.672   1.646   3.635
 5648SOL    HW117843   1.653   1.693   3.549
 5648SOL    HW217844   1.768   1.620   3.639
 5649SOL     OW17845   1.076   0.664   4.804
 5649SOL    HW117846   1.086   0.691   4.899
 5649SOL    HW217847   1.033   0.573   4.799
 5650SOL     OW17848   6.704   4.777   6.700
 5650SOL    HW117849   6.651   4.838   6.640
 5650SOL    HW217850   6.649   4.696   6.722
 5651SOL     OW17851   0.139   1.421   1.815
 5651SOL    HW117852   0.157   1.512   1.852
 5651SOL    HW217853   0.056   1.423   1.759
 5652SOL     OW17854   4.751   5.683   2.042
 5652SOL    HW117855   4.726   5.650   2.133
 5652SOL    HW217856   4.715   5.621   1.972
 5653SOL     OW17857   0.157   5.504   5.244
 5653SOL    HW117858   0.189   5.493   5.150
 5653SOL    HW217859   0.061   5.475   5.250
 5654SOL     OW17860   6.756   0.387   5.448
 5654SOL    HW117861   6.851   0.394   5.480
 5654SOL    HW217862   6.698   0.446   5.504
 5655SOL     OW17863   1.050   3.387   3.907
 5655SOL    HW117864   1.121   3.393   3.977
 5655SOL    HW217865   1.002   3.300   3.915
 5656SOL     OW17866   3.470   3.389   0.952
 5656SOL    HW117867   3.399   3.449   0.989
 5656SOL    HW217868   3.557   3.439   0.948
 5657SOL     OW17869   4.114   0.184   1.982
 5657SOL    HW117870   4.017   0.160   1.977
 5657SOL    HW217871   4.170   0.101   1.983
 5658SOL     OW17872   3.870   6.808   5.703
 5658SOL    HW117873   3.876   6.727   5.763
 5658SOL    HW217874   3.793   6.864   5.732
 5659SOL     OW17875   2.948   3.508   2.803
 5659SOL    HW117876   2.947   3.546   2.711
 5659SOL    HW217877   2.859   3.523   2.847
 5660SOL     OW17878   4.515   0.483   6.722
 5660SOL    HW117879   4.428   0.506   6.680
 5660SOL    HW217880   4.524   0.532   6.809
 5661SOL     OW17881   0.132   6.051   4.604
 5661SOL    HW117882   0.122   5.968   4.659
 5661SOL    HW217883   0.041   6.087   4.581
 5662SOL     OW17884   2.369   4.300   4.142
 5662SOL    HW117885   2.370   4.341   4.051
 5662SOL    HW217886   2.456   4.317   4.188
 5663SOL     OW17887   0.973   4.134   0.813
 5663SOL    HW117888   1.008   4.040   0.813
 5663SOL    HW217889   1.050   4.198   0.810
 5664SOL     OW17890   0.337   4.769   2.538
 5664SOL    HW117891   0.329   4.867   2.521
 5664SOL    HW217892   0.350   4.721   2.451
 5665SOL     OW17893   2.260   2.845   6.567
 5665SOL    HW117894   2.353   2.883   6.572
 5665SOL    HW217895   2.199   2.914   6.527
 5666SOL     OW17896   4.777   5.712   0.426
 5666SOL    HW117897   4.708   5.772   0.386
 5666SOL    HW217898   4.859   5.765   0.447
 5667SOL     OW17899   6.648   4.897   2.925
 5667SOL    HW117900   6.726   4.906   2.987
 5667SOL    HW217901   6.681   4.883   2.831
 5668SOL     OW17902   4.683   2.123   6.005
 5668SOL    HW117903   4.631   2.040   6.028
 5668SOL    HW217904   4.623   2.188   5.959
 5669SOL     OW17905   0.833   4.875   6.145
 5669SOL    HW117906   0.819   4.938   6.221
 5669SOL    HW217907   0.773   4.795   6.156
 5670SOL     OW17908   0.564   3.241   4.548
 5670SOL    HW117909   0.635   3.236   4.477
 5670SOL    HW217910   0.581   3.321   4.606
 5671SOL     OW17911   2.135   0.256   6.589
 5671SOL    HW117912   2.082   0.177   6.621
 5671SOL    HW217913   2.227   0.227   6.564
 5672SOL     OW17914   5.399   3.967   5.821
 5672SOL    HW117915   5.383   3.891   5.758
 5672SOL    HW217916   5.483   4.015   5.795
 5673SOL     OW17917   7.006   0.310   2.074
 5673SOL    HW117918   6.949   0.334   2.152
 5673SOL    HW217919   0.072   0.335   2.093
 5674SOL     OW17920   6.805   3.427   1.470
 5674SOL    HW117921   6.824   3.329   1.476
 5674SOL    HW217922   6.706   3.441   1.459
 5675SOL     OW17923   4.550   2.358   5.373
 5675SOL    HW117924   4.605   2.416   5.313
 5675SOL    HW217925   4.567   2.262   5.351
 5676SOL     OW17926   2.090   0.077   1.300
 5676SOL    HW117927   2.017   0.140   1.327
 5676SOL    HW217928   2.162   0.077   1.370
 5677SOL     OW17929   6.493   0.863   3.630
 5677SOL    HW117930   6.581   0.870   3.584
 5677SOL    HW217931   6.449   0.953   3.633
 5678SOL     OW17932   3.659   6.828   2.667
 5678SOL    HW117933   3.656   6.729   2.681
 5678SOL    HW217934   3.752   6.856   2.645
 5679SOL     OW17935   1.816   6.567   5.075
 5679SOL    HW117936   1.807   6.541   4.979
 5679SOL    HW217937   1.756   6.509   5.131
 5680SOL     OW17938   1.347   5.534   6.302
 5680SOL    HW117939   1.402   5.528   6.219
 5680SOL    HW217940   1.381   5.610   6.359
 5681SOL     OW17941   1.323   1.989   6.581
 5681SOL    HW117942   1.228   1.962   6.594
 5681SOL    HW217943   1.353   2.044   6.659
 5682SOL     OW17944   1.827   2.338   5.872
 5682SOL    HW117945   1.771   2.307   5.795
 5682SOL    HW217946   1.767   2.361   5.949
 5683SOL     OW17947   3.456   2.908   6.274
 5683SOL    HW117948   3.535   2.857   6.239
 5683SOL    HW217949   3.434   2.876   6.366
 5684SOL     OW17950   3.775   3.504   3.920
 5684SOL    HW117951   3.718   3.516   4.001
 5684SOL    HW217952   3.767   3.410   3.886
 5685SOL     OW17953   0.543   4.888   2.737
 5685SOL    HW117954   0.548   4.789   2.720
 5685SOL    HW217955   0.460   4.908   2.788
 5686SOL     OW17956   4.087   0.201   0.833
 5686SOL    HW117957   4.153   0.273   0.812
 5686SOL    HW217958   4.102   0.168   0.926
 5687SOL     OW17959   5.856   4.412   5.056
 5687SOL    HW117960   5.940   4.464   5.039
 5687SOL    HW217961   5.777   4.472   5.047
 5688SOL     OW17962   5.465   2.242   1.504
 5688SOL    HW117963   5.431   2.193   1.584
 5688SOL    HW217964   5.461   2.182   1.424
 5689SOL     OW17965   4.861   1.487   0.723
 5689SOL    HW117966   4.812   1.573   0.736
 5689SOL    HW217967   4.805   1.424   0.668
 5690SOL     OW17968   4.528   6.174   0.742
 5690SOL    HW117969   4.504   6.141   0.651
 5690SOL    HW217970   4.590   6.110   0.787
 5691SOL     OW17971   2.708   6.727   2.458
 5691SOL    HW117972   2.711   6.806   2.396
 5691SOL    HW217973   2.799   6.687   2.464
 5692SOL     OW17974   6.768   2.258   5.884
 5692SOL    HW117975   6.863   2.276   5.907
 5692SOL    HW217976   6.756   2.264   5.784
 5693SOL     OW17977   4.755   2.568   2.638
 5693SOL    HW117978   4.838   2.587   2.690
 5693SOL    HW217979   4.769   2.488   2.580
 5694SOL     OW17980   0.057   1.100   3.600
 5694SOL    HW117981   0.024   1.194   3.608
 5694SOL    HW217982   0.134   1.097   3.537
 5695SOL     OW17983   1.050   2.273   3.761
 5695SOL    HW117984   1.069   2.192   3.704
 5695SOL    HW217985   1.073   2.253   3.856
 5696SOL     OW17986   2.674   1.643   5.140
 5696SOL    HW117987   2.729   1.644   5.056
 5696SOL    HW217988   2.682   1.731   5.185
 5697SOL     OW17989   6.897   2.397   0.973
 5697SOL    HW117990   6.947   2.466   0.920
 5697SOL    HW217991   6.883   2.316   0.915
 5698SOL     OW17992   1.092   2.816   2.121
 5698SOL    HW117993   1.156   2.890   2.101
 5698SOL    HW217994   1.049   2.786   2.036
 5699SOL     OW17995   6.161   0.795   4.599
 5699SOL    HW117996   6.091   0.848   4.551
 5699SOL    HW217997   6.234   0.772   4.535
 5700SOL     OW17998   1.633   6.050   5.288
 5700SOL    HW117999   1.661   6.058   5.383
 5700SOL    HW218000   1.594   5.959   5.272
 5701SOL     OW18001   0.492   6.480   2.426
 5701SOL    HW118002   0.481   6.423   2.507
 5701SOL    HW218003   0.583   6.523   2.426
 5702SOL     OW18004   1.743   6.511   5.891
 5702SOL    HW118005   1.742   6.602   5.932
 5702SOL    HW218006   1.805   6.510   5.813
 5703SOL     OW18007   4.231   4.997   0.060
 5703SOL    HW118008   4.315   5.050   0.046
 5703SOL    HW218009   4.236   4.950   0.148
 5704SOL     OW18010   4.774   5.176   3.096
 5704SOL    HW118011   4.819   5.265   3.086
 5704SOL    HW218012   4.686   5.189   3.142
 5705SOL     OW18013   5.615   0.324   1.011
 5705SOL    HW118014   5.679   0.295   1.082
 5705SOL    HW218015   5.603   0.251   0.944
 5706SOL     OW18016   1.909   1.670   0.813
 5706SOL    HW118017   1.952   1.710   0.732
 5706SOL    HW218018   1.847   1.738   0.854
 5707SOL     OW18019   1.684   0.589   6.383
 5707SOL    HW118020   1.775   0.603   6.343
 5707SOL    HW218021   1.691   0.588   6.482
 5708SOL     OW18022   5.187   6.530   2.491
 5708SOL    HW118023   5.235   6.562   2.573
 5708SOL    HW218024   5.090   6.517   2.512
 5709SOL     OW18025   0.645   6.833   3.511
 5709SOL    HW118026   0.605   6.847   3.420
 5709SOL    HW218027   0.743   6.851   3.507
 5710SOL     OW18028   2.827   3.103   5.990
 5710SOL    HW118029   2.917   3.085   5.951
 5710SOL    HW218030   2.786   3.182   5.945
 5711SOL     OW18031   5.110   1.155   3.757
 5711SOL    HW118032   5.145   1.084   3.697
 5711SOL    HW218033   5.033   1.119   3.810
 5712SOL     OW18034   6.636   0.085   5.704
 5712SOL    HW118035   6.735   0.090   5.702
 5712SOL    HW218036   6.597   0.175   5.685
 5713SOL     OW18037   0.136   2.798   2.354
 5713SOL    HW118038   0.104   2.849   2.434
 5713SOL    HW218039   0.217   2.842   2.316
 5714SOL     OW18040   1.312   0.122   6.815
 5714SOL    HW118041   1.305   0.198   6.750
 5714SOL    HW218042   1.401   0.076   6.802
 5715SOL     OW18043   1.426   6.427   2.836
 5715SOL    HW118044   1.425   6.438   2.736
 5715SOL    HW218045   1.357   6.486   2.877
 5716SOL     OW18046   1.747   3.337   5.998
 5716SOL    HW118047   1.812   3.413   6.010
 5716SOL    HW218048   1.760   3.295   5.909
 5717SOL     OW18049   0.694   4.356   1.230
 5717SOL    HW118050   0.657   4.307   1.310
 5717SOL    HW218051   0.779   4.313   1.201
 5718SOL     OW18052   1.590   4.863   6.548
 5718SOL    HW118053   1.560   4.769   6.553
 5718SOL    HW218054   1.519   4.920   6.506
 5719SOL     OW18055   3.183   0.643   6.472
 5719SOL    HW118056   3.109   0.701   6.439
 5719SOL    HW218057   3.244   0.621   6.396
 5720SOL     OW18058   0.935   5.276   4.837
 5720SOL    HW118059   0.975   5.284   4.746
 5720SOL    HW218060   0.835   5.281   4.830
 5721SOL     OW18061   0.960   3.095   0.398
 5721SOL    HW118062   1.012   3.104   0.483
 5721SOL    HW218063   0.884   3.160   0.398
 5722SOL     OW18064   5.337   0.922   5.145
 5722SOL    HW118065   5.420   0.959   5.103
 5722SOL    HW218066   5.362   0.856   5.216
 5723SOL     OW18067   3.826   5.480   0.309
 5723SOL    HW118068   3.841   5.474   0.210
 5723SOL    HW218069   3.786   5.395   0.342
 5724SOL     OW18070   5.114   2.351   5.973
 5724SOL    HW118071   5.199   2.299   5.987
 5724SOL    HW218072   5.129   2.446   6.001
 5725SOL     OW18073   5.067   5.437   4.228
 5725SOL    HW118074   5.047   5.465   4.322
 5725SOL    HW218075   5.119   5.352   4.230
 5726SOL     OW18076   5.866   3.705   5.664
 5726SOL    HW118077   5.959   3.674   5.641
 5726SOL    HW218078   5.836   3.661   5.748
 5727SOL     OW18079   5.949   2.051   3.021
 5727SOL    HW118080   5.935   2.081   3.116
 5727SOL    HW218081   6.045   2.063   2.997
 5728SOL     OW18082   6.277   1.148   5.562
 5728SOL    HW118083   6.341   1.214   5.522
 5728SOL    HW218084   6.273   1.066   5.505
 5729SOL     OW18085   7.021   2.037   6.481
 5729SOL    HW118086   6.945   2.001   6.536
 5729SOL    HW218087   0.017   2.128   6.514
 5730SOL     OW18088   3.982   6.167   5.049
 5730SOL    HW118089   3.972   6.222   4.967
 5730SOL    HW218090   3.944   6.216   5.128
 5731SOL     OW18091   1.804   6.796   4.676
 5731SOL    HW118092   1.812   6.830   4.770
 5731SOL    HW218093   1.722   6.835   4.633
 5732SOL     OW18094   6.054   5.088   4.456
 5732SOL    HW118095   6.152   5.103   4.446
 5732SOL    HW218096   6.036   4.990   4.463
 5733SOL     OW18097   3.475   1.006   0.261
 5733SOL    HW118098   3.402   1.042   0.203
 5733SOL    HW218099   3.440   0.928   0.313
 5734SOL     OW18100   1.619   6.821   5.431
 5734SOL    HW118101   1.612   6.868   5.343
 5734SOL    HW218102   1.697   6.857   5.482
 5735SOL     OW18103   3.746   0.870   2.735
 5735SOL    HW118104   3.753   0.958   2.783
 5735SOL    HW218105   3.793   0.800   2.787
 5736SOL     OW18106   4.943   4.619   6.386
 5736SOL    HW118107   4.963   4.531   6.429
 5736SOL    HW218108   4.846   4.623   6.362
 5737SOL     OW18109   5.206   6.090   1.206
 5737SOL    HW118110   5.133   6.157   1.199
 5737SOL    HW218111   5.235   6.081   1.301
 5738SOL     OW18112   3.566   1.248   6.645
 5738SOL    HW118113   3.638   1.299   6.598
 5738SOL    HW218114   3.601   1.159   6.673
 5739SOL     OW18115   1.844   0.005   5.837
 5739SOL    HW118116   1.744   0.004   5.838
 5739SOL    HW218117   1.876   0.089   5.793
 5740SOL     OW18118   4.914   3.401   0.861
 5740SOL    HW118119   4.976   3.425   0.786
 5740SOL    HW218120   4.821   3.394   0.826
 5741SOL     OW18121   0.693   3.967   4.233
 5741SOL    HW118122   0.725   3.917   4.152
 5741SOL    HW218123   0.664   3.903   4.303
 5742SOL     OW18124   3.860   6.872   3.637
 5742SOL    HW118125   3.875   6.963   3.599
 5742SOL    HW218126   3.886   6.803   3.570
 5743SOL     OW18127   4.054   4.419   5.743
 5743SOL    HW118128   4.033   4.322   5.740
 5743SOL    HW218129   4.033   4.461   5.654
 5744SOL     OW18130   5.902   0.193   2.950
 5744SOL    HW118131   5.963   0.270   2.933
 5744SOL    HW218132   5.809   0.218   2.925
 5745SOL     OW18133   2.258   2.384   3.857
 5745SOL    HW118134   2.215   2.474   3.853
 5745SOL    HW218135   2.357   2.394   3.860
 5746SOL     OW18136   3.762   0.428   3.223
 5746SOL    HW118137   3.802   0.464   3.307
 5746SOL    HW218138   3.669   0.396   3.241
 5747SOL     OW18139   1.320   6.085   1.851
 5747SOL    HW118140   1.357   6.011   1.907
 5747SOL    HW218141   1.234   6.117   1.890
 5748SOL     OW18142   0.380   5.995   0.285
 5748SOL    HW118143   0.473   6.028   0.299
 5748SOL    HW218144   0.332   5.990   0.373
 5749SOL     OW18145   1.590   6.746   5.059
 5749SOL    HW118146   1.676   6.697   5.049
 5749SOL    HW218147   1.514   6.681   5.053
 5750SOL     OW18148   6.719   4.457   4.331
 5750SOL    HW118149   6.645   4.430   4.393
 5750SOL    HW218150   6.785   4.383   4.324
 5751SOL     OW18151   2.103   3.847   4.399
 5751SOL    HW118152   2.133   3.757   4.429
 5751SOL    HW218153   2.039   3.885   4.467
 5752SOL     OW18154   5.467   6.935   0.853
 5752SOL    HW118155   5.439   6.877   0.929
 5752SOL    HW218156   5.439   6.893   0.767
 5753SOL     OW18157   2.736   3.875   5.329
 5753SOL    HW118158   2.814   3.936   5.322
 5753SOL    HW218159   2.652   3.926   5.308
 5754SOL     OW18160   1.229   6.523   1.513
 5754SOL    HW118161   1.151   6.485   1.562
 5754SOL    HW218162   1.235   6.483   1.422
 5755SOL     OW18163   2.228   2.392   6.993
 5755SOL    HW118164   2.153   2.398   0.029
 5755SOL    HW218165   2.200   2.337   6.914
 5756SOL     OW18166   6.448   6.850   1.443
 5756SOL    HW118167   6.408   6.765   1.408
 5756SOL    HW218168   6.542   6.833   1.474
 5757SOL     OW18169   6.689   5.955   3.993
 5757SOL    HW118170   6.638   6.009   4.059
 5757SOL    HW218171   6.754   5.896   4.040
 5758SOL     OW18172   1.538   6.761   3.193
 5758SOL    HW118173   1.546   6.709   3.107
 5758SOL    HW218174   1.504   6.700   3.265
 5759SOL     OW18175   4.629   7.001   1.565
 5759SOL    HW118176   4.726   6.979   1.555
 5759SOL    HW218177   4.576   6.944   1.502
 5760SOL     OW18178   6.687   3.405   2.124
 5760SOL    HW118179   6.694   3.502   2.101
 5760SOL    HW218180   6.655   3.355   2.044
 5761SOL     OW18181   5.265   5.893   4.605
 5761SOL    HW118182   5.185   5.873   4.662
 5761SOL    HW218183   5.237   5.945   4.525
 5762SOL     OW18184   5.331   4.510   0.586
 5762SOL    HW118185   5.335   4.426   0.532
 5762SOL    HW218186   5.265   4.497   0.661
 5763SOL     OW18187   4.936   0.088   0.497
 5763SOL    HW118188   4.936   0.066   0.399
 5763SOL    HW218189   5.027   0.068   0.535
 5764SOL     OW18190   4.349   5.570   3.473
 5764SOL    HW118191   4.282   5.503   3.443
 5764SOL    HW218192   4.418   5.525   3.530
 5765SOL     OW18193   6.013   4.725   0.672
 5765SOL    HW118194   5.992   4.670   0.591
 5765SOL    HW218195   6.078   4.677   0.730
 5766SOL     OW18196   1.378   1.636   4.686
 5766SOL    HW118197   1.323   1.553   4.696
 5766SOL    HW218198   1.398   1.652   4.589
 5767SOL     OW18199   1.957   0.257   0.449
 5767SOL    HW118200   1.898   0.189   0.406
 5767SOL    HW218201   1.979   0.230   0.542
 5768SOL     OW18202   6.941   7.008   3.310
 5768SOL    HW118203   6.993   0.027   3.381
 5768SOL    HW218204   7.003   6.981   3.236
 5769SOL     OW18205   2.245   5.417   6.408
 5769SOL    HW118206   2.182   5.361   6.461
 5769SOL    HW218207   2.295   5.360   6.343
 5770SOL     OW18208   1.205   5.947   0.214
 5770SOL    HW118209   1.224   5.934   0.312
 5770SOL    HW218210   1.277   6.003   0.174
 5771SOL     OW18211   2.334   6.207   4.054
 5771SOL    HW118212   2.346   6.167   4.145
 5771SOL    HW218213   2.283   6.144   3.996
 5772SOL     OW18214   4.817   0.966   2.003
 5772SOL    HW118215   4.876   0.895   2.042
 5772SOL    HW218216   4.737   0.980   2.061
 5773SOL     OW18217   4.903   1.950   2.393
 5773SOL    HW118218   4.821   1.943   2.451
 5773SOL    HW218219   4.887   1.899   2.308
 5774SOL     OW18220   1.896   0.328   4.909
 5774SOL    HW118221   1.947   0.334   4.823
 5774SOL    HW218222   1.798   0.331   4.890
 5775SOL     OW18223   0.645   5.804   2.596
 5775SOL    HW118224   0.719   5.764   2.650
 5775SOL    HW218225   0.634   5.900   2.621
 5776SOL     OW18226   1.435   0.435   3.258
 5776SOL    HW118227   1.403   0.524   3.291
 5776SOL    HW218228   1.435   0.434   3.158
 5777SOL     OW18229   1.345   0.281   3.652
 5777SOL    HW118230   1.380   0.265   3.560
 5777SOL    HW218231   1.354   0.378   3.674
 5778SOL     OW18232   1.265   1.256   0.508
 5778SOL    HW118233   1.199   1.288   0.440
 5778SOL    HW218234   1.220   1.195   0.573
 5779SOL     OW18235   4.763   2.593   6.715
 5779SOL    HW118236   4.842   2.653   6.709
 5779SOL    HW218237   4.745   2.552   6.626
 5780SOL     OW18238   5.777   5.687   5.015
 5780SOL    HW118239   5.838   5.630   5.070
 5780SOL    HW218240   5.686   5.646   5.012
 5781SOL     OW18241   6.102   5.039   5.093
 5781SOL    HW118242   6.033   5.018   5.023
 5781SOL    HW218243   6.186   5.068   5.049
 5782SOL     OW18244   0.829   1.294   0.591
 5782SOL    HW118245   0.827   1.349   0.507
 5782SOL    HW218246   0.749   1.234   0.593
 5783SOL     OW18247   1.611   1.396   2.266
 5783SOL    HW118248   1.694   1.444   2.294
 5783SOL    HW218249   1.569   1.445   2.189
 5784SOL     OW18250   0.249   5.697   6.602
 5784SOL    HW118251   0.324   5.688   6.668
 5784SOL    HW218252   0.205   5.786   6.614
 5785SOL     OW18253   2.592   1.506   0.600
 5785SOL    HW118254   2.501   1.466   0.610
 5785SOL    HW218255   2.661   1.438   0.627
 5786SOL     OW18256   6.338   4.045   0.292
 5786SOL    HW118257   6.424   4.009   0.254
 5786SOL    HW218258   6.281   4.081   0.217
 5787SOL     OW18259   1.981   1.593   6.046
 5787SOL    HW118260   2.042   1.519   6.076
 5787SOL    HW218261   2.036   1.669   6.011
 5788SOL     OW18262   2.739   1.285   2.878
 5788SOL    HW118263   2.702   1.198   2.846
 5788SOL    HW218264   2.671   1.333   2.933
 5789SOL     OW18265   3.580   5.166   6.052
 5789SOL    HW118266   3.679   5.152   6.056
 5789SOL    HW218267   3.538   5.128   6.134
 5790SOL     OW18268   0.819   3.608   4.609
 5790SOL    HW118269   0.902   3.555   4.626
 5790SOL    HW218270   0.835   3.671   4.533
 5791SOL     OW18271   3.638   6.895   1.784
 5791SOL    HW118272   3.722   6.946   1.768
 5791SOL    HW218273   3.561   6.959   1.790
 5792SOL     OW18274   0.431   2.503   2.936
 5792SOL    HW118275   0.522   2.473   2.964
 5792SOL    HW218276   0.375   2.518   3.017
 5793SOL     OW18277   5.728   1.308   3.380
 5793SOL    HW118278   5.675   1.228   3.352
 5793SOL    HW218279   5.666   1.386   3.389
 5794SOL     OW18280   3.768   2.040   0.271
 5794SOL    HW118281   3.851   2.011   0.223
 5794SOL    HW218282   3.693   2.050   0.205
 5795SOL     OW18283   5.770   5.722   5.666
 5795SOL    HW118284   5.841   5.662   5.703
 5795SOL    HW218285   5.680   5.691   5.697
 5796SOL     OW18286   3.828   1.245   0.142
 5796SOL    HW118287   3.912   1.192   0.154
 5796SOL    HW218288   3.784   1.258   0.231
 5797SOL     OW18289   3.887   1.650   4.849
 5797SOL    HW118290   3.922   1.712   4.779
 5797SOL    HW218291   3.912   1.684   4.939
 5798SOL     OW18292   0.775   4.245   5.483
 5798SOL    HW118293   0.840   4.238   5.559
 5798SOL    HW218294   0.824   4.228   5.397
 5799SOL     OW18295   5.340   1.310   3.682
 5799SOL    HW118296   5.282   1.231   3.701
 5799SOL    HW218297   5.307   1.356   3.600
 5800SOL     OW18298   5.561   6.451   0.595
 5800SOL    HW118299   5.601   6.521   0.536
 5800SOL    HW218300   5.474   6.419   0.555
 5801SOL     OW18301   0.987   2.444   4.554
 5801SOL    HW118302   1.075   2.397   4.562
 5801SOL    HW218303   1.000   2.531   4.507
 5802SOL     OW18304   0.880   4.473   0.419
 5802SOL    HW118305   0.782   4.469   0.401
 5802SOL    HW218306   0.925   4.393   0.381
 5803SOL     OW18307   1.534   4.697   2.102
 5803SOL    HW118308   1.606   4.634   2.073
 5803SOL    HW218309   1.446   4.648   2.101
 5804SOL     OW18310   6.249   4.127   3.677
 5804SOL    HW118311   6.337   4.154   3.715
 5804SOL    HW218312   6.211   4.051   3.730
 5805SOL     OW18313   3.749   4.571   7.019
 5805SOL    HW118314   3.759   4.666   6.990
 5805SOL    HW218315   3.813   4.553   0.066
 5806SOL     OW18316   0.319   6.498   6.598
 5806SOL    HW118317   0.332   6.595   6.578
 5806SOL    HW218318   0.407   6.454   6.613
 5807SOL     OW18319   1.551   3.981   1.771
 5807SOL    HW118320   1.645   3.972   1.738
 5807SOL    HW218321   1.551   3.985   1.871
 5808SOL     OW18322   5.757   4.245   3.124
 5808SOL    HW118323   5.818   4.293   3.187
 5808SOL    HW218324   5.809   4.174   3.076
 5809SOL     OW18325   0.452   2.245   5.050
 5809SOL    HW118326   0.537   2.199   5.027
 5809SOL    HW218327   0.400   2.189   5.116
 5810SOL     OW18328   2.675   0.556   3.705
 5810SOL    HW118329   2.731   0.632   3.739
 5810SOL    HW218330   2.667   0.562   3.606
 5811SOL     OW18331   2.875   0.290   5.011
 5811SOL    HW118332   2.969   0.289   5.045
 5811SOL    HW218333   2.827   0.210   5.047
 5812SOL     OW18334   5.125   0.242   4.487
 5812SOL    HW118335   5.225   0.231   4.493
 5812SOL    HW218336   5.103   0.313   4.420
 5813SOL     OW18337   1.528   1.524   0.305
 5813SOL    HW118338   1.547   1.473   0.389
 5813SOL    HW218339   1.599   1.505   0.237
 5814SOL     OW18340   5.850   4.436   0.719
 5814SOL    HW118341   5.842   4.494   0.637
 5814SOL    HW218342   5.927   4.468   0.774
 5815SOL     OW18343   4.454   2.472   3.966
 5815SOL    HW118344   4.442   2.479   4.065
 5815SOL    HW218345   4.389   2.406   3.930
 5816SOL     OW18346   4.986   6.052   0.306
 5816SOL    HW118347   4.917   6.091   0.366
 5816SOL    HW218348   5.031   6.125   0.254
 5817SOL     OW18349   5.256   3.107   5.343
 5817SOL    HW118350   5.253   3.191   5.289
 5817SOL    HW218351   5.303   3.036   5.291
 5818SOL     OW18352   6.798   6.178   4.736
 5818SOL    HW118353   6.880   6.153   4.787
 5818SOL    HW218354   6.724   6.199   4.799
 5819SOL     OW18355   4.318   0.372   0.242
 5819SOL    HW118356   4.416   0.351   0.240
 5819SOL    HW218357   4.298   0.444   0.176
 5820SOL     OW18358   4.335   0.096   3.722
 5820SOL    HW118359   4.329   0.041   3.638
 5820SOL    HW218360   4.405   0.056   3.782
 5821SOL     OW18361   1.073   0.057   2.616
 5821SOL    HW118362   1.055   7.027   2.537
 5821SOL    HW218363   1.003   0.129   2.621
 5822SOL     OW18364   0.360   1.962   2.228
 5822SOL    HW118365   0.360   1.949   2.129
 5822SOL    HW218366   0.288   2.026   2.254
 5823SOL     OW18367   1.043   1.152   6.053
 5823SOL    HW118368   0.988   1.236   6.062
 5823SOL    HW218369   0.991   1.074   6.088
 5824SOL     OW18370   6.828   6.078   2.585
 5824SOL    HW118371   6.886   5.998   2.596
 5824SOL    HW218372   6.770   6.089   2.666
 5825SOL     OW18373   2.345   1.931   5.570
 5825SOL    HW118374   2.278   1.989   5.524
 5825SOL    HW218375   2.355   1.845   5.520
 5826SOL     OW18376   6.955   5.369   5.208
 5826SOL    HW118377   6.870   5.397   5.163
 5826SOL    HW218378   6.980   5.277   5.177
 5827SOL     OW18379   1.916   5.160   4.902
 5827SOL    HW118380   1.833   5.171   4.956
 5827SOL    HW218381   1.905   5.083   4.839
 5828SOL     OW18382   6.863   3.165   1.820
 5828SOL    HW118383   6.817   3.250   1.794
 5828SOL    HW218384   6.960   3.184   1.837
 5829SOL     OW18385   2.859   1.586   2.933
 5829SOL    HW118386   2.813   1.501   2.957
 5829SOL    HW218387   2.847   1.653   3.006
 5830SOL     OW18388   3.950   0.274   5.765
 5830SOL    HW118389   3.971   0.215   5.688
 5830SOL    HW218390   3.927   0.217   5.845
 5831SOL     OW18391   6.883   0.390   4.209
 5831SOL    HW118392   6.895   0.327   4.286
 5831SOL    HW218393   6.789   0.386   4.177
 5832SOL     OW18394   3.789   4.151   5.426
 5832SOL    HW118395   3.866   4.122   5.368
 5832SOL    HW218396   3.774   4.082   5.498
 5833SOL     OW18397   3.885   3.264   4.493
 5833SOL    HW118398   3.858   3.189   4.433
 5833SOL    HW218399   3.966   3.309   4.456
 5834SOL     OW18400   6.143   2.215   0.844
 5834SOL    HW118401   6.097   2.293   0.885
 5834SOL    HW218402   6.242   2.226   0.853
 5835SOL     OW18403   4.961   2.823   2.692
 5835SOL    HW118404   4.925   2.894   2.631
 5835SOL    HW218405   5.059   2.836   2.705
 5836SOL     OW18406   2.614   6.561   3.271
 5836SOL    HW118407   2.590   6.555   3.174
 5836SOL    HW218408   2.700   6.513   3.287
 5837SOL     OW18409   4.432   4.619   6.010
 5837SOL    HW118410   4.361   4.554   6.038
 5837SOL    HW218411   4.408   4.711   6.040
 5838SOL     OW18412   2.181   1.477   6.255
 5838SOL    HW118413   2.277   1.449   6.258
 5838SOL    HW218414   2.174   1.573   6.282
 5839SOL     OW18415   0.501   3.034   2.473
 5839SOL    HW118416   0.465   3.038   2.380
 5839SOL    HW218417   0.475   2.948   2.516
 5840SOL     OW18418   1.585   4.975   7.029
 5840SOL    HW118419   1.608   5.060   6.981
 5840SOL    HW218420   1.524   4.921   6.972
 5841SOL     OW18421   5.736   2.531   2.063
 5841SOL    HW118422   5.695   2.454   2.014
 5841SOL    HW218423   5.692   2.541   2.152
 5842SOL     OW18424   4.276   3.435   1.700
 5842SOL    HW118425   4.184   3.413   1.669
 5842SOL    HW218426   4.310   3.514   1.648
 5843SOL     OW18427   2.214   4.012   2.276
 5843SOL    HW118428   2.307   4.050   2.279
 5843SOL    HW218429   2.215   3.918   2.311
 5844SOL     OW18430   0.382   0.062   6.014
 5844SOL    HW118431   0.411   0.131   6.080
 5844SOL    HW218432   0.369   7.003   6.060
 5845SOL     OW18433   1.150   0.417   2.945
 5845SOL    HW118434   1.106   0.447   3.030
 5845SOL    HW218435   1.249   0.424   2.955
 5846SOL     OW18436   6.417   3.096   4.339
 5846SOL    HW118437   6.376   3.046   4.416
 5846SOL    HW218438   6.441   3.032   4.267
 5847SOL     OW18439   2.205   1.888   2.213
 5847SOL    HW118440   2.176   1.968   2.161
 5847SOL    HW218441   2.265   1.831   2.156
 5848SOL     OW18442   2.489   4.936   3.096
 5848SOL    HW118443   2.519   4.950   3.002
 5848SOL    HW218444   2.395   4.902   3.096
 5849SOL     OW18445   6.736   0.773   6.180
 5849SOL    HW118446   6.674   0.803   6.108
 5849SOL    HW218447   6.830   0.774   6.147
 5850SOL     OW18448   0.762   3.228   2.362
 5850SOL    HW118449   0.679   3.213   2.415
 5850SOL    HW218450   0.815   3.302   2.403
 5851SOL     OW18451   4.915   3.428   3.126
 5851SOL    HW118452   4.890   3.460   3.217
 5851SOL    HW218453   4.897   3.500   3.059
 5852SOL     OW18454   5.091   6.236   3.138
 5852SOL    HW118455   5.005   6.207   3.096
 5852SOL    HW218456   5.132   6.159   3.186
 5853SOL     OW18457   3.069   5.923   5.572
 5853SOL    HW118458   2.989   5.982   5.582
 5853SOL    HW218459   3.042   5.835   5.534
 5854SOL     OW18460   6.602   3.387   5.801
 5854SOL    HW118461   6.521   3.363   5.855
 5854SOL    HW218462   6.600   3.337   5.715
 5855SOL     OW18463   0.470   0.104   4.682
 5855SOL    HW118464   0.447   0.192   4.639
 5855SOL    HW218465   0.413   0.090   4.763
 5856SOL     OW18466   1.996   5.734   3.721
 5856SOL    HW118467   1.965   5.710   3.630
 5856SOL    HW218468   2.024   5.830   3.722
 5857SOL     OW18469   5.967   2.719   5.388
 5857SOL    HW118470   5.916   2.728   5.302
 5857SOL    HW218471   6.046   2.659   5.374
 5858SOL     OW18472   2.578   2.367   2.026
 5858SOL    HW118473   2.533   2.329   2.107
 5858SOL    HW218474   2.675   2.380   2.045
 5859SOL     OW18475   5.092   6.949   1.013
 5859SOL    HW118476   5.159   6.999   1.068
 5859SOL    HW218477   5.058   6.871   1.064
 5860SOL     OW18478   2.100   3.705   2.015
 5860SOL    HW118479   2.058   3.693   2.105
 5860SOL    HW218480   2.155   3.624   1.994
 5861SOL     OW18481   5.232   1.522   4.223
 5861SOL    HW118482   5.271   1.437   4.189
 5861SOL    HW218483   5.251   1.596   4.159
 5862SOL     OW18484   4.821   4.775   3.381
 5862SOL    HW118485   4.850   4.865   3.349
 5862SOL    HW218486   4.845   4.764   3.478
 5863SOL     OW18487   3.536   0.735   4.786
 5863SOL    HW118488   3.582   0.761   4.871
 5863SOL    HW218489   3.571   0.647   4.755
 5864SOL     OW18490   4.329   3.799   1.709
 5864SOL    HW118491   4.279   3.767   1.790
 5864SOL    HW218492   4.380   3.724   1.669
 5865SOL     OW18493   5.254   0.184   3.908
 5865SOL    HW118494   5.313   0.215   3.834
 5865SOL    HW218495   5.250   0.254   3.979
 5866SOL     OW18496   3.523   6.109   6.466
 5866SOL    HW118497   3.474   6.078   6.547
 5866SOL    HW218498   3.610   6.060   6.460
 5867SOL     OW18499   0.570   3.166   0.968
 5867SOL    HW118500   0.513   3.220   1.029
 5867SOL    HW218501   0.528   3.076   0.954
 5868SOL     OW18502   6.936   0.617   5.070
 5868SOL    HW118503   6.971   0.707   5.093
 5868SOL    HW218504   6.858   0.596   5.128
 5869SOL     OW18505   1.834   5.598   3.522
 5869SOL    HW118506   1.735   5.601   3.508
 5869SOL    HW218507   1.862   5.504   3.541
 5870SOL     OW18508   4.649   5.700   4.725
 5870SOL    HW118509   4.618   5.793   4.704
 5870SOL    HW218510   4.577   5.650   4.771
 5871SOL     OW18511   4.280   3.639   0.133
 5871SOL    HW118512   4.372   3.611   0.105
 5871SOL    HW218513   4.235   3.689   0.059
 5872SOL     OW18514   4.037   4.748   6.959
 5872SOL    HW118515   4.065   4.808   0.004
 5872SOL    HW218516   3.961   4.789   6.908
 5873SOL     OW18517   2.244   2.840   0.795
 5873SOL    HW118518   2.296   2.803   0.871
 5873SOL    HW218519   2.189   2.917   0.826
 5874SOL     OW18520   3.161   2.741   1.012
 5874SOL    HW118521   3.184   2.665   0.952
 5874SOL    HW218522   3.213   2.734   1.097
 5875SOL     OW18523   4.009   1.510   0.699
 5875SOL    HW118524   4.007   1.606   0.671
 5875SOL    HW218525   3.916   1.472   0.695
 5876SOL     OW18526   3.369   2.781   0.013
 5876SOL    HW118527   3.465   2.772   0.041
 5876SOL    HW218528   3.311   2.731   0.078
 5877SOL     OW18529   6.220   6.970   0.840
 5877SOL    HW118530   6.225   7.007   0.747
 5877SOL    HW218531   6.148   6.900   0.844
 5878SOL     OW18532   5.310   5.717   3.200
 5878SOL    HW118533   5.283   5.706   3.104
 5878SOL    HW218534   5.232   5.751   3.252
 5879SOL     OW18535   2.957   2.769   5.905
 5879SOL    HW118536   2.991   2.863   5.906
 5879SOL    HW218537   2.935   2.740   5.999
 5880SOL     OW18538   4.410   3.847   6.052
 5880SOL    HW118539   4.436   3.779   5.983
 5880SOL    HW218540   4.469   3.927   6.043
 5881SOL     OW18541   0.953   6.655   2.720
 5881SOL    HW118542   0.892   6.651   2.799
 5881SOL    HW218543   0.966   6.562   2.684
 5882SOL     OW18544   0.680   6.837   5.879
 5882SOL    HW118545   0.648   6.749   5.845
 5882SOL    HW218546   0.636   6.911   5.828
 5883SOL     OW18547   0.255   2.161   0.542
 5883SOL    HW118548   0.281   2.065   0.553
 5883SOL    HW218549   0.306   2.201   0.466
 5884SOL     OW18550   6.677   0.900   4.839
 5884SOL    HW118551   6.677   0.896   4.939
 5884SOL    HW218552   6.708   0.812   4.802
 5885SOL     OW18553   0.697   5.468   0.693
 5885SOL    HW118554   0.698   5.567   0.676
 5885SOL    HW218555   0.658   5.450   0.784
 5886SOL     OW18556   1.339   3.236   3.261
 5886SOL    HW118557   1.410   3.285   3.312
 5886SOL    HW218558   1.251   3.280   3.276
 5887SOL     OW18559   2.745   1.783   1.895
 5887SOL    HW118560   2.843   1.778   1.917
 5887SOL    HW218561   2.702   1.854   1.951
 5888SOL     OW18562   3.170   6.945   0.979
 5888SOL    HW118563   3.147   0.011   0.959
 5888SOL    HW218564   3.248   6.942   1.041
 5889SOL     OW18565   6.976   1.522   1.181
 5889SOL    HW118566   6.962   1.574   1.096
 5889SOL    HW218567   7.004   1.429   1.159
 5890SOL     OW18568   1.657   6.696   2.382
 5890SOL    HW118569   1.558   6.696   2.370
 5890SOL    HW218570   1.694   6.786   2.358
 5891SOL     OW18571   2.668   3.711   0.325
 5891SOL    HW118572   2.643   3.754   0.238
 5891SOL    HW218573   2.767   3.710   0.335
 5892SOL     OW18574   0.518   5.208   1.245
 5892SOL    HW118575   0.612   5.242   1.249
 5892SOL    HW218576   0.506   5.154   1.161
 5893SOL     OW18577   1.275   4.809   1.365
 5893SOL    HW118578   1.285   4.710   1.352
 5893SOL    HW218579   1.257   4.827   1.462
 5894SOL     OW18580   0.511   5.794   5.357
 5894SOL    HW118581   0.450   5.767   5.283
 5894SOL    HW218582   0.591   5.734   5.357
 5895SOL     OW18583   6.275   3.302   4.194
 5895SOL    HW118584   6.337   3.315   4.116
 5895SOL    HW218585   6.316   3.236   4.258
 5896SOL     OW18586   5.088   1.098   1.617
 5896SOL    HW118587   5.043   1.136   1.536
 5896SOL    HW218588   5.174   1.055   1.589
 5897SOL     OW18589   4.259   1.504   1.879
 5897SOL    HW118590   4.186   1.482   1.945
 5897SOL    HW218591   4.222   1.497   1.786
 5898SOL     OW18592   2.451   1.651   5.762
 5898SOL    HW118593   2.482   1.664   5.668
 5898SOL    HW218594   2.369   1.594   5.763
 5899SOL     OW18595   0.257   5.199   5.848
 5899SOL    HW118596   0.234   5.296   5.856
 5899SOL    HW218597   0.236   5.168   5.755
 5900SOL     OW18598   0.225   5.160   2.873
 5900SOL    HW118599   0.173   5.233   2.917
 5900SOL    HW218600   0.318   5.158   2.911
 5901SOL     OW18601   0.984   0.443   0.628
 5901SOL    HW118602   0.999   0.491   0.541
 5901SOL    HW218603   0.971   0.345   0.609
 5902SOL     OW18604   5.604   3.567   4.885
 5902SOL    HW118605   5.658   3.564   4.801
 5902SOL    HW218606   5.512   3.602   4.865
 5903SOL     OW18607   5.457   3.002   7.000
 5903SOL    HW118608   5.485   2.914   0.008
 5903SOL    HW218609   5.535   3.064   6.998
 5904SOL     OW18610   1.506   4.442   0.981
 5904SOL    HW118611   1.484   4.443   1.078
 5904SOL    HW218612   1.557   4.359   0.959
 5905SOL     OW18613   5.087   0.916   3.185
 5905SOL    HW118614   5.146   0.869   3.251
 5905SOL    HW218615   4.996   0.875   3.186
 5906SOL     OW18616   5.451   1.770   5.308
 5906SOL    HW118617   5.529   1.755   5.369
 5906SOL    HW218618   5.418   1.864   5.319
 5907SOL     OW18619   1.624   7.020   0.739
 5907SOL    HW118620   1.570   0.075   0.727
 5907SOL    HW218621   1.626   6.996   0.836
 5908SOL     OW18622   5.020   3.640   0.288
 5908SOL    HW118623   5.114   3.606   0.281
 5908SOL    HW218624   5.019   3.723   0.344
 5909SOL     OW18625   0.658   4.016   5.551
 5909SOL    HW118626   0.695   4.107   5.530
 5909SOL    HW218627   0.598   3.987   5.476
 5910SOL     OW18628   1.087   4.560   1.075
 5910SOL    HW118629   1.120   4.641   1.026
 5910SOL    HW218630   0.990   4.573   1.099
 5911SOL     OW18631   0.360   6.035   5.757
 5911SOL    HW118632   0.341   5.987   5.843
 5911SOL    HW218633   0.317   5.986   5.681
 5912SOL     OW18634   5.982   3.445   6.445
 5912SOL    HW118635   6.062   3.502   6.465
 5912SOL    HW218636   5.921   3.494   6.383
 5913SOL     OW18637   2.331   2.820   5.822
 5913SOL    HW118638   2.417   2.865   5.797
 5913SOL    HW218639   2.299   2.764   5.745
 5914SOL     OW18640   2.669   5.526   0.185
 5914SOL    HW118641   2.716   5.595   0.240
 5914SOL    HW218642   2.574   5.554   0.169
 5915SOL     OW18643   5.491   3.066   2.371
 5915SOL    HW118644   5.574   3.090   2.421
 5915SOL    HW218645   5.499   2.973   2.337
 5916SOL     OW18646   4.926   0.479   5.747
 5916SOL    HW118647   4.838   0.482   5.700
 5916SOL    HW218648   5.000   0.497   5.681
 5917SOL     OW18649   3.646   2.857   3.730
 5917SOL    HW118650   3.649   2.845   3.829
 5917SOL    HW218651   3.559   2.900   3.704
 5918SOL     OW18652   1.869   3.701   4.705
 5918SOL    HW118653   1.783   3.698   4.755
 5918SOL    HW218654   1.877   3.620   4.647
 5919SOL     OW18655   3.118   1.843   0.728
 5919SOL    HW118656   3.050   1.851   0.800
 5919SOL    HW218657   3.076   1.802   0.647
 5920SOL     OW18658   3.991   6.903   6.833
 5920SOL    HW118659   3.988   6.946   6.923
 5920SOL    HW218660   3.911   6.933   6.780
 5921SOL     OW18661   3.831   5.219   5.239
 5921SOL    HW118662   3.881   5.179   5.163
 5921SOL    HW218663   3.733   5.208   5.224
 5922SOL     OW18664   6.222   5.034   3.481
 5922SOL    HW118665   6.278   4.978   3.541
 5922SOL    HW218666   6.189   5.114   3.531
 5923SOL     OW18667   6.739   0.832   3.468
 5923SOL    HW118668   6.777   0.918   3.502
 5923SOL    HW218669   6.813   0.766   3.455
 5924SOL     OW18670   5.586   2.423   5.131
 5924SOL    HW118671   5.503   2.432   5.076
 5924SOL    HW218672   5.568   2.364   5.210
 5925SOL     OW18673   4.849   6.185   3.041
 5925SOL    HW118674   4.790   6.199   3.121
 5925SOL    HW218675   4.851   6.088   3.018
 5926SOL     OW18676   3.283   5.067   1.678
 5926SOL    HW118677   3.235   4.980   1.687
 5926SOL    HW218678   3.235   5.137   1.731
 5927SOL     OW18679   2.251   4.715   1.639
 5927SOL    HW118680   2.339   4.737   1.680
 5927SOL    HW218681   2.233   4.617   1.650
 5928SOL     OW18682   2.472   0.642   2.237
 5928SOL    HW118683   2.515   0.572   2.181
 5928SOL    HW218684   2.408   0.695   2.181
 5929SOL     OW18685   1.010   6.302   5.873
 5929SOL    HW118686   1.004   6.394   5.832
 5929SOL    HW218687   1.036   6.236   5.803
 5930SOL     OW18688   5.818   1.392   4.029
 5930SOL    HW118689   5.886   1.356   3.966
 5930SOL    HW218690   5.728   1.354   4.006
 5931SOL     OW18691   6.114   4.753   2.299
 5931SOL    HW118692   6.163   4.839   2.283
 5931SOL    HW218693   6.059   4.762   2.382
 5932SOL     OW18694   2.172   6.533   0.966
 5932SOL    HW118695   2.078   6.506   0.989
 5932SOL    HW218696   2.199   6.612   1.021
 5933SOL     OW18697   0.038   4.133   1.985
 5933SOL    HW118698   0.043   4.209   2.049
 5933SOL    HW218699   0.102   4.148   1.909
 5934SOL     OW18700   3.724   3.471   3.596
 5934SOL    HW118701   3.650   3.499   3.658
 5934SOL    HW218702   3.807   3.523   3.617
 5935SOL     OW18703   4.039   3.801   4.449
 5935SOL    HW118704   4.118   3.773   4.503
 5935SOL    HW218705   4.004   3.722   4.398
 5936SOL     OW18706   4.081   3.788   6.617
 5936SOL    HW118707   4.033   3.702   6.634
 5936SOL    HW218708   4.129   3.783   6.530
 5937SOL     OW18709   0.727   3.636   1.928
 5937SOL    HW118710   0.676   3.597   2.005
 5937SOL    HW218711   0.821   3.601   1.930
 5938SOL     OW18712   1.670   5.251   3.652
 5938SOL    HW118713   1.608   5.326   3.628
 5938SOL    HW218714   1.677   5.244   3.751
 5939SOL     OW18715   3.228   0.427   3.187
 5939SOL    HW118716   3.156   0.493   3.209
 5939SOL    HW218717   3.273   0.454   3.102
 5940SOL     OW18718   4.140   6.575   2.228
 5940SOL    HW118719   4.171   6.527   2.146
 5940SOL    HW218720   4.207   6.563   2.301
 5941SOL     OW18721   6.162   4.496   1.929
 5941SOL    HW118722   6.147   4.399   1.913
 5941SOL    HW218723   6.089   4.532   1.987
 5942SOL     OW18724   4.241   2.799   6.435
 5942SOL    HW118725   4.313   2.822   6.501
 5942SOL    HW218726   4.279   2.800   6.343
 5943SOL     OW18727   2.546   6.296   0.369
 5943SOL    HW118728   2.548   6.260   0.462
 5943SOL    HW218729   2.482   6.244   0.314
 5944SOL     OW18730   5.272   1.401   1.551
 5944SOL    HW118731   5.185   1.448   1.566
 5944SOL    HW218732   5.255   1.317   1.499
 5945SOL     OW18733   6.441   4.764   5.164
 5945SOL    HW118734   6.490   4.690   5.210
 5945SOL    HW218735   6.351   4.776   5.206
 5946SOL     OW18736   3.182   3.982   5.904
 5946SOL    HW118737   3.128   3.917   5.958
 5946SOL    HW218738   3.143   4.073   5.911
 5947SOL     OW18739   4.067   3.118   1.704
 5947SOL    HW118740   4.162   3.126   1.736
 5947SOL    HW218741   4.015   3.197   1.734
 5948SOL     OW18742   4.290   5.215   3.248
 5948SOL    HW118743   4.236   5.290   3.287
 5948SOL    HW218744   4.262   5.199   3.153
 5949SOL     OW18745   3.857   4.369   1.485
 5949SOL    HW118746   3.791   4.433   1.524
 5949SOL    HW218747   3.820   4.331   1.400
 5950SOL     OW18748   5.822   2.402   4.588
 5950SOL    HW118749   5.870   2.407   4.676
 5950SOL    HW218750   5.856   2.323   4.536
 5951SOL     OW18751   0.950   6.187   4.842
 5951SOL    HW118752   0.866   6.133   4.851
 5951SOL    HW218753   0.926   6.284   4.831
 5952SOL     OW18754   6.257   6.266   3.614
 5952SOL    HW118755   6.322   6.283   3.539
 5952SOL    HW218756   6.286   6.317   3.695
 5953SOL     OW18757   0.110   3.045   5.062
 5953SOL    HW118758   0.136   3.059   4.967
 5953SOL    HW218759   0.189   3.063   5.121
 5954SOL     OW18760   6.811   4.409   5.544
 5954SOL    HW118761   6.768   4.350   5.612
 5954SOL    HW218762   6.774   4.389   5.454
 5955SOL     OW18763   5.945   5.932   2.313
 5955SOL    HW118764   5.933   6.031   2.315
 5955SOL    HW218765   6.040   5.909   2.333
 5956SOL     OW18766   3.922   1.785   0.676
 5956SOL    HW118767   3.836   1.770   0.724
 5956SOL    HW218768   3.938   1.884   0.667
 5957SOL     OW18769   4.940   6.791   6.078
 5957SOL    HW118770   5.017   6.814   6.018
 5957SOL    HW218771   4.936   6.692   6.091
 5958SOL     OW18772   6.600   6.409   2.206
 5958SOL    HW118773   6.572   6.483   2.267
 5958SOL    HW218774   6.630   6.331   2.261
 5959SOL     OW18775   3.193   1.929   5.495
 5959SOL    HW118776   3.115   1.874   5.465
 5959SOL    HW218777   3.219   1.992   5.422
 5960SOL     OW18778   3.741   0.277   3.903
 5960SOL    HW118779   3.686   0.194   3.910
 5960SOL    HW218780   3.787   0.280   3.814
 5961SOL     OW18781   4.158   1.049   3.611
 5961SOL    HW118782   4.083   1.006   3.561
 5961SOL    HW218783   4.144   1.148   3.614
 5962SOL     OW18784   5.261   5.190   2.663
 5962SOL    HW118785   5.258   5.096   2.697
 5962SOL    HW218786   5.246   5.190   2.564
 5963SOL     OW18787   3.479   3.288   3.765
 5963SOL    HW118788   3.572   3.274   3.799
 5963SOL    HW218789   3.473   3.257   3.670
 5964SOL     OW18790   0.024   5.477   6.141
 5964SOL    HW118791   0.060   5.563   6.177
 5964SOL    HW218792   6.966   5.456   6.184
 5965SOL     OW18793   1.905   2.153   6.792
 5965SOL    HW118794   1.838   2.100   6.739
 5965SOL    HW218795   1.877   2.154   6.888
 5966SOL     OW18796   2.910   5.706   5.052
 5966SOL    HW118797   2.942   5.632   4.993
 5966SOL    HW218798   2.844   5.669   5.118
 5967SOL     OW18799   3.806   6.068   2.579
 5967SOL    HW118800   3.852   5.979   2.579
 5967SOL    HW218801   3.861   6.133   2.632
 5968SOL     OW18802   6.176   1.824   3.079
 5968SOL    HW118803   6.149   1.842   3.174
 5968SOL    HW218804   6.213   1.908   3.039
 5969SOL     OW18805   6.558   2.414   4.651
 5969SOL    HW118806   6.521   2.393   4.741
 5969SOL    HW218807   6.592   2.509   4.650
 5970SOL     OW18808   0.431   4.038   2.125
 5970SOL    HW118809   0.463   4.130   2.103
 5970SOL    HW218810   0.433   3.981   2.043
 5971SOL     OW18811   1.399   0.175   2.993
 5971SOL    HW118812   1.317   0.129   2.958
 5971SOL    HW218813   1.432   0.126   3.074
 5972SOL     OW18814   4.505   6.411   0.440
 5972SOL    HW118815   4.426   6.473   0.449
 5972SOL    HW218816   4.582   6.449   0.490
 5973SOL     OW18817   1.711   5.172   2.772
 5973SOL    HW118818   1.797   5.192   2.819
 5973SOL    HW218819   1.721   5.089   2.717
 5974SOL     OW18820   6.132   4.371   6.017
 5974SOL    HW118821   6.082   4.284   6.025
 5974SOL    HW218822   6.229   4.355   6.035
 5975SOL     OW18823   4.429   2.479   1.188
 5975SOL    HW118824   4.480   2.460   1.104
 5975SOL    HW218825   4.383   2.568   1.179
 5976SOL     OW18826   3.031   3.059   4.729
 5976SOL    HW118827   3.124   3.046   4.763
 5976SOL    HW218828   2.966   3.043   4.803
 5977SOL     OW18829   1.443   4.496   1.779
 5977SOL    HW118830   1.429   4.494   1.878
 5977SOL    HW218831   1.453   4.403   1.744
 5978SOL     OW18832   5.355   4.720   2.812
 5978SOL    HW118833   5.307   4.634   2.801
 5978SOL    HW218834   5.453   4.706   2.796
 5979SOL     OW18835   6.562   0.283   3.662
 5979SOL    HW118836   6.520   0.372   3.642
 5979SOL    HW218837   6.536   0.253   3.753
 5980SOL     OW18838   3.946   4.382   6.888
 5980SOL    HW118839   3.933   4.470   6.934
 5980SOL    HW218840   3.980   4.398   6.795
 5981SOL     OW18841   6.912   1.773   1.711
 5981SOL    HW118842   7.000   1.820   1.708
 5981SOL    HW218843   6.838   1.841   1.717
 5982SOL     OW18844   6.165   1.619   6.879
 5982SOL    HW118845   6.245   1.665   6.918
 5982SOL    HW218846   6.172   1.521   6.896
 5983SOL     OW18847   2.248   1.461   4.370
 5983SOL    HW118848   2.198   1.408   4.301
 5983SOL    HW218849   2.227   1.558   4.359
 5984SOL     OW18850   0.011   6.918   4.604
 5984SOL    HW118851   6.955   6.869   4.582
 5984SOL    HW218852   0.068   6.924   4.522
 5985SOL     OW18853   5.487   2.480   3.724
 5985SOL    HW118854   5.502   2.387   3.688
 5985SOL    HW218855   5.447   2.474   3.815
 5986SOL     OW18856   3.019   3.235   3.843
 5986SOL    HW118857   2.974   3.274   3.923
 5986SOL    HW218858   3.058   3.146   3.867
 5987SOL     OW18859   4.295   0.784   4.863
 5987SOL    HW118860   4.273   0.869   4.912
 5987SOL    HW218861   4.391   0.762   4.877
 5988SOL     OW18862   3.905   6.850   4.592
 5988SOL    HW118863   3.976   6.783   4.613
 5988SOL    HW218864   3.947   6.939   4.575
 5989SOL     OW18865   2.623   6.313   6.623
 5989SOL    HW118866   2.603   6.311   6.525
 5989SOL    HW218867   2.658   6.224   6.652
 5990SOL     OW18868   3.904   4.246   0.555
 5990SOL    HW118869   3.999   4.244   0.524
 5990SOL    HW218870   3.899   4.221   0.651
 5991SOL     OW18871   4.109   5.186   4.824
 5991SOL    HW118872   4.191   5.172   4.878
 5991SOL    HW218873   4.113   5.130   4.741
 5992SOL     OW18874   3.958   0.906   4.428
 5992SOL    HW118875   3.876   0.849   4.430
 5992SOL    HW218876   4.038   0.850   4.407
 5993SOL     OW18877   3.630   6.617   5.524
 5993SOL    HW118878   3.562   6.648   5.591
 5993SOL    HW218879   3.595   6.635   5.432
 5994SOL     OW18880   5.840   2.205   1.999
 5994SOL    HW118881   5.750   2.237   1.969
 5994SOL    HW218882   5.829   2.131   2.064
 5995SOL     OW18883   0.223   5.278   1.225
 5995SOL    HW118884   0.322   5.290   1.221
 5995SOL    HW218885   0.201   5.202   1.285
 5996SOL     OW18886   0.469   5.888   6.382
 5996SOL    HW118887   0.420   5.809   6.420
 5996SOL    HW218888   0.501   5.865   6.290
 5997SOL     OW18889   0.433   0.013   2.312
 5997SOL    HW118890   0.509   0.077   2.303
 5997SOL    HW218891   0.452   6.960   2.256
 5998SOL     OW18892   5.919   2.394   2.611
 5998SOL    HW118893   5.871   2.416   2.696
 5998SOL    HW218894   5.914   2.295   2.595
 5999SOL     OW18895   0.866   2.083   3.179
 5999SOL    HW118896   0.879   2.007   3.116
 5999SOL    HW218897   0.950   2.097   3.232
 6000SOL     OW18898   3.663   5.576   1.951
 6000SOL    HW118899   3.688   5.496   1.897
 6000SOL    HW218900   3.656   5.549   2.047
 6001SOL     OW18901   0.231   4.017   6.992
 6001SOL    HW118902   0.245   4.015   6.893
 6001SOL    HW218903   0.159   3.952   7.016
 6002SOL     OW18904   0.097   6.399   1.151
 6002SOL    HW118905   0.155   6.396   1.232
 6002SOL    HW218906   0.126   6.475   1.093
 6003SOL     OW18907   5.757   3.462   5.099
 6003SOL    HW118908   5.849   3.488   5.072
 6003SOL    HW218909   5.695   3.473   5.021
 6004SOL     OW18910   0.639   3.861   3.457
 6004SOL    HW118911   0.612   3.768   3.432
 6004SOL    HW218912   0.634   3.919   3.375
 6005SOL     OW18913   4.325   5.004   4.008
 6005SOL    HW118914   4.366   5.094   4.027
 6005SOL    HW218915   4.233   5.017   3.971
 6006SOL     OW18916   3.891   0.258   6.898
 6006SOL    HW118917   3.827   0.183   6.910
 6006SOL    HW218918   3.931   0.282   6.987
 6007SOL     OW18919   5.193   2.948   3.531
 6007SOL    HW118920   5.148   2.878   3.475
 6007SOL    HW218921   5.214   3.027   3.473
 6008SOL     OW18922   3.418   5.474   5.828
 6008SOL    HW118923   3.375   5.384   5.823
 6008SOL    HW218924   3.488   5.473   5.899
 6009SOL     OW18925   2.547   1.709   4.763
 6009SOL    HW118926   2.467   1.727   4.705
 6009SOL    HW218927   2.535   1.620   4.808
 6010SOL     OW18928   2.005   4.609   2.362
 6010SOL    HW118929   1.917   4.654   2.351
 6010SOL    HW218930   2.049   4.599   2.273
 6011SOL     OW18931   5.286   2.208   1.782
 6011SOL    HW118932   5.204   2.177   1.831
 6011SOL    HW218933   5.355   2.136   1.784
 6012SOL     OW18934   6.767   2.000   0.310
 6012SOL    HW118935   6.715   2.085   0.303
 6012SOL    HW218936   6.833   1.995   0.235
 6013SOL     OW18937   5.730   1.785   2.185
 6013SOL    HW118938   5.798   1.850   2.217
 6013SOL    HW218939   5.709   1.719   2.257
 6014SOL     OW18940   5.270   1.901   0.996
 6014SOL    HW118941   5.309   1.993   0.999
 6014SOL    HW218942   5.311   1.849   0.921
 6015SOL     OW18943   6.257   2.846   5.975
 6015SOL    HW118944   6.274   2.870   5.879
 6015SOL    HW218945   6.179   2.899   6.009
 6016SOL     OW18946   0.515   1.069   5.722
 6016SOL    HW118947   0.417   1.083   5.724
 6016SOL    HW218948   0.541   0.998   5.788
 6017SOL     OW18949   5.961   5.597   2.722
 6017SOL    HW118950   5.908   5.514   2.739
 6017SOL    HW218951   5.951   5.660   2.799
 6018SOL     OW18952   3.515   2.986   0.320
 6018SOL    HW118953   3.579   2.938   0.380
 6018SOL    HW218954   3.428   2.935   0.318
 6019SOL     OW18955   4.454   1.677   3.681
 6019SOL    HW118956   4.467   1.775   3.664
 6019SOL    HW218957   4.538   1.628   3.659
 6020SOL     OW18958   2.618   6.740   2.097
 6020SOL    HW118959   2.602   6.643   2.117
 6020SOL    HW218960   2.638   6.788   2.183
 6021SOL     OW18961   4.420   0.236   2.783
 6021SOL    HW118962   4.451   0.166   2.719
 6021SOL    HW218963   4.466   0.322   2.763
 6022SOL     OW18964   4.648   1.127   3.586
 6022SOL    HW118965   4.646   1.045   3.644
 6022SOL    HW218966   4.574   1.189   3.614
 6023SOL     OW18967   6.523   1.428   3.245
 6023SOL    HW118968   6.483   1.355   3.188
 6023SOL    HW218969   6.449   1.481   3.287
 6024SOL     OW18970   0.533   4.691   2.333
 6024SOL    HW118971   0.599   4.723   2.265
 6024SOL    HW218972   0.570   4.612   2.381
 6025SOL     OW18973   4.771   0.474   1.662
 6025SOL    HW118974   4.711   0.425   1.600
 6025SOL    HW218975   4.860   0.428   1.668
 6026SOL     OW18976   0.619   4.845   4.447
 6026SOL    HW118977   0.644   4.940   4.431
 6026SOL    HW218978   0.664   4.787   4.379
 6027SOL     OW18979   1.696   4.251   6.037
 6027SOL    HW118980   1.786   4.242   5.995
 6027SOL    HW218981   1.628   4.269   5.966
 6028SOL     OW18982   1.181   4.127   0.206
 6028SOL    HW118983   1.089   4.105   0.238
 6028SOL    HW218984   1.195   4.087   0.115
 6029SOL     OW18985   2.250   6.694   7.015
 6029SOL    HW118986   2.283   6.787   7.000
 6029SOL    HW218987   2.293   6.656   0.068
 6030SOL     OW18988   2.482   0.608   3.188
 6030SOL    HW118989   2.466   0.556   3.104
 6030SOL    HW218990   2.441   0.699   3.179
 6031SOL     OW18991   4.304   5.435   5.167
 6031SOL    HW118992   4.297   5.501   5.242
 6031SOL    HW218993   4.229   5.448   5.103
 6032SOL     OW18994   1.825   3.336   2.420
 6032SOL    HW118995   1.747   3.325   2.482
 6032SOL    HW218996   1.846   3.433   2.411
 6033SOL     OW18997   2.116   2.349   3.317
 6033SOL    HW118998   2.166   2.400   3.387
 6033SOL    HW218999   2.020   2.341   3.343
 6034SOL     OW19000   2.313   4.863   4.478
 6034SOL    HW119001   2.326   4.773   4.436
 6034SOL    HW219002   2.370   4.930   4.430
 6035SOL     OW19003   5.285   0.389   4.097
 6035SOL    HW119004   5.326   0.478   4.079
 6035SOL    HW219005   5.208   0.399   4.161
 6036SOL     OW19006   6.985   0.101   5.188
 6036SOL    HW119007   6.940   0.110   5.100
 6036SOL    HW219008   6.973   0.007   5.223
 6037SOL     OW19009   4.815   5.264   6.348
 6037SOL    HW119010   4.752   5.328   6.392
 6037SOL    HW219011   4.908   5.281   6.383
 6038SOL     OW19012   0.433   3.042   6.271
 6038SOL    HW119013   0.373   3.096   6.330
 6038SOL    HW219014   0.522   3.088   6.263
 6039SOL     OW19015   3.381   3.562   2.939
 6039SOL    HW119016   3.355   3.563   3.036
 6039SOL    HW219017   3.454   3.496   2.925
 6040SOL     OW19018   0.634   1.429   6.726
 6040SOL    HW119019   0.575   1.391   6.655
 6040SOL    HW219020   0.726   1.389   6.716
 6041SOL     OW19021   1.524   1.599   6.858
 6041SOL    HW119022   1.567   1.605   6.948
 6041SOL    HW219023   1.541   1.508   6.820
 6042SOL     OW19024   5.893   5.209   2.025
 6042SOL    HW119025   5.968   5.156   2.064
 6042SOL    HW219026   5.890   5.300   2.067
 6043SOL     OW19027   1.305   4.723   5.150
 6043SOL    HW119028   1.304   4.751   5.054
 6043SOL    HW219029   1.394   4.744   5.190
 6044SOL     OW19030   0.011   1.896   1.245
 6044SOL    HW119031   6.972   1.833   1.207
 6044SOL    HW219032   0.006   1.894   1.345
 6045SOL     OW19033   5.379   5.899   0.781
 6045SOL    HW119034   5.356   5.870   0.874
 6045SOL    HW219035   5.470   5.863   0.757
 6046SOL     OW19036   3.248   2.481   0.852
 6046SOL    HW119037   3.306   2.432   0.917
 6046SOL    HW219038   3.306   2.536   0.791
 6047SOL     OW19039   6.120   1.183   4.109
 6047SOL    HW119040   6.139   1.262   4.167
 6047SOL    HW219041   6.100   1.213   4.016
 6048SOL     OW19042   4.088   0.063   3.269
 6048SOL    HW119043   4.101   0.147   3.217
 6048SOL    HW219044   4.074   0.085   3.366
 6049SOL     OW19045   4.828   2.924   6.256
 6049SOL    HW119046   4.822   2.829   6.226
 6049SOL    HW219047   4.864   2.981   6.181
 6050SOL     OW19048   3.952   4.163   6.139
 6050SOL    HW119049   3.861   4.176   6.101
 6050SOL    HW219050   3.949   4.091   6.209
 6051SOL     OW19051   2.311   2.081   2.987
 6051SOL    HW119052   2.378   2.099   2.916
 6051SOL    HW219053   2.264   1.995   2.967
 6052SOL     OW19054   6.707   0.222   0.074
 6052SOL    HW119055   6.644   0.263   0.139
 6052SOL    HW219056   6.721   0.125   0.097
 6053SOL     OW19057   3.595   0.420   6.849
 6053SOL    HW119058   3.666   0.359   6.816
 6053SOL    HW219059   3.536   0.372   6.914
 6054SOL     OW19060   2.365   4.048   1.022
 6054SOL    HW119061   2.463   4.067   1.011
 6054SOL    HW219062   2.342   3.966   0.970
 6055SOL     OW19063   5.626   0.841   5.581
 6055SOL    HW119064   5.686   0.761   5.585
 6055SOL    HW219065   5.660   0.911   5.644
 6056SOL     OW19066   3.902   1.816   5.488
 6056SOL    HW119067   3.894   1.761   5.571
 6056SOL    HW219068   3.955   1.766   5.420
 6057SOL     OW19069   4.437   1.802   4.681
 6057SOL    HW119070   4.370   1.736   4.715
 6057SOL    HW219071   4.521   1.794   4.734
 6058SOL     OW19072   5.797   2.995   3.335
 6058SOL    HW119073   5.877   2.948   3.297
 6058SOL    HW219074   5.822   3.039   3.422
 6059SOL     OW19075   4.472   5.544   5.980
 6059SOL    HW119076   4.542   5.472   5.981
 6059SOL    HW219077   4.426   5.546   6.069
 6060SOL     OW19078   3.425   4.014   6.000
 6060SOL    HW119079   3.334   3.994   5.963
 6060SOL    HW219080   3.480   4.059   5.929
 6061SOL     OW19081   3.312   2.572   0.233
 6061SOL    HW119082   3.268   2.496   0.282
 6061SOL    HW219083   3.404   2.545   0.204
 6062SOL     OW19084   2.441   1.216   4.695
 6062SOL    HW119085   2.495   1.279   4.638
 6062SOL    HW219086   2.457   1.122   4.665
 6063SOL     OW19087   3.779   1.159   6.143
 6063SOL    HW119088   3.856   1.129   6.087
 6063SOL    HW219089   3.755   1.253   6.119
 6064SOL     OW19090   1.973   5.545   2.717
 6064SOL    HW119091   1.986   5.446   2.714
 6064SOL    HW219092   1.949   5.579   2.626
 6065SOL     OW19093   6.341   6.640   0.990
 6065SOL    HW119094   6.404   6.688   0.929
 6065SOL    HW219095   6.324   6.696   1.072
 6066SOL     OW19096   4.858   1.212   1.395
 6066SOL    HW119097   4.776   1.269   1.400
 6066SOL    HW219098   4.832   1.116   1.389
 6067SOL     OW19099   6.553   2.230   6.704
 6067SOL    HW119100   6.602   2.259   6.622
 6067SOL    HW219101   6.478   2.294   6.722
 6068SOL     OW19102   5.358   3.328   5.002
 6068SOL    HW119103   5.334   3.325   5.099
 6068SOL    HW219104   5.284   3.372   4.951
 6069SOL     OW19105   6.766   3.878   6.360
 6069SOL    HW119106   6.853   3.839   6.390
 6069SOL    HW219107   6.780   3.973   6.333
 6070SOL     OW19108   3.264   2.394   6.502
 6070SOL    HW119109   3.220   2.442   6.578
 6070SOL    HW219110   3.206   2.402   6.421
 6071SOL     OW19111   4.084   5.904   5.974
 6071SOL    HW119112   4.056   5.840   6.045
 6071SOL    HW219113   4.110   5.853   5.891
 6072SOL     OW19114   1.014   1.333   1.896
 6072SOL    HW119115   1.035   1.420   1.939
 6072SOL    HW219116   0.970   1.272   1.962
 6073SOL     OW19117   6.171   3.024   0.532
 6073SOL    HW119118   6.239   2.978   0.475
 6073SOL    HW219119   6.081   2.982   0.518
 6074SOL     OW19120   1.139   6.597   4.650
 6074SOL    HW119121   1.225   6.584   4.601
 6074SOL    HW219122   1.083   6.664   4.601
 6075SOL     OW19123   6.816   2.649   7.006
 6075SOL    HW119124   6.744   2.581   6.994
 6075SOL    HW219125   6.842   2.654   0.074
 6076SOL     OW19126   2.454   0.053   5.123
 6076SOL    HW119127   2.442   0.119   5.049
 6076SOL    HW219128   2.509   0.094   5.196
 6077SOL     OW19129   4.858   5.876   2.568
 6077SOL    HW119130   4.891   5.782   2.572
 6077SOL    HW219131   4.935   5.938   2.549
 6078SOL     OW19132   3.420   4.912   3.023
 6078SOL    HW119133   3.466   4.910   2.934
 6078SOL    HW219134   3.482   4.948   3.092
 6079SOL     OW19135   2.830   3.550   6.786
 6079SOL    HW119136   2.747   3.555   6.732
 6079SOL    HW219137   2.908   3.576   6.730
 6080SOL     OW19138   6.933   1.709   0.948
 6080SOL    HW119139   6.878   1.739   0.870
 6080SOL    HW219140   7.014   1.661   0.916
 6081SOL     OW19141   6.444   3.943   4.379
 6081SOL    HW119142   6.535   3.940   4.338
 6081SOL    HW219143   6.444   3.889   4.463
 6082SOL     OW19144   3.598   0.341   2.981
 6082SOL    HW119145   3.671   0.354   3.049
 6082SOL    HW219146   3.572   0.245   2.979
 6083SOL     OW19147   1.038   5.357   5.985
 6083SOL    HW119148   1.086   5.292   5.926
 6083SOL    HW219149   1.025   5.316   6.075
 6084SOL     OW19150   6.833   5.352   4.297
 6084SOL    HW119151   6.769   5.428   4.304
 6084SOL    HW219152   6.926   5.386   4.307
 6085SOL     OW19153   6.587   4.014   0.211
 6085SOL    HW119154   6.634   3.958   0.280
 6085SOL    HW219155   6.648   4.086   0.180
 6086SOL     OW19156   3.551   1.213   4.578
 6086SOL    HW119157   3.647   1.229   4.601
 6086SOL    HW219158   3.493   1.273   4.632
 6087SOL     OW19159   5.548   6.925   6.946
 6087SOL    HW119160   5.602   7.003   6.916
 6087SOL    HW219161   5.527   6.867   6.868
 6088SOL     OW19162   6.971   6.264   4.534
 6088SOL    HW119163   6.929   6.262   4.624
 6088SOL    HW219164   6.907   6.303   4.468
 6089SOL     OW19165   0.634   3.512   1.674
 6089SOL    HW119166   0.699   3.566   1.621
 6089SOL    HW219167   0.646   3.531   1.771
 6090SOL     OW19168   0.665   6.054   6.094
 6090SOL    HW119169   0.683   6.053   5.996
 6090SOL    HW219170   0.615   5.971   6.120
 6091SOL     OW19171   0.489   1.247   1.971
 6091SOL    HW119172   0.544   1.304   1.909
 6091SOL    HW219173   0.539   1.164   1.993
 6092SOL     OW19174   2.678   0.807   3.073
 6092SOL    HW119175   2.740   0.886   3.067
 6092SOL    HW219176   2.722   0.727   3.034
 6093SOL     OW19177   2.043   2.780   1.973
 6093SOL    HW119178   2.014   2.861   1.921
 6093SOL    HW219179   2.086   2.809   2.059
 6094SOL     OW19180   2.180   1.378   1.769
 6094SOL    HW119181   2.255   1.357   1.832
 6094SOL    HW219182   2.208   1.357   1.676
 6095SOL     OW19183   4.903   2.914   0.004
 6095SOL    HW119184   4.914   3.009   7.007
 6095SOL    HW219185   4.864   2.862   6.957
 6096SOL     OW19186   5.897   0.690   4.248
 6096SOL    HW119187   5.938   0.772   4.286
 6096SOL    HW219188   5.939   0.668   4.160
 6097SOL     OW19189   2.110   0.574   2.861
 6097SOL    HW119190   2.038   0.579   2.792
 6097SOL    HW219191   2.120   0.663   2.906
 6098SOL     OW19192   1.848   2.040   6.029
 6098SOL    HW119193   1.926   2.005   6.081
 6098SOL    HW219194   1.880   2.109   5.964
 6099SOL     OW19195   5.543   5.884   5.426
 6099SOL    HW119196   5.606   5.858   5.499
 6099SOL    HW219197   5.522   5.804   5.369
 6100SOL     OW19198   6.414   3.650   6.170
 6100SOL    HW119199   6.424   3.745   6.200
 6100SOL    HW219200   6.330   3.642   6.115
 6101SOL     OW19201   6.578   2.162   6.026
 6101SOL    HW119202   6.608   2.145   6.120
 6101SOL    HW219203   6.657   2.189   5.971
 6102SOL     OW19204   3.110   0.735   4.218
 6102SOL    HW119205   3.095   0.783   4.132
 6102SOL    HW219206   3.029   0.681   4.241
 6103SOL     OW19207   0.085   0.451   4.055
 6103SOL    HW119208   0.000   0.459   4.107
 6103SOL    HW219209   0.100   0.533   4.000
 6104SOL     OW19210   6.235   2.230   6.802
 6104SOL    HW119211   6.171   2.228   6.725
 6104SOL    HW219212   6.278   2.320   6.807
 6105SOL     OW19213   3.503   6.342   5.484
 6105SOL    HW119214   3.573   6.278   5.455
 6105SOL    HW219215   3.543   6.411   5.543
 6106SOL     OW19216   2.529   5.009   6.432
 6106SOL    HW119217   2.569   5.042   6.346
 6106SOL    HW219218   2.601   4.979   6.494
 6107SOL     OW19219   2.171   4.742   4.184
 6107SOL    HW119220   2.220   4.689   4.253
 6107SOL    HW219221   2.234   4.768   4.111
 6108SOL     OW19222   0.680   1.664   3.552
 6108SOL    HW119223   0.623   1.669   3.470
 6108SOL    HW219224   0.744   1.587   3.544
 6109SOL     OW19225   5.345   2.633   0.148
 6109SOL    HW119226   5.260   2.675   0.117
 6109SOL    HW219227   5.394   2.595   0.069
 6110SOL     OW19228   2.771   2.605   6.462
 6110SOL    HW119229   2.704   2.673   6.434
 6110SOL    HW219230   2.724   2.524   6.497
 6111SOL     OW19231   1.021   4.776   2.883
 6111SOL    HW119232   1.045   4.715   2.959
 6111SOL    HW219233   0.953   4.842   2.915
 6112SOL     OW19234   1.911   1.828   3.060
 6112SOL    HW119235   1.956   1.739   3.064
 6112SOL    HW219236   1.833   1.822   2.997
 6113SOL     OW19237   0.822   0.995   6.141
 6113SOL    HW119238   0.725   0.975   6.131
 6113SOL    HW219239   0.847   0.993   6.238
 6114SOL     OW19240   5.315   5.437   6.854
 6114SOL    HW119241   5.254   5.505   6.895
 6114SOL    HW219242   5.275   5.346   6.865
 6115SOL     OW19243   4.865   5.016   3.297
 6115SOL    HW119244   4.912   5.057   3.376
 6115SOL    HW219245   4.839   5.088   3.233
 6116SOL     OW19246   2.863   1.370   1.294
 6116SOL    HW119247   2.924   1.442   1.328
 6116SOL    HW219248   2.916   1.287   1.277
 6117SOL     OW19249   6.070   0.013   4.664
 6117SOL    HW119250   6.078   0.092   4.603
 6117SOL    HW219251   6.122   0.029   4.747
 6118SOL     OW19252   6.554   1.966   1.973
 6118SOL    HW119253   6.634   1.993   2.027
 6118SOL    HW219254   6.475   1.955   2.033
 6119SOL     OW19255   0.310   4.566   4.876
 6119SOL    HW119256   0.409   4.551   4.870
 6119SOL    HW219257   0.292   4.663   4.893
 6120SOL     OW19258   2.979   6.647   3.953
 6120SOL    HW119259   2.907   6.598   4.001
 6120SOL    HW219260   2.940   6.725   3.904
 6121SOL     OW19261   7.022   2.895   4.182
 6121SOL    HW119262   0.058   2.911   4.108
 6121SOL    HW219263   6.937   2.945   4.163
 6122SOL     OW19264   3.543   6.161   2.651
 6122SOL    HW119265   3.466   6.110   2.613
 6122SOL    HW219266   3.628   6.111   2.632
 6123SOL     OW19267   0.147   0.795   1.298
 6123SOL    HW119268   0.049   0.785   1.316
 6123SOL    HW219269   0.196   0.798   1.386
 6124SOL     OW19270   3.754   6.568   5.237
 6124SOL    HW119271   3.769   6.632   5.312
 6124SOL    HW219272   3.657   6.548   5.228
 6125SOL     OW19273   2.365   5.510   1.517
 6125SOL    HW119274   2.302   5.501   1.440
 6125SOL    HW219275   2.459   5.498   1.486
 6126SOL     OW19276   5.315   5.972   4.219
 6126SOL    HW119277   5.286   5.977   4.124
 6126SOL    HW219278   5.234   5.970   4.279
 6127SOL     OW19279   2.775   6.814   1.266
 6127SOL    HW119280   2.814   6.722   1.264
 6127SOL    HW219281   2.701   6.821   1.199
 6128SOL     OW19282   6.980   3.590   0.644
 6128SOL    HW119283   0.032   3.587   0.585
 6128SOL    HW219284   6.910   3.528   0.609
 6129SOL     OW19285   6.300   4.012   3.258
 6129SOL    HW119286   6.219   3.968   3.297
 6129SOL    HW219287   6.273   4.097   3.212
 6130SOL     OW19288   6.094   3.045   4.473
 6130SOL    HW119289   6.036   3.121   4.444
 6130SOL    HW219290   6.168   3.079   4.531
 6131SOL     OW19291   7.016   1.264   5.422
 6131SOL    HW119292   0.081   1.296   5.412
 6131SOL    HW219293   6.955   1.343   5.433
 6132SOL     OW19294   3.479   1.411   1.138
 6132SOL    HW119295   3.490   1.485   1.071
 6132SOL    HW219296   3.530   1.434   1.221
 6133SOL     OW19297   0.613   3.001   2.107
 6133SOL    HW119298   0.695   3.000   2.163
 6133SOL    HW219299   0.568   3.090   2.115
 6134SOL     OW19300   3.408   3.106   6.758
 6134SOL    HW119301   3.482   3.163   6.793
 6134SOL    HW219302   3.442   3.053   6.679
 6135SOL     OW19303   6.917   0.153   1.723
 6135SOL    HW119304   6.931   0.114   1.814
 6135SOL    HW219305   6.847   0.100   1.675
 6136SOL     OW19306   0.512   1.225   2.515
 6136SOL    HW119307   0.573   1.146   2.513
 6136SOL    HW219308   0.563   1.306   2.542
 6137SOL     OW19309   3.832   0.780   5.952
 6137SOL    HW119310   3.834   0.809   5.856
 6137SOL    HW219311   3.910   0.820   6.001
 6138SOL     OW19312   3.570   6.435   2.593
 6138SOL    HW119313   3.595   6.459   2.499
 6138SOL    HW219314   3.574   6.336   2.604
 6139SOL     OW19315   2.016   3.334   5.235
 6139SOL    HW119316   1.999   3.300   5.327
 6139SOL    HW219317   1.991   3.430   5.229
 6140SOL     OW19318   0.427   0.138   1.987
 6140SOL    HW119319   0.383   0.207   2.043
 6140SOL    HW219320   0.488   0.083   2.044
 6141SOL     OW19321   6.592   6.193   4.532
 6141SOL    HW119322   6.530   6.170   4.608
 6141SOL    HW219323   6.686   6.200   4.567
 6142SOL     OW19324   6.814   4.555   0.776
 6142SOL    HW119325   6.839   4.458   0.782
 6142SOL    HW219326   6.824   4.586   0.681
 6143SOL     OW19327   6.079   4.838   6.358
 6143SOL    HW119328   6.011   4.895   6.405
 6143SOL    HW219329   6.056   4.832   6.261
 6144SOL     OW19330   0.159   4.290   2.962
 6144SOL    HW119331   0.079   4.248   2.920
 6144SOL    HW219332   0.203   4.224   3.023
 6145SOL     OW19333   4.818   5.547   3.711
 6145SOL    HW119334   4.910   5.528   3.744
 6145SOL    HW219335   4.809   5.644   3.690
 6146SOL     OW19336   4.323   1.523   3.480
 6146SOL    HW119337   4.340   1.572   3.394
 6146SOL    HW219338   4.358   1.577   3.557
 6147SOL     OW19339   2.231   4.895   3.142
 6147SOL    HW119340   2.206   4.937   3.229
 6147SOL    HW219341   2.152   4.897   3.081
 6148SOL     OW19342   6.752   6.571   4.447
 6148SOL    HW119343   6.766   6.483   4.403
 6148SOL    HW219344   6.665   6.611   4.416
 6149SOL     OW19345   3.769   4.922   3.426
 6149SOL    HW119346   3.860   4.880   3.425
 6149SOL    HW219347   3.743   4.944   3.520
 6150SOL     OW19348   4.479   5.445   6.753
 6150SOL    HW119349   4.453   5.357   6.712
 6150SOL    HW219350   4.466   5.518   6.686
 6151SOL     OW19351   5.696   3.028   5.279
 6151SOL    HW119352   5.675   2.964   5.352
 6151SOL    HW219353   5.646   3.113   5.294
 6152SOL     OW19354   5.224   5.028   6.112
 6152SOL    HW119355   5.225   4.967   6.032
 6152SOL    HW219356   5.317   5.052   6.136
 6153SOL     OW19357   4.453   3.887   1.422
 6153SOL    HW119358   4.425   3.804   1.470
 6153SOL    HW219359   4.396   3.964   1.451
 6154SOL     OW19360   5.745   1.397   1.861
 6154SOL    HW119361   5.694   1.461   1.804
 6154SOL    HW219362   5.761   1.312   1.810
 6155SOL     OW19363   1.047   3.253   4.596
 6155SOL    HW119364   1.063   3.342   4.639
 6155SOL    HW219365   1.099   3.248   4.510
 6156SOL     OW19366   4.984   6.020   2.829
 6156SOL    HW119367   5.078   6.054   2.831
 6156SOL    HW219368   4.980   5.933   2.780
 6157SOL     OW19369   1.957   2.646   3.262
 6157SOL    HW119370   1.924   2.575   3.324
 6157SOL    HW219371   2.000   2.604   3.183
 6158SOL     OW19372   4.614   0.838   6.602
 6158SOL    HW119373   4.623   0.855   6.700
 6158SOL    HW219374   4.641   0.744   6.582
 6159SOL     OW19375   5.038   1.592   0.218
 6159SOL    HW119376   5.083   1.503   0.224
 6159SOL    HW219377   5.077   1.654   0.286
 6160SOL     OW19378   5.640   5.800   0.716
 6160SOL    HW119379   5.717   5.862   0.700
 6160SOL    HW219380   5.663   5.708   0.686
 6161SOL     OW19381   6.385   1.613   5.725
 6161SOL    HW119382   6.451   1.596   5.652
 6161SOL    HW219383   6.304   1.557   5.710
 6162SOL     OW19384   1.153   4.830   4.407
 6162SOL    HW119385   1.142   4.737   4.371
 6162SOL    HW219386   1.100   4.839   4.491
 6163SOL     OW19387   5.290   4.694   0.936
 6163SOL    HW119388   5.255   4.696   1.029
 6163SOL    HW219389   5.229   4.640   0.878
 6164SOL     OW19390   2.195   2.243   1.501
 6164SOL    HW119391   2.156   2.334   1.515
 6164SOL    HW219392   2.294   2.247   1.514
 6165SOL     OW19393   4.037   6.063   0.375
 6165SOL    HW119394   4.084   6.056   0.463
 6165SOL    HW219395   3.983   5.980   0.359
 6166SOL     OW19396   2.890   0.961   5.567
 6166SOL    HW119397   2.843   0.897   5.628
 6166SOL    HW219398   2.963   1.008   5.618
 6167SOL     OW19399   1.006   4.977   2.487
 6167SOL    HW119400   1.041   4.950   2.397
 6167SOL    HW219401   0.923   4.925   2.507
 6168SOL     OW19402   0.571   3.487   1.391
 6168SOL    HW119403   0.564   3.585   1.372
 6168SOL    HW219404   0.593   3.474   1.487
 6169SOL     OW19405   2.072   3.674   1.507
 6169SOL    HW119406   2.128   3.752   1.535
 6169SOL    HW219407   2.065   3.608   1.582
 6170SOL     OW19408   0.426   3.501   5.309
 6170SOL    HW119409   0.524   3.481   5.310
 6170SOL    HW219410   0.407   3.577   5.247
 6171SOL     OW19411   0.564   0.588   1.011
 6171SOL    HW119412   0.472   0.618   0.985
 6171SOL    HW219413   0.591   0.510   0.954
 6172SOL     OW19414   0.883   2.414   3.348
 6172SOL    HW119415   0.962   2.353   3.342
 6172SOL    HW219416   0.807   2.367   3.393
 6173SOL     OW19417   6.752   5.906   3.117
 6173SOL    HW119418   6.834   5.936   3.166
 6173SOL    HW219419   6.683   5.876   3.183
 6174SOL     OW19420   5.267   4.913   3.231
 6174SOL    HW119421   5.231   4.861   3.154
 6174SOL    HW219422   5.214   4.997   3.242
 6175SOL     OW19423   3.587   0.469   4.835
 6175SOL    HW119424   3.574   0.435   4.928
 6175SOL    HW219425   3.678   0.511   4.827
 6176SOL     OW19426   4.243   3.642   5.144
 6176SOL    HW119427   4.281   3.648   5.052
 6176SOL    HW219428   4.143   3.650   5.140
 6177SOL     OW19429   5.935   1.659   1.835
 6177SOL    HW119430   5.948   1.658   1.934
 6177SOL    HW219431   5.855   1.715   1.813
 6178SOL     OW19432   4.953   3.545   2.148
 6178SOL    HW119433   4.960   3.500   2.059
 6178SOL    HW219434   4.965   3.478   2.221
 6179SOL     OW19435   6.636   4.529   1.995
 6179SOL    HW119436   6.550   4.535   2.046
 6179SOL    HW219437   6.641   4.441   1.948
 6180SOL     OW19438   3.268   5.077   0.621
 6180SOL    HW119439   3.330   5.100   0.696
 6180SOL    HW219440   3.214   5.158   0.597
 6181SOL     OW19441   4.433   5.024   6.127
 6181SOL    HW119442   4.384   5.107   6.102
 6181SOL    HW219443   4.399   4.947   6.072
 6182SOL     OW19444   3.366   3.182   0.505
 6182SOL    HW119445   3.441   3.125   0.473
 6182SOL    HW219446   3.342   3.157   0.599
 6183SOL     OW19447   1.467   2.320   0.938
 6183SOL    HW119448   1.371   2.333   0.912
 6183SOL    HW219449   1.526   2.361   0.869
 6184SOL     OW19450   2.801   1.113   5.808
 6184SOL    HW119451   2.747   1.043   5.761
 6184SOL    HW219452   2.749   1.199   5.811
 6185SOL     OW19453   3.064   3.036   5.203
 6185SOL    HW119454   3.035   2.978   5.279
 6185SOL    HW219455   3.119   2.983   5.139
 6186SOL     OW19456   6.729   1.973   1.674
 6186SOL    HW119457   6.704   1.937   1.584
 6186SOL    HW219458   6.684   2.062   1.687
 6187SOL     OW19459   4.856   2.417   5.247
 6187SOL    HW119460   4.932   2.454   5.193
 6187SOL    HW219461   4.785   2.486   5.257
 6188SOL     OW19462   2.069   1.666   5.700
 6188SOL    HW119463   2.096   1.725   5.776
 6188SOL    HW219464   2.041   1.723   5.623
 6189SOL     OW19465   4.048   5.549   2.345
 6189SOL    HW119466   4.019   5.644   2.335
 6189SOL    HW219467   4.118   5.542   2.416
 6190SOL     OW19468   6.404   3.252   5.954
 6190SOL    HW119469   6.426   3.168   5.904
 6190SOL    HW219470   6.439   3.244   6.048
 6191SOL     OW19471   2.546   3.276   5.884
 6191SOL    HW119472   2.543   3.340   5.961
 6191SOL    HW219473   2.638   3.275   5.845
 6192SOL     OW19474   2.369   2.153   0.127
 6192SOL    HW119475   2.357   2.250   0.104
 6192SOL    HW219476   2.354   2.098   0.045
 6193SOL     OW19477   5.521   5.185   0.101
 6193SOL    HW119478   5.498   5.112   0.165
 6193SOL    HW219479   5.462   5.263   0.118
 6194SOL     OW19480   6.920   0.756   6.711
 6194SOL    HW119481   6.876   0.695   6.778
 6194SOL    HW219482   7.017   0.733   6.704
 6195SOL     OW19483   5.816   0.687   4.857
 6195SOL    HW119484   5.800   0.615   4.790
 6195SOL    HW219485   5.729   0.721   4.891
 6196SOL     OW19486   5.236   4.472   2.789
 6196SOL    HW119487   5.175   4.404   2.749
 6196SOL    HW219488   5.213   4.485   2.885
 6197SOL     OW19489   2.477   5.271   1.912
 6197SOL    HW119490   2.461   5.229   1.823
 6197SOL    HW219491   2.527   5.206   1.970
 6198SOL     OW19492   5.485   6.185   6.370
 6198SOL    HW119493   5.454   6.267   6.321
 6198SOL    HW219494   5.407   6.145   6.419
 6199SOL     OW19495   0.492   0.127   0.455
 6199SOL    HW119496   0.449   0.045   0.492
 6199SOL    HW219497   0.592   0.116   0.456
 6200SOL     OW19498   1.479   1.106   2.416
 6200SOL    HW119499   1.523   1.191   2.385
 6200SOL    HW219500   1.550   1.038   2.437
 6201SOL     OW19501   6.955   4.349   3.754
 6201SOL    HW119502   6.930   4.378   3.846
 6201SOL    HW219503   6.986   4.254   3.756
 6202SOL     OW19504   6.095   1.930   3.338
 6202SOL    HW119505   6.054   2.017   3.313
 6202SOL    HW219506   6.155   1.942   3.417
 6203SOL     OW19507   6.876   5.697   1.834
 6203SOL    HW119508   6.943   5.741   1.774
 6203SOL    HW219509   6.855   5.757   1.911
 6204SOL     OW19510   1.200   6.331   5.251
 6204SOL    HW119511   1.193   6.269   5.173
 6204SOL    HW219512   1.217   6.424   5.218
 6205SOL     OW19513   4.945   4.448   2.298
 6205SOL    HW119514   4.922   4.443   2.395
 6205SOL    HW219515   4.903   4.370   2.250
 6206SOL     OW19516   5.161   1.622   3.841
 6206SOL    HW119517   5.094   1.674   3.894
 6206SOL    HW219518   5.162   1.527   3.873
 6207SOL     OW19519   1.167   5.787   4.339
 6207SOL    HW119520   1.146   5.882   4.362
 6207SOL    HW219521   1.198   5.782   4.244
 6208SOL     OW19522   3.667   3.326   5.537
 6208SOL    HW119523   3.723   3.395   5.582
 6208SOL    HW219524   3.717   3.240   5.531
 6209SOL     OW19525   3.624   4.311   0.966
 6209SOL    HW119526   3.646   4.406   0.944
 6209SOL    HW219527   3.655   4.290   1.059
 6210SOL     OW19528   4.943   3.493   3.384
 6210SOL    HW119529   5.033   3.449   3.390
 6210SOL    HW219530   4.882   3.454   3.452
 6211SOL     OW19531   4.757   5.538   5.138
 6211SOL    HW119532   4.774   5.446   5.104
 6211SOL    HW219533   4.687   5.583   5.083
 6212SOL     OW19534   2.694   5.061   5.510
 6212SOL    HW119535   2.642   5.099   5.433
 6212SOL    HW219536   2.768   5.004   5.475
 6213SOL     OW19537   4.891   6.431   0.429
 6213SOL    HW119538   4.988   6.439   0.449
 6213SOL    HW219539   4.839   6.490   0.490
 6214SOL     OW19540   5.964   6.375   5.143
 6214SOL    HW119541   5.939   6.324   5.061
 6214SOL    HW219542   5.882   6.414   5.185
 6215SOL     OW19543   5.316   3.349   6.097
 6215SOL    HW119544   5.227   3.332   6.140
 6215SOL    HW219545   5.303   3.406   6.016
 6216SOL     OW19546   5.602   2.694   3.593
 6216SOL    HW119547   5.559   2.615   3.636
 6216SOL    HW219548   5.607   2.680   3.494
 6217SOL     OW19549   1.166   4.941   2.693
 6217SOL    HW119550   1.133   4.867   2.751
 6217SOL    HW219551   1.093   4.967   2.629
 6218SOL     OW19552   4.782   6.319   0.048
 6218SOL    HW119553   4.792   6.415   0.075
 6218SOL    HW219554   4.863   6.290   7.026
 6219SOL     OW19555   0.993   0.762   5.160
 6219SOL    HW119556   0.940   0.704   5.098
 6219SOL    HW219557   0.952   0.853   5.164
 6220SOL     OW19558   3.623   0.825   0.694
 6220SOL    HW119559   3.524   0.819   0.704
 6220SOL    HW219560   3.662   0.875   0.772
 6221SOL     OW19561   7.004   6.112   6.489
 6221SOL    HW119562   0.043   6.183   6.474
 6221SOL    HW219563   6.930   6.147   6.547
 6222SOL     OW19564   6.217   1.153   2.199
 6222SOL    HW119565   6.134   1.197   2.232
 6222SOL    HW219566   6.214   1.147   2.100
 6223SOL     OW19567   0.534   5.080   3.672
 6223SOL    HW119568   0.585   5.075   3.586
 6223SOL    HW219569   0.437   5.098   3.652
 6224SOL     OW19570   4.293   1.575   6.765
 6224SOL    HW119571   4.222   1.617   6.822
 6224SOL    HW219572   4.280   1.476   6.762
 6225SOL     OW19573   3.748   0.825   6.924
 6225SOL    HW119574   3.793   0.736   6.923
 6225SOL    HW219575   3.663   0.819   6.976
 6226SOL     OW19576   1.387   1.534   4.146
 6226SOL    HW119577   1.359   1.627   4.123
 6226SOL    HW219578   1.316   1.490   4.201
 6227SOL     OW19579   2.909   4.372   5.849
 6227SOL    HW119580   2.820   4.356   5.808
 6227SOL    HW219581   2.959   4.441   5.796
 6228SOL     OW19582   1.959   2.415   3.613
 6228SOL    HW119583   1.951   2.514   3.625
 6228SOL    HW219584   1.868   2.374   3.608
 6229SOL     OW19585   0.050   3.407   5.163
 6229SOL    HW119586   6.995   3.377   5.119
 6229SOL    HW219587   0.028   3.466   5.241
 6230SOL     OW19588   0.175   1.529   2.484
 6230SOL    HW119589   0.220   1.617   2.499
 6230SOL    HW219590   0.076   1.539   2.495
 6231SOL     OW19591   5.700   4.414   0.965
 6231SOL    HW119592   5.725   4.457   0.878
 6231SOL    HW219593   5.754   4.331   0.979
 6232SOL     OW19594   5.656   0.570   0.424
 6232SOL    HW119595   5.678   0.513   0.344
 6232SOL    HW219596   5.740   0.610   0.461
 6233SOL     OW19597   0.327   3.506   2.370
 6233SOL    HW119598   0.414   3.550   2.393
 6233SOL    HW219599   0.325   3.414   2.409
 6234SOL     OW19600   6.887   6.905   4.297
 6234SOL    HW119601   6.788   6.892   4.285
 6234SOL    HW219602   6.927   6.819   4.330
 6235SOL     OW19603   6.721   0.895   2.415
 6235SOL    HW119604   6.797   0.884   2.479
 6235SOL    HW219605   6.719   0.818   2.352
 6236SOL     OW19606   0.834   4.846   1.273
 6236SOL    HW119607   0.833   4.771   1.207
 6236SOL    HW219608   0.924   4.890   1.271
 6237SOL     OW19609   3.618   0.183   0.648
 6237SOL    HW119610   3.598   0.272   0.688
 6237SOL    HW219611   3.715   0.177   0.628
 6238SOL     OW19612   2.795   6.532   4.102
 6238SOL    HW119613   2.800   6.467   4.178
 6238SOL    HW219614   2.702   6.534   4.066
 6239SOL     OW19615   4.920   0.381   2.477
 6239SOL    HW119616   4.940   0.397   2.380
 6239SOL    HW219617   4.990   0.424   2.533
 6240SOL     OW19618   3.272   3.320   4.760
 6240SOL    HW119619   3.322   3.404   4.782
 6240SOL    HW219620   3.238   3.325   4.666
 6241SOL     OW19621   2.964   6.294   3.525
 6241SOL    HW119622   2.888   6.264   3.584
 6241SOL    HW219623   3.050   6.282   3.574
 6242SOL     OW19624   2.819   1.996   2.765
 6242SOL    HW119625   2.720   1.992   2.750
 6242SOL    HW219626   2.860   1.907   2.745
 6243SOL     OW19627   5.991   1.491   6.638
 6243SOL    HW119628   5.983   1.585   6.607
 6243SOL    HW219629   6.087   1.465   6.643
 6244SOL     OW19630   4.415   4.953   2.962
 6244SOL    HW119631   4.385   4.951   2.866
 6244SOL    HW219632   4.508   4.991   2.966
 6245SOL     OW19633   1.154   4.438   2.305
 6245SOL    HW119634   1.252   4.426   2.314
 6245SOL    HW219635   1.115   4.359   2.258
 6246SOL     OW19636   1.331   6.683   4.912
 6246SOL    HW119637   1.265   6.697   4.838
 6246SOL    HW219638   1.358   6.771   4.950
 6247SOL     OW19639   0.079   5.575   3.328
 6247SOL    HW119640   0.166   5.527   3.314
 6247SOL    HW219641   0.089   5.641   3.402
 6248SOL     OW19642   4.090   2.606   6.685
 6248SOL    HW119643   4.049   2.692   6.715
 6248SOL    HW219644   4.017   2.541   6.662
 6249SOL     OW19645   6.932   2.914   1.186
 6249SOL    HW119646   6.936   2.864   1.272
 6249SOL    HW219647   6.850   2.972   1.185
 6250SOL     OW19648   6.934   0.133   0.542
 6250SOL    HW119649   6.916   0.205   0.609
 6250SOL    HW219650   6.849   0.108   0.496
 6251SOL     OW19651   2.990   6.906   4.389
 6251SOL    HW119652   3.050   6.922   4.310
 6251SOL    HW219653   2.906   6.863   4.359
 6252SOL     OW19654   2.601   5.856   6.982
 6252SOL    HW119655   2.570   5.827   6.892
 6252SOL    HW219656   2.524   5.853   0.017
 6253SOL     OW19657   2.873   5.121   4.735
 6253SOL    HW119658   2.884   5.045   4.672
 6253SOL    HW219659   2.779   5.121   4.770
 6254SOL     OW19660   0.332   5.356   0.750
 6254SOL    HW119661   0.261   5.392   0.811
 6254SOL    HW219662   0.377   5.432   0.702
 6255SOL     OW19663   1.136   1.868   0.921
 6255SOL    HW119664   1.154   1.946   0.861
 6255SOL    HW219665   1.063   1.891   0.985
 6256SOL     OW19666   4.603   5.492   3.069
 6256SOL    HW119667   4.673   5.487   3.140
 6256SOL    HW219668   4.516   5.460   3.106
 6257SOL     OW19669   4.234   4.097   0.937
 6257SOL    HW119670   4.189   4.132   1.019
 6257SOL    HW219671   4.332   4.086   0.954
 6258SOL     OW19672   4.654   0.437   5.705
 6258SOL    HW119673   4.645   0.351   5.654
 6258SOL    HW219674   4.563   0.471   5.728
 6259SOL     OW19675   2.207   6.687   5.312
 6259SOL    HW119676   2.197   6.786   5.319
 6259SOL    HW219677   2.186   6.658   5.219
 6260SOL     OW19678   1.889   0.595   0.501
 6260SOL    HW119679   1.865   0.520   0.440
 6260SOL    HW219680   1.808   0.625   0.552
 6261SOL     OW19681   4.443   6.624   1.248
 6261SOL    HW119682   4.395   6.626   1.160
 6261SOL    HW219683   4.512   6.552   1.246
 6262SOL     OW19684   6.409   6.269   2.447
 6262SOL    HW119685   6.346   6.194   2.463
 6262SOL    HW219686   6.368   6.334   2.382
 6263SOL     OW19687   0.061   6.560   4.655
 6263SOL    HW119688   0.012   6.485   4.700
 6263SOL    HW219689   0.145   6.580   4.707
 6264SOL     OW19690   0.680   6.734   1.031
 6264SOL    HW119691   0.679   6.650   0.977
 6264SOL    HW219692   0.631   6.806   0.981
 6265SOL     OW19693   4.015   2.245   0.064
 6265SOL    HW119694   3.923   2.283   0.076
 6265SOL    HW219695   4.067   2.258   0.149
 6266SOL     OW19696   3.365   5.335   3.660
 6266SOL    HW119697   3.326   5.336   3.568
 6266SOL    HW219698   3.317   5.401   3.718
 6267SOL     OW19699   1.242   6.831   5.709
 6267SOL    HW119700   1.337   6.803   5.699
 6267SOL    HW219701   1.182   6.756   5.680
 6268SOL     OW19702   3.483   0.689   2.013
 6268SOL    HW119703   3.478   0.789   2.002
 6268SOL    HW219704   3.445   0.664   2.102
 6269SOL     OW19705   5.289   6.619   1.204
 6269SOL    HW119706   5.351   6.697   1.212
 6269SOL    HW219707   5.195   6.652   1.194
 6270SOL     OW19708   1.399   6.228   0.203
 6270SOL    HW119709   1.482   6.234   0.257
 6270SOL    HW219710   1.414   6.166   0.125
 6271SOL     OW19711   6.244   3.357   6.847
 6271SOL    HW119712   6.252   3.398   6.937
 6271SOL    HW219713   6.203   3.422   6.783
 6272SOL     OW19714   5.491   0.460   6.852
 6272SOL    HW119715   5.438   0.401   6.914
 6272SOL    HW219716   5.451   0.456   6.761
 6273SOL     OW19717   6.863   6.716   2.144
 6273SOL    HW119718   6.930   6.782   2.109
 6273SOL    HW219719   6.909   6.647   2.199
 6274SOL     OW19720   3.053   6.288   5.004
 6274SOL    HW119721   2.998   6.267   4.924
 6274SOL    HW219722   3.150   6.292   4.978
 6275SOL     OW19723   2.177   6.149   0.732
 6275SOL    HW119724   2.221   6.076   0.784
 6275SOL    HW219725   2.078   6.132   0.729
 6276SOL     OW19726   1.988   5.195   3.370
 6276SOL    HW119727   2.012   5.252   3.449
 6276SOL    HW219728   1.921   5.126   3.398
 6277SOL     OW19729   5.128   2.652   1.331
 6277SOL    HW119730   5.038   2.676   1.366
 6277SOL    HW219731   5.195   2.719   1.363
 6278SOL     OW19732   3.347   0.328   5.331
 6278SOL    HW119733   3.356   0.347   5.429
 6278SOL    HW219734   3.419   0.265   5.303
 6279SOL     OW19735   3.409   5.966   1.514
 6279SOL    HW119736   3.496   5.954   1.467
 6279SOL    HW219737   3.375   6.058   1.497
 6280SOL     OW19738   6.571   1.737   6.890
 6280SOL    HW119739   6.571   1.720   6.988
 6280SOL    HW219740   6.573   1.836   6.873
 6281SOL     OW19741   6.332   4.485   4.815
 6281SOL    HW119742   6.319   4.581   4.841
 6281SOL    HW219743   6.245   4.448   4.782
 6282SOL     OW19744   0.319   3.582   6.549
 6282SOL    HW119745   0.352   3.673   6.522
 6282SOL    HW219746   0.324   3.520   6.471
 6283SOL     OW19747   1.218   5.898   5.482
 6283SOL    HW119748   1.296   5.915   5.542
 6283SOL    HW219749   1.191   5.802   5.488
 6284SOL     OW19750   2.110   4.023   6.696
 6284SOL    HW119751   2.074   3.930   6.707
 6284SOL    HW219752   2.034   4.088   6.696
 6285SOL     OW19753   1.657   3.301   2.879
 6285SOL    HW119754   1.743   3.330   2.921
 6285SOL    HW219755   1.646   3.202   2.891
 6286SOL     OW19756   0.911   2.987   5.145
 6286SOL    HW119757   0.872   2.965   5.056
 6286SOL    HW219758   1.006   3.017   5.134
 6287SOL     OW19759   4.172   4.862   4.990
 6287SOL    HW119760   4.234   4.829   4.919
 6287SOL    HW219761   4.088   4.897   4.948
 6288SOL     OW19762   3.591   3.178   6.157
 6288SOL    HW119763   3.597   3.105   6.088
 6288SOL    HW219764   3.627   3.144   6.244
 6289SOL     OW19765   2.768   4.643   6.162
 6289SOL    HW119766   2.802   4.683   6.248
 6289SOL    HW219767   2.823   4.563   6.138
 6290SOL     OW19768   5.819   5.377   5.695
 6290SOL    HW119769   5.852   5.469   5.713
 6290SOL    HW219770   5.744   5.355   5.758
 6291SOL     OW19771   3.421   3.158   3.234
 6291SOL    HW119772   3.346   3.129   3.174
 6291SOL    HW219773   3.497   3.094   3.224
 6292SOL     OW19774   2.173   2.840   4.379
 6292SOL    HW119775   2.138   2.766   4.321
 6292SOL    HW219776   2.152   2.928   4.338
 6293SOL     OW19777   5.385   0.956   6.561
 6293SOL    HW119778   5.307   0.967   6.499
 6293SOL    HW219779   5.422   1.046   6.584
 6294SOL     OW19780   2.456   1.122   3.852
 6294SOL    HW119781   2.551   1.106   3.825
 6294SOL    HW219782   2.431   1.216   3.830
 6295SOL     OW19783   5.634   5.028   5.277
 6295SOL    HW119784   5.548   5.021   5.328
 6295SOL    HW219785   5.704   4.973   5.322
 6296SOL     OW19786   6.962   3.296   6.659
 6296SOL    HW119787   6.908   3.288   6.576
 6296SOL    HW219788   7.009   3.384   6.660
 6297SOL     OW19789   6.321   0.493   4.484
 6297SOL    HW119790   6.308   0.583   4.443
 6297SOL    HW219791   6.358   0.430   4.415
 6298SOL     OW19792   5.618   4.630   0.380
 6298SOL    HW119793   5.608   4.543   0.333
 6298SOL    HW219794   5.706   4.671   0.356
 6299SOL     OW19795   4.479   2.494   2.703
 6299SOL    HW119796   4.495   2.403   2.741
 6299SOL    HW219797   4.566   2.542   2.691
 6300SOL     OW19798   3.608   0.937   6.008
 6300SOL    HW119799   3.688   0.878   6.002
 6300SOL    HW219800   3.632   1.029   5.976
 6301SOL     OW19801   3.336   6.835   0.216
 6301SOL    HW119802   3.419   6.780   0.221
 6301SOL    HW219803   3.264   6.792   0.271
 6302SOL     OW19804   2.549   0.452   5.715
 6302SOL    HW119805   2.622   0.445   5.648
 6302SOL    HW219806   2.514   0.546   5.717
 6303SOL     OW19807   1.218   6.277   6.170
 6303SOL    HW119808   1.258   6.354   6.121
 6303SOL    HW219809   1.139   6.242   6.119
 6304SOL     OW19810   4.049   1.242   2.840
 6304SOL    HW119811   4.036   1.334   2.804
 6304SOL    HW219812   4.084   1.247   2.934
 6305SOL     OW19813   7.018   5.643   4.976
 6305SOL    HW119814   0.048   5.564   4.958
 6305SOL    HW219815   6.937   5.614   5.027
 6306SOL     OW19816   6.741   4.760   3.882
 6306SOL    HW119817   6.815   4.733   3.943
 6306SOL    HW219818   6.697   4.677   3.845
 6307SOL     OW19819   4.083   3.709   3.411
 6307SOL    HW119820   4.061   3.613   3.394
 6307SOL    HW219821   4.136   3.745   3.334
 6308SOL     OW19822   0.190   2.597   6.479
 6308SOL    HW119823   0.256   2.665   6.511
 6308SOL    HW219824   0.123   2.641   6.419
 6309SOL     OW19825   1.224   6.586   5.144
 6309SOL    HW119826   1.213   6.662   5.208
 6309SOL    HW219827   1.268   6.620   5.060
 6310SOL     OW19828   1.793   6.751   3.342
 6310SOL    HW119829   1.812   6.829   3.402
 6310SOL    HW219830   1.709   6.768   3.290
 6311SOL     OW19831   5.513   1.447   5.913
 6311SOL    HW119832   5.552   1.357   5.894
 6311SOL    HW219833   5.425   1.435   5.959
 6312SOL     OW19834   3.278   6.723   6.800
 6312SOL    HW119835   3.342   6.797   6.821
 6312SOL    HW219836   3.262   6.720   6.701
 6313SOL     OW19837   5.174   6.234   3.516
 6313SOL    HW119838   5.268   6.269   3.514
 6313SOL    HW219839   5.157   6.180   3.434
 6314SOL     OW19840   2.790   0.261   1.559
 6314SOL    HW119841   2.749   0.201   1.628
 6314SOL    HW219842   2.739   0.253   1.474
 6315SOL     OW19843   2.120   3.066   4.219
 6315SOL    HW119844   2.189   3.027   4.158
 6315SOL    HW219845   2.029   3.050   4.181
 6316SOL     OW19846   5.154   2.142   5.171
 6316SOL    HW119847   5.156   2.235   5.208
 6316SOL    HW219848   5.189   2.143   5.078
 6317SOL     OW19849   5.130   4.561   2.118
 6317SOL    HW119850   5.099   4.507   2.040
 6317SOL    HW219851   5.092   4.522   2.202
 6318SOL     OW19852   6.238   0.893   6.432
 6318SOL    HW119853   6.254   0.976   6.378
 6318SOL    HW219854   6.244   0.915   6.529
 6319SOL     OW19855   5.557   2.351   4.650
 6319SOL    HW119856   5.515   2.441   4.657
 6319SOL    HW219857   5.651   2.360   4.618
 6320SOL     OW19858   0.131   1.153   3.881
 6320SOL    HW119859   0.105   1.118   3.791
 6320SOL    HW219860   0.195   1.089   3.924
 6321SOL     OW19861   5.515   2.120   0.699
 6321SOL    HW119862   5.482   2.047   0.639
 6321SOL    HW219863   5.452   2.133   0.775
 6322SOL     OW19864   1.905   0.778   1.087
 6322SOL    HW119865   1.927   0.854   1.149
 6322SOL    HW219866   1.835   0.721   1.129
 6323SOL     OW19867   2.718   3.053   1.155
 6323SOL    HW119868   2.810   3.084   1.180
 6323SOL    HW219869   2.719   2.953   1.146
 6324SOL     OW19870   4.898   1.090   1.053
 6324SOL    HW119871   4.897   1.086   0.953
 6324SOL    HW219872   4.965   1.157   1.084
 6325SOL     OW19873   1.385   2.271   2.765
 6325SOL    HW119874   1.411   2.340   2.697
 6325SOL    HW219875   1.418   2.298   2.855
 6326SOL     OW19876   5.118   5.260   5.499
 6326SOL    HW119877   5.083   5.191   5.435
 6326SOL    HW219878   5.042   5.302   5.548
 6327SOL     OW19879   6.912   1.879   3.544
 6327SOL    HW119880   6.843   1.892   3.615
 6327SOL    HW219881   6.966   1.963   3.535
 6328SOL     OW19882   4.563   3.279   6.114
 6328SOL    HW119883   4.518   3.265   6.027
 6328SOL    HW219884   4.643   3.337   6.102
 6329SOL     OW19885   1.885   2.443   5.402
 6329SOL    HW119886   1.864   2.484   5.314
 6329SOL    HW219887   1.927   2.512   5.462
 6330SOL     OW19888   6.147   0.772   3.576
 6330SOL    HW119889   6.165   0.713   3.654
 6330SOL    HW219890   6.206   0.745   3.500
 6331SOL     OW19891   6.572   3.237   4.506
 6331SOL    HW119892   6.659   3.189   4.494
 6331SOL    HW219893   6.503   3.196   4.446
 6332SOL     OW19894   1.842   1.561   1.147
 6332SOL    HW119895   1.859   1.660   1.149
 6332SOL    HW219896   1.749   1.543   1.116
 6333SOL     OW19897   4.759   0.514   0.368
 6333SOL    HW119898   4.691   0.558   0.426
 6333SOL    HW219899   4.827   0.468   0.425
 6334SOL     OW19900   3.132   1.713   2.220
 6334SOL    HW119901   3.062   1.752   2.161
 6334SOL    HW219902   3.201   1.783   2.240
 6335SOL     OW19903   5.477   0.770   0.437
 6335SOL    HW119904   5.540   0.693   0.434
 6335SOL    HW219905   5.513   0.841   0.498
 6336SOL     OW19906   0.068   3.807   6.153
 6336SOL    HW119907   0.157   3.774   6.185
 6336SOL    HW219908   0.064   3.799   6.054
 6337SOL     OW19909   4.531   5.620   4.982
 6337SOL    HW119910   4.494   5.673   5.058
 6337SOL    HW219911   4.471   5.542   4.963
 6338SOL     OW19912   3.198   1.875   4.055
 6338SOL    HW119913   3.247   1.808   3.998
 6338SOL    HW219914   3.256   1.955   4.070
 6339SOL     OW19915   1.389   4.148   3.394
 6339SOL    HW119916   1.457   4.221   3.387
 6339SOL    HW219917   1.382   4.100   3.307
 6340SOL     OW19918   2.191   3.916   1.471
 6340SOL    HW119919   2.113   3.978   1.458
 6340SOL    HW219920   2.236   3.900   1.383
 6341SOL     OW19921   0.996   4.771   4.126
 6341SOL    HW119922   0.977   4.855   4.177
 6341SOL    HW219923   1.059   4.714   4.179
 6342SOL     OW19924   1.996   0.966   1.992
 6342SOL    HW119925   1.942   1.022   2.055
 6342SOL    HW219926   2.009   0.875   2.031
 6343SOL     OW19927   2.687   6.001   0.253
 6343SOL    HW119928   2.750   6.028   0.180
 6343SOL    HW219929   2.715   6.044   0.339
 6344SOL     OW19930   5.768   2.457   3.738
 6344SOL    HW119931   5.830   2.528   3.772
 6344SOL    HW219932   5.674   2.492   3.737
 6345SOL     OW19933   5.741   3.363   2.002
 6345SOL    HW119934   5.642   3.374   1.986
 6345SOL    HW219935   5.786   3.344   1.915
 6346SOL     OW19936   0.399   4.420   5.810
 6346SOL    HW119937   0.355   4.468   5.885
 6346SOL    HW219938   0.456   4.484   5.758
 6347SOL     OW19939   2.870   2.146   3.067
 6347SOL    HW119940   2.948   2.088   3.044
 6347SOL    HW219941   2.865   2.222   3.002
 6348SOL     OW19942   0.432   1.634   5.786
 6348SOL    HW119943   0.449   1.640   5.688
 6348SOL    HW219944   0.499   1.574   5.828
 6349SOL     OW19945   0.423   0.483   0.288
 6349SOL    HW119946   0.508   0.491   0.340
 6349SOL    HW219947   0.391   0.388   0.291
 6350SOL     OW19948   0.702   4.086   2.021
 6350SOL    HW119949   0.696   4.116   2.116
 6350SOL    HW219950   0.761   4.005   2.015
 6351SOL     OW19951   6.146   3.631   3.213
 6351SOL    HW119952   6.105   3.540   3.218
 6351SOL    HW219953   6.131   3.679   3.300
 6352SOL     OW19954   2.315   0.427   4.154
 6352SOL    HW119955   2.340   0.509   4.205
 6352SOL    HW219956   2.225   0.439   4.113
 6353SOL     OW19957   2.236   6.208   6.508
 6353SOL    HW119958   2.264   6.295   6.549
 6353SOL    HW219959   2.309   6.176   6.447
 6354SOL     OW19960   4.905   4.388   2.849
 6354SOL    HW119961   4.898   4.461   2.917
 6354SOL    HW219962   4.878   4.301   2.891
 6355SOL     OW19963   2.912   4.767   0.639
 6355SOL    HW119964   2.862   4.699   0.693
 6355SOL    HW219965   3.010   4.753   0.650
 6356SOL     OW19966   4.742   4.956   6.476
 6356SOL    HW119967   4.781   5.047   6.492
 6356SOL    HW219968   4.789   4.913   6.400
 6357SOL     OW19969   5.908   2.219   1.701
 6357SOL    HW119970   5.971   2.163   1.647
 6357SOL    HW219971   5.951   2.243   1.788
 6358SOL     OW19972   1.871   2.172   0.040
 6358SOL    HW119973   1.826   2.134   0.121
 6358SOL    HW219974   1.907   2.263   0.062
 6359SOL     OW19975   5.240   6.482   0.931
 6359SOL    HW119976   5.262   6.547   1.004
 6359SOL    HW219977   5.319   6.423   0.914
 6360SOL     OW19978   0.599   2.486   3.235
 6360SOL    HW119979   0.588   2.415   3.305
 6360SOL    HW219980   0.690   2.481   3.196
 6361SOL     OW19981   0.278   0.564   0.051
 6361SOL    HW119982   0.340   0.628   0.096
 6361SOL    HW219983   0.249   0.494   0.117
 6362SOL     OW19984   0.947   5.487   6.728
 6362SOL    HW119985   0.880   5.460   6.658
 6362SOL    HW219986   0.904   5.483   6.818
 6363SOL     OW19987   2.887   5.286   3.578
 6363SOL    HW119988   2.972   5.233   3.586
 6363SOL    HW219989   2.822   5.236   3.521
 6364SOL     OW19990   2.353   2.275   5.264
 6364SOL    HW119991   2.299   2.201   5.225
 6364SOL    HW219992   2.436   2.238   5.306
 6365SOL     OW19993   5.650   5.934   4.158
 6365SOL    HW119994   5.595   5.928   4.241
 6365SOL    HW219995   5.590   5.942   4.079
 6366SOL     OW19996   6.166   6.556   5.092
 6366SOL    HW119997   6.241   6.542   5.156
 6366SOL    HW219998   6.090   6.496   5.116
 6367SOL     OW19999   3.202   2.194   2.742
 6367SOL    HW120000   3.149   2.234   2.817
 6367SOL    HW220001   3.298   2.188   2.768
 6368SOL     OW20002   4.908   3.666   4.203
 6368SOL    HW120003   4.958   3.667   4.289
 6368SOL    HW220004   4.860   3.578   4.193
 6369SOL     OW20005   3.199   6.283   5.942
 6369SOL    HW120006   3.238   6.213   6.001
 6369SOL    HW220007   3.130   6.243   5.882
 6370SOL     OW20008   5.419   4.078   3.819
 6370SOL    HW120009   5.391   4.168   3.785
 6370SOL    HW220010   5.373   4.059   3.906
 6371SOL     OW20011   5.238   3.998   1.582
 6371SOL    HW120012   5.181   4.037   1.655
 6371SOL    HW220013   5.315   3.949   1.623
 6372SOL     OW20014   0.078   1.313   2.799
 6372SOL    HW120015   0.094   1.237   2.736
 6372SOL    HW220016   7.019   1.356   2.776
 6373SOL     OW20017   5.610   4.083   1.304
 6373SOL    HW120018   5.575   4.177   1.306
 6373SOL    HW220019   5.685   4.074   1.369
 6374SOL     OW20020   4.769   2.885   0.461
 6374SOL    HW120021   4.813   2.838   0.384
 6374SOL    HW220022   4.801   2.980   0.464
 6375SOL     OW20023   6.999   3.142   2.694
 6375SOL    HW120024   6.952   3.054   2.681
 6375SOL    HW220025   7.020   3.154   2.791
 6376SOL     OW20026   3.842   0.836   5.682
 6376SOL    HW120027   3.788   0.908   5.638
 6376SOL    HW220028   3.924   0.819   5.627
 6377SOL     OW20029   0.137   6.910   6.730
 6377SOL    HW120030   0.217   6.969   6.742
 6377SOL    HW220031   0.069   6.958   6.675
 6378SOL     OW20032   5.601   5.834   3.538
 6378SOL    HW120033   5.657   5.793   3.610
 6378SOL    HW220034   5.615   5.784   3.453
 6379SOL     OW20035   2.280   5.917   6.243
 6379SOL    HW120036   2.379   5.923   6.246
 6379SOL    HW220037   2.251   5.828   6.280
 6380SOL     OW20038   1.364   3.164   4.964
 6380SOL    HW120039   1.445   3.192   5.014
 6380SOL    HW220040   1.282   3.190   5.015
 6381SOL     OW20041   4.578   3.668   0.127
 6381SOL    HW120042   4.560   3.609   0.206
 6381SOL    HW220043   4.673   3.657   0.098
 6382SOL     OW20044   2.923   1.940   1.116
 6382SOL    HW120045   2.859   1.920   1.191
 6382SOL    HW220046   2.991   2.006   1.147
 6383SOL     OW20047   1.818   2.150   2.906
 6383SOL    HW120048   1.785   2.080   2.843
 6383SOL    HW220049   1.750   2.166   2.977
 6384SOL     OW20050   6.646   2.421   1.945
 6384SOL    HW120051   6.633   2.357   1.868
 6384SOL    HW220052   6.590   2.502   1.931
 6385SOL     OW20053   0.422   3.300   1.169
 6385SOL    HW120054   0.438   3.259   1.258
 6385SOL    HW220055   0.474   3.385   1.161
 6386SOL     OW20056   2.001   3.235   0.729
 6386SOL    HW120057   1.936   3.159   0.729
 6386SOL    HW220058   2.058   3.230   0.648
 6387SOL     OW20059   6.370   0.750   0.123
 6387SOL    HW120060   6.322   0.749   0.211
 6387SOL    HW220061   6.373   0.844   0.088
 6388SOL     OW20062   6.223   5.348   2.605
 6388SOL    HW120063   6.273   5.378   2.685
 6388SOL    HW220064   6.176   5.262   2.625
 6389SOL     OW20065   1.923   0.224   7.025
 6389SOL    HW120066   1.904   0.133   0.032
 6389SOL    HW220067   2.022   0.234   7.011
 6390SOL     OW20068   6.344   1.002   0.024
 6390SOL    HW120069   6.335   0.974   6.957
 6390SOL    HW220070   6.356   1.101   0.029
 6391SOL     OW20071   1.212   0.695   5.326
 6391SOL    HW120072   1.174   0.731   5.241
 6391SOL    HW220073   1.143   0.640   5.374
 6392SOL     OW20074   3.159   5.634   3.716
 6392SOL    HW120075   3.139   5.675   3.805
 6392SOL    HW220076   3.254   5.653   3.691
 6393SOL     OW20077   5.978   6.282   1.519
 6393SOL    HW120078   5.921   6.324   1.449
 6393SOL    HW220079   6.072   6.314   1.509
 6394SOL     OW20080   0.762   5.352   1.309
 6394SOL    HW120081   0.731   5.357   1.404
 6394SOL    HW220082   0.853   5.310   1.306
 6395SOL     OW20083   1.170   4.485   3.338
 6395SOL    HW120084   1.096   4.422   3.363
 6395SOL    HW220085   1.258   4.441   3.356
 6396SOL     OW20086   6.496   3.530   0.392
 6396SOL    HW120087   6.557   3.516   0.315
 6396SOL    HW220088   6.419   3.467   0.386
 6397SOL     OW20089   5.429   2.261   3.215
 6397SOL    HW120090   5.497   2.193   3.186
 6397SOL    HW220091   5.337   2.229   3.189
 6398SOL     OW20092   0.839   6.373   1.116
 6398SOL    HW120093   0.832   6.273   1.109
 6398SOL    HW220094   0.930   6.402   1.089
 6399SOL     OW20095   2.135   0.062   6.266
 6399SOL    HW120096   2.171   0.130   6.330
 6399SOL    HW220097   2.106   0.108   6.182
 6400SOL     OW20098   1.559   5.645   2.752
 6400SOL    HW120099   1.535   5.706   2.828
 6400SOL    HW220100   1.625   5.691   2.692
 6401SOL     OW20101   4.020   4.836   3.156
 6401SOL    HW120102   4.006   4.829   3.255
 6401SOL    HW220103   4.031   4.932   3.131
 6402SOL     OW20104   1.968   4.691   4.381
 6402SOL    HW120105   2.025   4.659   4.456
 6402SOL    HW220106   2.023   4.699   4.298
 6403SOL     OW20107   5.056   6.521   5.004
 6403SOL    HW120108   5.129   6.473   4.955
 6403SOL    HW220109   5.094   6.601   5.050
 6404SOL     OW20110   3.331   0.627   2.340
 6404SOL    HW120111   3.322   0.555   2.408
 6404SOL    HW220112   3.345   0.715   2.386
 6405SOL     OW20113   5.309   1.460   3.026
 6405SOL    HW120114   5.258   1.537   3.065
 6405SOL    HW220115   5.394   1.448   3.077
 6406SOL     OW20116   1.261   2.739   2.558
 6406SOL    HW120117   1.250   2.699   2.648
 6406SOL    HW220118   1.172   2.771   2.524
 6407SOL     OW20119   2.280   6.145   3.415
 6407SOL    HW120120   2.371   6.164   3.379
 6407SOL    HW220121   2.215   6.138   3.338
 6408SOL     OW20122   6.847   0.666   0.516
 6408SOL    HW120123   6.906   0.728   0.464
 6408SOL    HW220124   6.887   0.649   0.606
 6409SOL     OW20125   6.553   5.011   3.533
 6409SOL    HW120126   6.532   5.076   3.459
 6409SOL    HW220127   6.512   5.044   3.618
 6410SOL     OW20128   3.001   1.737   5.416
 6410SOL    HW120129   2.916   1.727   5.467
 6410SOL    HW220130   2.981   1.749   5.319
 6411SOL     OW20131   0.482   2.597   2.677
 6411SOL    HW120132   0.484   2.582   2.775
 6411SOL    HW220133   0.446   2.688   2.657
 6412SOL     OW20134   3.140   0.679   6.911
 6412SOL    HW120135   3.163   0.599   6.855
 6412SOL    HW220136   3.210   0.690   6.982
 6413SOL     OW20137   4.351   5.018   4.287
 6413SOL    HW120138   4.316   5.007   4.194
 6413SOL    HW220139   4.445   5.051   4.284
 6414SOL     OW20140   1.082   0.004   6.745
 6414SOL    HW120141   1.003   0.006   6.806
 6414SOL    HW220142   1.164   0.035   6.794
 6415SOL     OW20143   1.289   2.816   3.352
 6415SOL    HW120144   1.265   2.847   3.444
 6415SOL    HW220145   1.253   2.881   3.284
 6416SOL     OW20146   2.916   0.142   6.531
 6416SOL    HW120147   2.892   0.184   6.618
 6416SOL    HW220148   2.980   0.201   6.482
 6417SOL     OW20149   4.803   1.767   1.055
 6417SOL    HW120150   4.728   1.797   1.115
 6417SOL    HW220151   4.889   1.807   1.087
 6418SOL     OW20152   4.408   4.789   1.426
 6418SOL    HW120153   4.347   4.833   1.360
 6418SOL    HW220154   4.449   4.708   1.383
 6419SOL     OW20155   0.814   6.562   6.476
 6419SOL    HW120156   0.851   6.610   6.396
 6419SOL    HW220157   0.825   6.619   6.557
 6420SOL     OW20158   1.353   3.331   3.730
 6420SOL    HW120159   1.353   3.395   3.807
 6420SOL    HW220160   1.285   3.361   3.662
 6421SOL     OW20161   5.321   0.052   1.722
 6421SOL    HW120162   5.365   7.023   1.652
 6421SOL    HW220163   5.334   0.010   1.812
 6422SOL     OW20164   6.934   2.953   4.628
 6422SOL    HW120165   6.953   2.881   4.694
 6422SOL    HW220166   6.981   3.037   4.656
 6423SOL     OW20167   2.325   4.604   4.399
 6423SOL    HW120168   2.401   4.576   4.340
 6423SOL    HW220169   2.321   4.543   4.479
 6424SOL     OW20170   0.363   3.569   4.796
 6424SOL    HW120171   0.443   3.517   4.766
 6424SOL    HW220172   0.348   3.556   4.893
 6425SOL     OW20173   0.177   6.115   2.683
 6425SOL    HW120174   0.137   6.189   2.738
 6425SOL    HW220175   0.179   6.143   2.587
 6426SOL     OW20176   4.584   4.507   4.774
 6426SOL    HW120177   4.540   4.483   4.688
 6426SOL    HW220178   4.515   4.533   4.841
 6427SOL     OW20179   3.139   3.508   3.565
 6427SOL    HW120180   3.064   3.538   3.623
 6427SOL    HW220181   3.105   3.445   3.495
 6428SOL     OW20182   4.630   2.717   0.154
 6428SOL    HW120183   4.617   2.753   0.246
 6428SOL    HW220184   4.627   2.617   0.157
 6429SOL     OW20185   2.469   0.548   5.289
 6429SOL    HW120186   2.434   0.492   5.213
 6429SOL    HW220187   2.440   0.642   5.278
 6430SOL     OW20188   6.714   0.519   5.217
 6430SOL    HW120189   6.714   0.460   5.298
 6430SOL    HW220190   6.646   0.592   5.230
 6431SOL     OW20191   4.252   5.286   2.720
 6431SOL    HW120192   4.273   5.383   2.711
 6431SOL    HW220193   4.327   5.232   2.683
 6432SOL     OW20194   3.482   4.533   6.801
 6432SOL    HW120195   3.484   4.632   6.814
 6432SOL    HW220196   3.571   4.501   6.769
 6433SOL     OW20197   2.534   5.679   6.763
 6433SOL    HW120198   2.527   5.695   6.665
 6433SOL    HW220199   2.631   5.672   6.789
 6434SOL     OW20200   2.908   6.113   5.994
 6434SOL    HW120201   2.975   6.046   6.025
 6434SOL    HW220202   2.926   6.138   5.899
 6435SOL     OW20203   5.592   0.149   0.819
 6435SOL    HW120204   5.542   0.063   0.811
 6435SOL    HW220205   5.575   0.206   0.739
 6436SOL     OW20206   0.482   4.024   3.803
 6436SOL    HW120207   0.542   3.944   3.811
 6436SOL    HW220208   0.421   4.011   3.725
 6437SOL     OW20209   0.682   1.050   5.495
 6437SOL    HW120210   0.633   0.998   5.565
 6437SOL    HW220211   0.750   1.109   5.539
 6438SOL     OW20212   0.531   5.673   6.761
 6438SOL    HW120213   0.495   5.583   6.785
 6438SOL    HW220214   0.612   5.693   6.816
 6439SOL     OW20215   5.683   0.977   3.604
 6439SOL    HW120216   5.780   0.999   3.603
 6439SOL    HW220217   5.669   0.890   3.652
 6440SOL     OW20218   2.383   0.619   5.979
 6440SOL    HW120219   2.440   0.538   5.996
 6440SOL    HW220220   2.437   0.701   5.999
 6441SOL     OW20221   0.218   0.936   2.809
 6441SOL    HW120222   0.296   0.942   2.871
 6441SOL    HW220223   0.224   1.009   2.741
 6442SOL     OW20224   2.644   2.417   5.593
 6442SOL    HW120225   2.616   2.343   5.532
 6442SOL    HW220226   2.585   2.419   5.673
 6443SOL     OW20227   4.197   2.192   0.793
 6443SOL    HW120228   4.199   2.238   0.704
 6443SOL    HW220229   4.216   2.259   0.865
 6444SOL     OW20230   0.353   2.679   5.537
 6444SOL    HW120231   0.274   2.736   5.561
 6444SOL    HW220232   0.321   2.587   5.511
 6445SOL     OW20233   3.087   3.610   3.108
 6445SOL    HW120234   3.019   3.625   3.180
 6445SOL    HW220235   3.056   3.537   3.047
 6446SOL     OW20236   1.930   1.424   6.831
 6446SOL    HW120237   1.900   1.519   6.823
 6446SOL    HW220238   1.873   1.366   6.773
 6447SOL     OW20239   6.055   4.332   1.014
 6447SOL    HW120240   6.108   4.403   0.968
 6447SOL    HW220241   6.109   4.294   1.089
 6448SOL     OW20242   4.660   5.569   1.798
 6448SOL    HW120243   4.719   5.488   1.805
 6448SOL    HW220244   4.634   5.582   1.702
 6449SOL     OW20245   2.800   5.399   1.856
 6449SOL    HW120246   2.706   5.425   1.834
 6449SOL    HW220247   2.856   5.482   1.860
 6450SOL     OW20248   0.200   3.859   1.256
 6450SOL    HW120249   0.217   3.957   1.269
 6450SOL    HW220250   0.166   3.819   1.341
 6451SOL     OW20251   3.420   2.313   1.016
 6451SOL    HW120252   3.479   2.305   0.936
 6451SOL    HW220253   3.393   2.221   1.047
 6452SOL     OW20254   5.452   3.671   3.433
 6452SOL    HW120255   5.502   3.628   3.358
 6452SOL    HW220256   5.505   3.662   3.517
 6453SOL     OW20257   3.664   0.129   1.097
 6453SOL    HW120258   3.671   0.222   1.060
 6453SOL    HW220259   3.751   0.104   1.140
 6454SOL     OW20260   6.593   2.633   2.744
 6454SOL    HW120261   6.652   2.568   2.697
 6454SOL    HW220262   6.504   2.636   2.699
 6455SOL     OW20263   6.876   4.334   3.060
 6455SOL    HW120264   6.796   4.275   3.052
 6455SOL    HW220265   6.856   4.422   3.017
 6456SOL     OW20266   6.909   1.693   3.041
 6456SOL    HW120267   6.932   1.730   3.131
 6456SOL    HW220268   6.872   1.601   3.052
 6457SOL     OW20269   4.862   6.998   1.914
 6457SOL    HW120270   4.926   6.962   1.982
 6457SOL    HW220271   4.869   6.944   1.830
 6458SOL     OW20272   1.040   5.004   3.540
 6458SOL    HW120273   1.117   5.048   3.585
 6458SOL    HW220274   0.990   4.948   3.605
 6459SOL     OW20275   6.588   2.737   2.999
 6459SOL    HW120276   6.496   2.726   3.036
 6459SOL    HW220277   6.592   2.699   2.907
 6460SOL     OW20278   7.023   6.250   5.458
 6460SOL    HW120279   0.090   6.250   5.429
 6460SOL    HW220280   7.013   6.196   5.541
 6461SOL     OW20281   2.846   4.461   0.347
 6461SOL    HW120282   2.898   4.546   0.353
 6461SOL    HW220283   2.843   4.430   0.252
 6462SOL     OW20284   1.621   3.890   4.842
 6462SOL    HW120285   1.558   3.831   4.792
 6462SOL    HW220286   1.632   3.977   4.794
 6463SOL     OW20287   4.694   0.903   1.177
 6463SOL    HW120288   4.708   0.908   1.276
 6463SOL    HW220289   4.759   0.963   1.131
 6464SOL     OW20290   1.009   6.352   4.163
 6464SOL    HW120291   1.095   6.370   4.211
 6464SOL    HW220292   1.029   6.312   4.073
 6465SOL     OW20293   4.948   2.645   2.900
 6465SOL    HW120294   4.945   2.723   2.838
 6465SOL    HW220295   5.030   2.591   2.882
 6466SOL     OW20296   6.928   4.005   7.010
 6466SOL    HW120297   6.945   4.086   6.954
 6466SOL    HW220298   6.886   3.934   6.954
 6467SOL     OW20299   3.003   0.836   0.820
 6467SOL    HW120300   3.025   0.875   0.910
 6467SOL    HW220301   3.047   0.891   0.749
 6468SOL     OW20302   3.485   0.044   0.321
 6468SOL    HW120303   3.416   0.045   0.394
 6468SOL    HW220304   3.453   7.015   0.246
 6469SOL     OW20305   3.296   1.581   3.659
 6469SOL    HW120306   3.268   1.676   3.672
 6469SOL    HW220307   3.309   1.538   3.749
 6470SOL     OW20308   6.700   2.882   6.473
 6470SOL    HW120309   6.753   2.880   6.557
 6470SOL    HW220310   6.722   2.802   6.417
 6471SOL     OW20311   0.214   6.069   4.891
 6471SOL    HW120312   0.179   6.038   4.979
 6471SOL    HW220313   0.191   6.002   4.820
 6472SOL     OW20314   0.058   5.979   2.314
 6472SOL    HW120315   7.010   6.038   2.292
 6472SOL    HW220316   0.041   5.886   2.279
 6473SOL     OW20317   1.884   1.371   4.021
 6473SOL    HW120318   1.800   1.425   4.027
 6473SOL    HW220319   1.878   1.309   3.944
 6474SOL     OW20320   3.690   5.545   4.499
 6474SOL    HW120321   3.741   5.494   4.430
 6474SOL    HW220322   3.662   5.633   4.461
 6475SOL     OW20323   5.523   5.319   3.239
 6475SOL    HW120324   5.603   5.260   3.224
 6475SOL    HW220325   5.488   5.349   3.151
 6476SOL     OW20326   4.279   1.969   6.415
 6476SOL    HW120327   4.329   1.906   6.474
 6476SOL    HW220328   4.242   2.044   6.470
 6477SOL     OW20329   0.123   6.122   1.118
 6477SOL    HW120330   0.106   6.082   1.208
 6477SOL    HW220331   0.139   6.220   1.127
 6478SOL     OW20332   2.978   5.591   1.855
 6478SOL    HW120333   3.060   5.649   1.854
 6478SOL    HW220334   2.918   5.617   1.780
 6479SOL     OW20335   3.310   5.892   4.079
 6479SOL    HW120336   3.235   5.867   4.018
 6479SOL    HW220337   3.335   5.988   4.063
 6480SOL     OW20338   3.010   1.409   6.452
 6480SOL    HW120339   3.047   1.354   6.377
 6480SOL    HW220340   2.982   1.348   6.527
 6481SOL     OW20341   3.336   2.529   1.689
 6481SOL    HW120342   3.330   2.621   1.728
 6481SOL    HW220343   3.251   2.480   1.704
 6482SOL     OW20344   6.913   3.256   4.969
 6482SOL    HW120345   6.949   3.290   4.883
 6482SOL    HW220346   6.981   3.198   5.014
 6483SOL     OW20347   1.409   5.455   4.521
 6483SOL    HW120348   1.359   5.450   4.434
 6483SOL    HW220349   1.345   5.471   4.596
 6484SOL     OW20350   2.602   0.844   3.717
 6484SOL    HW120351   2.541   0.790   3.659
 6484SOL    HW220352   2.670   0.891   3.660
 6485SOL     OW20353   1.873   6.412   4.767
 6485SOL    HW120354   1.920   6.356   4.835
 6485SOL    HW220355   1.774   6.404   4.780
 6486SOL     OW20356   1.421   5.258   3.398
 6486SOL    HW120357   1.401   5.352   3.372
 6486SOL    HW220358   1.500   5.224   3.347
 6487SOL     OW20359   0.573   5.262   4.312
 6487SOL    HW120360   0.497   5.198   4.306
 6487SOL    HW220361   0.554   5.331   4.382
 6488SOL     OW20362   4.897   5.794   4.281
 6488SOL    HW120363   4.865   5.748   4.364
 6488SOL    HW220364   4.833   5.777   4.207
 6489SOL     OW20365   3.902   3.293   6.361
 6489SOL    HW120366   3.805   3.275   6.375
 6489SOL    HW220367   3.923   3.294   6.263
 6490SOL     OW20368   1.705   1.646   0.016
 6490SOL    HW120369   1.732   1.742   0.018
 6490SOL    HW220370   1.776   1.590   0.060
 6491SOL     OW20371   1.652   6.925   0.995
 6491SOL    HW120372   1.685   6.840   0.954
 6491SOL    HW220373   1.729   6.973   1.038
 6492SOL     OW20374   3.144   4.043   4.691
 6492SOL    HW120375   3.090   4.011   4.769
 6492SOL    HW220376   3.192   3.966   4.649
 6493SOL     OW20377   1.416   4.594   6.289
 6493SOL    HW120378   1.447   4.618   6.381
 6493SOL    HW220379   1.444   4.500   6.268
 6494SOL     OW20380   5.808   6.400   2.032
 6494SOL    HW120381   5.788   6.359   1.943
 6494SOL    HW220382   5.898   6.444   2.029
 6495SOL     OW20383   0.070   0.055   3.827
 6495SOL    HW120384   0.039   0.065   3.922
 6495SOL    HW220385   0.161   0.096   3.818
 6496SOL     OW20386   4.706   6.947   2.283
 6496SOL    HW120387   4.767   7.024   2.303
 6496SOL    HW220388   4.618   6.981   2.252
 6497SOL     OW20389   0.360   1.458   0.839
 6497SOL    HW120390   0.314   1.370   0.834
 6497SOL    HW220391   0.447   1.448   0.887
 6498SOL     OW20392   0.864   4.301   4.043
 6498SOL    HW120393   0.886   4.391   4.007
 6498SOL    HW220394   0.772   4.274   4.013
 6499SOL     OW20395   6.271   4.133   4.295
 6499SOL    HW120396   6.211   4.091   4.226
 6499SOL    HW220397   6.342   4.068   4.321
 6500SOL     OW20398   0.928   3.413   2.454
 6500SOL    HW120399   0.948   3.410   2.552
 6500SOL    HW220400   1.004   3.372   2.404
 6501SOL     OW20401   6.577   2.073   0.880
 6501SOL    HW120402   6.520   1.993   0.897
 6501SOL    HW220403   6.634   2.090   0.961
 6502SOL     OW20404   5.837   3.831   1.623
 6502SOL    HW120405   5.873   3.781   1.544
 6502SOL    HW220406   5.873   3.791   1.707
 6503SOL     OW20407   6.619   2.987   5.633
 6503SOL    HW120408   6.674   3.070   5.617
 6503SOL    HW220409   6.623   2.962   5.729
 6504SOL     OW20410   4.615   6.745   6.391
 6504SOL    HW120411   4.666   6.828   6.369
 6504SOL    HW220412   4.541   6.767   6.454
 6505SOL     OW20413   5.526   6.393   6.908
 6505SOL    HW120414   5.497   6.363   6.817
 6505SOL    HW220415   5.617   6.433   6.902
 6506SOL     OW20416   0.207   2.949   3.428
 6506SOL    HW120417   0.190   2.857   3.464
 6506SOL    HW220418   0.249   2.942   3.338
 6507SOL     OW20419   3.044   5.639   6.235
 6507SOL    HW120420   3.041   5.724   6.182
 6507SOL    HW220421   3.086   5.567   6.179
 6508SOL     OW20422   1.156   6.814   1.459
 6508SOL    HW120423   1.068   6.771   1.438
 6508SOL    HW220424   1.213   6.750   1.510
 6509SOL     OW20425   3.323   1.664   5.342
 6509SOL    HW120426   3.370   1.584   5.380
 6509SOL    HW220427   3.301   1.727   5.417
 6510SOL     OW20428   4.148   5.760   5.717
 6510SOL    HW120429   4.104   5.693   5.658
 6510SOL    HW220430   4.246   5.739   5.723
 6511SOL     OW20431   3.862   1.602   6.313
 6511SOL    HW120432   3.799   1.680   6.305
 6511SOL    HW220433   3.955   1.636   6.326
 6512SOL     OW20434   2.973   0.915   1.539
 6512SOL    HW120435   3.004   1.005   1.508
 6512SOL    HW220436   2.893   0.927   1.599
 6513SOL     OW20437   2.986   5.535   4.873
 6513SOL    HW120438   3.045   5.562   4.798
 6513SOL    HW220439   2.995   5.437   4.890
 6514SOL     OW20440   5.525   0.590   5.122
 6514SOL    HW120441   5.572   0.509   5.087
 6514SOL    HW220442   5.519   0.586   5.221
 6515SOL     OW20443   2.334   5.098   2.209
 6515SOL    HW120444   2.311   5.127   2.302
 6515SOL    HW220445   2.273   5.024   2.181
 6516SOL     OW20446   0.508   3.153   1.379
 6516SOL    HW120447   0.588   3.094   1.382
 6516SOL    HW220448   0.457   3.144   1.465
 6517SOL     OW20449   6.965   2.770   6.496
 6517SOL    HW120450   7.018   2.833   6.554
 6517SOL    HW220451   6.941   2.689   6.548
 6518SOL     OW20452   0.694   1.177   2.823
 6518SOL    HW120453   0.699   1.274   2.850
 6518SOL    HW220454   0.598   1.147   2.827
 6519SOL     OW20455   0.986   1.218   3.286
 6519SOL    HW120456   0.907   1.165   3.319
 6519SOL    HW220457   1.013   1.285   3.355
 6520SOL     OW20458   0.019   5.637   6.849
 6520SOL    HW120459   0.055   5.711   6.792
 6520SOL    HW220460   7.002   5.569   6.790
 6521SOL     OW20461   1.386   3.072   3.727
 6521SOL    HW120462   1.483   3.054   3.746
 6521SOL    HW220463   1.369   3.170   3.731
 6522SOL     OW20464   2.758   3.755   5.579
 6522SOL    HW120465   2.748   3.804   5.493
 6522SOL    HW220466   2.817   3.807   5.640
 6523SOL     OW20467   6.032   0.593   0.304
 6523SOL    HW120468   6.033   0.516   0.368
 6523SOL    HW220469   5.985   0.565   0.220
 6524SOL     OW20470   2.649   2.011   2.007
 6524SOL    HW120471   2.705   2.068   1.947
 6524SOL    HW220472   2.558   2.052   2.016
 6525SOL     OW20473   1.396   5.489   3.832
 6525SOL    HW120474   1.390   5.470   3.930
 6525SOL    HW220475   1.309   5.468   3.789
 6526SOL     OW20476   6.931   6.992   0.752
 6526SOL    HW120477   6.933   0.029   0.678
 6526SOL    HW220478   6.953   0.009   0.839
 6527SOL     OW20479   0.646   2.449   1.048
 6527SOL    HW120480   0.684   2.419   0.961
 6527SOL    HW220481   0.720   2.459   1.115
 6528SOL     OW20482   6.309   1.232   5.946
 6528SOL    HW120483   6.399   1.273   5.962
 6528SOL    HW220484   6.258   1.288   5.881
 6529SOL     OW20485   6.915   1.607   2.460
 6529SOL    HW120486   6.841   1.668   2.487
 6529SOL    HW220487   6.879   1.536   2.400
 6530SOL     OW20488   0.940   2.544   2.391
 6530SOL    HW120489   0.862   2.557   2.329
 6530SOL    HW220490   0.955   2.628   2.443
 6531SOL     OW20491   4.022   3.263   5.754
 6531SOL    HW120492   4.054   3.280   5.661
 6531SOL    HW220493   4.033   3.346   5.809
 6532SOL     OW20494   1.424   0.828   1.184
 6532SOL    HW120495   1.384   0.899   1.241
 6532SOL    HW220496   1.360   0.803   1.112
 6533SOL     OW20497   4.608   4.038   6.838
 6533SOL    HW120498   4.694   4.015   6.792
 6533SOL    HW220499   4.575   3.958   6.888
 6534SOL     OW20500   5.991   4.596   2.104
 6534SOL    HW120501   5.904   4.577   2.151
 6534SOL    HW220502   6.046   4.658   2.159
 6535SOL     OW20503   5.725   3.623   4.649
 6535SOL    HW120504   5.710   3.606   4.552
 6535SOL    HW220505   5.812   3.581   4.677
 6536SOL     OW20506   0.386   2.166   5.594
 6536SOL    HW120507   0.330   2.084   5.584
 6536SOL    HW220508   0.481   2.140   5.614
 6537SOL     OW20509   6.240   4.518   5.266
 6537SOL    HW120510   6.253   4.615   5.251
 6537SOL    HW220511   6.327   4.475   5.290
 6538SOL     OW20512   2.086   3.925   5.082
 6538SOL    HW120513   2.110   3.830   5.063
 6538SOL    HW220514   2.159   3.985   5.048
 6539SOL     OW20515   6.071   0.910   6.742
 6539SOL    HW120516   6.169   0.895   6.729
 6539SOL    HW220517   6.048   0.896   6.838
 6540SOL     OW20518   4.020   2.634   5.676
 6540SOL    HW120519   3.944   2.628   5.741
 6540SOL    HW220520   3.985   2.655   5.585
 6541SOL     OW20521   5.972   1.687   5.634
 6541SOL    HW120522   5.917   1.606   5.654
 6541SOL    HW220523   6.065   1.660   5.610
 6542SOL     OW20524   1.403   3.439   4.417
 6542SOL    HW120525   1.467   3.391   4.478
 6542SOL    HW220526   1.410   3.537   4.433
 6543SOL     OW20527   3.569   2.065   4.765
 6543SOL    HW120528   3.499   2.137   4.767
 6543SOL    HW220529   3.639   2.089   4.698
 6544SOL     OW20530   0.460   6.950   1.760
 6544SOL    HW120531   0.444   0.003   1.815
 6544SOL    HW220532   0.435   6.968   1.665
 6545SOL     OW20533   4.526   0.081   1.271
 6545SOL    HW120534   4.492   0.084   1.177
 6545SOL    HW220535   4.479   0.008   1.321
 6546SOL     OW20536   5.168   4.767   6.525
 6546SOL    HW120537   5.138   4.815   6.608
 6546SOL    HW220538   5.087   4.734   6.476
 6547SOL     OW20539   5.215   6.604   6.708
 6547SOL    HW120540   5.194   6.522   6.760
 6547SOL    HW220541   5.254   6.579   6.619
 6548SOL     OW20542   1.102   2.897   6.128
 6548SOL    HW120543   1.180   2.843   6.098
 6548SOL    HW220544   1.082   2.967   6.059
 6549SOL     OW20545   5.056   6.958   2.116
 6549SOL    HW120546   5.146   7.002   2.128
 6549SOL    HW220547   5.031   6.912   2.201
 6550SOL     OW20548   6.541   0.017   3.096
 6550SOL    HW120549   6.558   6.950   3.119
 6550SOL    HW220550   6.571   0.076   3.171
 6551SOL     OW20551   3.123   3.475   1.668
 6551SOL    HW120552   3.159   3.567   1.662
 6551SOL    HW220553   3.079   3.462   1.758
 6552SOL     OW20554   1.933   6.748   0.335
 6552SOL    HW120555   2.011   6.769   0.277
 6552SOL    HW220556   1.892   6.833   0.369
 6553SOL     OW20557   6.903   1.474   2.750
 6553SOL    HW120558   6.930   1.570   2.740
 6553SOL    HW220559   6.841   1.448   2.677
 6554SOL     OW20560   3.066   1.023   4.330
 6554SOL    HW120561   3.000   0.965   4.283
 6554SOL    HW220562   3.158   0.984   4.320
 6555SOL     OW20563   6.521   2.119   4.600
 6555SOL    HW120564   6.458   2.196   4.594
 6555SOL    HW220565   6.613   2.151   4.625
 6556SOL     OW20566   5.776   3.235   2.997
 6556SOL    HW120567   5.855   3.280   2.956
 6556SOL    HW220568   5.792   3.137   3.002
 6557SOL     OW20569   1.378   6.699   2.363
 6557SOL    HW120570   1.315   6.739   2.297
 6557SOL    HW220571   1.333   6.622   2.409
 6558SOL     OW20572   5.850   5.232   0.371
 6558SOL    HW120573   5.932   5.288   0.357
 6558SOL    HW220574   5.786   5.279   0.431
 6559SOL     OW20575   0.054   3.842   6.655
 6559SOL    HW120576   0.135   3.896   6.680
 6559SOL    HW220577   7.000   3.893   6.679
 6560SOL     OW20578   4.309   4.864   0.312
 6560SOL    HW120579   4.351   4.785   0.356
 6560SOL    HW220580   4.358   4.947   0.339
 6561SOL     OW20581   3.887   5.065   0.176
 6561SOL    HW120582   3.877   5.126   0.254
 6561SOL    HW220583   3.970   5.089   0.125
 6562SOL     OW20584   5.322   2.187   0.899
 6562SOL    HW120585   5.279   2.228   0.819
 6562SOL    HW220586   5.338   2.257   0.968
 6563SOL     OW20587   5.318   0.060   5.693
 6563SOL    HW120588   5.384   0.042   5.765
 6563SOL    HW220589   5.282   0.153   5.702
 6564SOL     OW20590   6.739   3.785   2.284
 6564SOL    HW120591   6.664   3.736   2.327
 6564SOL    HW220592   6.825   3.735   2.297
 6565SOL     OW20593   6.390   6.823   2.420
 6565SOL    HW120594   6.298   6.827   2.381
 6565SOL    HW220595   6.418   6.914   2.450
 6566SOL     OW20596   3.550   5.536   2.199
 6566SOL    HW120597   3.462   5.490   2.208
 6566SOL    HW220598   3.553   5.615   2.260
 6567SOL     OW20599   4.517   0.700   1.488
 6567SOL    HW120600   4.514   0.772   1.418
 6567SOL    HW220601   4.590   0.636   1.466
 6568SOL     OW20602   4.071   1.483   2.096
 6568SOL    HW120603   4.039   1.525   2.012
 6568SOL    HW220604   3.993   1.445   2.146
 6569SOL     OW20605   0.992   3.053   5.919
 6569SOL    HW120606   0.935   3.135   5.916
 6569SOL    HW220607   1.060   3.058   5.845
 6570SOL     OW20608   3.958   7.016   2.260
 6570SOL    HW120609   3.872   0.004   2.308
 6570SOL    HW220610   3.942   6.955   2.183
 6571SOL     OW20611   2.396   4.788   3.566
 6571SOL    HW120612   2.441   4.867   3.607
 6571SOL    HW220613   2.465   4.718   3.545
 6572SOL     OW20614   0.569   4.615   4.148
 6572SOL    HW120615   0.593   4.596   4.053
 6572SOL    HW220616   0.632   4.566   4.208
 6573SOL     OW20617   1.661   0.818   3.031
 6573SOL    HW120618   1.573   0.853   3.062
 6573SOL    HW220619   1.722   0.808   3.110
 6574SOL     OW20620   1.927   6.514   3.383
 6574SOL    HW120621   1.858   6.580   3.351
 6574SOL    HW220622   2.015   6.561   3.392
 6575SOL     OW20623   0.139   0.166   2.596
 6575SOL    HW120624   0.218   0.105   2.587
 6575SOL    HW220625   0.060   0.125   2.550
 6576SOL     OW20626   3.681   4.893   0.134
 6576SOL    HW120627   3.715   4.824   0.198
 6576SOL    HW220628   3.745   4.970   0.132
 6577SOL     OW20629   1.993   2.701   3.657
 6577SOL    HW120630   2.038   2.780   3.615
 6577SOL    HW220631   1.904   2.729   3.693
 6578SOL     OW20632   0.974   5.178   1.218
 6578SOL    HW120633   1.055   5.233   1.241
 6578SOL    HW220634   0.998   5.081   1.221
 6579SOL     OW20635   0.080   1.391   3.977
 6579SOL    HW120636   0.039   1.388   4.069
 6579SOL    HW220637   0.116   1.301   3.954
 6580SOL     OW20638   1.238   0.390   0.388
 6580SOL    HW120639   1.226   0.306   0.441
 6580SOL    HW220640   1.241   0.367   0.290
 6581SOL     OW20641   1.679   1.561   0.587
 6581SOL    HW120642   1.637   1.471   0.596
 6581SOL    HW220643   1.746   1.575   0.660
 6582SOL     OW20644   6.629   0.524   2.880
 6582SOL    HW120645   6.632   0.451   2.812
 6582SOL    HW220646   6.658   0.488   2.969
 6583SOL     OW20647   4.334   0.069   5.994
 6583SOL    HW120648   4.408   0.113   6.045
 6583SOL    HW220649   4.246   0.109   6.022
 6584SOL     OW20650   4.197   2.481   0.895
 6584SOL    HW120651   4.125   2.541   0.859
 6584SOL    HW220652   4.157   2.392   0.918
 6585SOL     OW20653   6.396   0.018   0.530
 6585SOL    HW120654   6.394   6.948   0.546
 6585SOL    HW220655   6.441   0.064   0.607
 6586SOL     OW20656   6.402   2.294   6.317
 6586SOL    HW120657   6.316   2.326   6.354
 6586SOL    HW220658   6.423   2.344   6.233
 6587SOL     OW20659   1.580   4.183   5.696
 6587SOL    HW120660   1.555   4.207   5.602
 6587SOL    HW220661   1.678   4.165   5.701
 6588SOL     OW20662   0.364   3.196   0.637
 6588SOL    HW120663   0.278   3.215   0.686
 6588SOL    HW220664   0.363   3.240   0.548
 6589SOL     OW20665   6.157   1.018   1.654
 6589SOL    HW120666   6.256   1.005   1.648
 6589SOL    HW220667   6.116   0.999   1.564
 6590SOL     OW20668   0.839   0.625   4.938
 6590SOL    HW120669   0.750   0.663   4.963
 6590SOL    HW220670   0.828   0.529   4.912
 6591SOL     OW20671   5.159   5.699   4.196
 6591SOL    HW120672   5.078   5.726   4.249
 6591SOL    HW220673   5.143   5.609   4.155
 6592SOL     OW20674   4.772   0.162   3.035
 6592SOL    HW120675   4.673   0.172   3.032
 6592SOL    HW220676   4.814   0.242   2.992
 6593SOL     OW20677   2.830   2.174   2.277
 6593SOL    HW120678   2.786   2.217   2.356
 6593SOL    HW220679   2.834   2.240   2.201
 6594SOL     OW20680   3.544   1.670   5.934
 6594SOL    HW120681   3.497   1.750   5.970
 6594SOL    HW220682   3.569   1.686   5.838
 6595SOL     OW20683   2.157   2.505   4.524
 6595SOL    HW120684   2.200   2.590   4.554
 6595SOL    HW220685   2.082   2.482   4.586
 6596SOL     OW20686   5.013   5.825   3.099
 6596SOL    HW120687   4.928   5.811   3.149
 6596SOL    HW220688   5.005   5.785   3.007
 6597SOL     OW20689   1.255   5.326   1.811
 6597SOL    HW120690   1.248   5.362   1.904
 6597SOL    HW220691   1.165   5.331   1.767
 6598SOL     OW20692   1.939   4.433   3.837
 6598SOL    HW120693   1.872   4.401   3.770
 6598SOL    HW220694   2.017   4.370   3.839
 6599SOL     OW20695   5.839   5.759   6.537
 6599SOL    HW120696   5.859   5.850   6.501
 6599SOL    HW220697   5.744   5.755   6.567
 6600SOL     OW20698   4.953   0.610   5.304
 6600SOL    HW120699   4.960   0.598   5.205
 6600SOL    HW220700   4.877   0.555   5.339
 6601SOL     OW20701   0.883   2.825   3.142
 6601SOL    HW120702   0.815   2.898   3.150
 6601SOL    HW220703   0.971   2.857   3.176
 6602SOL     OW20704   2.655   0.261   1.333
 6602SOL    HW120705   2.698   0.218   1.254
 6602SOL    HW220706   2.557   0.241   1.333
 6603SOL     OW20707   0.716   3.238   4.341
 6603SOL    HW120708   0.810   3.212   4.320
 6603SOL    HW220709   0.674   3.279   4.261
 6604SOL     OW20710   2.334   0.321   1.882
 6604SOL    HW120711   2.261   0.321   1.951
 6604SOL    HW220712   2.392   0.401   1.895
 6605SOL     OW20713   5.770   5.634   2.013
 6605SOL    HW120714   5.759   5.634   1.913
 6605SOL    HW220715   5.846   5.694   2.038
 6606SOL     OW20716   1.447   3.706   2.973
 6606SOL    HW120717   1.448   3.758   2.888
 6606SOL    HW220718   1.445   3.608   2.952
 6607SOL     OW20719   6.007   4.898   4.213
 6607SOL    HW120720   6.035   4.875   4.306
 6607SOL    HW220721   6.004   4.998   4.204
 6608SOL     OW20722   6.820   6.991   6.950
 6608SOL    HW120723   6.886   0.037   6.948
 6608SOL    HW220724   6.786   6.974   6.858
 6609SOL     OW20725   4.778   1.769   5.888
 6609SOL    HW120726   4.806   1.679   5.921
 6609SOL    HW220727   4.751   1.826   5.966
 6610SOL     OW20728   2.440   5.950   0.666
 6610SOL    HW120729   2.454   5.875   0.602
 6610SOL    HW220730   2.360   5.931   0.724
 6611SOL     OW20731   4.945   2.449   3.671
 6611SOL    HW120732   5.029   2.400   3.648
 6611SOL    HW220733   4.929   2.443   3.770
 6612SOL     OW20734   6.165   1.956   6.651
 6612SOL    HW120735   6.228   2.019   6.696
 6612SOL    HW220736   6.202   1.930   6.561
 6613SOL     OW20737   5.419   0.669   6.606
 6613SOL    HW120738   5.366   0.755   6.606
 6613SOL    HW220739   5.479   0.668   6.686
 6614SOL     OW20740   4.918   5.833   1.453
 6614SOL    HW120741   4.893   5.891   1.530
 6614SOL    HW220742   4.901   5.882   1.367
 6615SOL     OW20743   3.014   5.564   0.496
 6615SOL    HW120744   3.082   5.631   0.470
 6615SOL    HW220745   3.059   5.478   0.520
 6616SOL     OW20746   4.117   0.454   6.163
 6616SOL    HW120747   4.046   0.479   6.096
 6616SOL    HW220748   4.075   0.403   6.238
 6617SOL     OW20749   3.952   0.142   3.501
 6617SOL    HW120750   3.960   0.196   3.585
 6617SOL    HW220751   3.856   0.129   3.479
 6618SOL     OW20752   0.711   1.453   3.256
 6618SOL    HW120753   0.681   1.545   3.230
 6618SOL    HW220754   0.791   1.459   3.315
 6619SOL     OW20755   4.206   0.228   3.949
 6619SOL    HW120756   4.122   0.188   3.987
 6619SOL    HW220757   4.244   0.165   3.881
 6620SOL     OW20758   1.463   3.639   3.495
 6620SOL    HW120759   1.394   3.637   3.568
 6620SOL    HW220760   1.518   3.722   3.504
 6621SOL     OW20761   3.549   3.239   4.666
 6621SOL    HW120762   3.525   3.244   4.763
 6621SOL    HW220763   3.645   3.214   4.656
 6622SOL     OW20764   6.006   5.982   1.192
 6622SOL    HW120765   5.967   5.920   1.125
 6622SOL    HW220766   6.015   5.936   1.280
 6623SOL     OW20767   3.506   4.138   5.031
 6623SOL    HW120768   3.431   4.177   4.977
 6623SOL    HW220769   3.488   4.040   5.047
 6624SOL     OW20770   0.937   2.568   4.810
 6624SOL    HW120771   0.973   2.524   4.727
 6624SOL    HW220772   0.934   2.667   4.797
 6625SOL     OW20773   6.237   2.880   5.675
 6625SOL    HW120774   6.153   2.829   5.692
 6625SOL    HW220775   6.220   2.951   5.607
 6626SOL     OW20776   2.844   0.241   4.731
 6626SOL    HW120777   2.923   0.189   4.696
 6626SOL    HW220778   2.849   0.245   4.831
 6627SOL     OW20779   1.125   6.063   4.378
 6627SOL    HW120780   1.106   6.150   4.332
 6627SOL    HW220781   1.128   6.078   4.477
 6628SOL     OW20782   5.278   5.976   3.935
 6628SOL    HW120783   5.208   5.983   3.863
 6628SOL    HW220784   5.362   5.938   3.896
 6629SOL     OW20785   5.088   5.763   6.593
 6629SOL    HW120786   5.136   5.675   6.602
 6629SOL    HW220787   5.075   5.802   6.684
 6630SOL     OW20788   3.114   1.149   2.083
 6630SOL    HW120789   3.196   1.109   2.122
 6630SOL    HW220790   3.071   1.209   2.150
 6631SOL     OW20791   1.042   5.339   5.398
 6631SOL    HW120792   1.025   5.344   5.299
 6631SOL    HW220793   1.125   5.285   5.414
 6632SOL     OW20794   1.037   0.492   1.153
 6632SOL    HW120795   1.090   0.459   1.075
 6632SOL    HW220796   1.093   0.488   1.236
 6633SOL     OW20797   3.015   5.056   6.047
 6633SOL    HW120798   3.031   4.969   6.002
 6633SOL    HW220799   3.029   5.131   5.982
 6634SOL     OW20800   5.315   2.009   5.729
 6634SOL    HW120801   5.276   2.098   5.706
 6634SOL    HW220802   5.248   1.938   5.710
 6635SOL     OW20803   4.765   4.213   2.466
 6635SOL    HW120804   4.709   4.290   2.496
 6635SOL    HW220805   4.839   4.197   2.532
 6636SOL     OW20806   3.044   0.583   2.219
 6636SOL    HW120807   2.994   0.623   2.142
 6636SOL    HW220808   3.111   0.518   2.185
 6637SOL     OW20809   2.100   0.666   0.890
 6637SOL    HW120810   2.054   0.613   0.820
 6637SOL    HW220811   2.033   0.701   0.956
 6638SOL     OW20812   2.977   3.783   3.332
 6638SOL    HW120813   2.898   3.722   3.330
 6638SOL    HW220814   3.015   3.786   3.424
 6639SOL     OW20815   4.118   2.811   0.380
 6639SOL    HW120816   4.118   2.876   0.456
 6639SOL    HW220817   4.051   2.839   0.312
 6640SOL     OW20818   0.197   2.492   5.396
 6640SOL    HW120819   0.171   2.520   5.303
 6640SOL    HW220820   0.240   2.402   5.393
 6641SOL     OW20821   4.139   1.856   1.089
 6641SOL    HW120822   4.127   1.779   1.027
 6641SOL    HW220823   4.227   1.848   1.136
 6642SOL     OW20824   2.152   5.229   0.466
 6642SOL    HW120825   2.155   5.182   0.378
 6642SOL    HW220826   2.215   5.184   0.530
 6643SOL     OW20827   5.659   6.809   0.147
 6643SOL    HW120828   5.660   6.709   0.142
 6643SOL    HW220829   5.626   6.846   0.060
 6644SOL     OW20830   1.704   6.480   2.839
 6644SOL    HW120831   1.703   6.574   2.873
 6644SOL    HW220832   1.611   6.452   2.814
 6645SOL     OW20833   6.181   2.714   0.903
 6645SOL    HW120834   6.082   2.702   0.900
 6645SOL    HW220835   6.225   2.647   0.843
 6646SOL     OW20836   3.970   0.883   0.068
 6646SOL    HW120837   4.036   0.810   0.054
 6646SOL    HW220838   3.881   0.855   0.031
 6647SOL     OW20839   4.767   5.081   1.433
 6647SOL    HW120840   4.729   5.167   1.398
 6647SOL    HW220841   4.714   5.052   1.512
 6648SOL     OW20842   3.419   6.310   4.537
 6648SOL    HW120843   3.412   6.407   4.511
 6648SOL    HW220844   3.329   6.275   4.560
 6649SOL     OW20845   5.728   2.866   6.513
 6649SOL    HW120846   5.675   2.801   6.567
 6649SOL    HW220847   5.825   2.852   6.530
 6650SOL     OW20848   3.923   0.952   5.238
 6650SOL    HW120849   3.909   0.864   5.283
 6650SOL    HW220850   3.995   0.944   5.170
 6651SOL     OW20851   1.258   1.536   0.301
 6651SOL    HW120852   1.356   1.520   0.293
 6651SOL    HW220853   1.242   1.609   0.367
 6652SOL     OW20854   0.989   4.495   0.085
 6652SOL    HW120855   0.905   4.449   0.113
 6652SOL    HW220856   1.063   4.469   0.147
 6653SOL     OW20857   4.952   3.065   0.253
 6653SOL    HW120858   4.899   3.126   0.194
 6653SOL    HW220859   4.981   2.985   0.201
 6654SOL     OW20860   7.011   4.826   2.794
 6654SOL    HW120861   0.036   4.749   2.761
 6654SOL    HW220862   7.016   4.901   2.728
 6655SOL     OW20863   6.968   5.776   2.204
 6655SOL    HW120864   6.980   5.687   2.248
 6655SOL    HW220865   6.871   5.790   2.182
 6656SOL     OW20866   4.367   1.645   2.507
 6656SOL    HW120867   4.300   1.580   2.545
 6656SOL    HW220868   4.381   1.719   2.572
 6657SOL     OW20869   5.269   2.185   4.930
 6657SOL    HW120870   5.233   2.270   4.892
 6657SOL    HW220871   5.369   2.186   4.923
 6658SOL     OW20872   6.360   0.550   5.512
 6658SOL    HW120873   6.262   0.535   5.514
 6658SOL    HW220874   6.404   0.476   5.461
 6659SOL     OW20875   1.531   4.916   1.705
 6659SOL    HW120876   1.613   4.886   1.657
 6659SOL    HW220877   1.534   5.015   1.716
 6660SOL     OW20878   1.724   5.435   2.052
 6660SOL    HW120879   1.760   5.410   1.962
 6660SOL    HW220880   1.625   5.446   2.047
 6661SOL     OW20881   2.787   6.799   4.266
 6661SOL    HW120882   2.698   6.777   4.304
 6661SOL    HW220883   2.805   6.740   4.187
 6662SOL     OW20884   1.916   0.218   1.497
 6662SOL    HW120885   1.849   0.159   1.542
 6662SOL    HW220886   1.881   0.312   1.494
 6663SOL     OW20887   1.283   5.941   5.949
 6663SOL    HW120888   1.302   5.876   5.875
 6663SOL    HW220889   1.191   5.924   5.984
 6664SOL     OW20890   2.052   0.308   1.749
 6664SOL    HW120891   2.144   0.346   1.762
 6664SOL    HW220892   2.046   0.262   1.661
 6665SOL     OW20893   2.807   6.967   5.763
 6665SOL    HW120894   2.790   6.868   5.765
 6665SOL    HW220895   2.810   7.002   5.857
 6666SOL     OW20896   6.583   5.601   4.913
 6666SOL    HW120897   6.495   5.647   4.918
 6666SOL    HW220898   6.590   5.549   4.828
 6667SOL     OW20899   0.656   6.553   5.765
 6667SOL    HW120900   0.751   6.532   5.791
 6667SOL    HW220901   0.605   6.468   5.756
 6668SOL     OW20902   6.766   6.095   1.591
 6668SOL    HW120903   6.797   6.000   1.587
 6668SOL    HW220904   6.681   6.104   1.538
 6669SOL     OW20905   2.952   1.592   1.783
 6669SOL    HW120906   2.917   1.539   1.860
 6669SOL    HW220907   3.023   1.540   1.736
 6670SOL     OW20908   2.842   1.606   0.143
 6670SOL    HW120909   2.921   1.616   0.081
 6670SOL    HW220910   2.820   1.695   0.182
 6671SOL     OW20911   4.465   6.527   0.907
 6671SOL    HW120912   4.454   6.573   0.819
 6671SOL    HW220913   4.534   6.575   0.962
 6672SOL     OW20914   1.543   2.517   0.408
 6672SOL    HW120915   1.613   2.587   0.394
 6672SOL    HW220916   1.522   2.510   0.506
 6673SOL     OW20917   5.349   3.652   4.425
 6673SOL    HW120918   5.332   3.681   4.519
 6673SOL    HW220919   5.281   3.583   4.399
 6674SOL     OW20920   0.547   2.768   6.696
 6674SOL    HW120921   0.535   2.774   6.597
 6674SOL    HW220922   0.491   2.837   6.741
 6675SOL     OW20923   4.410   2.348   0.141
 6675SOL    HW120924   4.366   2.437   0.150
 6675SOL    HW220925   4.376   2.302   0.058
 6676SOL     OW20926   1.704   4.259   2.757
 6676SOL    HW120927   1.676   4.269   2.661
 6676SOL    HW220928   1.677   4.169   2.790
 6677SOL     OW20929   0.732   0.901   6.799
 6677SOL    HW120930   0.807   0.932   6.857
 6677SOL    HW220931   0.650   0.955   6.819
 6678SOL     OW20932   1.757   3.732   0.584
 6678SOL    HW120933   1.666   3.704   0.617
 6678SOL    HW220934   1.826   3.671   0.623
 6679SOL     OW20935   2.890   0.718   3.770
 6679SOL    HW120936   2.886   0.753   3.676
 6679SOL    HW220937   2.967   0.761   3.818
 6680SOL     OW20938   4.843   6.580   0.148
 6680SOL    HW120939   4.842   6.534   0.236
 6680SOL    HW220940   4.785   6.661   0.152
 6681SOL     OW20941   4.822   5.318   1.814
 6681SOL    HW120942   4.874   5.359   1.889
 6681SOL    HW220943   4.881   5.252   1.765
 6682SOL     OW20944   2.603   4.681   6.803
 6682SOL    HW120945   2.529   4.628   6.844
 6682SOL    HW220946   2.688   4.663   6.852
 6683SOL     OW20947   6.264   3.758   6.516
 6683SOL    HW120948   6.315   3.761   6.602
 6683SOL    HW220949   6.263   3.849   6.475
 6684SOL     OW20950   3.403   0.022   1.821
 6684SOL    HW120951   3.407   0.075   1.736
 6684SOL    HW220952   3.317   0.042   1.869
 6685SOL     OW20953   3.974   3.064   6.539
 6685SOL    HW120954   4.074   3.067   6.541
 6685SOL    HW220955   3.942   3.120   6.463
 6686SOL     OW20956   6.293   5.370   3.275
 6686SOL    HW120957   6.197   5.377   3.250
 6686SOL    HW220958   6.328   5.461   3.300
 6687SOL     OW20959   6.782   2.368   1.238
 6687SOL    HW120960   6.849   2.386   1.310
 6687SOL    HW220961   6.813   2.409   1.152
 6688SOL     OW20962   4.218   4.314   0.710
 6688SOL    HW120963   4.167   4.388   0.754
 6688SOL    HW220964   4.219   4.234   0.770
 6689SOL     OW20965   3.986   4.024   5.905
 6689SOL    HW120966   3.985   4.066   5.814
 6689SOL    HW220967   3.981   4.096   5.974
 6690SOL     OW20968   1.242   0.586   6.416
 6690SOL    HW120969   1.272   0.678   6.441
 6690SOL    HW220970   1.245   0.575   6.317
 6691SOL     OW20971   1.601   0.639   2.438
 6691SOL    HW120972   1.592   0.554   2.386
 6691SOL    HW220973   1.518   0.655   2.492
 6692SOL     OW20974   4.089   4.359   1.685
 6692SOL    HW120975   4.038   4.291   1.631
 6692SOL    HW220976   4.187   4.345   1.672
 6693SOL     OW20977   4.690   1.695   4.713
 6693SOL    HW120978   4.771   1.653   4.672
 6693SOL    HW220979   4.639   1.627   4.765
 6694SOL     OW20980   3.751   5.406   1.362
 6694SOL    HW120981   3.660   5.446   1.350
 6694SOL    HW220982   3.791   5.442   1.446
 6695SOL     OW20983   2.842   2.207   0.112
 6695SOL    HW120984   2.816   2.151   0.191
 6695SOL    HW220985   2.874   2.148   0.038
 6696SOL     OW20986   3.976   3.964   3.757
 6696SOL    HW120987   3.990   4.062   3.740
 6696SOL    HW220988   3.882   3.940   3.733
 6697SOL     OW20989   5.372   2.378   2.895
 6697SOL    HW120990   5.420   2.441   2.958
 6697SOL    HW220991   5.278   2.367   2.925
 6698SOL     OW20992   2.948   3.396   1.423
 6698SOL    HW120993   2.856   3.357   1.411
 6698SOL    HW220994   2.961   3.424   1.518
 6699SOL     OW20995   1.702   5.543   6.018
 6699SOL    HW120996   1.801   5.535   6.024
 6699SOL    HW220997   1.678   5.631   5.977
 6700SOL     OW20998   5.832   0.486   0.717
 6700SOL    HW120999   5.858   0.444   0.803
 6700SOL    HW221000   5.739   0.523   0.724
 6701SOL     OW21001   6.166   0.316   1.552
 6701SOL    HW121002   6.121   0.286   1.636
 6701SOL    HW221003   6.235   0.248   1.525
 6702SOL     OW21004   2.114   2.251   1.229
 6702SOL    HW121005   2.213   2.248   1.213
 6702SOL    HW221006   2.097   2.267   1.326
 6703SOL     OW21007   1.292   1.182   6.644
 6703SOL    HW121008   1.357   1.230   6.703
 6703SOL    HW221009   1.285   1.229   6.556
 6704SOL     OW21010   3.529   1.238   4.314
 6704SOL    HW121011   3.613   1.193   4.283
 6704SOL    HW221012   3.522   1.230   4.414
 6705SOL     OW21013   5.955   3.207   1.097
 6705SOL    HW121014   5.909   3.182   1.182
 6705SOL    HW221015   5.973   3.305   1.096
 6706SOL     OW21016   1.691   5.928   1.132
 6706SOL    HW121017   1.698   5.947   1.034
 6706SOL    HW221018   1.775   5.957   1.178
 6707SOL     OW21019   5.681   0.418   2.347
 6707SOL    HW121020   5.689   0.344   2.281
 6707SOL    HW221021   5.612   0.395   2.416
 6708SOL     OW21022   6.173   4.819   1.573
 6708SOL    HW121023   6.177   4.802   1.672
 6708SOL    HW221024   6.251   4.876   1.546
 6709SOL     OW21025   0.997   4.183   2.220
 6709SOL    HW121026   0.907   4.223   2.238
 6709SOL    HW221027   0.999   4.088   2.253
 6710SOL     OW21028   4.701   1.299   2.031
 6710SOL    HW121029   4.652   1.333   1.951
 6710SOL    HW221030   4.774   1.237   2.002
 6711SOL     OW21031   4.975   6.510   6.098
 6711SOL    HW121032   4.901   6.494   6.032
 6711SOL    HW221033   4.983   6.431   6.158
 6712SOL     OW21034   6.465   3.609   0.643
 6712SOL    HW121035   6.477   3.586   0.546
 6712SOL    HW221036   6.549   3.586   0.692
 6713SOL     OW21037   1.250   0.939   3.593
 6713SOL    HW121038   1.350   0.930   3.595
 6713SOL    HW221039   1.209   0.858   3.635
 6714SOL     OW21040   5.907   1.476   0.882
 6714SOL    HW121041   5.823   1.474   0.936
 6714SOL    HW221042   5.970   1.543   0.922
 6715SOL     OW21043   1.582   0.870   1.465
 6715SOL    HW121044   1.588   0.912   1.374
 6715SOL    HW221045   1.622   0.932   1.533
 6716SOL     OW21046   6.467   5.547   2.266
 6716SOL    HW121047   6.532   5.518   2.336
 6716SOL    HW221048   6.378   5.564   2.309
 6717SOL     OW21049   2.932   2.355   6.665
 6717SOL    HW121050   2.896   2.420   6.598
 6717SOL    HW221051   2.923   2.262   6.629
 6718SOL     OW21052   4.621   1.467   1.175
 6718SOL    HW121053   4.683   1.415   1.116
 6718SOL    HW221054   4.549   1.509   1.120
 6719SOL     OW21055   1.852   7.017   0.085
 6719SOL    HW121056   1.824   0.017   0.177
 6719SOL    HW221057   1.839   6.918   0.075
 6720SOL     OW21058   3.039   0.633   5.215
 6720SOL    HW121059   3.022   0.643   5.117
 6720SOL    HW221060   3.079   0.543   5.234
 6721SOL     OW21061   0.356   0.174   0.222
 6721SOL    HW121062   0.385   0.174   0.318
 6721SOL    HW221063   0.310   0.088   0.201
 6722SOL     OW21064   0.365   2.615   0.207
 6722SOL    HW121065   0.347   2.529   0.255
 6722SOL    HW221066   0.464   2.630   0.201
 6723SOL     OW21067   2.119   0.754   6.562
 6723SOL    HW121068   2.100   0.678   6.624
 6723SOL    HW221069   2.218   0.764   6.551
 6724SOL     OW21070   2.629   2.383   6.550
 6724SOL    HW121071   2.618   2.362   6.453
 6724SOL    HW221072   2.654   2.300   6.600
 6725SOL     OW21073   5.724   2.945   3.054
 6725SOL    HW121074   5.756   2.905   3.140
 6725SOL    HW221075   5.777   2.907   2.978
 6726SOL     OW21076   0.579   1.628   4.928
 6726SOL    HW121077   0.530   1.564   4.868
 6726SOL    HW221078   0.524   1.710   4.942
 6727SOL     OW21079   1.057   4.198   5.414
 6727SOL    HW121080   1.089   4.157   5.328
 6727SOL    HW221081   1.124   4.180   5.486
 6728SOL     OW21082   4.116   2.010   3.702
 6728SOL    HW121083   4.169   2.086   3.738
 6728SOL    HW221084   4.171   1.959   3.636
 6729SOL     OW21085   6.228   2.444   0.102
 6729SOL    HW121086   6.146   2.449   0.044
 6729SOL    HW221087   6.308   2.474   0.050
 6730SOL     OW21088   1.302   0.840   1.709
 6730SOL    HW121089   1.375   0.902   1.736
 6730SOL    HW221090   1.228   0.892   1.667
 6731SOL     OW21091   1.778   6.417   1.219
 6731SOL    HW121092   1.771   6.487   1.290
 6731SOL    HW221093   1.867   6.371   1.226
 6732SOL     OW21094   5.350   4.302   4.589
 6732SOL    HW121095   5.422   4.370   4.573
 6732SOL    HW221096   5.262   4.338   4.560
 6733SOL     OW21097   3.922   5.395   6.646
 6733SOL    HW121098   3.872   5.343   6.714
 6733SOL    HW221099   3.873   5.480   6.625
 6734SOL     OW21100   5.088   2.029   5.428
 6734SOL    HW121101   5.019   2.089   5.468
 6734SOL    HW221102   5.098   2.051   5.330
 6735SOL     OW21103   6.170   3.981   4.519
 6735SOL    HW121104   6.197   4.030   4.436
 6735SOL    HW221105   6.117   3.900   4.495
 6736SOL     OW21106   2.875   4.402   0.088
 6736SOL    HW121107   2.809   4.326   0.083
 6736SOL    HW221108   2.967   4.365   0.098
 6737SOL     OW21109   0.940   2.798   1.160
 6737SOL    HW121110   0.976   2.889   1.138
 6737SOL    HW221111   0.842   2.805   1.179
 6738SOL     OW21112   1.324   5.943   3.723
 6738SOL    HW121113   1.423   5.935   3.736
 6738SOL    HW221114   1.300   5.919   3.629
 6739SOL     OW21115   6.795   6.322   3.387
 6739SOL    HW121116   6.719   6.257   3.387
 6739SOL    HW221117   6.858   6.299   3.461
 6740SOL     OW21118   6.295   6.496   4.448
 6740SOL    HW121119   6.324   6.592   4.439
 6740SOL    HW221120   6.287   6.474   4.545
 6741SOL     OW21121   4.264   2.232   6.027
 6741SOL    HW121122   4.242   2.154   5.969
 6741SOL    HW221123   4.305   2.200   6.112
 6742SOL     OW21124   5.680   5.430   3.760
 6742SOL    HW121125   5.620   5.380   3.822
 6742SOL    HW221126   5.662   5.401   3.666
 6743SOL     OW21127   3.808   4.098   6.660
 6743SOL    HW121128   3.800   4.046   6.575
 6743SOL    HW221129   3.788   4.037   6.737
 6744SOL     OW21130   0.082   6.353   5.962
 6744SOL    HW121131   0.055   6.356   5.866
 6744SOL    HW221132   0.054   6.266   6.002
 6745SOL     OW21133   0.049   6.546   3.339
 6745SOL    HW121134   0.137   6.576   3.374
 6745SOL    HW221135   7.007   6.562   3.408
 6746SOL     OW21136   1.935   0.911   2.509
 6746SOL    HW121137   1.911   0.960   2.593
 6746SOL    HW221138   1.958   0.817   2.532
 6747SOL     OW21139   6.487   6.417   6.208
 6747SOL    HW121140   6.520   6.500   6.163
 6747SOL    HW221141   6.560   6.347   6.206
 6748SOL     OW21142   2.714   2.089   3.642
 6748SOL    HW121143   2.662   2.074   3.558
 6748SOL    HW221144   2.801   2.039   3.637
 6749SOL     OW21145   3.851   4.196   0.832
 6749SOL    HW121146   3.777   4.261   0.850
 6749SOL    HW221147   3.813   4.110   0.800
 6750SOL     OW21148   2.678   1.961   4.130
 6750SOL    HW121149   2.658   1.942   4.034
 6750SOL    HW221150   2.659   1.880   4.185
 6751SOL     OW21151   4.637   0.444   3.281
 6751SOL    HW121152   4.620   0.351   3.315
 6751SOL    HW221153   4.601   0.510   3.346
 6752SOL     OW21154   1.482   0.175   3.967
 6752SOL    HW121155   1.462   0.269   3.938
 6752SOL    HW221156   1.456   0.111   3.895
 6753SOL     OW21157   3.423   2.312   5.939
 6753SOL    HW121158   3.437   2.258   6.022
 6753SOL    HW221159   3.470   2.268   5.863
 6754SOL     OW21160   6.184   0.957   1.232
 6754SOL    HW121161   6.114   0.939   1.301
 6754SOL    HW221162   6.143   1.000   1.152
 6755SOL     OW21163   3.398   4.562   0.956
 6755SOL    HW121164   3.458   4.610   1.020
 6755SOL    HW221165   3.303   4.575   0.984
 6756SOL     OW21166   3.584   0.677   5.803
 6756SOL    HW121167   3.493   0.678   5.844
 6756SOL    HW221168   3.650   0.716   5.867
 6757SOL     OW21169   4.035   1.445   1.649
 6757SOL    HW121170   3.974   1.369   1.625
 6757SOL    HW221171   4.095   1.466   1.573
 6758SOL     OW21172   5.912   2.878   1.726
 6758SOL    HW121173   5.875   2.866   1.634
 6758SOL    HW221174   6.009   2.853   1.727
 6759SOL     OW21175   6.928   3.066   3.478
 6759SOL    HW121176   6.844   3.048   3.428
 6759SOL    HW221177   7.006   3.029   3.428
 6760SOL     OW21178   6.323   3.925   2.676
 6760SOL    HW121179   6.255   3.996   2.660
 6760SOL    HW221180   6.354   3.888   2.588
 6761SOL     OW21181   5.438   2.589   4.673
 6761SOL    HW121182   5.444   2.598   4.772
 6761SOL    HW221183   5.375   2.658   4.637
 6762SOL     OW21184   0.707   4.371   4.550
 6762SOL    HW121185   0.683   4.301   4.483
 6762SOL    HW221186   0.624   4.405   4.593
 6763SOL     OW21187   5.376   5.501   5.145
 6763SOL    HW121188   5.382   5.448   5.229
 6763SOL    HW221189   5.410   5.447   5.069
 6764SOL     OW21190   2.043   5.541   2.417
 6764SOL    HW121191   1.959   5.505   2.377
 6764SOL    HW221192   2.031   5.638   2.439
 6765SOL     OW21193   6.289   4.303   3.440
 6765SOL    HW121194   6.294   4.235   3.512
 6765SOL    HW221195   6.313   4.261   3.352
 6766SOL     OW21196   4.953   5.778   5.912
 6766SOL    HW121197   5.031   5.838   5.930
 6766SOL    HW221198   4.911   5.753   5.999
 6767SOL     OW21199   3.445   0.319   0.955
 6767SOL    HW121200   3.525   0.375   0.974
 6767SOL    HW221201   3.413   0.277   1.039
 6768SOL     OW21202   1.977   0.589   6.100
 6768SOL    HW121203   2.061   0.562   6.052
 6768SOL    HW221204   1.935   0.508   6.141
 6769SOL     OW21205   3.194   2.083   0.894
 6769SOL    HW121206   3.109   2.089   0.842
 6769SOL    HW221207   3.174   2.084   0.992
 6770SOL     OW21208   0.192   0.892   1.882
 6770SOL    HW121209   0.172   0.978   1.835
 6770SOL    HW221210   0.286   0.865   1.864
 6771SOL     OW21211   4.661   2.669   3.459
 6771SOL    HW121212   4.589   2.641   3.396
 6771SOL    HW221213   4.739   2.607   3.451
 6772SOL     OW21214   3.424   0.875   3.386
 6772SOL    HW121215   3.338   0.825   3.380
 6772SOL    HW221216   3.471   0.872   3.298
 6773SOL     OW21217   6.969   5.371   1.572
 6773SOL    HW121218   6.949   5.414   1.660
 6773SOL    HW221219   6.883   5.342   1.529
 6774SOL     OW21220   0.657   2.754   5.760
 6774SOL    HW121221   0.580   2.697   5.789
 6774SOL    HW221222   0.644   2.848   5.793
 6775SOL     OW21223   2.519   3.281   1.662
 6775SOL    HW121224   2.573   3.204   1.695
 6775SOL    HW221225   2.503   3.345   1.737
 6776SOL     OW21226   4.515   4.268   0.076
 6776SOL    HW121227   4.608   4.241   0.051
 6776SOL    HW221228   4.452   4.242   0.002
 6777SOL     OW21229   4.100   3.998   6.786
 6777SOL    HW121230   4.018   3.994   6.843
 6777SOL    HW221231   4.095   3.927   6.715
 6778SOL     OW21232   6.773   4.708   2.206
 6778SOL    HW121233   6.797   4.690   2.301
 6778SOL    HW221234   6.755   4.622   2.159
 6779SOL     OW21235   6.778   4.686   5.617
 6779SOL    HW121236   6.768   4.591   5.587
 6779SOL    HW221237   6.873   4.703   5.643
 6780SOL     OW21238   0.966   2.183   2.903
 6780SOL    HW121239   0.879   2.147   2.868
 6780SOL    HW221240   0.997   2.258   2.843
 6781SOL     OW21241   5.684   0.357   4.981
 6781SOL    HW121242   5.756   0.322   5.040
 6781SOL    HW221243   5.690   0.313   4.891
 6782SOL     OW21244   6.971   0.225   2.958
 6782SOL    HW121245   6.962   0.127   2.972
 6782SOL    HW221246   6.932   0.251   2.869
 6783SOL     OW21247   6.733   0.848   6.468
 6783SOL    HW121248   6.704   0.838   6.373
 6783SOL    HW221249   6.736   0.758   6.512
 6784SOL     OW21250   3.269   3.613   0.319
 6784SOL    HW121251   3.328   3.596   0.399
 6784SOL    HW221252   3.306   3.689   0.267
 6785SOL     OW21253   5.071   4.774   2.521
 6785SOL    HW121254   5.165   4.742   2.520
 6785SOL    HW221255   5.056   4.838   2.446
 6786SOL     OW21256   1.587   1.868   0.298
 6786SOL    HW121257   1.612   1.773   0.313
 6786SOL    HW221258   1.593   1.889   0.200
 6787SOL     OW21259   1.739   2.559   0.772
 6787SOL    HW121260   1.711   2.620   0.846
 6787SOL    HW221261   1.838   2.566   0.759
 6788SOL     OW21262   2.317   3.559   1.653
 6788SOL    HW121263   2.343   3.654   1.671
 6788SOL    HW221264   2.348   3.501   1.729
 6789SOL     OW21265   0.344   6.487   3.182
 6789SOL    HW121266   0.291   6.490   3.267
 6789SOL    HW221267   0.284   6.464   3.106
 6790SOL     OW21268   0.934   4.281   1.099
 6790SOL    HW121269   0.903   4.339   1.023
 6790SOL    HW221270   1.023   4.240   1.076
 6791SOL     OW21271   4.298   2.626   1.623
 6791SOL    HW121272   4.285   2.560   1.697
 6791SOL    HW221273   4.249   2.710   1.645
 6792SOL     OW21274   6.747   6.187   5.599
 6792SOL    HW121275   6.786   6.095   5.600
 6792SOL    HW221276   6.747   6.224   5.692
 6793SOL     OW21277   0.775   1.996   0.052
 6793SOL    HW121278   0.723   2.013   0.136
 6793SOL    HW221279   0.746   1.910   0.011
 6794SOL     OW21280   5.059   1.585   5.726
 6794SOL    HW121281   4.964   1.612   5.712
 6794SOL    HW221282   5.072   1.491   5.692
 6795SOL     OW21283   2.765   6.389   0.950
 6795SOL    HW121284   2.839   6.325   0.972
 6795SOL    HW221285   2.677   6.344   0.967
 6796SOL     OW21286   6.225   0.495   2.301
 6796SOL    HW121287   6.166   0.415   2.288
 6796SOL    HW221288   6.271   0.487   2.390
 6797SOL     OW21289   5.618   3.406   1.409
 6797SOL    HW121290   5.570   3.318   1.419
 6797SOL    HW221291   5.568   3.464   1.345
 6798SOL     OW21292   5.672   6.104   2.850
 6798SOL    HW121293   5.763   6.142   2.864
 6798SOL    HW221294   5.618   6.165   2.793
 6799SOL     OW21295   6.908   5.799   0.023
 6799SOL    HW121296   6.918   5.750   6.965
 6799SOL    HW221297   6.997   5.806   0.068
 6800SOL     OW21298   2.134   4.146   1.096
 6800SOL    HW121299   2.222   4.111   1.061
 6800SOL    HW221300   2.061   4.121   1.032
 6801SOL     OW21301   1.149   0.857   2.502
 6801SOL    HW121302   1.185   0.816   2.585
 6801SOL    HW221303   1.180   0.952   2.494
 6802SOL     OW21304   3.211   5.781   0.417
 6802SOL    HW121305   3.172   5.816   0.332
 6802SOL    HW221306   3.311   5.778   0.409
 6803SOL     OW21307   5.160   2.811   6.226
 6803SOL    HW121308   5.101   2.888   6.247
 6803SOL    HW221309   5.250   2.826   6.267
 6804SOL     OW21310   2.916   5.572   3.608
 6804SOL    HW121311   2.881   5.479   3.622
 6804SOL    HW221312   3.000   5.583   3.662
 6805SOL     OW21313   5.558   5.684   5.229
 6805SOL    HW121314   5.628   5.618   5.255
 6805SOL    HW221315   5.469   5.639   5.223
 6806SOL     OW21316   5.524   1.084   3.391
 6806SOL    HW121317   5.497   1.006   3.334
 6806SOL    HW221318   5.583   1.052   3.465
 6807SOL     OW21319   3.078   3.084   0.806
 6807SOL    HW121320   3.011   3.155   0.828
 6807SOL    HW221321   3.111   3.042   0.890
 6808SOL     OW21322   0.237   1.927   5.544
 6808SOL    HW121323   0.155   1.878   5.574
 6808SOL    HW221324   0.301   1.863   5.501
 6809SOL     OW21325   1.209   3.484   1.092
 6809SOL    HW121326   1.168   3.441   1.173
 6809SOL    HW221327   1.233   3.578   1.113
 6810SOL     OW21328   1.797   0.121   1.861
 6810SOL    HW121329   1.783   0.068   1.945
 6810SOL    HW221330   1.839   0.208   1.883
 6811SOL     OW21331   5.180   3.926   0.107
 6811SOL    HW121332   5.088   3.929   0.145
 6811SOL    HW221333   5.193   3.839   0.059
 6812SOL     OW21334   3.349   3.591   3.422
 6812SOL    HW121335   3.281   3.579   3.494
 6812SOL    HW221336   3.304   3.617   3.337
 6813SOL     OW21337   5.117   2.074   2.500
 6813SOL    HW121338   5.065   2.010   2.444
 6813SOL    HW221339   5.213   2.073   2.471
 6814SOL     OW21340   3.373   2.634   0.674
 6814SOL    HW121341   3.420   2.563   0.621
 6814SOL    HW221342   3.301   2.675   0.617
 6815SOL     OW21343   3.202   7.017   1.319
 6815SOL    HW121344   3.152   0.069   1.287
 6815SOL    HW221345   3.142   6.961   1.377
 6816SOL     OW21346   0.193   6.910   6.396
 6816SOL    HW121347   0.276   6.902   6.451
 6816SOL    HW221348   0.145   6.995   6.420
 6817SOL     OW21349   0.295   1.885   4.950
 6817SOL    HW121350   0.230   1.961   4.952
 6817SOL    HW221351   0.388   1.922   4.942
 6818SOL     OW21352   2.904   5.148   1.922
 6818SOL    HW121353   2.909   5.162   2.021
 6818SOL    HW221354   2.860   5.228   1.880
 6819SOL     OW21355   4.710   1.363   4.481
 6819SOL    HW121356   4.703   1.289   4.413
 6819SOL    HW221357   4.656   1.441   4.451
 6820SOL     OW21358   0.951   5.523   2.921
 6820SOL    HW121359   0.973   5.526   3.019
 6820SOL    HW221360   0.869   5.468   2.907
 6821SOL     OW21361   3.068   1.256   5.312
 6821SOL    HW121362   3.009   1.177   5.295
 6821SOL    HW221363   3.104   1.290   5.225
 6822SOL     OW21364   5.933   2.333   6.025
 6822SOL    HW121365   5.994   2.256   6.006
 6822SOL    HW221366   5.975   2.394   6.093
 6823SOL     OW21367   3.734   3.227   3.896
 6823SOL    HW121368   3.778   3.140   3.872
 6823SOL    HW221369   3.741   3.241   3.995
 6824SOL     OW21370   0.729   3.411   6.174
 6824SOL    HW121371   0.813   3.465   6.166
 6824SOL    HW221372   0.730   3.360   6.260
 6825SOL     OW21373   5.302   6.281   2.427
 6825SOL    HW121374   5.319   6.240   2.517
 6825SOL    HW221375   5.274   6.377   2.439
 6826SOL     OW21376   2.110   4.280   2.721
 6826SOL    HW121377   2.064   4.331   2.794
 6826SOL    HW221378   2.068   4.303   2.633
 6827SOL     OW21379   4.646   6.023   6.854
 6827SOL    HW121380   4.612   6.092   6.791
 6827SOL    HW221381   4.744   6.010   6.839
 6828SOL     OW21382   2.617   1.594   2.051
 6828SOL    HW121383   2.658   1.650   1.979
 6828SOL    HW221384   2.599   1.650   2.131
 6829SOL     OW21385   4.433   6.799   3.984
 6829SOL    HW121386   4.443   6.700   3.972
 6829SOL    HW221387   4.457   6.823   4.079
 6830SOL     OW21388   5.542   1.312   3.956
 6830SOL    HW121389   5.448   1.295   3.987
 6830SOL    HW221390   5.569   1.241   3.892
 6831SOL     OW21391   1.064   0.472   5.844
 6831SOL    HW121392   1.049   0.492   5.941
 6831SOL    HW221393   1.038   0.551   5.790
 6832SOL     OW21394   3.037   4.054   1.491
 6832SOL    HW121395   3.115   4.050   1.553
 6832SOL    HW221396   2.973   3.980   1.512
 6833SOL     OW21397   4.333   4.381   6.769
 6833SOL    HW121398   4.296   4.457   6.822
 6833SOL    HW221399   4.321   4.295   6.820
 6834SOL     OW21400   5.403   6.940   1.935
 6834SOL    HW121401   5.405   6.842   1.915
 6834SOL    HW221402   5.408   6.953   2.034
 6835SOL     OW21403   4.203   0.098   5.187
 6835SOL    HW121404   4.229   0.150   5.106
 6835SOL    HW221405   4.104   0.086   5.189
 6836SOL     OW21406   3.390   5.473   0.217
 6836SOL    HW121407   3.298   5.434   0.221
 6836SOL    HW221408   3.452   5.419   0.274
 6837SOL     OW21409   1.486   2.251   2.277
 6837SOL    HW121410   1.403   2.198   2.293
 6837SOL    HW221411   1.560   2.214   2.334
 6838SOL     OW21412   2.166   6.179   1.052
 6838SOL    HW121413   2.090   6.117   1.072
 6838SOL    HW221414   2.244   6.156   1.111
 6839SOL     OW21415   5.038   0.998   6.603
 6839SOL    HW121416   5.011   0.904   6.625
 6839SOL    HW221417   5.099   1.032   6.675
 6840SOL     OW21418   2.523   1.913   5.067
 6840SOL    HW121419   2.439   1.934   5.018
 6840SOL    HW221420   2.601   1.947   5.015
 6841SOL     OW21421   5.428   3.725   5.965
 6841SOL    HW121422   5.343   3.691   5.926
 6841SOL    HW221423   5.438   3.822   5.944
 6842SOL     OW21424   2.924   4.482   1.041
 6842SOL    HW121425   2.870   4.442   1.115
 6842SOL    HW221426   2.863   4.518   0.970
 6843SOL     OW21427   5.689   6.647   0.433
 6843SOL    HW121428   5.607   6.705   0.440
 6843SOL    HW221429   5.760   6.682   0.492
 6844SOL     OW21430   5.214   0.817   4.221
 6844SOL    HW121431   5.277   0.870   4.279
 6844SOL    HW221432   5.266   0.767   4.152
 6845SOL     OW21433   6.135   3.175   2.744
 6845SOL    HW121434   6.224   3.221   2.744
 6845SOL    HW221435   6.149   3.076   2.736
 6846SOL     OW21436   3.287   4.058   7.011
 6846SOL    HW121437   3.229   4.016   6.941
 6846SOL    HW221438   3.363   4.107   6.968
 6847SOL     OW21439   0.034   3.797   5.130
 6847SOL    HW121440   7.022   3.732   5.193
 6847SOL    HW221441   7.019   3.789   5.041
 6848SOL     OW21442   5.162   4.256   3.582
 6848SOL    HW121443   5.208   4.306   3.655
 6848SOL    HW221444   5.093   4.315   3.540
 6849SOL     OW21445   3.800   3.909   5.570
 6849SOL    HW121446   3.762   3.836   5.627
 6849SOL    HW221447   3.898   3.896   5.560
 6850SOL     OW21448   4.742   2.925   3.126
 6850SOL    HW121449   4.749   2.928   3.226
 6850SOL    HW221450   4.787   3.005   3.086
 6851SOL     OW21451   1.212   2.355   2.440
 6851SOL    HW121452   1.211   2.285   2.368
 6851SOL    HW221453   1.158   2.433   2.411
 6852SOL     OW21454   3.151   5.371   1.096
 6852SOL    HW121455   3.221   5.320   1.147
 6852SOL    HW221456   3.185   5.463   1.076
 6853SOL     OW21457   5.137   3.701   6.243
 6853SOL    HW121458   5.218   3.758   6.251
 6853SOL    HW221459   5.109   3.669   6.334
 6854SOL     OW21460   5.670   0.365   5.936
 6854SOL    HW121461   5.680   0.321   5.847
 6854SOL    HW221462   5.719   0.312   6.005
 6855SOL     OW21463   4.139   5.854   3.899
 6855SOL    HW121464   4.230   5.892   3.886
 6855SOL    HW221465   4.074   5.928   3.916
 6856SOL     OW21466   0.725   2.199   5.622
 6856SOL    HW121467   0.767   2.120   5.667
 6856SOL    HW221468   0.697   2.174   5.530
 6857SOL     OW21469   0.733   3.135   6.691
 6857SOL    HW121470   0.820   3.176   6.660
 6857SOL    HW221471   0.750   3.076   6.769
 6858SOL     OW21472   3.797   4.231   1.749
 6858SOL    HW121473   3.799   4.270   1.657
 6858SOL    HW221474   3.859   4.281   1.809
 6859SOL     OW21475   0.465   0.766   1.864
 6859SOL    HW121476   0.490   0.777   1.768
 6859SOL    HW221477   0.543   0.733   1.916
 6860SOL     OW21478   6.466   4.832   1.617
 6860SOL    HW121479   6.417   4.839   1.704
 6860SOL    HW221480   6.481   4.735   1.596
 6861SOL     OW21481   4.553   3.613   6.290
 6861SOL    HW121482   4.627   3.545   6.293
 6861SOL    HW221483   4.589   3.699   6.254
 6862SOL     OW21484   0.415   4.838   5.626
 6862SOL    HW121485   0.430   4.853   5.724
 6862SOL    HW221486   0.317   4.836   5.606
 6863SOL     OW21487   6.858   6.380   5.304
 6863SOL    HW121488   6.787   6.419   5.362
 6863SOL    HW221489   6.928   6.337   5.360
 6864SOL     OW21490   2.267   4.478   5.191
 6864SOL    HW121491   2.350   4.434   5.228
 6864SOL    HW221492   2.239   4.431   5.108
 6865SOL     OW21493   1.315   0.271   5.244
 6865SOL    HW121494   1.332   0.367   5.264
 6865SOL    HW221495   1.390   0.235   5.189
 6866SOL     OW21496   6.342   4.630   2.399
 6866SOL    HW121497   6.380   4.687   2.472
 6866SOL    HW221498   6.260   4.674   2.362
 6867SOL     OW21499   2.085   3.694   1.223
 6867SOL    HW121500   2.054   3.722   1.314
 6867SOL    HW221501   2.174   3.734   1.204
 6868SOL     OW21502   2.496   6.533   5.320
 6868SOL    HW121503   2.480   6.573   5.230
 6868SOL    HW221504   2.589   6.497   5.324
 6869SOL     OW21505   4.290   1.045   5.853
 6869SOL    HW121506   4.365   0.993   5.895
 6869SOL    HW221507   4.300   1.142   5.876
 6870SOL     OW21508   0.009   3.874   1.060
 6870SOL    HW121509   0.083   3.883   1.127
 6870SOL    HW221510   6.950   3.892   1.104
 6871SOL     OW21511   6.703   4.115   2.579
 6871SOL    HW121512   6.739   4.209   2.583
 6871SOL    HW221513   6.780   4.051   2.576
 6872SOL     OW21514   0.757   2.581   2.211
 6872SOL    HW121515   0.775   2.555   2.116
 6872SOL    HW221516   0.694   2.658   2.213
 6873SOL     OW21517   1.054   4.209   3.817
 6873SOL    HW121518   1.056   4.295   3.868
 6873SOL    HW221519   1.131   4.207   3.752
 6874SOL     OW21520   6.704   5.811   3.568
 6874SOL    HW121521   6.656   5.833   3.653
 6874SOL    HW221522   6.792   5.859   3.566
 6875SOL     OW21523   2.133   1.968   2.485
 6875SOL    HW121524   2.164   1.974   2.390
 6875SOL    HW221525   2.039   2.001   2.491
 6876SOL     OW21526   3.484   0.069   3.702
 6876SOL    HW121527   3.436   0.157   3.697
 6876SOL    HW221528   3.418   7.024   3.684
 6877SOL     OW21529   3.296   4.334   1.650
 6877SOL    HW121530   3.379   4.282   1.669
 6877SOL    HW221531   3.216   4.280   1.674
 6878SOL     OW21532   2.607   2.064   3.384
 6878SOL    HW121533   2.515   2.072   3.346
 6878SOL    HW221534   2.671   2.036   3.312
 6879SOL     OW21535   2.441   2.878   0.392
 6879SOL    HW121536   2.523   2.916   0.351
 6879SOL    HW221537   2.459   2.853   0.487
 6880SOL     OW21538   1.246   6.733   6.031
 6880SOL    HW121539   1.275   6.702   5.941
 6880SOL    HW221540   1.256   6.832   6.038
 6881SOL     OW21541   1.383   3.277   1.339
 6881SOL    HW121542   1.385   3.210   1.413
 6881SOL    HW221543   1.408   3.367   1.376
 6882SOL     OW21544   2.630   1.140   0.464
 6882SOL    HW121545   2.532   1.151   0.482
 6882SOL    HW221546   2.681   1.203   0.523
 6883SOL     OW21547   5.625   1.208   6.101
 6883SOL    HW121548   5.690   1.133   6.086
 6883SOL    HW221549   5.545   1.173   6.149
 6884SOL     OW21550   1.567   3.958   2.711
 6884SOL    HW121551   1.626   3.888   2.671
 6884SOL    HW221552   1.485   3.915   2.749
 6885SOL     OW21553   4.833   4.845   4.005
 6885SOL    HW121554   4.818   4.746   3.998
 6885SOL    HW221555   4.744   4.891   4.009
 6886SOL     OW21556   6.763   1.544   4.932
 6886SOL    HW121557   6.726   1.632   4.902
 6886SOL    HW221558   6.799   1.554   5.025
 6887SOL     OW21559   4.518   5.744   0.081
 6887SOL    HW121560   4.430   5.764   0.038
 6887SOL    HW221561   4.549   5.823   0.133
 6888SOL     OW21562   5.143   4.552   6.166
 6888SOL    HW121563   5.087   4.577   6.245
 6888SOL    HW221564   5.222   4.614   6.161
 6889SOL     OW21565   2.199   2.295   5.727
 6889SOL    HW121566   2.148   2.371   5.766
 6889SOL    HW221567   2.198   2.301   5.628
 6890SOL     OW21568   3.762   5.796   2.862
 6890SOL    HW121569   3.696   5.741   2.914
 6890SOL    HW221570   3.827   5.838   2.925
 6891SOL     OW21571   2.115   2.990   1.394
 6891SOL    HW121572   2.175   2.987   1.474
 6891SOL    HW221573   2.167   2.968   1.312
 6892SOL     OW21574   3.106   1.330   3.865
 6892SOL    HW121575   3.085   1.257   3.800
 6892SOL    HW221576   3.026   1.346   3.923
 6893SOL     OW21577   5.622   3.230   0.338
 6893SOL    HW121578   5.654   3.298   0.404
 6893SOL    HW221579   5.587   3.277   0.256
 6894SOL     OW21580   5.081   4.729   1.187
 6894SOL    HW121581   4.986   4.722   1.220
 6894SOL    HW221582   5.108   4.825   1.185
 6895SOL     OW21583   2.021   5.628   1.114
 6895SOL    HW121584   2.071   5.543   1.132
 6895SOL    HW221585   1.926   5.618   1.145
 6896SOL     OW21586   2.948   1.587   3.901
 6896SOL    HW121587   3.030   1.538   3.872
 6896SOL    HW221588   2.973   1.678   3.935
 6897SOL     OW21589   4.887   3.864   5.101
 6897SOL    HW121590   4.898   3.785   5.041
 6897SOL    HW221591   4.852   3.942   5.049
 6898SOL     OW21592   3.311   1.354   1.880
 6898SOL    HW121593   3.365   1.286   1.831
 6898SOL    HW221594   3.225   1.314   1.910
 6899SOL     OW21595   4.875   6.278   2.764
 6899SOL    HW121596   4.912   6.202   2.710
 6899SOL    HW221597   4.858   6.247   2.858
 6900SOL     OW21598   6.953   4.981   5.818
 6900SOL    HW121599   7.023   4.913   5.841
 6900SOL    HW221600   6.865   4.952   5.856
 6901SOL     OW21601   4.676   5.167   6.144
 6901SOL    HW121602   4.704   5.197   6.236
 6901SOL    HW221603   4.603   5.099   6.153
 6902SOL     OW21604   6.696   5.824   5.280
 6902SOL    HW121605   6.653   5.842   5.191
 6902SOL    HW221606   6.672   5.896   5.344
 6903SOL     OW21607   3.080   4.725   5.259
 6903SOL    HW121608   3.014   4.649   5.256
 6903SOL    HW221609   3.035   4.809   5.231
 6904SOL     OW21610   6.460   6.602   5.551
 6904SOL    HW121611   6.488   6.635   5.641
 6904SOL    HW221612   6.531   6.543   5.513
 6905SOL     OW21613   5.679   5.305   6.673
 6905SOL    HW121614   5.730   5.319   6.588
 6905SOL    HW221615   5.660   5.393   6.716
 6906SOL     OW21616   3.439   1.168   3.431
 6906SOL    HW121617   3.389   1.088   3.464
 6906SOL    HW221618   3.519   1.138   3.377
 6907SOL     OW21619   6.494   2.638   1.875
 6907SOL    HW121620   6.542   2.688   1.803
 6907SOL    HW221621   6.396   2.642   1.859
 6908SOL     OW21622   2.464   4.945   6.772
 6908SOL    HW121623   2.535   4.881   6.798
 6908SOL    HW221624   2.423   4.917   6.685
 6909SOL     OW21625   5.591   4.578   1.750
 6909SOL    HW121626   5.646   4.523   1.688
 6909SOL    HW221627   5.595   4.540   1.842
 6910SOL     OW21628   1.529   2.561   2.783
 6910SOL    HW121629   1.504   2.518   2.696
 6910SOL    HW221630   1.520   2.494   2.857
 6911SOL     OW21631   4.072   6.985   4.807
 6911SOL    HW121632   4.015   7.027   4.736
 6911SOL    HW221633   4.158   6.954   4.765
 6912SOL     OW21634   2.566   3.357   6.726
 6912SOL    HW121635   2.573   3.454   6.701
 6912SOL    HW221636   2.497   3.346   6.798
 6913SOL     OW21637   5.024   6.754   4.770
 6913SOL    HW121638   5.006   6.667   4.815
 6913SOL    HW221639   5.003   6.829   4.833
 6914SOL     OW21640   6.278   4.263   3.132
 6914SOL    HW121641   6.271   4.360   3.155
 6914SOL    HW221642   6.308   4.254   3.037
 6915SOL     OW21643   0.791   2.194   2.471
 6915SOL    HW121644   0.872   2.145   2.505
 6915SOL    HW221645   0.732   2.131   2.421
 6916SOL     OW21646   5.507   1.496   6.326
 6916SOL    HW121647   5.572   1.505   6.251
 6916SOL    HW221648   5.491   1.586   6.367
 6917SOL     OW21649   4.269   6.009   1.970
 6917SOL    HW121650   4.341   5.960   2.019
 6917SOL    HW221651   4.205   5.944   1.929
 6918SOL     OW21652   0.169   2.669   3.510
 6918SOL    HW121653   0.181   2.571   3.490
 6918SOL    HW221654   0.073   2.693   3.504
 6919SOL     OW21655   6.574   6.153   3.402
 6919SOL    HW121656   6.575   6.069   3.455
 6919SOL    HW221657   6.482   6.172   3.369
 6920SOL     OW21658   5.504   0.070   5.928
 6920SOL    HW121659   5.446   0.039   6.003
 6920SOL    HW221660   5.482   0.165   5.907
 6921SOL     OW21661   3.938   0.348   3.700
 6921SOL    HW121662   3.999   0.391   3.766
 6921SOL    HW221663   3.921   0.411   3.624
 6922SOL     OW21664   1.808   6.281   5.295
 6922SOL    HW121665   1.844   6.245   5.381
 6922SOL    HW221666   1.794   6.207   5.230
 6923SOL     OW21667   6.149   6.454   2.248
 6923SOL    HW121668   6.086   6.443   2.324
 6923SOL    HW221669   6.100   6.491   2.169
 6924SOL     OW21670   3.113   5.329   0.554
 6924SOL    HW121671   3.084   5.314   0.649
 6924SOL    HW221672   3.050   5.281   0.493
 6925SOL     OW21673   4.288   5.659   5.374
 6925SOL    HW121674   4.334   5.691   5.457
 6925SOL    HW221675   4.324   5.709   5.295
 6926SOL     OW21676   2.101   2.036   0.621
 6926SOL    HW121677   2.107   2.006   0.716
 6926SOL    HW221678   2.179   2.095   0.600
 6927SOL     OW21679   3.407   1.687   6.837
 6927SOL    HW121680   3.449   1.745   6.908
 6927SOL    HW221681   3.328   1.734   6.798
 6928SOL     OW21682   4.954   5.897   0.999
 6928SOL    HW121683   4.986   5.802   0.995
 6928SOL    HW221684   4.950   5.935   0.907
 6929SOL     OW21685   5.288   6.025   1.777
 6929SOL    HW121686   5.204   6.023   1.724
 6929SOL    HW221687   5.312   5.932   1.806
 6930SOL     OW21688   0.783   0.806   0.704
 6930SOL    HW121689   0.813   0.851   0.788
 6930SOL    HW221690   0.762   0.710   0.724
 6931SOL     OW21691   1.717   1.645   1.538
 6931SOL    HW121692   1.617   1.643   1.528
 6931SOL    HW221693   1.755   1.715   1.478
 6932SOL     OW21694   4.805   5.641   1.317
 6932SOL    HW121695   4.854   5.719   1.357
 6932SOL    HW221696   4.716   5.672   1.283
 6933SOL     OW21697   3.429   6.831   6.153
 6933SOL    HW121698   3.428   6.736   6.184
 6933SOL    HW221699   3.380   6.889   6.219
 6934SOL     OW21700   5.212   3.408   5.848
 6934SOL    HW121701   5.172   3.490   5.890
 6934SOL    HW221702   5.139   3.343   5.827
 6935SOL     OW21703   4.381   5.879   2.753
 6935SOL    HW121704   4.315   5.816   2.794
 6935SOL    HW221705   4.340   5.920   2.671
 6936SOL     OW21706   0.000   2.629   4.106
 6936SOL    HW121707   0.034   2.720   4.132
 6936SOL    HW221708   0.028   2.562   4.175
 6937SOL     OW21709   5.684   6.427   0.844
 6937SOL    HW121710   5.674   6.417   0.745
 6937SOL    HW221711   5.619   6.367   0.891
 6938SOL     OW21712   0.532   1.909   4.355
 6938SOL    HW121713   0.532   1.848   4.435
 6938SOL    HW221714   0.545   2.003   4.385
 6939SOL     OW21715   6.439   5.372   2.853
 6939SOL    HW121716   6.413   5.281   2.885
 6939SOL    HW221717   6.460   5.430   2.931
 6940SOL     OW21718   4.253   6.549   0.251
 6940SOL    HW121719   4.218   6.636   0.286
 6940SOL    HW221720   4.297   6.564   0.162
 6941SOL     OW21721   3.043   3.707   2.244
 6941SOL    HW121722   3.120   3.770   2.256
 6941SOL    HW221723   3.043   3.673   2.150
 6942SOL     OW21724   6.115   6.990   1.700
 6942SOL    HW121725   6.098   6.961   1.605
 6942SOL    HW221726   6.164   6.918   1.748
 6943SOL     OW21727   4.047   4.888   0.410
 6943SOL    HW121728   4.035   4.791   0.390
 6943SOL    HW221729   4.133   4.920   0.372
 6944SOL     OW21730   0.789   5.085   6.318
 6944SOL    HW121731   0.702   5.125   6.289
 6944SOL    HW221732   0.860   5.155   6.317
 6945SOL     OW21733   6.890   2.747   1.433
 6945SOL    HW121734   6.907   2.779   1.526
 6945SOL    HW221735   6.931   2.656   1.422
 6946SOL     OW21736   3.912   6.074   1.872
 6946SOL    HW121737   4.003   6.113   1.884
 6946SOL    HW221738   3.896   6.005   1.942
 6947SOL     OW21739   4.135   5.136   6.342
 6947SOL    HW121740   4.072   5.104   6.272
 6947SOL    HW221741   4.097   5.117   6.433
 6948SOL     OW21742   0.627   5.798   1.083
 6948SOL    HW121743   0.602   5.706   1.051
 6948SOL    HW221744   0.674   5.791   1.171
 6949SOL     OW21745   2.651   1.987   3.110
 6949SOL    HW121746   2.728   2.041   3.077
 6949SOL    HW221747   2.582   1.979   3.038
 6950SOL     OW21748   1.957   0.326   4.329
 6950SOL    HW121749   1.984   0.240   4.285
 6950SOL    HW221750   1.858   0.339   4.317
 6951SOL     OW21751   6.558   5.913   6.508
 6951SOL    HW121752   6.507   5.890   6.590
 6951SOL    HW221753   6.652   5.936   6.532
 6952SOL     OW21754   2.336   5.208   3.075
 6952SOL    HW121755   2.415   5.153   3.050
 6952SOL    HW221756   2.333   5.290   3.018
 6953SOL     OW21757   4.854   0.026   0.236
 6953SOL    HW121758   4.772   0.035   0.292
 6953SOL    HW221759   4.845   6.974   0.177
 6954SOL     OW21760   0.152   3.725   1.530
 6954SOL    HW121761   0.204   3.745   1.613
 6954SOL    HW221762   0.055   3.717   1.553
 6955SOL     OW21763   4.686   0.530   2.272
 6955SOL    HW121764   4.679   0.599   2.201
 6955SOL    HW221765   4.772   0.480   2.262
 6956SOL     OW21766   5.147   5.321   3.212
 6956SOL    HW121767   5.244   5.341   3.197
 6956SOL    HW221768   5.095   5.347   3.130
 6957SOL     OW21769   6.038   6.127   0.262
 6957SOL    HW121770   6.086   6.093   0.342
 6957SOL    HW221771   6.011   6.050   0.204
 6958SOL     OW21772   3.510   3.494   4.103
 6958SOL    HW121773   3.470   3.447   4.181
 6958SOL    HW221774   3.442   3.553   4.060
 6959SOL     OW21775   1.607   3.645   2.710
 6959SOL    HW121776   1.692   3.647   2.762
 6959SOL    HW221777   1.547   3.573   2.745
 6960SOL     OW21778   2.669   4.193   1.002
 6960SOL    HW121779   2.663   4.253   1.082
 6960SOL    HW221780   2.750   4.136   1.010
 6961SOL     OW21781   5.181   1.197   4.857
 6961SOL    HW121782   5.184   1.098   4.845
 6961SOL    HW221783   5.134   1.219   4.943
 6962SOL     OW21784   4.540   5.662   1.183
 6962SOL    HW121785   4.467   5.638   1.119
 6962SOL    HW221786   4.521   5.752   1.223
 6963SOL     OW21787   5.375   4.721   0.294
 6963SOL    HW121788   5.454   4.670   0.328
 6963SOL    HW221789   5.352   4.689   0.202
 6964SOL     OW21790   3.645   0.133   5.614
 6964SOL    HW121791   3.675   0.144   5.519
 6964SOL    HW221792   3.678   0.210   5.668
 6965SOL     OW21793   1.940   1.804   0.046
 6965SOL    HW121794   1.928   1.826   0.143
 6965SOL    HW221795   2.038   1.807   0.023
 6966SOL     OW21796   1.029   0.507   2.500
 6966SOL    HW121797   1.074   0.580   2.449
 6966SOL    HW221798   1.087   0.479   2.576
 6967SOL     OW21799   3.479   1.251   5.972
 6967SOL    HW121800   3.414   1.235   6.047
 6967SOL    HW221801   3.428   1.278   5.890
 6968SOL     OW21802   2.429   0.883   3.153
 6968SOL    HW121803   2.501   0.880   3.083
 6968SOL    HW221804   2.415   0.977   3.182
 6969SOL     OW21805   3.428   2.049   1.153
 6969SOL    HW121806   3.441   1.972   1.216
 6969SOL    HW221807   3.441   2.018   1.059
 6970SOL     OW21808   4.080   3.861   5.559
 6970SOL    HW121809   4.130   3.867   5.646
 6970SOL    HW221810   4.146   3.856   5.483
 6971SOL     OW21811   5.556   5.075   1.305
 6971SOL    HW121812   5.572   5.079   1.206
 6971SOL    HW221813   5.627   5.126   1.353
 6972SOL     OW21814   5.436   3.329   2.320
 6972SOL    HW121815   5.356   3.323   2.260
 6972SOL    HW221816   5.475   3.237   2.332
 6973SOL     OW21817   0.845   2.640   3.576
 6973SOL    HW121818   0.828   2.549   3.614
 6973SOL    HW221819   0.902   2.632   3.494
 6974SOL     OW21820   2.927   3.689   2.598
 6974SOL    HW121821   2.973   3.778   2.596
 6974SOL    HW221822   2.921   3.653   2.505
 6975SOL     OW21823   2.021   6.625   4.638
 6975SOL    HW121824   1.952   6.697   4.630
 6975SOL    HW221825   1.984   6.550   4.693
 6976SOL     OW21826   5.840   4.248   5.687
 6976SOL    HW121827   5.901   4.326   5.701
 6976SOL    HW221828   5.767   4.274   5.623
 6977SOL     OW21829   3.980   4.038   1.283
 6977SOL    HW121830   3.902   4.004   1.336
 6977SOL    HW221831   4.042   3.963   1.262
 6978SOL     OW21832   5.079   2.977   1.376
 6978SOL    HW121833   5.169   2.940   1.353
 6978SOL    HW221834   5.020   2.903   1.409
 6979SOL     OW21835   1.513   3.037   1.174
 6979SOL    HW121836   1.460   3.119   1.195
 6979SOL    HW221837   1.466   2.984   1.104
 6980SOL     OW21838   1.967   1.025   3.582
 6980SOL    HW121839   2.033   1.058   3.514
 6980SOL    HW221840   2.009   0.952   3.636
 6981SOL     OW21841   3.567   3.359   5.870
 6981SOL    HW121842   3.582   3.408   5.956
 6981SOL    HW221843   3.651   3.311   5.843
 6982SOL     OW21844   1.148   0.892   3.902
 6982SOL    HW121845   1.093   0.970   3.873
 6982SOL    HW221846   1.239   0.925   3.930
 6983SOL     OW21847   5.288   1.452   5.038
 6983SOL    HW121848   5.307   1.528   4.976
 6983SOL    HW221849   5.205   1.404   5.009
 6984SOL     OW21850   1.491   1.790   2.563
 6984SOL    HW121851   1.434   1.839   2.629
 6984SOL    HW221852   1.436   1.763   2.484
 6985SOL     OW21853   6.188   5.158   0.081
 6985SOL    HW121854   6.233   5.234   0.129
 6985SOL    HW221855   6.181   5.180   7.013
 6986SOL     OW21856   3.439   6.992   6.618
 6986SOL    HW121857   3.487   6.925   6.562
 6986SOL    HW221858   3.461   6.977   6.715
 6987SOL     OW21859   7.020   1.549   5.523
 6987SOL    HW121860   0.056   1.559   5.598
 6987SOL    HW221861   0.038   1.510   5.444
 6988SOL     OW21862   1.751   0.089   6.403
 6988SOL    HW121863   1.833   0.109   6.456
 6988SOL    HW221864   1.670   0.118   6.454
 6989SOL     OW21865   6.445   4.810   2.584
 6989SOL    HW121866   6.398   4.876   2.644
 6989SOL    HW221867   6.543   4.818   2.596
 6990SOL     OW21868   4.026   2.679   1.371
 6990SOL    HW121869   3.979   2.651   1.454
 6990SOL    HW221870   4.080   2.603   1.336
 6991SOL     OW21871   5.468   4.142   3.236
 6991SOL    HW121872   5.555   4.135   3.187
 6991SOL    HW221873   5.423   4.053   3.236
 6992SOL     OW21874   6.941   5.886   0.407
 6992SOL    HW121875   6.845   5.862   0.396
 6992SOL    HW221876   6.954   5.982   0.379
 6993SOL     OW21877   6.551   0.325   1.607
 6993SOL    HW121878   6.576   0.325   1.704
 6993SOL    HW221879   6.452   0.335   1.598
 6994SOL     OW21880   1.656   0.809   4.187
 6994SOL    HW121881   1.715   0.886   4.207
 6994SOL    HW221882   1.585   0.801   4.258
 6995SOL     OW21883   0.106   4.210   0.334
 6995SOL    HW121884   0.191   4.220   0.386
 6995SOL    HW221885   0.047   4.289   0.351
 6996SOL     OW21886   1.119   0.563   0.856
 6996SOL    HW121887   1.109   0.553   0.757
 6996SOL    HW221888   1.154   0.478   0.895
 6997SOL     OW21889   0.385   5.059   4.762
 6997SOL    HW121890   0.426   4.997   4.828
 6997SOL    HW221891   0.350   5.141   4.808
 6998SOL     OW21892   0.939   1.701   1.563
 6998SOL    HW121893   0.908   1.738   1.476
 6998SOL    HW221894   0.978   1.775   1.619
 6999SOL     OW21895   1.194   2.556   6.491
 6999SOL    HW121896   1.122   2.596   6.548
 6999SOL    HW221897   1.189   2.456   6.497
 7000SOL     OW21898   5.844   0.783   1.837
 7000SOL    HW121899   5.762   0.814   1.886
 7000SOL    HW221900   5.925   0.826   1.877
 7001SOL     OW21901   0.834   2.007   5.769
 7001SOL    HW121902   0.822   1.947   5.848
 7001SOL    HW221903   0.904   2.075   5.790
 7002SOL     OW21904   1.667   5.553   4.026
 7002SOL    HW121905   1.754   5.507   4.043
 7002SOL    HW221906   1.668   5.594   3.934
 7003SOL     OW21907   5.121   5.317   1.492
 7003SOL    HW121908   5.048   5.338   1.428
 7003SOL    HW221909   5.197   5.273   1.443
 7004SOL     OW21910   1.010   5.416   0.401
 7004SOL    HW121911   0.911   5.402   0.392
 7004SOL    HW221912   1.058   5.332   0.376
 7005SOL     OW21913   0.947   0.241   0.101
 7005SOL    HW121914   1.035   0.246   0.054
 7005SOL    HW221915   0.876   0.279   0.042
 7006SOL     OW21916   6.598   6.492   3.322
 7006SOL    HW121917   6.550   6.481   3.409
 7006SOL    HW221918   6.686   6.445   3.326
 7007SOL     OW21919   4.279   0.442   5.140
 7007SOL    HW121920   4.331   0.389   5.073
 7007SOL    HW221921   4.182   0.438   5.116
 7008SOL     OW21922   6.764   4.443   3.987
 7008SOL    HW121923   6.687   4.479   4.039
 7008SOL    HW221924   6.846   4.442   4.045
 7009SOL     OW21925   4.497   6.709   1.633
 7009SOL    HW121926   4.463   6.789   1.683
 7009SOL    HW221927   4.422   6.668   1.582
 7010SOL     OW21928   5.773   4.550   3.419
 7010SOL    HW121929   5.741   4.616   3.351
 7010SOL    HW221930   5.705   4.540   3.491
 7011SOL     OW21931   3.873   6.685   0.679
 7011SOL    HW121932   3.883   6.752   0.752
 7011SOL    HW221933   3.781   6.692   0.640
 7012SOL     OW21934   1.353   2.097   1.340
 7012SOL    HW121935   1.386   2.184   1.303
 7012SOL    HW221936   1.266   2.073   1.297
 7013SOL     OW21937   2.450   0.402   6.376
 7013SOL    HW121938   2.354   0.398   6.351
 7013SOL    HW221939   2.466   0.477   6.440
 7014SOL     OW21940   5.276   3.380   1.315
 7014SOL    HW121941   5.363   3.393   1.269
 7014SOL    HW221942   5.203   3.370   1.247
 7015SOL     OW21943   5.715   4.557   2.238
 7015SOL    HW121944   5.745   4.610   2.317
 7015SOL    HW221945   5.627   4.593   2.206
 7016SOL     OW21946   3.925   4.999   1.119
 7016SOL    HW121947   3.837   5.003   1.168
 7016SOL    HW221948   3.994   5.049   1.171
 7017SOL     OW21949   2.725   4.870   3.136
 7017SOL    HW121950   2.763   4.945   3.081
 7017SOL    HW221951   2.625   4.876   3.135
 7018SOL     OW21952   5.392   3.790   4.183
 7018SOL    HW121953   5.335   3.732   4.125
 7018SOL    HW221954   5.382   3.761   4.279
 7019SOL     OW21955   4.459   5.551   2.113
 7019SOL    HW121956   4.538   5.540   2.173
 7019SOL    HW221957   4.455   5.644   2.078
 7020SOL     OW21958   0.424   3.725   0.064
 7020SOL    HW121959   0.430   3.630   0.034
 7020SOL    HW221960   0.448   3.785   7.017
 7021SOL     OW21961   1.446   2.899   4.456
 7021SOL    HW121962   1.537   2.923   4.491
 7021SOL    HW221963   1.438   2.800   4.450
 7022SOL     OW21964   4.549   0.636   6.952
 7022SOL    HW121965   4.648   0.626   6.960
 7022SOL    HW221966   4.527   0.730   6.925
 7023SOL     OW21967   0.334   2.530   1.435
 7023SOL    HW121968   0.277   2.515   1.516
 7023SOL    HW221969   0.389   2.612   1.448
 7024SOL     OW21970   3.869   3.213   3.159
 7024SOL    HW121971   3.961   3.184   3.187
 7024SOL    HW221972   3.851   3.305   3.195
 7025SOL     OW21973   3.467   0.312   0.331
 7025SOL    HW121974   3.479   0.214   0.317
 7025SOL    HW221975   3.557   0.356   0.341
 7026SOL     OW21976   3.770   2.096   2.183
 7026SOL    HW121977   3.717   2.089   2.267
 7026SOL    HW221978   3.718   2.147   2.115
 7027SOL     OW21979   2.254   6.340   3.625
 7027SOL    HW121980   2.231   6.426   3.581
 7027SOL    HW221981   2.222   6.264   3.569
 7028SOL     OW21982   2.724   0.095   3.800
 7028SOL    HW121983   2.786   0.029   3.842
 7028SOL    HW221984   2.760   0.187   3.813
 7029SOL     OW21985   3.489   3.874   5.693
 7029SOL    HW121986   3.450   3.961   5.722
 7029SOL    HW221987   3.544   3.835   5.767
 7030SOL     OW21988   0.739   1.808   4.793
 7030SOL    HW121989   0.838   1.807   4.806
 7030SOL    HW221990   0.698   1.731   4.842
 7031SOL     OW21991   4.241   6.315   0.695
 7031SOL    HW121992   4.194   6.357   0.617
 7031SOL    HW221993   4.339   6.314   0.679
 7032SOL     OW21994   4.350   0.814   3.646
 7032SOL    HW121995   4.279   0.744   3.644
 7032SOL    HW221996   4.319   0.895   3.597
 7033SOL     OW21997   1.807   2.681   4.056
 7033SOL    HW121998   1.792   2.749   4.128
 7033SOL    HW221999   1.782   2.720   3.968
 7034SOL     OW22000   6.659   2.934   3.348
 7034SOL    HW122001   6.614   2.931   3.437
 7034SOL    HW222002   6.681   2.841   3.319
 7035SOL     OW22003   2.397   0.236   1.341
 7035SOL    HW122004   2.361   0.268   1.253
 7035SOL    HW222005   2.353   0.150   1.366
 7036SOL     OW22006   0.153   2.138   2.586
 7036SOL    HW122007   0.163   2.151   2.488
 7036SOL    HW222008   0.092   2.209   2.623
 7037SOL     OW22009   0.604   1.470   5.915
 7037SOL    HW122010   0.572   1.456   6.009
 7037SOL    HW222011   0.691   1.520   5.917
 7038SOL     OW22012   2.251   4.606   5.597
 7038SOL    HW122013   2.194   4.679   5.558
 7038SOL    HW222014   2.232   4.599   5.695
 7039SOL     OW22015   0.285   5.801   3.672
 7039SOL    HW122016   0.216   5.874   3.670
 7039SOL    HW222017   0.373   5.839   3.644
 7040SOL     OW22018   4.518   2.224   5.044
 7040SOL    HW122019   4.574   2.207   4.963
 7040SOL    HW222020   4.548   2.165   5.119
 7041SOL     OW22021   1.043   1.612   3.619
 7041SOL    HW122022   0.964   1.671   3.599
 7041SOL    HW222023   1.040   1.585   3.715
 7042SOL     OW22024   4.328   5.553   4.743
 7042SOL    HW122025   4.286   5.558   4.652
 7042SOL    HW222026   4.398   5.481   4.744
 7043SOL     OW22027   2.615   4.629   3.623
 7043SOL    HW122028   2.577   4.547   3.580
 7043SOL    HW222029   2.585   4.634   3.718
 7044SOL     OW22030   4.863   0.439   4.798
 7044SOL    HW122031   4.931   0.384   4.847
 7044SOL    HW222032   4.888   0.536   4.804
 7045SOL     OW22033   5.590   5.462   2.393
 7045SOL    HW122034   5.625   5.386   2.449
 7045SOL    HW222035   5.622   5.548   2.430
 7046SOL     OW22036   3.218   2.095   3.825
 7046SOL    HW122037   3.278   2.123   3.750
 7046SOL    HW222038   3.258   2.123   3.912
 7047SOL     OW22039   0.199   1.050   1.038
 7047SOL    HW122040   0.267   1.104   1.087
 7047SOL    HW222041   0.203   0.955   1.070
 7048SOL     OW22042   5.831   6.551   4.646
 7048SOL    HW122043   5.871   6.616   4.711
 7048SOL    HW222044   5.746   6.589   4.609
 7049SOL     OW22045   3.841   1.164   2.278
 7049SOL    HW122046   3.804   1.075   2.251
 7049SOL    HW222047   3.836   1.227   2.200
 7050SOL     OW22048   3.703   4.557   0.911
 7050SOL    HW122049   3.712   4.578   0.813
 7050SOL    HW222050   3.729   4.637   0.965
 7051SOL     OW22051   6.430   6.388   1.035
 7051SOL    HW122052   6.418   6.482   1.002
 7051SOL    HW222053   6.501   6.343   0.981
 7052SOL     OW22054   5.861   0.076   3.739
 7052SOL    HW122055   5.934   0.020   3.699
 7052SOL    HW222056   5.829   0.142   3.670
 7053SOL     OW22057   2.130   3.643   3.853
 7053SOL    HW122058   2.226   3.662   3.830
 7053SOL    HW222059   2.086   3.727   3.884
 7054SOL     OW22060   6.927   6.797   1.046
 7054SOL    HW122061   6.936   6.894   1.024
 7054SOL    HW222062   6.987   6.775   1.123
 7055SOL     OW22063   2.739   0.517   0.176
 7055SOL    HW122064   2.738   0.604   0.226
 7055SOL    HW222065   2.830   0.502   0.138
 7056SOL     OW22066   6.944   5.650   0.893
 7056SOL    HW122067   6.943   5.666   0.794
 7056SOL    HW222068   6.984   5.730   0.939
 7057SOL     OW22069   3.067   5.715   4.492
 7057SOL    HW122070   3.059   5.642   4.424
 7057SOL    HW222071   3.149   5.700   4.547
 7058SOL     OW22072   5.747   2.071   6.609
 7058SOL    HW122073   5.820   2.014   6.571
 7058SOL    HW222074   5.676   2.012   6.648
 7059SOL     OW22075   1.609   1.142   4.880
 7059SOL    HW122076   1.701   1.102   4.875
 7059SOL    HW222077   1.615   1.241   4.876
 7060SOL     OW22078   3.555   6.318   1.948
 7060SOL    HW122079   3.639   6.265   1.958
 7060SOL    HW222080   3.527   6.319   1.852
 7061SOL     OW22081   0.567   2.237   2.233
 7061SOL    HW122082   0.592   2.306   2.300
 7061SOL    HW222083   0.483   2.264   2.187
 7062SOL     OW22084   4.398   1.928   4.181
 7062SOL    HW122085   4.307   1.966   4.161
 7062SOL    HW222086   4.405   1.908   4.279
 7063SOL     OW22087   0.434   6.482   2.156
 7063SOL    HW122088   0.460   6.491   2.252
 7063SOL    HW222089   0.428   6.574   2.116
 7064SOL     OW22090   4.576   1.933   6.139
 7064SOL    HW122091   4.563   1.856   6.202
 7064SOL    HW222092   4.528   2.014   6.175
 7065SOL     OW22093   3.479   4.495   5.328
 7065SOL    HW122094   3.431   4.410   5.348
 7065SOL    HW222095   3.577   4.482   5.341
 7066SOL     OW22096   4.587   1.138   6.734
 7066SOL    HW122097   4.497   1.158   6.695
 7066SOL    HW222098   4.652   1.209   6.704
 7067SOL     OW22099   1.371   3.586   6.872
 7067SOL    HW122100   1.280   3.614   6.902
 7067SOL    HW222101   1.423   3.667   6.843
 7068SOL     OW22102   5.967   4.525   4.149
 7068SOL    HW122103   5.993   4.614   4.110
 7068SOL    HW222104   6.047   4.484   4.193
 7069SOL     OW22105   6.109   2.084   5.650
 7069SOL    HW122106   6.199   2.042   5.637
 7069SOL    HW222107   6.040   2.013   5.658
 7070SOL     OW22108   0.837   6.786   4.967
 7070SOL    HW122109   0.890   6.747   5.042
 7070SOL    HW222110   0.743   6.753   4.973
 7071SOL     OW22111   4.905   6.502   6.688
 7071SOL    HW122112   4.878   6.528   6.595
 7071SOL    HW222113   4.871   6.571   6.752
 7072SOL     OW22114   1.818   4.228   0.024
 7072SOL    HW122115   1.741   4.248   0.085
 7072SOL    HW222116   1.886   4.301   0.031
 7073SOL     OW22117   3.870   0.240   3.084
 7073SOL    HW122118   3.838   0.147   3.105
 7073SOL    HW222119   3.837   0.303   3.154
 7074SOL     OW22120   6.951   3.696   4.103
 7074SOL    HW122121   7.013   3.760   4.149
 7074SOL    HW222122   6.994   3.606   4.098
 7075SOL     OW22123   3.118   4.841   4.845
 7075SOL    HW122124   3.083   4.750   4.867
 7075SOL    HW222125   3.173   4.875   4.921
 7076SOL     OW22126   5.925   3.164   1.693
 7076SOL    HW122127   6.016   3.191   1.722
 7076SOL    HW222128   5.902   3.076   1.734
 7077SOL     OW22129   2.446   4.777   2.628
 7077SOL    HW122130   2.481   4.684   2.611
 7077SOL    HW222131   2.390   4.805   2.551
 7078SOL     OW22132   5.190   6.611   0.690
 7078SOL    HW122133   5.205   6.575   0.782
 7078SOL    HW222134   5.184   6.536   0.625
 7079SOL     OW22135   1.009   6.644   4.182
 7079SOL    HW122136   1.013   6.659   4.083
 7079SOL    HW222137   1.016   6.546   4.201
 7080SOL     OW22138   4.041   1.912   4.432
 7080SOL    HW122139   4.079   1.960   4.354
 7080SOL    HW222140   3.941   1.919   4.431
 7081SOL     OW22141   1.188   6.564   0.238
 7081SOL    HW122142   1.277   6.588   0.201
 7081SOL    HW222143   1.116   6.591   0.174
 7082SOL     OW22144   6.902   3.718   1.591
 7082SOL    HW122145   6.863   3.677   1.674
 7082SOL    HW222146   6.844   3.698   1.513
 7083SOL     OW22147   0.103   1.672   2.198
 7083SOL    HW122148   0.073   1.577   2.207
 7083SOL    HW222149   0.115   1.712   2.289
 7084SOL     OW22150   0.122   5.890   5.100
 7084SOL    HW122151   0.053   5.844   5.044
 7084SOL    HW222152   0.076   5.942   5.172
 7085SOL     OW22153   6.713   2.397   2.591
 7085SOL    HW122154   6.774   2.319   2.581
 7085SOL    HW222155   6.729   2.461   2.515
 7086SOL     OW22156   5.847   0.176   0.115
 7086SOL    HW122157   5.924   0.186   0.178
 7086SOL    HW222158   5.872   0.114   0.041
 7087SOL     OW22159   5.235   3.490   2.780
 7087SOL    HW122160   5.234   3.423   2.705
 7087SOL    HW222161   5.326   3.490   2.822
 7088SOL     OW22162   5.783   2.124   4.977
 7088SOL    HW122163   5.865   2.069   4.961
 7088SOL    HW222164   5.810   2.219   4.993
 7089SOL     OW22165   3.055   4.825   2.661
 7089SOL    HW122166   3.148   4.810   2.694
 7089SOL    HW222167   3.056   4.834   2.561
 7090SOL     OW22168   2.760   1.313   0.673
 7090SOL    HW122169   2.714   1.289   0.758
 7090SOL    HW222170   2.844   1.363   0.693
 7091SOL     OW22171   0.831   0.664   1.038
 7091SOL    HW122172   0.743   0.629   1.007
 7091SOL    HW222173   0.894   0.588   1.052
 7092SOL     OW22174   4.381   2.786   6.196
 7092SOL    HW122175   4.457   2.850   6.188
 7092SOL    HW222176   4.399   2.706   6.139
 7093SOL     OW22177   3.495   3.745   1.249
 7093SOL    HW122178   3.544   3.824   1.215
 7093SOL    HW222179   3.553   3.664   1.244
 7094SOL     OW22180   1.721   6.463   5.478
 7094SOL    HW122181   1.793   6.493   5.541
 7094SOL    HW222182   1.760   6.399   5.411
 7095SOL     OW22183   3.156   4.504   5.445
 7095SOL    HW122184   3.238   4.535   5.493
 7095SOL    HW222185   3.080   4.565   5.468
 7096SOL     OW22186   6.896   0.941   1.696
 7096SOL    HW122187   6.907   0.845   1.670
 7096SOL    HW222188   6.965   0.997   1.648
 7097SOL     OW22189   5.244   0.508   2.393
 7097SOL    HW122190   5.291   0.428   2.430
 7097SOL    HW222191   5.288   0.536   2.307
 7098SOL     OW22192   1.905   6.995   4.888
 7098SOL    HW122193   1.919   0.018   4.972
 7098SOL    HW222194   1.985   6.937   4.872
 7099SOL     OW22195   3.611   2.018   4.066
 7099SOL    HW122196   3.602   2.050   3.972
 7099SOL    HW222197   3.642   1.923   4.066
 7100SOL     OW22198   0.275   4.013   0.870
 7100SOL    HW122199   0.194   3.961   0.842
 7100SOL    HW222200   0.341   3.951   0.912
 7101SOL     OW22201   2.499   6.600   5.054
 7101SOL    HW122202   2.465   6.692   5.034
 7101SOL    HW222203   2.584   6.585   5.003
 7102SOL     OW22204   5.307   0.558   0.949
 7102SOL    HW122205   5.208   0.548   0.943
 7102SOL    HW222206   5.335   0.553   1.046
 7103SOL     OW22207   5.254   5.282   2.044
 7103SOL    HW122208   5.228   5.186   2.058
 7103SOL    HW222209   5.328   5.306   2.106
 7104SOL     OW22210   5.267   3.134   3.093
 7104SOL    HW122211   5.357   3.091   3.086
 7104SOL    HW222212   5.277   3.233   3.080
 7105SOL     OW22213   3.886   4.027   4.498
 7105SOL    HW122214   3.938   3.944   4.476
 7105SOL    HW222215   3.908   4.099   4.431
 7106SOL     OW22216   3.664   2.926   1.090
 7106SOL    HW122217   3.693   2.844   1.041
 7106SOL    HW222218   3.743   2.985   1.105
 7107SOL     OW22219   3.991   0.295   0.103
 7107SOL    HW122220   4.040   0.259   0.182
 7107SOL    HW222221   3.965   0.390   0.121
 7108SOL     OW22222   2.443   6.534   2.545
 7108SOL    HW122223   2.503   6.454   2.546
 7108SOL    HW222224   2.498   6.617   2.560
 7109SOL     OW22225   1.648   0.331   6.949
 7109SOL    HW122226   1.704   0.267   6.896
 7109SOL    HW222227   1.695   0.351   0.007
 7110SOL     OW22228   3.371   6.555   4.418
 7110SOL    HW122229   3.403   6.627   4.356
 7110SOL    HW222230   3.336   6.597   4.502
 7111SOL     OW22231   1.233   1.189   3.709
 7111SOL    HW122232   1.247   1.114   3.643
 7111SOL    HW222233   1.146   1.175   3.756
 7112SOL     OW22234   2.352   4.405   4.916
 7112SOL    HW122235   2.420   4.462   4.963
 7112SOL    HW222236   2.355   4.312   4.953
 7113SOL     OW22237   2.831   5.334   5.062
 7113SOL    HW122238   2.853   5.315   5.158
 7113SOL    HW222239   2.897   5.288   5.003
 7114SOL     OW22240   4.385   5.422   1.632
 7114SOL    HW122241   4.446   5.486   1.586
 7114SOL    HW222242   4.349   5.464   1.715
 7115SOL     OW22243   5.472   4.757   6.618
 7115SOL    HW122244   5.539   4.684   6.604
 7115SOL    HW222245   5.385   4.730   6.575
 7116SOL     OW22246   5.712   4.277   3.727
 7116SOL    HW122247   5.810   4.274   3.710
 7116SOL    HW222248   5.692   4.346   3.797
 7117SOL     OW22249   6.118   6.988   4.240
 7117SOL    HW122250   6.072   6.900   4.230
 7117SOL    HW222251   6.050   0.031   4.257
 7118SOL     OW22252   3.959   4.452   5.506
 7118SOL    HW122253   3.875   4.480   5.460
 7118SOL    HW222254   4.023   4.415   5.439
 7119SOL     OW22255   5.075   0.934   5.113
 7119SOL    HW122256   5.027   0.967   5.194
 7119SOL    HW222257   5.173   0.937   5.129
 7120SOL     OW22258   5.538   1.419   1.319
 7120SOL    HW122259   5.530   1.344   1.384
 7120SOL    HW222260   5.450   1.435   1.275
 7121SOL     OW22261   0.875   6.565   3.528
 7121SOL    HW122262   0.838   6.516   3.449
 7121SOL    HW222263   0.850   6.517   3.612
 7122SOL     OW22264   2.798   6.698   5.788
 7122SOL    HW122265   2.811   6.621   5.850
 7122SOL    HW222266   2.747   6.667   5.707
 7123SOL     OW22267   6.229   4.921   4.688
 7123SOL    HW122268   6.193   4.863   4.616
 7123SOL    HW222269   6.217   5.017   4.663
 7124SOL     OW22270   1.368   2.466   1.953
 7124SOL    HW122271   1.371   2.514   2.040
 7124SOL    HW222272   1.281   2.484   1.907
 7125SOL     OW22273   0.802   0.657   2.083
 7125SOL    HW122274   0.714   0.646   2.130
 7125SOL    HW222275   0.794   0.622   1.990
 7126SOL     OW22276   3.972   6.245   1.344
 7126SOL    HW122277   3.882   6.240   1.300
 7126SOL    HW222278   4.042   6.261   1.274
 7127SOL     OW22279   3.428   6.086   5.566
 7127SOL    HW122280   3.370   6.038   5.499
 7127SOL    HW222281   3.419   6.185   5.553
 7128SOL     OW22282   3.857   3.952   6.905
 7128SOL    HW122283   3.784   3.888   6.929
 7128SOL    HW222284   3.853   4.032   6.965
 7129SOL     OW22285   6.996   1.809   0.554
 7129SOL    HW122286   0.057   1.825   0.595
 7129SOL    HW222287   6.938   1.888   0.572
 7130SOL     OW22288   3.318   0.326   4.750
 7130SOL    HW122289   3.285   0.236   4.722
 7130SOL    HW222290   3.246   0.394   4.732
 7131SOL     OW22291   3.338   1.025   2.190
 7131SOL    HW122292   3.377   1.020   2.282
 7131SOL    HW222293   3.400   0.979   2.126
 7132SOL     OW22294   4.863   4.060   6.736
 7132SOL    HW122295   4.926   4.074   6.660
 7132SOL    HW222296   4.914   4.024   6.815
 7133SOL     OW22297   3.856   5.277   3.606
 7133SOL    HW122298   3.913   5.327   3.671
 7133SOL    HW222299   3.760   5.297   3.624
 7134SOL     OW22300   5.339   6.388   1.945
 7134SOL    HW122301   5.370   6.362   2.037
 7134SOL    HW222302   5.373   6.321   1.879
 7135SOL     OW22303   2.148   3.225   2.075
 7135SOL    HW122304   2.062   3.234   2.125
 7135SOL    HW222305   2.179   3.315   2.046
 7136SOL     OW22306   2.808   1.788   1.400
 7136SOL    HW122307   2.742   1.774   1.474
 7136SOL    HW222308   2.878   1.717   1.404
 7137SOL     OW22309   2.866   1.858   0.862
 7137SOL    HW122310   2.890   1.886   0.955
 7137SOL    HW222311   2.780   1.807   0.864
 7138SOL     OW22312   2.302   0.854   1.524
 7138SOL    HW122313   2.311   0.841   1.623
 7138SOL    HW222314   2.381   0.812   1.479
 7139SOL     OW22315   4.988   5.578   2.255
 7139SOL    HW122316   5.076   5.561   2.300
 7139SOL    HW222317   4.997   5.654   2.191
 7140SOL     OW22318   6.027   4.227   0.438
 7140SOL    HW122319   6.063   4.290   0.506
 7140SOL    HW222320   5.972   4.157   0.483
 7141SOL     OW22321   4.159   6.048   1.448
 7141SOL    HW122322   4.113   5.980   1.505
 7141SOL    HW222323   4.098   6.125   1.432
 7142SOL     OW22324   2.933   0.525   4.259
 7142SOL    HW122325   3.004   0.456   4.244
 7142SOL    HW222326   2.869   0.493   4.328
 7143SOL     OW22327   2.429   4.280   6.629
 7143SOL    HW122328   2.366   4.357   6.633
 7143SOL    HW222329   2.481   4.284   6.543
 7144SOL     OW22330   0.193   1.192   4.318
 7144SOL    HW122331   0.249   1.237   4.249
 7144SOL    HW222332   0.166   1.102   4.286
 7145SOL     OW22333   4.490   1.736   6.871
 7145SOL    HW122334   4.413   1.678   6.845
 7145SOL    HW222335   4.459   1.808   6.933
 7146SOL     OW22336   2.112   1.283   5.048
 7146SOL    HW122337   2.125   1.229   4.965
 7146SOL    HW222338   2.191   1.341   5.063
 7147SOL     OW22339   5.568   4.937   3.323
 7147SOL    HW122340   5.477   4.926   3.284
 7147SOL    HW222341   5.618   5.006   3.272
 7148SOL     OW22342   6.353   6.547   0.673
 7148SOL    HW122343   6.303   6.530   0.758
 7148SOL    HW222344   6.438   6.496   0.674
 7149SOL     OW22345   6.901   4.760   3.304
 7149SOL    HW122346   6.988   4.713   3.320
 7149SOL    HW222347   6.888   4.830   3.374
 7150SOL     OW22348   4.295   3.218   0.051
 7150SOL    HW122349   4.343   3.272   7.011
 7150SOL    HW222350   4.233   3.277   0.102
 7151SOL     OW22351   3.324   0.195   0.676
 7151SOL    HW122352   3.295   0.199   0.772
 7151SOL    HW222353   3.424   0.188   0.672
 7152SOL     OW22354   6.836   1.016   6.781
 7152SOL    HW122355   6.850   0.935   6.725
 7152SOL    HW222356   6.922   1.068   6.786
 7153SOL     OW22357   4.096   5.717   1.612
 7153SOL    HW122358   4.180   5.771   1.610
 7153SOL    HW222359   4.017   5.778   1.612
 7154SOL     OW22360   4.231   1.328   2.282
 7154SOL    HW122361   4.172   1.393   2.234
 7154SOL    HW222362   4.327   1.348   2.260
 7155SOL     OW22363   3.233   1.735   1.266
 7155SOL    HW122364   3.240   1.672   1.189
 7155SOL    HW222365   3.313   1.796   1.267
 7156SOL     OW22366   5.550   3.100   1.985
 7156SOL    HW122367   5.634   3.048   1.973
 7156SOL    HW222368   5.471   3.041   1.965
 7157SOL     OW22369   5.892   4.190   0.113
 7157SOL    HW122370   5.985   4.154   0.122
 7157SOL    HW222371   5.839   4.168   0.196
 7158SOL     OW22372   6.282   0.146   3.916
 7158SOL    HW122373   6.326   0.168   4.003
 7158SOL    HW222374   6.311   0.212   3.847
 7159SOL     OW22375   6.668   5.222   4.109
 7159SOL    HW122376   6.612   5.150   4.149
 7159SOL    HW222377   6.733   5.256   4.178
 7160SOL     OW22378   5.970   6.585   2.471
 7160SOL    HW122379   5.885   6.547   2.435
 7160SOL    HW222380   5.950   6.664   2.528
 7161SOL     OW22381   3.605   3.715   3.452
 7161SOL    HW122382   3.518   3.666   3.441
 7161SOL    HW222383   3.678   3.664   3.407
 7162SOL     OW22384   6.807   4.730   1.513
 7162SOL    HW122385   6.802   4.630   1.522
 7162SOL    HW222386   6.878   4.753   1.446
 7163SOL     OW22387   1.120   1.468   2.663
 7163SOL    HW122388   1.166   1.487   2.576
 7163SOL    HW222389   1.034   1.420   2.645
 7164SOL     OW22390   1.655   0.782   6.160
 7164SOL    HW122391   1.736   0.814   6.111
 7164SOL    HW222392   1.683   0.727   6.239
 7165SOL     OW22393   5.177   0.013   0.572
 7165SOL    HW122394   5.222   6.984   0.504
 7165SOL    HW222395   5.167   6.991   0.657
 7166SOL     OW22396   5.389   0.842   5.759
 7166SOL    HW122397   5.457   0.908   5.725
 7166SOL    HW222398   5.327   0.817   5.685
 7167SOL     OW22399   6.064   2.296   5.485
 7167SOL    HW122400   6.033   2.234   5.414
 7167SOL    HW222401   6.090   2.244   5.567
 7168SOL     OW22402   2.836   0.622   2.868
 7168SOL    HW122403   2.835   0.720   2.846
 7168SOL    HW222404   2.929   0.587   2.858
 7169SOL     OW22405   1.507   4.058   5.076
 7169SOL    HW122406   1.552   3.995   5.012
 7169SOL    HW222407   1.537   4.151   5.057
 7170SOL     OW22408   4.655   0.305   2.114
 7170SOL    HW122409   4.614   0.396   2.105
 7170SOL    HW222410   4.595   0.248   2.170
 7171SOL     OW22411   5.579   5.124   1.032
 7171SOL    HW122412   5.496   5.078   1.000
 7171SOL    HW222413   5.649   5.119   0.961
 7172SOL     OW22414   1.793   1.466   5.303
 7172SOL    HW122415   1.757   1.457   5.396
 7172SOL    HW222416   1.803   1.375   5.263
 7173SOL     OW22417   5.715   6.046   6.724
 7173SOL    HW122418   5.753   5.954   6.712
 7173SOL    HW222419   5.718   6.094   6.636
 7174SOL     OW22420   5.906   4.661   1.351
 7174SOL    HW122421   5.921   4.655   1.253
 7174SOL    HW222422   5.850   4.742   1.372
 7175SOL     OW22423   6.182   3.939   5.046
 7175SOL    HW122424   6.250   3.991   5.099
 7175SOL    HW222425   6.115   3.898   5.107
 7176SOL     OW22426   0.711   1.301   3.766
 7176SOL    HW122427   0.623   1.270   3.731
 7176SOL    HW222428   0.699   1.382   3.823
 7177SOL     OW22429   1.864   5.629   5.716
 7177SOL    HW122430   1.803   5.688   5.769
 7177SOL    HW222431   1.919   5.573   5.778
 7178SOL     OW22432   0.288   0.819   5.583
 7178SOL    HW122433   0.384   0.827   5.557
 7178SOL    HW222434   0.279   0.757   5.661
 7179SOL     OW22435   2.198   4.666   5.876
 7179SOL    HW122436   2.119   4.646   5.934
 7179SOL    HW222437   2.241   4.752   5.905
 7180SOL     OW22438   2.046   4.736   1.036
 7180SOL    HW122439   2.126   4.679   1.020
 7180SOL    HW222440   1.977   4.684   1.087
 7181SOL     OW22441   2.217   1.138   5.850
 7181SOL    HW122442   2.234   1.064   5.916
 7181SOL    HW222443   2.120   1.138   5.825
 7182SOL     OW22444   0.335   3.127   4.477
 7182SOL    HW122445   0.425   3.162   4.503
 7182SOL    HW222446   0.270   3.203   4.472
 7183SOL     OW22447   1.836   6.643   1.417
 7183SOL    HW122448   1.817   6.646   1.516
 7183SOL    HW222449   1.906   6.711   1.395
 7184SOL     OW22450   5.917   1.467   3.291
 7184SOL    HW122451   5.924   1.553   3.341
 7184SOL    HW222452   5.845   1.411   3.332
 7185SOL     OW22453   5.067   1.319   5.708
 7185SOL    HW122454   5.146   1.294   5.764
 7185SOL    HW222455   4.982   1.295   5.757
 7186SOL     OW22456   0.241   6.978   0.171
 7186SOL    HW122457   0.296   6.902   0.206
 7186SOL    HW222458   0.144   6.953   0.173
 7187SOL     OW22459   2.927   3.750   4.456
 7187SOL    HW122460   2.954   3.743   4.360
 7187SOL    HW222461   2.831   3.776   4.462
 7188SOL     OW22462   4.461   4.081   6.625
 7188SOL    HW122463   4.439   4.170   6.583
 7188SOL    HW222464   4.505   4.096   6.713
 7189SOL     OW22465   6.250   3.002   5.367
 7189SOL    HW122466   6.177   3.036   5.426
 7189SOL    HW222467   6.270   3.070   5.296
 7190SOL     OW22468   6.000   5.731   0.889
 7190SOL    HW122469   6.073   5.768   0.832
 7190SOL    HW222470   5.952   5.658   0.840
 7191SOL     OW22471   0.790   4.320   3.124
 7191SOL    HW122472   0.690   4.318   3.122
 7191SOL    HW222473   0.820   4.386   3.193
 7192SOL     OW22474   1.641   4.058   6.467
 7192SOL    HW122475   1.554   4.024   6.503
 7192SOL    HW222476   1.698   3.982   6.437
 7193SOL     OW22477   2.777   1.914   2.286
 7193SOL    HW122478   2.827   1.878   2.365
 7193SOL    HW222479   2.784   2.014   2.284
 7194SOL     OW22480   2.181   2.434   0.400
 7194SOL    HW122481   2.264   2.462   0.352
 7194SOL    HW222482   2.124   2.514   0.420
 7195SOL     OW22483   6.742   4.237   0.085
 7195SOL    HW122484   6.793   4.182   0.019
 7195SOL    HW222485   6.658   4.269   0.044
 7196SOL     OW22486   3.458   3.922   2.582
 7196SOL    HW122487   3.443   3.832   2.625
 7196SOL    HW222488   3.506   3.982   2.646
 7197SOL     OW22489   1.257   3.329   5.397
 7197SOL    HW122490   1.206   3.243   5.397
 7197SOL    HW222491   1.292   3.347   5.489
 7198SOL     OW22492   0.303   0.585   0.648
 7198SOL    HW122493   0.351   0.498   0.654
 7198SOL    HW222494   0.269   0.599   0.555
 7199SOL     OW22495   0.856   0.181   2.108
 7199SOL    HW122496   0.956   0.174   2.111
 7199SOL    HW222497   0.824   0.167   2.015
 7200SOL     OW22498   1.917   2.284   0.876
 7200SOL    HW122499   1.836   2.273   0.819
 7200SOL    HW222500   1.895   2.343   0.953
 7201SOL     OW22501   7.001   5.311   3.944
 7201SOL    HW122502   0.037   5.323   3.869
 7201SOL    HW222503   6.952   5.224   3.933
 7202SOL     OW22504   5.168   7.010   6.263
 7202SOL    HW122505   5.163   7.026   6.165
 7202SOL    HW222506   5.259   6.974   6.286
 7203SOL     OW22507   0.598   1.033   2.062
 7203SOL    HW122508   0.544   1.061   2.141
 7203SOL    HW222509   0.550   0.959   2.014
 7204SOL     OW22510   6.146   1.785   0.597
 7204SOL    HW122511   6.138   1.861   0.662
 7204SOL    HW222512   6.187   1.706   0.642
 7205SOL     OW22513   1.427   2.899   4.916
 7205SOL    HW122514   1.415   2.998   4.910
 7205SOL    HW222515   1.525   2.878   4.917
 7206SOL     OW22516   1.366   1.547   1.562
 7206SOL    HW122517   1.386   1.552   1.464
 7206SOL    HW222518   1.401   1.461   1.599
 7207SOL     OW22519   1.849   2.216   4.075
 7207SOL    HW122520   1.893   2.186   3.990
 7207SOL    HW222521   1.813   2.137   4.123
 7208SOL     OW22522   3.768   0.724   4.097
 7208SOL    HW122523   3.723   0.660   4.034
 7208SOL    HW222524   3.799   0.804   4.046
 7209SOL     OW22525   2.119   2.328   2.554
 7209SOL    HW122526   2.077   2.259   2.613
 7209SOL    HW222527   2.192   2.286   2.500
 7210SOL     OW22528   3.406   2.154   3.051
 7210SOL    HW122529   3.485   2.174   2.993
 7210SOL    HW222530   3.403   2.056   3.070
 7211SOL     OW22531   2.663   6.339   5.645
 7211SOL    HW122532   2.639   6.271   5.575
 7211SOL    HW222533   2.750   6.382   5.620
 7212SOL     OW22534   6.144   6.052   6.348
 7212SOL    HW122535   6.158   5.983   6.277
 7212SOL    HW222536   6.232   6.088   6.379
 7213SOL     OW22537   3.577   6.733   0.225
 7213SOL    HW122538   3.609   6.752   0.132
 7213SOL    HW222539   3.650   6.753   0.290
 7214SOL     OW22540   6.839   1.154   6.068
 7214SOL    HW122541   6.826   1.105   5.982
 7214SOL    HW222542   6.907   1.107   6.124
 7215SOL     OW22543   6.710   2.785   3.900
 7215SOL    HW122544   6.765   2.771   3.982
 7215SOL    HW222545   6.616   2.757   3.918
 7216SOL     OW22546   2.928   6.580   2.522
 7216SOL    HW122547   3.018   6.597   2.483
 7216SOL    HW222548   2.917   6.481   2.538
 7217SOL     OW22549   1.467   4.557   3.802
 7217SOL    HW122550   1.391   4.547   3.866
 7217SOL    HW222551   1.502   4.650   3.805
 7218SOL     OW22552   0.091   2.967   3.934
 7218SOL    HW122553   0.165   2.939   3.872
 7218SOL    HW222554   0.003   2.948   3.892
 7219SOL     OW22555   3.368   6.538   1.544
 7219SOL    HW122556   3.393   6.615   1.604
 7219SOL    HW222557   3.395   6.559   1.450
 7220SOL     OW22558   6.560   4.140   4.669
 7220SOL    HW122559   6.586   4.197   4.746
 7220SOL    HW222560   6.642   4.107   4.622
 7221SOL     OW22561   3.276   6.160   4.883
 7221SOL    HW122562   3.365   6.192   4.852
 7221SOL    HW222563   3.270   6.061   4.873
 7222SOL     OW22564   5.707   6.804   2.993
 7222SOL    HW122565   5.639   6.858   2.943
 7222SOL    HW222566   5.733   6.851   3.077
 7223SOL     OW22567   2.287   2.078   1.071
 7223SOL    HW122568   2.328   2.012   1.133
 7223SOL    HW222569   2.357   2.144   1.042
 7224SOL     OW22570   4.672   2.609   4.212
 7224SOL    HW122571   4.668   2.642   4.118
 7224SOL    HW222572   4.589   2.557   4.234
 7225SOL     OW22573   2.193   6.356   0.565
 7225SOL    HW122574   2.265   6.405   0.613
 7225SOL    HW222575   2.179   6.267   0.607
 7226SOL     OW22576   5.945   0.728   0.686
 7226SOL    HW122577   5.992   0.749   0.601
 7226SOL    HW222578   5.898   0.640   0.678
 7227SOL     OW22579   3.029   0.929   1.965
 7227SOL    HW122580   3.054   1.008   2.021
 7227SOL    HW222581   3.081   0.931   1.879
 7228SOL     OW22582   0.480   1.555   3.084
 7228SOL    HW122583   0.566   1.545   3.033
 7228SOL    HW222584   0.406   1.571   3.019
 7229SOL     OW22585   7.000   6.672   4.410
 7229SOL    HW122586   0.015   6.642   4.495
 7229SOL    HW222587   6.910   6.629   4.402
 7230SOL     OW22588   2.850   5.307   3.844
 7230SOL    HW122589   2.836   5.226   3.901
 7230SOL    HW222590   2.863   5.278   3.749
 7231SOL     OW22591   3.512   6.925   0.662
 7231SOL    HW122592   3.554   7.007   0.623
 7231SOL    HW222593   3.530   6.922   0.761
 7232SOL     OW22594   4.931   6.493   2.568
 7232SOL    HW122595   4.860   6.563   2.577
 7232SOL    HW222596   4.917   6.423   2.638
 7233SOL     OW22597   6.685   1.886   5.660
 7233SOL    HW122598   6.666   1.847   5.750
 7233SOL    HW222599   6.660   1.983   5.660
 7234SOL     OW22600   5.265   4.014   2.519
 7234SOL    HW122601   5.229   3.933   2.564
 7234SOL    HW222602   5.343   4.050   2.571
 7235SOL     OW22603   6.336   5.352   1.564
 7235SOL    HW122604   6.302   5.444   1.544
 7235SOL    HW222605   6.316   5.329   1.659
 7236SOL     OW22606   1.846   2.444   2.881
 7236SOL    HW122607   1.846   2.346   2.902
 7236SOL    HW222608   1.850   2.456   2.782
 7237SOL     OW22609   4.572   7.026   6.533
 7237SOL    HW122610   4.565   6.970   6.615
 7237SOL    HW222611   4.648   0.062   6.543
 7238SOL     OW22612   4.593   2.782   6.768
 7238SOL    HW122613   4.585   2.817   6.861
 7238SOL    HW222614   4.659   2.708   6.765
 7239SOL     OW22615   0.370   3.280   2.501
 7239SOL    HW122616   0.415   3.192   2.488
 7239SOL    HW222617   0.438   3.348   2.530
 7240SOL     OW22618   6.808   2.038   6.869
 7240SOL    HW122619   6.708   2.043   6.862
 7240SOL    HW222620   6.846   2.129   6.854
 7241SOL     OW22621   2.346   0.027   0.273
 7241SOL    HW122622   2.414   0.025   0.346
 7241SOL    HW222623   2.390   0.006   0.186
 7242SOL     OW22624   6.975   6.061   5.243
 7242SOL    HW122625   6.958   5.983   5.303
 7242SOL    HW222626   6.988   6.143   5.298
 7243SOL     OW22627   6.821   3.949   6.735
 7243SOL    HW122628   6.814   4.047   6.714
 7243SOL    HW222629   6.737   3.903   6.704
 7244SOL     OW22630   0.148   6.841   0.760
 7244SOL    HW122631   0.192   6.891   0.835
 7244SOL    HW222632   0.080   6.901   0.716
 7245SOL     OW22633   1.737   2.014   5.530
 7245SOL    HW122634   1.682   1.971   5.602
 7245SOL    HW222635   1.764   2.106   5.558
 7246SOL     OW22636   2.284   0.334   4.452
 7246SOL    HW122637   2.345   0.385   4.392
 7246SOL    HW222638   2.231   0.398   4.508
 7247SOL     OW22639   3.129   2.243   5.603
 7247SOL    HW122640   3.090   2.313   5.544
 7247SOL    HW222641   3.206   2.199   5.557
 7248SOL     OW22642   3.130   0.573   3.657
 7248SOL    HW122643   3.042   0.535   3.627
 7248SOL    HW222644   3.130   0.582   3.757
 7249SOL     OW22645   4.659   5.012   1.899
 7249SOL    HW122646   4.646   4.982   1.993
 7249SOL    HW222647   4.743   5.067   1.893
 7250SOL     OW22648   5.000   4.798   5.811
 7250SOL    HW122649   5.010   4.698   5.816
 7250SOL    HW222650   5.084   4.842   5.843
 7251SOL     OW22651   0.679   0.119   5.521
 7251SOL    HW122652   0.584   0.147   5.508
 7251SOL    HW222653   0.711   0.149   5.611
 7252SOL     OW22654   3.003   3.831   1.887
 7252SOL    HW122655   2.938   3.881   1.830
 7252SOL    HW222656   3.030   3.746   1.841
 7253SOL     OW22657   1.662   6.535   6.513
 7253SOL    HW122658   1.628   6.496   6.427
 7253SOL    HW222659   1.725   6.610   6.494
 7254SOL     OW22660   6.123   5.332   4.282
 7254SOL    HW122661   6.071   5.293   4.205
 7254SOL    HW222662   6.059   5.366   4.350
 7255SOL     OW22663   4.969   3.705   6.802
 7255SOL    HW122664   4.898   3.711   6.872
 7255SOL    HW222665   4.946   3.631   6.739
 7256SOL     OW22666   3.857   6.297   5.824
 7256SOL    HW122667   3.765   6.259   5.837
 7256SOL    HW222668   3.922   6.244   5.877
 7257SOL     OW22669   0.366   1.986   4.637
 7257SOL    HW122670   0.315   1.902   4.654
 7257SOL    HW222671   0.369   2.004   4.539
 7258SOL     OW22672   5.704   1.980   2.472
 7258SOL    HW122673   5.658   2.031   2.399
 7258SOL    HW222674   5.639   1.959   2.545
 7259SOL     OW22675   1.113   3.124   2.470
 7259SOL    HW122676   1.212   3.116   2.480
 7259SOL    HW222677   1.092   3.183   2.392
 7260SOL     OW22678   5.399   2.024   1.334
 7260SOL    HW122679   5.312   2.072   1.324
 7260SOL    HW222680   5.383   1.925   1.336
 7261SOL     OW22681   0.509   4.680   1.485
 7261SOL    HW122682   0.531   4.738   1.564
 7261SOL    HW222683   0.593   4.650   1.441
 7262SOL     OW22684   5.645   1.129   6.754
 7262SOL    HW122685   5.546   1.135   6.768
 7262SOL    HW222686   5.671   1.184   6.675
 7263SOL     OW22687   0.304   6.157   0.077
 7263SOL    HW122688   0.221   6.146   0.022
 7263SOL    HW222689   0.313   6.079   0.140
 7264SOL     OW22690   5.435   0.862   0.882
 7264SOL    HW122691   5.385   0.777   0.899
 7264SOL    HW222692   5.522   0.860   0.930
 7265SOL     OW22693   5.621   5.060   4.994
 7265SOL    HW122694   5.638   5.040   5.090
 7265SOL    HW222695   5.523   5.070   4.978
 7266SOL     OW22696   6.712   0.915   3.826
 7266SOL    HW122697   6.669   0.840   3.775
 7266SOL    HW222698   6.738   0.988   3.763
 7267SOL     OW22699   6.457   6.983   5.272
 7267SOL    HW122700   6.541   0.009   5.264
 7267SOL    HW222701   6.402   6.996   5.190
 7268SOL     OW22702   0.096   6.006   4.221
 7268SOL    HW122703   0.007   5.980   4.259
 7268SOL    HW222704   0.146   6.061   4.288
 7269SOL     OW22705   1.733   6.239   5.840
 7269SOL    HW122706   1.663   6.198   5.899
 7269SOL    HW222707   1.732   6.338   5.851
 7270SOL     OW22708   0.105   2.094   3.998
 7270SOL    HW122709   0.160   2.042   4.064
 7270SOL    HW222710   0.158   2.173   3.967
 7271SOL     OW22711   1.618   5.170   4.172
 7271SOL    HW122712   1.615   5.139   4.268
 7271SOL    HW222713   1.530   5.149   4.128
 7272SOL     OW22714   6.268   5.890   2.226
 7272SOL    HW122715   6.232   5.927   2.140
 7272SOL    HW222716   6.248   5.792   2.231
 7273SOL     OW22717   5.281   3.565   0.178
 7273SOL    HW122718   5.243   3.473   0.191
 7273SOL    HW222719   5.249   3.602   0.091
 7274SOL     OW22720   0.270   4.608   0.219
 7274SOL    HW122721   0.265   4.544   0.142
 7274SOL    HW222722   0.255   4.701   0.186
 7275SOL     OW22723   0.145   5.632   2.542
 7275SOL    HW122724   0.162   5.728   2.564
 7275SOL    HW222725   0.051   5.608   2.567
 7276SOL     OW22726   5.731   0.548   3.494
 7276SOL    HW122727   5.819   0.526   3.452
 7276SOL    HW222728   5.660   0.488   3.457
 7277SOL     OW22729   4.837   0.680   4.948
 7277SOL    HW122730   4.914   0.634   4.993
 7277SOL    HW222731   4.853   0.779   4.947
 7278SOL     OW22732   3.648   3.882   1.034
 7278SOL    HW122733   3.717   3.810   1.030
 7278SOL    HW222734   3.668   3.951   0.965
 7279SOL     OW22735   4.376   5.831   6.861
 7279SOL    HW122736   4.322   5.888   6.923
 7279SOL    HW222737   4.454   5.884   6.828
 7280SOL     OW22738   6.988   0.142   4.068
 7280SOL    HW122739   6.966   0.237   4.046
 7280SOL    HW222740   6.972   0.125   4.165
 7281SOL     OW22741   3.064   1.873   0.072
 7281SOL    HW122742   3.012   1.941   0.021
 7281SOL    HW222743   3.049   1.886   0.170
 7282SOL     OW22744   5.921   4.994   2.325
 7282SOL    HW122745   5.845   4.962   2.269
 7282SOL    HW222746   5.989   5.038   2.266
 7283SOL     OW22747   3.077   1.743   3.249
 7283SOL    HW122748   2.995   1.785   3.211
 7283SOL    HW222749   3.143   1.724   3.175
 7284SOL     OW22750   0.560   3.574   5.987
 7284SOL    HW122751   0.567   3.551   5.890
 7284SOL    HW222752   0.615   3.511   6.041
 7285SOL     OW22753   5.196   3.676   2.248
 7285SOL    HW122754   5.099   3.653   2.245
 7285SOL    HW222755   5.236   3.645   2.334
 7286SOL     OW22756   2.596   1.726   0.900
 7286SOL    HW122757   2.616   1.629   0.882
 7286SOL    HW222758   2.515   1.753   0.848
 7287SOL     OW22759   6.874   2.475   6.462
 7287SOL    HW122760   6.781   2.457   6.496
 7287SOL    HW222761   6.920   2.388   6.445
 7288SOL     OW22762   3.066   1.045   0.284
 7288SOL    HW122763   2.976   1.087   0.273
 7288SOL    HW222764   3.136   1.106   0.248
 7289SOL     OW22765   6.029   1.526   3.579
 7289SOL    HW122766   5.961   1.486   3.641
 7289SOL    HW222767   5.986   1.600   3.526
 7290SOL     OW22768   3.655   6.970   5.808
 7290SOL    HW122769   3.563   6.944   5.838
 7290SOL    HW222770   3.648   0.010   5.736
 7291SOL     OW22771   1.449   6.677   0.894
 7291SOL    HW122772   1.543   6.680   0.928
 7291SOL    HW222773   1.402   6.762   0.919
 7292SOL     OW22774   2.436   1.201   4.136
 7292SOL    HW122775   2.360   1.199   4.200
 7292SOL    HW222776   2.410   1.154   4.052
 7293SOL     OW22777   1.456   1.856   5.702
 7293SOL    HW122778   1.407   1.848   5.789
 7293SOL    HW222779   1.546   1.897   5.718
 7294SOL     OW22780   2.065   5.041   6.976
 7294SOL    HW122781   2.133   5.100   6.930
 7294SOL    HW222782   2.096   4.946   6.974
 7295SOL     OW22783   0.702   2.104   0.947
 7295SOL    HW122784   0.662   2.087   1.037
 7295SOL    HW222785   0.678   2.196   0.916
 7296SOL     OW22786   2.426   5.106   1.408
 7296SOL    HW122787   2.359   5.165   1.364
 7296SOL    HW222788   2.378   5.029   1.452
 7297SOL     OW22789   3.588   5.675   0.965
 7297SOL    HW122790   3.683   5.663   0.935
 7297SOL    HW222791   3.565   5.606   1.033
 7298SOL     OW22792   4.524   4.251   5.815
 7298SOL    HW122793   4.562   4.169   5.774
 7298SOL    HW222794   4.591   4.291   5.878
 7299SOL     OW22795   0.411   1.832   0.530
 7299SOL    HW122796   0.377   1.828   0.436
 7299SOL    HW222797   0.467   1.751   0.549
 7300SOL     OW22798   6.137   6.094   2.470
 7300SOL    HW122799   6.115   6.177   2.520
 7300SOL    HW222800   6.146   6.018   2.535
 7301SOL     OW22801   6.672   1.156   4.733
 7301SOL    HW122802   6.648   1.060   4.746
 7301SOL    HW222803   6.770   1.164   4.716
 7302SOL     OW22804   1.077   1.731   6.394
 7302SOL    HW122805   1.058   1.708   6.489
 7302SOL    HW222806   1.013   1.682   6.334
 7303SOL     OW22807   4.587   0.516   6.301
 7303SOL    HW122808   4.684   0.539   6.292
 7303SOL    HW222809   4.531   0.595   6.275
 7304SOL     OW22810   3.936   4.545   0.187
 7304SOL    HW122811   3.930   4.564   0.286
 7304SOL    HW222812   4.019   4.492   0.169
 7305SOL     OW22813   4.844   1.153   0.763
 7305SOL    HW122814   4.768   1.211   0.735
 7305SOL    HW222815   4.862   1.085   0.691
 7306SOL     OW22816   5.139   2.388   1.568
 7306SOL    HW122817   5.187   2.438   1.496
 7306SOL    HW222818   5.139   2.442   1.652
 7307SOL     OW22819   2.272   0.283   2.520
 7307SOL    HW122820   2.351   0.224   2.535
 7307SOL    HW222821   2.224   0.254   2.437
 7308SOL     OW22822   6.952   4.076   5.478
 7308SOL    HW122823   7.012   4.013   5.528
 7308SOL    HW222824   7.006   4.154   5.445
 7309SOL     OW22825   5.004   5.843   0.504
 7309SOL    HW122826   5.101   5.821   0.507
 7309SOL    HW222827   4.984   5.895   0.421
 7310SOL     OW22828   2.264   3.478   1.387
 7310SOL    HW122829   2.315   3.486   1.473
 7310SOL    HW222830   2.170   3.509   1.402
 7311SOL     OW22831   3.422   2.073   1.973
 7311SOL    HW122832   3.503   2.132   1.978
 7311SOL    HW222833   3.360   2.107   1.903
 7312SOL     OW22834   7.013   3.730   6.429
 7312SOL    HW122835   0.013   3.765   6.339
 7312SOL    HW222836   0.031   3.781   6.501
 7313SOL     OW22837   3.433   2.169   6.500
 7313SOL    HW122838   3.368   2.245   6.498
 7313SOL    HW222839   3.520   2.199   6.462
 7314SOL     OW22840   6.433   3.529   4.913
 7314SOL    HW122841   6.462   3.470   4.839
 7314SOL    HW222842   6.373   3.601   4.877
 7315SOL     OW22843   6.652   0.329   2.697
 7315SOL    HW122844   6.590   0.369   2.630
 7315SOL    HW222845   6.616   0.240   2.727
 7316SOL     OW22846   2.652   4.157   6.073
 7316SOL    HW122847   2.606   4.100   6.006
 7316SOL    HW222848   2.586   4.217   6.119
 7317SOL     OW22849   4.367   0.948   2.493
 7317SOL    HW122850   4.351   0.916   2.400
 7317SOL    HW222851   4.280   0.953   2.542
 7318SOL     OW22852   1.045   0.805   0.707
 7318SOL    HW122853   0.947   0.786   0.701
 7318SOL    HW222854   1.086   0.748   0.779
 7319SOL     OW22855   6.376   4.330   5.742
 7319SOL    HW122856   6.436   4.283   5.806
 7319SOL    HW222857   6.291   4.278   5.732
 7320SOL     OW22858   6.487   3.643   1.721
 7320SOL    HW122859   6.479   3.700   1.802
 7320SOL    HW222860   6.494   3.701   1.640
 7321SOL     OW22861   2.796   6.528   5.269
 7321SOL    HW122862   2.813   6.439   5.311
 7321SOL    HW222863   2.857   6.597   5.308
 7322SOL     OW22864   6.598   2.531   3.503
 7322SOL    HW122865   6.599   2.546   3.404
 7322SOL    HW222866   6.625   2.436   3.522
 7323SOL     OW22867   2.302   1.907   1.820
 7323SOL    HW122868   2.250   1.822   1.830
 7323SOL    HW222869   2.339   1.912   1.727
 7324SOL     OW22870   4.766   6.121   2.406
 7324SOL    HW122871   4.693   6.177   2.446
 7324SOL    HW222872   4.771   6.033   2.454
 7325SOL     OW22873   3.764   6.291   0.050
 7325SOL    HW122874   3.707   6.232   0.107
 7325SOL    HW222875   3.708   6.329   7.005
 7326SOL     OW22876   3.248   6.325   5.334
 7326SOL    HW122877   3.277   6.331   5.238
 7326SOL    HW222878   3.328   6.327   5.394
 7327SOL     OW22879   6.706   2.549   5.445
 7327SOL    HW122880   6.696   2.576   5.541
 7327SOL    HW222881   6.762   2.617   5.397
 7328SOL     OW22882   3.222   1.028   6.231
 7328SOL    HW122883   3.255   0.958   6.167
 7328SOL    HW222884   3.235   0.995   6.325
 7329SOL     OW22885   5.223   4.343   1.730
 7329SOL    HW122886   5.183   4.375   1.816
 7329SOL    HW222887   5.305   4.290   1.750
 7330SOL     OW22888   2.418   2.504   0.310
 7330SOL    HW122889   2.436   2.462   0.221
 7330SOL    HW222890   2.446   2.600   0.309
 7331SOL     OW22891   5.774   7.010   2.259
 7331SOL    HW122892   5.850   6.983   2.200
 7331SOL    HW222893   5.731   0.064   2.222
 7332SOL     OW22894   2.138   5.498   0.452
 7332SOL    HW122895   2.211   5.545   0.501
 7332SOL    HW222896   2.157   5.400   0.449
 7333SOL     OW22897   0.007   3.463   3.487
 7333SOL    HW122898   0.097   3.429   3.460
 7333SOL    HW222899   6.975   3.465   3.407
 7334SOL     OW22900   3.364   6.026   6.648
 7334SOL    HW122901   3.290   6.065   6.702
 7334SOL    HW222902   3.366   5.927   6.663
 7335SOL     OW22903   1.648   2.741   2.599
 7335SOL    HW122904   1.628   2.690   2.682
 7335SOL    HW222905   1.650   2.678   2.521
 7336SOL     OW22906   1.404   6.808   3.620
 7336SOL    HW122907   1.503   6.799   3.633
 7336SOL    HW222908   1.359   6.724   3.649
 7337SOL     OW22909   0.445   3.013   1.814
 7337SOL    HW122910   0.462   3.111   1.814
 7337SOL    HW222911   0.522   2.966   1.770
 7338SOL     OW22912   6.283   2.873   1.412
 7338SOL    HW122913   6.241   2.866   1.322
 7338SOL    HW222914   6.354   2.803   1.421
 7339SOL     OW22915   5.532   6.371   3.626
 7339SOL    HW122916   5.550   6.374   3.527
 7339SOL    HW222917   5.562   6.283   3.663
 7340SOL     OW22918   1.912   0.983   1.294
 7340SOL    HW122919   1.815   1.005   1.288
 7340SOL    HW222920   1.965   1.046   1.238
 7341SOL     OW22921   6.559   2.991   0.058
 7341SOL    HW122922   6.487   3.040   0.107
 7341SOL    HW222923   6.522   2.955   7.001
 7342SOL     OW22924   6.852   1.577   1.941
 7342SOL    HW122925   6.874   1.639   1.866
 7342SOL    HW222926   6.764   1.603   1.981
 7343SOL     OW22927   5.087   3.309   6.924
 7343SOL    HW122928   5.117   3.234   6.983
 7343SOL    HW222929   4.994   3.336   6.950
 7344SOL     OW22930   0.655   0.447   6.114
 7344SOL    HW122931   0.596   0.461   6.035
 7344SOL    HW222932   0.733   0.510   6.108
 7345SOL     OW22933   4.296   3.398   5.258
 7345SOL    HW122934   4.205   3.375   5.222
 7345SOL    HW222935   4.318   3.492   5.234
 7346SOL     OW22936   3.870   5.789   2.597
 7346SOL    HW122937   3.808   5.824   2.667
 7346SOL    HW222938   3.838   5.699   2.565
 7347SOL     OW22939   0.684   1.848   0.821
 7347SOL    HW122940   0.693   1.778   0.892
 7347SOL    HW222941   0.701   1.938   0.861
 7348SOL     OW22942   1.533   4.096   3.749
 7348SOL    HW122943   1.438   4.069   3.732
 7348SOL    HW222944   1.559   4.167   3.683
 7349SOL     OW22945   4.080   0.875   2.151
 7349SOL    HW122946   4.004   0.815   2.177
 7349SOL    HW222947   4.165   0.838   2.187
 7350SOL     OW22948   2.553   1.938   5.761
 7350SOL    HW122949   2.516   1.941   5.854
 7350SOL    HW222950   2.477   1.937   5.695
 7351SOL     OW22951   5.578   6.105   3.699
 7351SOL    HW122952   5.548   6.024   3.649
 7351SOL    HW222953   5.553   6.097   3.795
 7352SOL     OW22954   0.457   1.634   2.300
 7352SOL    HW122955   0.447   1.553   2.242
 7352SOL    HW222956   0.371   1.654   2.345
 7353SOL     OW22957   0.407   0.640   6.545
 7353SOL    HW122958   0.496   0.605   6.573
 7353SOL    HW222959   0.371   0.583   6.471
 7354SOL     OW22960   1.391   1.410   5.445
 7354SOL    HW122961   1.330   1.385   5.520
 7354SOL    HW222962   1.383   1.342   5.372
 7355SOL     OW22963   0.810   1.414   0.342
 7355SOL    HW122964   0.730   1.453   0.387
 7355SOL    HW222965   0.782   1.368   0.258
 7356SOL     OW22966   3.675   3.451   6.151
 7356SOL    HW122967   3.764   3.419   6.119
 7356SOL    HW222968   3.615   3.372   6.166
 7357SOL     OW22969   2.891   5.754   2.325
 7357SOL    HW122970   2.853   5.776   2.235
 7357SOL    HW222971   2.817   5.727   2.386
 7358SOL     OW22972   6.351   3.669   2.806
 7358SOL    HW122973   6.363   3.755   2.756
 7358SOL    HW222974   6.369   3.593   2.744
 7359SOL     OW22975   4.148   2.297   5.644
 7359SOL    HW122976   4.048   2.298   5.650
 7359SOL    HW222977   4.184   2.375   5.695
 7360SOL     OW22978   2.533   3.303   5.403
 7360SOL    HW122979   2.496   3.337   5.489
 7360SOL    HW222980   2.460   3.291   5.337
 7361SOL     OW22981   5.374   1.027   2.588
 7361SOL    HW122982   5.330   1.099   2.535
 7361SOL    HW222983   5.347   1.034   2.684
 7362SOL     OW22984   2.321   6.190   6.194
 7362SOL    HW122985   2.289   6.097   6.210
 7362SOL    HW222986   2.381   6.191   6.113
 7363SOL     OW22987   4.742   0.921   1.446
 7363SOL    HW122988   4.715   0.967   1.531
 7363SOL    HW222989   4.784   0.833   1.468
 7364SOL     OW22990   4.140   0.456   2.001
 7364SOL    HW122991   4.151   0.487   2.096
 7364SOL    HW222992   4.149   0.356   1.997
 7365SOL     OW22993   0.561   5.753   2.150
 7365SOL    HW122994   0.572   5.839   2.101
 7365SOL    HW222995   0.522   5.771   2.240
 7366SOL     OW22996   2.456   6.511   5.596
 7366SOL    HW122997   2.529   6.447   5.619
 7366SOL    HW222998   2.451   6.523   5.497
 7367SOL     OW22999   3.890   2.559   0.108
 7367SOL    HW123000   3.980   2.539   0.069
 7367SOL    HW223001   3.867   2.489   0.176
 7368SOL     OW23002   3.908   2.942   2.272
 7368SOL    HW123003   3.980   2.875   2.254
 7368SOL    HW223004   3.946   3.019   2.324
 7369SOL     OW23005   3.737   2.645   0.999
 7369SOL    HW123006   3.672   2.603   1.062
 7369SOL    HW223007   3.689   2.675   0.916
 7370SOL     OW23008   2.619   2.323   6.295
 7370SOL    HW123009   2.636   2.407   6.244
 7370SOL    HW223010   2.699   2.263   6.287
 7371SOL     OW23011   3.195   6.299   3.683
 7371SOL    HW123012   3.180   6.288   3.781
 7371SOL    HW223013   3.277   6.249   3.656
 7372SOL     OW23014   4.362   6.902   4.544
 7372SOL    HW123015   4.445   6.944   4.508
 7372SOL    HW223016   4.386   6.838   4.617
 7373SOL     OW23017   5.853   1.966   5.216
 7373SOL    HW123018   5.790   1.973   5.139
 7373SOL    HW223019   5.806   1.927   5.295
 7374SOL     OW23020   1.998   1.761   4.652
 7374SOL    HW123021   1.997   1.852   4.692
 7374SOL    HW223022   1.964   1.695   4.719
 7375SOL     OW23023   2.192   2.315   2.106
 7375SOL    HW123024   2.184   2.400   2.054
 7375SOL    HW223025   2.101   2.277   2.123
 7376SOL     OW23026   1.110   2.588   1.336
 7376SOL    HW123027   1.075   2.522   1.403
 7376SOL    HW223028   1.055   2.671   1.340
 7377SOL     OW23029   4.391   4.882   0.620
 7377SOL    HW123030   4.487   4.909   0.615
 7377SOL    HW223031   4.377   4.797   0.569
 7378SOL     OW23032   1.399   7.012   5.285
 7378SOL    HW123033   1.394   0.075   5.325
 7378SOL    HW223034   1.493   6.995   5.254
 7379SOL     OW23035   2.842   0.772   2.065
 7379SOL    HW123036   2.766   0.762   2.001
 7379SOL    HW223037   2.907   0.840   2.030
 7380SOL     OW23038   6.719   4.098   3.497
 7380SOL    HW123039   6.717   4.197   3.514
 7380SOL    HW223040   6.809   4.072   3.462
 7381SOL     OW23041   4.043   2.930   0.622
 7381SOL    HW123042   4.049   2.971   0.713
 7381SOL    HW223043   3.951   2.893   0.609
 7382SOL     OW23044   0.108   2.053   5.859
 7382SOL    HW123045   0.115   2.069   5.761
 7382SOL    HW223046   0.054   1.971   5.876
 7383SOL     OW23047   2.585   5.643   1.704
 7383SOL    HW123048   2.485   5.641   1.699
 7383SOL    HW223049   2.621   5.698   1.629
 7384SOL     OW23050   6.736   6.952   1.647
 7384SOL    HW123051   6.647   6.950   1.692
 7384SOL    HW223052   6.734   7.017   1.571
 7385SOL     OW23053   2.625   5.267   2.793
 7385SOL    HW123054   2.527   5.287   2.785
 7385SOL    HW223055   2.663   5.246   2.703
 7386SOL     OW23056   6.423   2.942   6.593
 7386SOL    HW123057   6.390   3.036   6.596
 7386SOL    HW223058   6.405   2.902   6.503
 7387SOL     OW23059   6.768   5.126   5.132
 7387SOL    HW123060   6.693   5.188   5.155
 7387SOL    HW223061   6.732   5.046   5.084
 7388SOL     OW23062   1.483   4.982   2.523
 7388SOL    HW123063   1.467   4.979   2.621
 7388SOL    HW223064   1.489   4.889   2.487
 7389SOL     OW23065   6.976   3.825   0.185
 7389SOL    HW123066   6.953   3.890   0.113
 7389SOL    HW223067   6.971   3.732   0.147
 7390SOL     OW23068   2.977   1.871   2.082
 7390SOL    HW123069   2.886   1.900   2.111
 7390SOL    HW223070   3.029   1.951   2.052
 7391SOL     OW23071   4.013   3.136   2.634
 7391SOL    HW123072   3.957   3.108   2.712
 7391SOL    HW223073   4.101   3.088   2.637
 7392SOL     OW23074   3.528   5.509   6.991
 7392SOL    HW123075   3.625   5.488   6.997
 7392SOL    HW223076   3.477   5.446   0.021
 7393SOL     OW23077   5.991   4.686   3.488
 7393SOL    HW123078   6.071   4.632   3.513
 7393SOL    HW223079   5.909   4.628   3.491
 7394SOL     OW23080   1.687   2.956   6.175
 7394SOL    HW123081   1.720   2.864   6.197
 7394SOL    HW223082   1.764   3.020   6.173
 7395SOL     OW23083   1.996   2.961   0.953
 7395SOL    HW123084   1.951   2.888   1.005
 7395SOL    HW223085   2.053   3.015   1.014
 7396SOL     OW23086   2.329   6.505   1.470
 7396SOL    HW123087   2.369   6.515   1.379
 7396SOL    HW223088   2.396   6.463   1.531
 7397SOL     OW23089   4.838   3.956   4.257
 7397SOL    HW123090   4.839   4.004   4.345
 7397SOL    HW223091   4.853   3.858   4.273
 7398SOL     OW23092   0.981   5.914   2.782
 7398SOL    HW123093   0.948   5.901   2.875
 7398SOL    HW223094   1.074   5.951   2.784
 7399SOL     OW23095   6.428   3.118   4.841
 7399SOL    HW123096   6.502   3.067   4.797
 7399SOL    HW223097   6.345   3.111   4.787
 7400SOL     OW23098   5.250   2.263   5.668
 7400SOL    HW123099   5.348   2.282   5.667
 7400SOL    HW223100   5.203   2.332   5.723
 7401SOL     OW23101   1.599   2.659   3.198
 7401SOL    HW123102   1.510   2.615   3.188
 7401SOL    HW223103   1.605   2.704   3.287
 7402SOL     OW23104   3.297   4.171   6.353
 7402SOL    HW123105   3.215   4.150   6.300
 7402SOL    HW223106   3.271   4.204   6.444
 7403SOL     OW23107   1.472   2.931   2.718
 7403SOL    HW123108   1.543   2.956   2.784
 7403SOL    HW223109   1.509   2.863   2.654
 7404SOL     OW23110   2.837   4.039   1.740
 7404SOL    HW123111   2.752   4.003   1.701
 7404SOL    HW223112   2.854   4.130   1.704
 7405SOL     OW23113   2.643   5.123   4.908
 7405SOL    HW123114   2.669   5.099   5.002
 7405SOL    HW223115   2.634   5.223   4.901
 7406SOL     OW23116   0.852   1.550   5.015
 7406SOL    HW123117   0.878   1.638   4.976
 7406SOL    HW223118   0.755   1.533   4.997
 7407SOL     OW23119   1.274   6.482   5.852
 7407SOL    HW123120   1.267   6.382   5.843
 7407SOL    HW223121   1.248   6.525   5.766
 7408SOL     OW23122   3.754   4.222   5.054
 7408SOL    HW123123   3.657   4.204   5.069
 7408SOL    HW223124   3.774   4.221   4.956
 7409SOL     OW23125   5.300   4.324   0.322
 7409SOL    HW123126   5.234   4.274   0.266
 7409SOL    HW223127   5.321   4.271   0.404
 7410SOL     OW23128   0.740   0.927   0.443
 7410SOL    HW123129   0.761   0.853   0.380
 7410SOL    HW223130   0.735   0.892   0.536
 7411SOL     OW23131   1.733   0.474   6.653
 7411SOL    HW123132   1.715   0.505   6.747
 7411SOL    HW223133   1.665   0.406   6.626
 7412SOL     OW23134   3.660   6.297   1.205
 7412SOL    HW123135   3.700   6.257   1.122
 7412SOL    HW223136   3.680   6.395   1.208
 7413SOL     OW23137   4.838   4.379   3.927
 7413SOL    HW123138   4.765   4.312   3.915
 7413SOL    HW223139   4.925   4.339   3.898
 7414SOL     OW23140   2.346   1.624   3.933
 7414SOL    HW123141   2.252   1.594   3.918
 7414SOL    HW223142   2.348   1.723   3.949
 7415SOL     OW23143   2.679   5.404   5.776
 7415SOL    HW123144   2.736   5.322   5.780
 7415SOL    HW223145   2.595   5.383   5.726
 7416SOL     OW23146   2.062   1.121   2.349
 7416SOL    HW123147   2.040   1.041   2.404
 7416SOL    HW223148   2.136   1.099   2.286
 7417SOL     OW23149   1.744   1.739   2.473
 7417SOL    HW123150   1.664   1.749   2.533
 7417SOL    HW223151   1.764   1.642   2.459
 7418SOL     OW23152   1.827   4.780   0.021
 7418SOL    HW123153   1.899   4.787   0.090
 7418SOL    HW223154   1.855   4.828   6.967
 7419SOL     OW23155   6.610   3.894   3.632
 7419SOL    HW123156   6.648   3.972   3.582
 7419SOL    HW223157   6.635   3.901   3.729
 7420SOL     OW23158   6.796   5.873   1.143
 7420SOL    HW123159   6.874   5.902   1.088
 7420SOL    HW223160   6.828   5.842   1.233
 7421SOL     OW23161   4.170   3.664   1.418
 7421SOL    HW123162   4.168   3.735   1.347
 7421SOL    HW223163   4.120   3.695   1.498
 7422SOL     OW23164   6.487   3.907   2.143
 7422SOL    HW123165   6.575   3.917   2.190
 7422SOL    HW223166   6.499   3.924   2.046
 7423SOL     OW23167   6.079   3.093   5.583
 7423SOL    HW123168   5.991   3.071   5.626
 7423SOL    HW223169   6.106   3.185   5.608
 7424SOL     OW23170   7.001   1.895   5.346
 7424SOL    HW123171   6.932   1.866   5.412
 7424SOL    HW223172   7.000   1.834   5.267
 7425SOL     OW23173   5.247   0.171   0.266
 7425SOL    HW123174   5.208   0.094   0.216
 7425SOL    HW223175   5.329   0.142   0.315
 7426SOL     OW23176   3.282   1.995   5.752
 7426SOL    HW123177   3.236   1.980   5.665
 7426SOL    HW223178   3.226   1.960   5.827
 7427SOL     OW23179   3.822   0.975   3.798
 7427SOL    HW123180   3.827   1.057   3.741
 7427SOL    HW223181   3.877   0.989   3.880
 7428SOL     OW23182   4.365   0.766   5.220
 7428SOL    HW123183   4.352   0.676   5.176
 7428SOL    HW223184   4.445   0.810   5.179
 7429SOL     OW23185   1.063   6.491   3.124
 7429SOL    HW123186   1.162   6.488   3.136
 7429SOL    HW223187   1.031   6.585   3.136
 7430SOL     OW23188   6.638   4.141   1.600
 7430SOL    HW123189   6.634   4.181   1.508
 7430SOL    HW223190   6.711   4.073   1.604
 7431SOL     OW23191   1.543   2.003   3.607
 7431SOL    HW123192   1.623   2.025   3.664
 7431SOL    HW223193   1.573   1.960   3.522
 7432SOL     OW23194   2.056   0.261   3.230
 7432SOL    HW123195   1.980   0.251   3.293
 7432SOL    HW223196   2.091   0.354   3.233
 7433SOL     OW23197   3.481   6.517   6.714
 7433SOL    HW123198   3.408   6.578   6.746
 7433SOL    HW223199   3.570   6.556   6.738
 7434SOL     OW23200   4.610   5.705   5.377
 7434SOL    HW123201   4.626   5.800   5.405
 7434SOL    HW223202   4.683   5.675   5.317
 7435SOL     OW23203   4.435   6.188   1.782
 7435SOL    HW123204   4.524   6.182   1.827
 7435SOL    HW223205   4.366   6.147   1.841
 7436SOL     OW23206   4.443   4.682   6.316
 7436SOL    HW123207   4.359   4.735   6.301
 7436SOL    HW223208   4.435   4.631   6.402
 7437SOL     OW23209   3.144   5.688   1.513
 7437SOL    HW123210   3.221   5.679   1.450
 7437SOL    HW223211   3.152   5.773   1.564
 7438SOL     OW23212   2.218   0.265   0.327
 7438SOL    HW123213   2.258   0.177   0.303
 7438SOL    HW223214   2.120   0.255   0.344
 7439SOL     OW23215   1.558   5.642   5.212
 7439SOL    HW123216   1.496   5.719   5.229
 7439SOL    HW223217   1.532   5.597   5.127
 7440SOL     OW23218   5.943   3.388   3.746
 7440SOL    HW123219   5.959   3.474   3.697
 7440SOL    HW223220   5.862   3.396   3.804
 7441SOL     OW23221   6.080   6.971   3.569
 7441SOL    HW123222   6.153   6.974   3.502
 7441SOL    HW223223   6.101   6.902   3.639
 7442SOL     OW23224   6.174   1.322   6.381
 7442SOL    HW123225   6.167   1.308   6.282
 7442SOL    HW223226   6.116   1.256   6.428
 7443SOL     OW23227   6.895   5.422   1.826
 7443SOL    HW123228   6.897   5.518   1.852
 7443SOL    HW223229   6.800   5.390   1.824
 7444SOL     OW23230   6.443   1.506   6.204
 7444SOL    HW123231   6.472   1.417   6.239
 7444SOL    HW223232   6.381   1.548   6.271
 7445SOL     OW23233   3.389   0.158   1.179
 7445SOL    HW123234   3.484   0.128   1.171
 7445SOL    HW223235   3.337   0.090   1.231
 7446SOL     OW23236   5.026   2.176   0.255
 7446SOL    HW123237   4.988   2.159   0.164
 7446SOL    HW223238   5.026   2.275   0.273
 7447SOL     OW23239   6.761   4.635   6.214
 7447SOL    HW123240   6.826   4.644   6.289
 7447SOL    HW223241   6.808   4.598   6.133
 7448SOL     OW23242   5.095   6.327   5.249
 7448SOL    HW123243   5.101   6.416   5.295
 7448SOL    HW223244   5.117   6.338   5.152
 7449SOL     OW23245   0.615   5.551   0.203
 7449SOL    HW123246   0.625   5.645   0.233
 7449SOL    HW223247   0.592   5.549   0.106
 7450SOL     OW23248   5.177   2.571   5.549
 7450SOL    HW123249   5.094   2.516   5.563
 7450SOL    HW223250   5.240   2.557   5.625
 7451SOL     OW23251   5.361   5.443   2.624
 7451SOL    HW123252   5.430   5.473   2.690
 7451SOL    HW223253   5.333   5.349   2.645
 7452SOL     OW23254   6.434   6.059   4.200
 7452SOL    HW123255   6.381   5.983   4.237
 7452SOL    HW223256   6.434   6.135   4.264
 7453SOL     OW23257   4.685   5.388   5.977
 7453SOL    HW123258   4.698   5.353   5.885
 7453SOL    HW223259   4.698   5.315   6.044
 7454SOL     OW23260   2.373   1.278   0.582
 7454SOL    HW123261   2.340   1.370   0.603
 7454SOL    HW223262   2.416   1.238   0.664
 7455SOL     OW23263   6.298   3.123   2.317
 7455SOL    HW123264   6.213   3.171   2.291
 7455SOL    HW223265   6.374   3.187   2.316
 7456SOL     OW23266   2.825   1.720   4.917
 7456SOL    HW123267   2.747   1.763   4.873
 7456SOL    HW223268   2.909   1.770   4.896
 7457SOL     OW23269   3.216   0.290   3.961
 7457SOL    HW123270   3.182   0.380   3.935
 7457SOL    HW223271   3.301   0.271   3.913
 7458SOL     OW23272   1.484   0.638   6.012
 7458SOL    HW123273   1.384   0.642   6.018
 7458SOL    HW223274   1.524   0.708   6.071
 7459SOL     OW23275   6.609   0.981   2.143
 7459SOL    HW123276   6.684   0.957   2.205
 7459SOL    HW223277   6.641   0.979   2.049
 7460SOL     OW23278   1.657   6.055   6.909
 7460SOL    HW123279   1.713   6.027   6.832
 7460SOL    HW223280   1.604   6.136   6.885
 7461SOL     OW23281   6.062   5.968   5.600
 7461SOL    HW123282   6.121   6.038   5.639
 7461SOL    HW223283   5.968   5.980   5.632
 7462SOL     OW23284   1.869   4.893   1.877
 7462SOL    HW123285   1.816   4.908   1.794
 7462SOL    HW223286   1.966   4.888   1.854
 7463SOL     OW23287   3.579   4.038   0.253
 7463SOL    HW123288   3.566   4.132   0.222
 7463SOL    HW223289   3.676   4.021   0.271
 7464SOL     OW23290   6.625   6.671   5.206
 7464SOL    HW123291   6.525   6.678   5.211
 7464SOL    HW223292   6.649   6.582   5.166
 7465SOL     OW23293   2.958   5.203   0.359
 7465SOL    HW123294   2.869   5.238   0.330
 7465SOL    HW223295   2.963   5.105   0.340
 7466SOL     OW23296   0.667   0.693   6.389
 7466SOL    HW123297   0.655   0.638   6.307
 7466SOL    HW223298   0.765   0.709   6.405
 7467SOL     OW23299   0.493   2.323   6.375
 7467SOL    HW123300   0.470   2.385   6.450
 7467SOL    HW223301   0.592   2.311   6.371
 7468SOL     OW23302   5.112   2.642   4.011
 7468SOL    HW123303   5.119   2.640   3.912
 7468SOL    HW223304   5.122   2.737   4.043
 7469SOL     OW23305   6.524   2.177   0.281
 7469SOL    HW123306   6.478   2.089   0.290
 7469SOL    HW223307   6.483   2.243   0.344
 7470SOL     OW23308   5.323   3.959   3.554
 7470SOL    HW123309   5.263   3.891   3.511
 7470SOL    HW223310   5.382   3.914   3.620
 7471SOL     OW23311   4.972   6.010   5.670
 7471SOL    HW123312   4.986   5.923   5.623
 7471SOL    HW223313   4.996   6.001   5.766
 7472SOL     OW23314   5.948   0.921   5.305
 7472SOL    HW123315   5.959   1.000   5.364
 7472SOL    HW223316   6.017   0.924   5.232
 7473SOL     OW23317   5.542   6.602   3.797
 7473SOL    HW123318   5.557   6.639   3.705
 7473SOL    HW223319   5.508   6.508   3.790
 7474SOL     OW23320   6.594   2.696   6.705
 7474SOL    HW123321   6.537   2.769   6.668
 7474SOL    HW223322   6.623   2.720   6.798
 7475SOL     OW23323   4.465   2.357   2.016
 7475SOL    HW123324   4.413   2.287   2.065
 7475SOL    HW223325   4.529   2.400   2.078
 7476SOL     OW23326   1.942   2.065   3.178
 7476SOL    HW123327   1.924   1.975   3.136
 7476SOL    HW223328   1.921   2.137   3.112
 7477SOL     OW23329   0.498   3.128   5.378
 7477SOL    HW123330   0.454   3.039   5.391
 7477SOL    HW223331   0.517   3.143   5.281
 7478SOL     OW23332   5.481   3.552   5.346
 7478SOL    HW123333   5.491   3.604   5.262
 7478SOL    HW223334   5.384   3.539   5.366
 7479SOL     OW23335   5.215   2.866   0.425
 7479SOL    HW123336   5.162   2.909   0.499
 7479SOL    HW223337   5.255   2.937   0.367
 7480SOL     OW23338   2.024   4.941   2.456
 7480SOL    HW123339   1.929   4.956   2.483
 7480SOL    HW223340   2.035   4.847   2.423
 7481SOL     OW23341   6.357   4.862   6.852
 7481SOL    HW123342   6.291   4.838   6.781
 7481SOL    HW223343   6.408   4.943   6.826
 7482SOL     OW23344   4.216   2.330   2.516
 7482SOL    HW123345   4.179   2.423   2.524
 7482SOL    HW223346   4.233   2.293   2.607
 7483SOL     OW23347   4.650   2.729   4.629
 7483SOL    HW123348   4.673   2.651   4.687
 7483SOL    HW223349   4.591   2.792   4.680
 7484SOL     OW23350   1.574   5.317   4.840
 7484SOL    HW123351   1.603   5.363   4.757
 7484SOL    HW223352   1.653   5.274   4.884
 7485SOL     OW23353   2.789   6.828   3.632
 7485SOL    HW123354   2.847   6.880   3.569
 7485SOL    HW223355   2.693   6.845   3.610
 7486SOL     OW23356   0.782   6.076   0.085
 7486SOL    HW123357   0.836   6.103   0.165
 7486SOL    HW223358   0.839   6.078   0.003
 7487SOL     OW23359   4.027   0.866   3.219
 7487SOL    HW123360   4.026   0.819   3.130
 7487SOL    HW223361   4.093   0.822   3.280
 7488SOL     OW23362   1.801   6.031   4.753
 7488SOL    HW123363   1.840   6.035   4.662
 7488SOL    HW223364   1.866   5.988   4.816
 7489SOL     OW23365   6.536   3.291   6.968
 7489SOL    HW123366   6.548   3.234   6.886
 7489SOL    HW223367   6.439   3.315   6.978
 7490SOL     OW23368   1.669   1.769   2.093
 7490SOL    HW123369   1.717   1.681   2.095
 7490SOL    HW223370   1.734   1.842   2.071
 7491SOL     OW23371   4.889   2.727   0.277
 7491SOL    HW123372   4.850   2.672   0.203
 7491SOL    HW223373   4.974   2.769   0.246
 7492SOL     OW23374   1.971   1.396   4.457
 7492SOL    HW123375   2.035   1.359   4.391
 7492SOL    HW223376   1.970   1.496   4.450
 7493SOL     OW23377   6.735   3.043   5.116
 7493SOL    HW123378   6.653   3.075   5.162
 7493SOL    HW223379   6.770   3.114   5.056
 7494SOL     OW23380   5.626   0.945   3.984
 7494SOL    HW123381   5.718   0.930   3.949
 7494SOL    HW223382   5.573   1.001   3.920
 7495SOL     OW23383   1.630   2.604   4.688
 7495SOL    HW123384   1.716   2.646   4.660
 7495SOL    HW223385   1.648   2.514   4.726
 7496SOL     OW23386   5.450   3.353   4.316
 7496SOL    HW123387   5.468   3.257   4.292
 7496SOL    HW223388   5.358   3.361   4.353
 7497SOL     OW23389   1.804   6.265   1.579
 7497SOL    HW123390   1.890   6.312   1.557
 7497SOL    HW223391   1.798   6.181   1.526
 7498SOL     OW23392   2.226   0.739   3.914
 7498SOL    HW123393   2.157   0.749   3.842
 7498SOL    HW223394   2.306   0.691   3.877
 7499SOL     OW23395   4.251   1.904   3.496
 7499SOL    HW123396   4.211   1.837   3.434
 7499SOL    HW223397   4.252   1.994   3.454
 7500SOL     OW23398   3.385   5.688   3.596
 7500SOL    HW123399   3.483   5.689   3.578
 7500SOL    HW223400   3.339   5.752   3.534
 7501SOL     OW23401   5.726   3.514   3.894
 7501SOL    HW123402   5.650   3.520   3.959
 7501SOL    HW223403   5.779   3.599   3.897
 7502SOL     OW23404   3.602   0.055   3.930
 7502SOL    HW123405   3.664   7.004   3.928
 7502SOL    HW223406   3.548   0.056   3.846
 7503SOL     OW23407   1.916   6.147   0.626
 7503SOL    HW123408   1.837   6.196   0.662
 7503SOL    HW223409   1.890   6.052   0.606
 7504SOL     OW23410   0.372   6.201   2.205
 7504SOL    HW123411   0.339   6.138   2.134
 7504SOL    HW223412   0.390   6.291   2.164
 7505SOL     OW23413   1.119   1.737   5.860
 7505SOL    HW123414   1.114   1.683   5.776
 7505SOL    HW223415   1.146   1.830   5.838
 7506SOL     OW23416   4.116   2.286   3.662
 7506SOL    HW123417   4.064   2.236   3.593
 7506SOL    HW223418   4.189   2.338   3.617
 7507SOL     OW23419   6.550   3.021   3.990
 7507SOL    HW123420   6.460   3.000   3.953
 7507SOL    HW223421   6.615   3.035   3.915
 7508SOL     OW23422   2.059   5.320   0.784
 7508SOL    HW123423   2.138   5.323   0.723
 7508SOL    HW223424   1.995   5.250   0.752
 7509SOL     OW23425   5.773   3.347   0.540
 7509SOL    HW123426   5.813   3.276   0.598
 7509SOL    HW223427   5.750   3.427   0.596
 7510SOL     OW23428   4.064   3.524   3.923
 7510SOL    HW123429   3.968   3.552   3.919
 7510SOL    HW223430   4.070   3.425   3.913
 7511SOL     OW23431   2.820   5.957   3.503
 7511SOL    HW123432   2.771   6.029   3.552
 7511SOL    HW223433   2.760   5.878   3.492
 7512SOL     OW23434   2.833   1.009   6.656
 7512SOL    HW123435   2.895   0.993   6.733
 7512SOL    HW223436   2.798   0.922   6.623
 7513SOL     OW23437   2.324   2.147   3.246
 7513SOL    HW123438   2.251   2.215   3.257
 7513SOL    HW223439   2.317   2.105   3.155
 7514SOL     OW23440   1.825   4.940   3.894
 7514SOL    HW123441   1.780   4.878   3.829
 7514SOL    HW223442   1.891   4.889   3.948
 7515SOL     OW23443   6.978   4.260   5.076
 7515SOL    HW123444   7.011   4.253   5.170
 7515SOL    HW223445   0.012   4.315   5.021
 7516SOL     OW23446   0.761   5.445   6.099
 7516SOL    HW123447   0.766   5.541   6.125
 7516SOL    HW223448   0.791   5.434   6.004
 7517SOL     OW23449   1.487   2.363   7.021
 7517SOL    HW123450   1.570   2.383   6.968
 7517SOL    HW223451   1.511   2.312   0.074
 7518SOL     OW23452   4.891   3.196   3.890
 7518SOL    HW123453   4.856   3.109   3.923
 7518SOL    HW223454   4.977   3.181   3.841
 7519SOL     OW23455   5.289   7.024   4.102
 7519SOL    HW123456   5.355   6.953   4.075
 7519SOL    HW223457   5.276   0.059   4.026
 7520SOL     OW23458   1.439   1.494   2.530
 7520SOL    HW123459   1.386   1.572   2.496
 7520SOL    HW223460   1.513   1.474   2.466
 7521SOL     OW23461   4.744   1.954   4.734
 7521SOL    HW123462   4.843   1.964   4.719
 7521SOL    HW223463   4.716   1.861   4.712
 7522SOL     OW23464   1.558   0.224   5.116
 7522SOL    HW123465   1.606   0.273   5.189
 7522SOL    HW223466   1.570   0.274   5.029
 7523SOL     OW23467   5.206   0.986   5.938
 7523SOL    HW123468   5.163   0.948   6.020
 7523SOL    HW223469   5.247   0.912   5.884
 7524SOL     OW23470   0.068   2.788   5.020
 7524SOL    HW123471   0.076   2.887   5.032
 7524SOL    HW223472   0.117   2.742   5.094
 7525SOL     OW23473   4.102   6.658   6.699
 7525SOL    HW123474   4.141   6.750   6.701
 7525SOL    HW223475   4.067   6.638   6.607
 7526SOL     OW23476   2.372   2.731   1.716
 7526SOL    HW123477   2.395   2.691   1.805
 7526SOL    HW223478   2.382   2.661   1.645
 7527SOL     OW23479   3.520   5.692   4.118
 7527SOL    HW123480   3.453   5.763   4.140
 7527SOL    HW223481   3.497   5.650   4.030
 7528SOL     OW23482   5.492   2.350   6.643
 7528SOL    HW123483   5.493   2.320   6.547
 7528SOL    HW223484   5.583   2.335   6.683
 7529SOL     OW23485   5.341   2.297   3.881
 7529SOL    HW123486   5.430   2.255   3.902
 7529SOL    HW223487   5.299   2.328   3.967
 7530SOL     OW23488   6.440   1.415   2.113
 7530SOL    HW123489   6.523   1.382   2.068
 7530SOL    HW223490   6.366   1.421   2.046
 7531SOL     OW23491   5.134   3.134   3.320
 7531SOL    HW123492   5.035   3.146   3.324
 7531SOL    HW223493   5.162   3.115   3.226
 7532SOL     OW23494   4.826   6.163   6.202
 7532SOL    HW123495   4.774   6.161   6.116
 7532SOL    HW223496   4.773   6.212   6.271
 7533SOL     OW23497   4.561   2.684   1.495
 7533SOL    HW123498   4.590   2.769   1.540
 7533SOL    HW223499   4.470   2.659   1.528
 7534SOL     OW23500   4.573   5.961   4.591
 7534SOL    HW123501   4.556   5.931   4.497
 7534SOL    HW223502   4.559   6.060   4.598
 7535SOL     OW23503   1.488   6.486   4.868
 7535SOL    HW123504   1.407   6.543   4.877
 7535SOL    HW223505   1.541   6.516   4.789
 7536SOL     OW23506   5.545   6.229   3.973
 7536SOL    HW123507   5.470   6.217   3.908
 7536SOL    HW223508   5.508   6.246   4.064
 7537SOL     OW23509   1.796   5.093   2.281
 7537SOL    HW123510   1.884   5.129   2.251
 7537SOL    HW223511   1.770   5.016   2.222
 7538SOL     OW23512   1.612   2.765   1.845
 7538SOL    HW123513   1.540   2.737   1.781
 7538SOL    HW223514   1.573   2.825   1.915
 7539SOL     OW23515   1.691   5.140   3.241
 7539SOL    HW123516   1.676   5.041   3.243
 7539SOL    HW223517   1.781   5.161   3.278
 7540SOL     OW23518   4.895   5.960   4.628
 7540SOL    HW123519   4.846   5.902   4.563
 7540SOL    HW223520   4.878   5.928   4.721
 7541SOL     OW23521   0.520   4.642   6.383
 7541SOL    HW123522   0.594   4.608   6.325
 7541SOL    HW223523   0.522   4.595   6.471
 7542SOL     OW23524   6.651   5.536   5.336
 7542SOL    HW123525   6.606   5.497   5.417
 7542SOL    HW223526   6.641   5.635   5.337
 7543SOL     OW23527   3.028   0.641   4.913
 7543SOL    HW123528   2.947   0.583   4.916
 7543SOL    HW223529   3.017   0.710   4.841
 7544SOL     OW23530   0.737   2.752   4.562
 7544SOL    HW123531   0.667   2.704   4.510
 7544SOL    HW223532   0.692   2.809   4.632
 7545SOL     OW23533   0.504   6.260   5.694
 7545SOL    HW123534   0.433   6.189   5.694
 7545SOL    HW223535   0.563   6.248   5.615
 7546SOL     OW23536   4.863   2.771   1.509
 7546SOL    HW123537   4.787   2.801   1.566
 7546SOL    HW223538   4.830   2.708   1.439
 7547SOL     OW23539   4.523   0.465   0.917
 7547SOL    HW123540   4.616   0.442   0.890
 7547SOL    HW223541   4.515   0.565   0.926
 7548SOL     OW23542   4.362   2.267   6.906
 7548SOL    HW123543   4.276   2.255   6.856
 7548SOL    HW223544   4.411   2.346   6.868
 7549SOL     OW23545   3.484   2.678   6.788
 7549SOL    HW123546   3.433   2.601   6.750
 7549SOL    HW223547   3.428   2.724   6.857
 7550SOL     OW23548   1.828   4.353   3.604
 7550SOL    HW123549   1.833   4.439   3.553
 7550SOL    HW223550   1.887   4.286   3.560
 7551SOL     OW23551   5.385   2.873   5.241
 7551SOL    HW123552   5.391   2.891   5.143
 7551SOL    HW223553   5.477   2.864   5.279
 7552SOL     OW23554   1.354   5.811   4.700
 7552SOL    HW123555   1.327   5.872   4.626
 7552SOL    HW223556   1.454   5.809   4.706
 7553SOL     OW23557   5.726   6.305   6.113
 7553SOL    HW123558   5.647   6.244   6.113
 7553SOL    HW223559   5.809   6.251   6.130
 7554SOL     OW23560   5.041   0.811   0.460
 7554SOL    HW123561   5.023   0.722   0.418
 7554SOL    HW223562   5.132   0.843   0.435
 7555SOL     OW23563   3.073   5.902   6.421
 7555SOL    HW123564   3.153   5.944   6.380
 7555SOL    HW223565   2.996   5.965   6.417
 7556SOL     OW23566   1.322   1.525   0.628
 7556SOL    HW123567   1.270   1.593   0.577
 7556SOL    HW223568   1.299   1.433   0.596
 7557SOL     OW23569   4.625   0.267   6.999
 7557SOL    HW123570   4.702   0.321   6.965
 7557SOL    HW223571   4.623   0.272   0.070
 7558SOL     OW23572   1.547   2.756   3.466
 7558SOL    HW123573   1.458   2.792   3.436
 7558SOL    HW223574   1.536   2.707   3.552
 7559SOL     OW23575   3.825   2.396   5.292
 7559SOL    HW123576   3.859   2.333   5.222
 7559SOL    HW223577   3.902   2.448   5.330
 7560SOL     OW23578   6.306   0.098   6.983
 7560SOL    HW123579   6.292   0.075   0.050
 7560SOL    HW223580   6.253   0.179   6.960
 7561SOL     OW23581   5.834   3.362   5.338
 7561SOL    HW123582   5.932   3.363   5.318
 7561SOL    HW223583   5.783   3.392   5.257
 7562SOL     OW23584   1.059   4.834   4.861
 7562SOL    HW123585   1.153   4.852   4.889
 7562SOL    HW223586   1.041   4.736   4.867
 7563SOL     OW23587   2.537   6.016   2.568
 7563SOL    HW123588   2.619   5.988   2.518
 7563SOL    HW223589   2.479   5.937   2.585
 7564SOL     OW23590   3.926   0.661   4.866
 7564SOL    HW123591   3.959   0.634   4.956
 7564SOL    HW223592   4.004   0.683   4.807
 7565SOL     OW23593   6.109   4.373   5.483
 7565SOL    HW123594   6.036   4.311   5.454
 7565SOL    HW223595   6.130   4.437   5.409
 7566SOL     OW23596   5.263   4.924   2.318
 7566SOL    HW123597   5.264   4.828   2.344
 7566SOL    HW223598   5.354   4.952   2.288
 7567SOL     OW23599   1.030   1.139   4.924
 7567SOL    HW123600   1.100   1.209   4.918
 7567SOL    HW223601   1.054   1.062   4.865
 7568SOL     OW23602   5.680   5.360   1.786
 7568SOL    HW123603   5.750   5.305   1.833
 7568SOL    HW223604   5.724   5.433   1.734
 7569SOL     OW23605   4.055   4.208   6.550
 7569SOL    HW123606   4.126   4.140   6.531
 7569SOL    HW223607   3.992   4.172   6.619
 7570SOL     OW23608   6.913   2.585   3.857
 7570SOL    HW123609   6.895   2.671   3.810
 7570SOL    HW223610   6.965   2.603   3.941
 7571SOL     OW23611   5.445   3.875   2.911
 7571SOL    HW123612   5.498   3.959   2.900
 7571SOL    HW223613   5.497   3.798   2.874
 7572SOL     OW23614   5.405   6.500   3.013
 7572SOL    HW123615   5.347   6.450   3.078
 7572SOL    HW223616   5.368   6.592   3.000
 7573SOL     OW23617   5.800   0.632   5.914
 7573SOL    HW123618   5.876   0.620   5.979
 7573SOL    HW223619   5.738   0.554   5.920
 7574SOL     OW23620   5.724   1.664   4.533
 7574SOL    HW123621   5.656   1.602   4.573
 7574SOL    HW223622   5.678   1.737   4.482
 7575SOL     OW23623   6.298   6.512   0.368
 7575SOL    HW123624   6.284   6.534   0.465
 7575SOL    HW223625   6.265   6.588   0.312
 7576SOL     OW23626   5.091   2.444   0.310
 7576SOL    HW123627   5.118   2.472   0.403
 7576SOL    HW223628   5.165   2.468   0.246
 7577SOL     OW23629   6.943   6.350   6.980
 7577SOL    HW123630   6.973   6.434   7.025
 7577SOL    HW223631   6.902   6.288   0.018
 7578SOL     OW23632   1.273   5.191   2.414
 7578SOL    HW123633   1.269   5.180   2.314
 7578SOL    HW223634   1.340   5.127   2.451
 7579SOL     OW23635   6.757   1.656   1.311
 7579SOL    HW123636   6.728   1.725   1.243
 7579SOL    HW223637   6.814   1.587   1.266
 7580SOL     OW23638   1.689   4.610   3.571
 7580SOL    HW123639   1.600   4.575   3.540
 7580SOL    HW223640   1.758   4.590   3.501
 7581SOL     OW23641   0.579   0.959   0.927
 7581SOL    HW123642   0.668   0.938   0.968
 7581SOL    HW223643   0.507   0.919   0.984
 7582SOL     OW23644   4.081   1.476   3.793
 7582SOL    HW123645   3.984   1.492   3.812
 7582SOL    HW223646   4.131   1.562   3.801
 7583SOL     OW23647   5.165   3.925   2.941
 7583SOL    HW123648   5.136   4.015   2.909
 7583SOL    HW223649   5.261   3.910   2.916
 7584SOL     OW23650   1.167   6.565   2.474
 7584SOL    HW123651   1.108   6.645   2.487
 7584SOL    HW223652   1.165   6.508   2.557
 7585SOL     OW23653   0.921   2.487   6.892
 7585SOL    HW123654   0.852   2.426   6.930
 7585SOL    HW223655   1.009   2.439   6.888
 7586SOL     OW23656   1.837   0.189   2.337
 7586SOL    HW123657   1.831   0.223   2.431
 7586SOL    HW223658   1.774   0.242   2.279
 7587SOL     OW23659   2.906   1.597   0.768
 7587SOL    HW123660   2.990   1.558   0.729
 7587SOL    HW223661   2.910   1.592   0.867
 7588SOL     OW23662   1.126   2.512   4.004
 7588SOL    HW123663   1.132   2.413   4.019
 7588SOL    HW223664   1.143   2.560   4.090
 7589SOL     OW23665   7.028   1.293   3.197
 7589SOL    HW123666   0.040   1.218   3.144
 7589SOL    HW223667   6.962   1.342   3.141
 7590SOL     OW23668   6.254   1.394   6.764
 7590SOL    HW123669   6.314   1.462   6.720
 7590SOL    HW223670   6.283   1.302   6.737
 7591SOL     OW23671   4.784   3.102   6.469
 7591SOL    HW123672   4.798   3.028   6.403
 7591SOL    HW223673   4.687   3.110   6.491
 7592SOL     OW23674   6.500   4.534   4.568
 7592SOL    HW123675   6.515   4.547   4.665
 7592SOL    HW223676   6.492   4.436   4.548
 7593SOL     OW23677   6.952   2.798   6.041
 7593SOL    HW123678   7.000   2.752   6.115
 7593SOL    HW223679   6.887   2.734   5.999
 7594SOL     OW23680   0.910   4.263   1.676
 7594SOL    HW123681   0.976   4.306   1.738
 7594SOL    HW223682   0.933   4.287   1.582
 7595SOL     OW23683   6.659   3.506   6.130
 7595SOL    HW123684   6.570   3.552   6.125
 7595SOL    HW223685   6.719   3.541   6.057
 7596SOL     OW23686   3.250   0.038   5.013
 7596SOL    HW123687   3.154   0.031   4.987
 7596SOL    HW223688   3.288   0.124   4.978
 7597SOL     OW23689   1.898   6.264   2.871
 7597SOL    HW123690   1.951   6.331   2.921
 7597SOL    HW223691   1.827   6.311   2.817
 7598SOL     OW23692   6.209   0.603   2.993
 7598SOL    HW123693   6.156   0.612   3.078
 7598SOL    HW223694   6.248   0.692   2.969
 7599SOL     OW23695   5.135   3.013   1.036
 7599SOL    HW123696   5.180   2.925   1.017
 7599SOL    HW223697   5.060   2.999   1.100
 7600SOL     OW23698   1.530   1.029   3.690
 7600SOL    HW123699   1.604   0.964   3.705
 7600SOL    HW223700   1.475   1.037   3.774
 7601SOL     OW23701   3.154   5.168   2.217
 7601SOL    HW123702   3.091   5.220   2.160
 7601SOL    HW223703   3.115   5.158   2.309
 7602SOL     OW23704   0.479   2.960   0.394
 7602SOL    HW123705   0.381   2.981   0.404
 7602SOL    HW223706   0.497   2.869   0.429
 7603SOL     OW23707   2.116   6.658   5.973
 7603SOL    HW123708   2.136   6.601   5.894
 7603SOL    HW223709   2.141   6.610   6.057
 7604SOL     OW23710   1.655   1.947   4.990
 7604SOL    HW123711   1.574   1.995   5.024
 7604SOL    HW223712   1.661   1.857   5.031
 7605SOL     OW23713   0.646   0.514   0.466
 7605SOL    HW123714   0.724   0.467   0.424
 7605SOL    HW223715   0.666   0.530   0.563
 7606SOL     OW23716   5.761   2.701   4.827
 7606SOL    HW123717   5.767   2.745   4.737
 7606SOL    HW223718   5.820   2.620   4.829
 7607SOL     OW23719   3.947   5.908   0.721
 7607SOL    HW123720   3.858   5.925   0.679
 7607SOL    HW223721   3.964   5.810   0.725
 7608SOL     OW23722   5.405   2.320   6.053
 7608SOL    HW123723   5.373   2.377   6.128
 7608SOL    HW223724   5.494   2.352   6.022
 7609SOL     OW23725   0.516   3.577   3.929
 7609SOL    HW123726   0.514   3.637   4.009
 7609SOL    HW223727   0.428   3.532   3.918
 7610SOL     OW23728   3.639   4.884   6.276
 7610SOL    HW123729   3.713   4.886   6.209
 7610SOL    HW223730   3.594   4.795   6.273
 7611SOL     OW23731   5.193   3.551   1.509
 7611SOL    HW123732   5.217   3.501   1.592
 7611SOL    HW223733   5.219   3.496   1.429
 7612SOL     OW23734   4.062   2.228   3.192
 7612SOL    HW123735   3.966   2.198   3.190
 7612SOL    HW223736   4.087   2.262   3.101
 7613SOL     OW23737   0.708   2.085   1.886
 7613SOL    HW123738   0.788   2.138   1.918
 7613SOL    HW223739   0.719   2.064   1.789
 7614SOL     OW23740   5.177   3.208   0.859
 7614SOL    HW123741   5.166   3.137   0.928
 7614SOL    HW223742   5.150   3.297   0.897
 7615SOL     OW23743   5.368   3.843   5.563
 7615SOL    HW123744   5.378   3.907   5.486
 7615SOL    HW223745   5.425   3.763   5.547
 7616SOL     OW23746   6.312   0.369   3.102
 7616SOL    HW123747   6.322   0.293   3.038
 7616SOL    HW223748   6.316   0.455   3.053
 7617SOL     OW23749   5.108   4.823   2.989
 7617SOL    HW123750   5.033   4.815   2.923
 7617SOL    HW223751   5.187   4.770   2.958
 7618SOL     OW23752   1.515   2.261   0.267
 7618SOL    HW123753   1.507   2.355   0.299
 7618SOL    HW223754   1.608   2.227   0.283
 7619SOL     OW23755   0.259   2.669   4.283
 7619SOL    HW123756   0.215   2.583   4.260
 7619SOL    HW223757   0.201   2.721   4.346
 7620SOL     OW23758   3.503   4.316   0.254
 7620SOL    HW123759   3.503   4.402   0.305
 7620SOL    HW223760   3.559   4.325   0.172
 7621SOL     OW23761   0.429   6.144   0.894
 7621SOL    HW123762   0.359   6.112   0.829
 7621SOL    HW223763   0.424   6.243   0.902
 7622SOL     OW23764   4.363   4.503   0.173
 7622SOL    HW123765   4.434   4.439   0.144
 7622SOL    HW223766   4.406   4.581   0.218
 7623SOL     OW23767   4.128   4.672   0.628
 7623SOL    HW123768   4.086   4.626   0.706
 7623SOL    HW223769   4.156   4.764   0.655
 7624SOL     OW23770   0.383   2.805   2.906
 7624SOL    HW123771   0.296   2.841   2.942
 7624SOL    HW223772   0.402   2.716   2.948
 7625SOL     OW23773   5.468   2.126   0.152
 7625SOL    HW123774   5.445   2.223   0.143
 7625SOL    HW223775   5.410   2.073   0.091
 7626SOL     OW23776   6.574   1.108   6.096
 7626SOL    HW123777   6.670   1.126   6.076
 7626SOL    HW223778   6.548   1.019   6.058
 7627SOL     OW23779   3.307   1.784   0.930
 7627SOL    HW123780   3.258   1.838   0.862
 7627SOL    HW223781   3.249   1.708   0.960
 7628SOL     OW23782   4.203   3.165   1.042
 7628SOL    HW123783   4.218   3.134   1.135
 7628SOL    HW223784   4.125   3.115   1.003
 7629SOL     OW23785   6.230   3.604   4.002
 7629SOL    HW123786   6.236   3.599   4.102
 7629SOL    HW223787   6.291   3.675   3.968
 7630SOL     OW23788   1.333   0.048   5.645
 7630SOL    HW123789   1.309   6.984   5.674
 7630SOL    HW223790   1.432   0.055   5.634
 7631SOL     OW23791   1.267   0.430   5.665
 7631SOL    HW123792   1.201   0.457   5.736
 7631SOL    HW223793   1.220   0.376   5.595
 7632SOL     OW23794   4.504   5.187   1.109
 7632SOL    HW123795   4.420   5.162   1.061
 7632SOL    HW223796   4.516   5.128   1.189
 7633SOL     OW23797   5.998   0.481   1.323
 7633SOL    HW123798   6.043   0.454   1.408
 7633SOL    HW223799   6.042   0.437   1.245
 7634SOL     OW23800   1.116   1.276   1.558
 7634SOL    HW123801   1.184   1.305   1.626
 7634SOL    HW223802   1.162   1.256   1.472
 7635SOL     OW23803   2.553   5.015   4.628
 7635SOL    HW123804   2.478   5.067   4.586
 7635SOL    HW223805   2.555   5.034   4.726
 7636SOL     OW23806   0.304   4.024   4.032
 7636SOL    HW123807   0.304   4.122   4.048
 7636SOL    HW223808   0.360   4.003   3.952
 7637SOL     OW23809   0.831   6.392   3.300
 7637SOL    HW123810   0.773   6.317   3.266
 7637SOL    HW223811   0.905   6.408   3.236
 7638SOL     OW23812   1.369   5.286   1.460
 7638SOL    HW123813   1.380   5.306   1.363
 7638SOL    HW223814   1.459   5.277   1.503
 7639SOL     OW23815   0.395   0.744   0.234
 7639SOL    HW123816   0.419   0.650   0.257
 7639SOL    HW223817   0.333   0.781   0.304
 7640SOL     OW23818   3.507   2.005   6.736
 7640SOL    HW123819   3.458   2.057   6.665
 7640SOL    HW223820   3.589   2.056   6.763
 7641SOL     OW23821   6.982   4.020   3.077
 7641SOL    HW123822   6.978   4.114   3.044
 7641SOL    HW223823   6.920   3.963   3.023
 7642SOL     OW23824   6.068   1.169   2.815
 7642SOL    HW123825   6.073   1.088   2.873
 7642SOL    HW223826   6.157   1.215   2.815
 7643SOL     OW23827   5.334   1.889   3.169
 7643SOL    HW123828   5.342   1.822   3.096
 7643SOL    HW223829   5.283   1.968   3.137
 7644SOL     OW23830   4.866   2.969   2.455
 7644SOL    HW123831   4.792   2.924   2.506
 7644SOL    HW223832   4.844   2.969   2.358
 7645SOL     OW23833   4.051   3.335   5.177
 7645SOL    HW123834   3.977   3.399   5.198
 7645SOL    HW223835   4.056   3.320   5.078
 7646SOL     OW23836   0.748   3.060   3.205
 7646SOL    HW123837   0.665   3.068   3.151
 7646SOL    HW223838   0.724   3.055   3.302
 7647SOL     OW23839   1.016   2.829   4.660
 7647SOL    HW123840   1.076   2.907   4.680
 7647SOL    HW223841   0.924   2.862   4.639
 7648SOL     OW23842   2.335   1.512   2.454
 7648SOL    HW123843   2.285   1.436   2.495
 7648SOL    HW223844   2.380   1.481   2.370
 7649SOL     OW23845   1.196   1.352   4.861
 7649SOL    HW123846   1.139   1.432   4.842
 7649SOL    HW223847   1.260   1.338   4.786
 7650SOL     OW23848   5.098   1.282   1.031
 7650SOL    HW123849   5.100   1.312   1.127
 7650SOL    HW223850   5.147   1.348   0.975
 7651SOL     OW23851   2.081   5.019   4.549
 7651SOL    HW123852   2.111   5.038   4.642
 7651SOL    HW223853   2.156   4.978   4.497
 7652SOL     OW23854   5.843   2.412   5.041
 7652SOL    HW123855   5.901   2.478   5.088
 7652SOL    HW223856   5.750   2.418   5.078
 7653SOL     OW23857   1.055   1.335   0.345
 7653SOL    HW123858   1.097   1.415   0.301
 7653SOL    HW223859   0.956   1.347   0.348
 7654SOL     OW23860   5.757   3.046   4.745
 7654SOL    HW123861   5.737   2.990   4.665
 7654SOL    HW223862   5.675   3.053   4.802
 7655SOL     OW23863   3.384   0.331   3.651
 7655SOL    HW123864   3.427   0.421   3.658
 7655SOL    HW223865   3.307   0.335   3.586
 7656SOL     OW23866   6.524   3.022   5.892
 7656SOL    HW123867   6.468   2.942   5.910
 7656SOL    HW223868   6.603   3.022   5.954
 7657SOL     OW23869   1.937   3.459   4.566
 7657SOL    HW123870   1.975   3.390   4.627
 7657SOL    HW223871   2.010   3.500   4.512
 7658SOL     OW23872   3.168   0.207   0.901
 7658SOL    HW123873   3.241   0.243   0.959
 7658SOL    HW223874   3.085   0.260   0.915
 7659SOL     OW23875   4.685   3.800   6.142
 7659SOL    HW123876   4.652   3.894   6.142
 7659SOL    HW223877   4.654   3.753   6.059
 7660SOL     OW23878   6.598   5.483   4.655
 7660SOL    HW123879   6.596   5.496   4.556
 7660SOL    HW223880   6.633   5.391   4.676
 7661SOL     OW23881   4.442   2.552   6.030
 7661SOL    HW123882   4.516   2.608   5.994
 7661SOL    HW223883   4.476   2.461   6.052
 7662SOL     OW23884   0.661   2.222   3.049
 7662SOL    HW123885   0.755   2.228   3.084
 7662SOL    HW223886   0.654   2.276   2.965
 7663SOL     OW23887   5.265   5.991   6.178
 7663SOL    HW123888   5.237   5.927   6.250
 7663SOL    HW223889   5.226   5.961   6.091
 7664SOL     OW23890   4.163   1.208   3.099
 7664SOL    HW123891   4.097   1.224   3.173
 7664SOL    HW223892   4.202   1.117   3.109
 7665SOL     OW23893   5.736   2.236   4.268
 7665SOL    HW123894   5.788   2.166   4.317
 7665SOL    HW223895   5.653   2.258   4.319
 7666SOL     OW23896   6.222   6.091   4.007
 7666SOL    HW123897   6.296   6.099   4.075
 7666SOL    HW223898   6.199   6.183   3.973
 7667SOL     OW23899   4.469   0.099   2.192
 7667SOL    HW123900   4.385   0.118   2.243
 7667SOL    HW223901   4.446   0.059   2.104
 7668SOL     OW23902   2.856   5.065   0.914
 7668SOL    HW123903   2.837   5.004   0.837
 7668SOL    HW223904   2.795   5.144   0.911
 7669SOL     OW23905   4.094   0.844   5.984
 7669SOL    HW123906   4.154   0.876   5.909
 7669SOL    HW223907   4.148   0.837   6.068
 7670SOL     OW23908   0.854   6.715   0.405
 7670SOL    HW123909   0.932   6.670   0.448
 7670SOL    HW223910   0.884   6.762   0.322
 7671SOL     OW23911   5.611   6.967   2.749
 7671SOL    HW123912   5.529   7.001   2.796
 7671SOL    HW223913   5.623   7.018   2.664
 7672SOL     OW23914   6.891   4.871   3.051
 7672SOL    HW123915   6.968   4.873   2.988
 7672SOL    HW223916   6.918   4.825   3.135
 7673SOL     OW23917   1.406   5.975   2.511
 7673SOL    HW123918   1.347   5.983   2.432
 7673SOL    HW223919   1.471   6.051   2.512
 7674SOL     OW23920   4.273   0.969   3.884
 7674SOL    HW123921   4.355   0.917   3.860
 7674SOL    HW223922   4.212   0.973   3.805
 7675SOL     OW23923   3.993   6.648   3.516
 7675SOL    HW123924   3.969   6.631   3.420
 7675SOL    HW223925   3.961   6.572   3.572
 7676SOL     OW23926   2.940   2.047   5.752
 7676SOL    HW123927   2.889   1.980   5.698
 7676SOL    HW223928   3.006   2.094   5.693
 7677SOL     OW23929   0.035   4.557   1.380
 7677SOL    HW123930   0.135   4.552   1.374
 7677SOL    HW223931   0.006   4.650   1.358
 7678SOL     OW23932   1.766   1.922   5.258
 7678SOL    HW123933   1.777   1.936   5.357
 7678SOL    HW223934   1.733   1.829   5.241
 7679SOL     OW23935   2.261   5.387   5.446
 7679SOL    HW123936   2.162   5.395   5.432
 7679SOL    HW223937   2.303   5.351   5.362
 7680SOL     OW23938   1.458   0.431   5.844
 7680SOL    HW123939   1.472   0.510   5.903
 7680SOL    HW223940   1.378   0.447   5.786
 7681SOL     OW23941   2.860   2.115   6.553
 7681SOL    HW123942   2.781   2.103   6.613
 7681SOL    HW223943   2.894   2.026   6.524
 7682SOL     OW23944   3.634   1.532   2.756
 7682SOL    HW123945   3.536   1.543   2.769
 7682SOL    HW223946   3.681   1.617   2.781
 7683SOL     OW23947   0.947   1.333   4.463
 7683SOL    HW123948   0.930   1.324   4.561
 7683SOL    HW223949   0.866   1.304   4.412
 7684SOL     OW23950   4.308   2.129   1.843
 7684SOL    HW123951   4.282   2.032   1.835
 7684SOL    HW223952   4.292   2.159   1.937
 7685SOL     OW23953   3.734   1.659   6.926
 7685SOL    HW123954   3.753   1.573   6.877
 7685SOL    HW223955   3.697   1.637   7.016
 7686SOL     OW23956   4.963   0.023   4.106
 7686SOL    HW123957   5.033   0.093   4.091
 7686SOL    HW223958   4.879   0.067   4.140
 7687SOL     OW23959   5.044   5.423   4.820
 7687SOL    HW123960   5.096   5.411   4.735
 7687SOL    HW223961   5.092   5.488   4.880
 7688SOL     OW23962   0.187   5.661   5.474
 7688SOL    HW123963   0.199   5.628   5.381
 7688SOL    HW223964   0.184   5.761   5.474
 7689SOL     OW23965   4.773   0.229   1.865
 7689SOL    HW123966   4.807   0.142   1.899
 7689SOL    HW223967   4.717   0.273   1.935
 7690SOL     OW23968   5.766   5.052   0.182
 7690SOL    HW123969   5.842   5.090   0.235
 7690SOL    HW223970   5.687   5.114   0.187
 7691SOL     OW23971   4.561   4.634   2.142
 7691SOL    HW123972   4.603   4.643   2.232
 7691SOL    HW223973   4.617   4.573   2.085
 7692SOL     OW23974   1.088   6.089   1.043
 7692SOL    HW123975   1.046   6.116   1.130
 7692SOL    HW223976   1.016   6.066   0.977
 7693SOL     OW23977   3.162   0.795   1.169
 7693SOL    HW123978   3.240   0.783   1.107
 7693SOL    HW223979   3.107   0.712   1.169
 7694SOL     OW23980   5.575   2.683   4.443
 7694SOL    HW123981   5.516   2.644   4.371
 7694SOL    HW223982   5.542   2.654   4.533
 7695SOL     OW23983   5.585   0.644   1.959
 7695SOL    HW123984   5.509   0.708   1.964
 7695SOL    HW223985   5.582   0.583   2.039
 7696SOL     OW23986   0.600   1.750   6.156
 7696SOL    HW123987   0.590   1.656   6.188
 7696SOL    HW223988   0.545   1.811   6.213
 7697SOL     OW23989   3.349   0.429   2.536
 7697SOL    HW123990   3.319   0.471   2.622
 7697SOL    HW223991   3.363   0.331   2.551
 7698SOL     OW23992   6.457   2.408   6.044
 7698SOL    HW123993   6.454   2.449   5.953
 7698SOL    HW223994   6.522   2.333   6.045
 7699SOL     OW23995   2.170   5.245   6.614
 7699SOL    HW123996   2.191   5.202   6.702
 7699SOL    HW223997   2.081   5.212   6.582
 7700SOL     OW23998   4.394   6.202   3.170
 7700SOL    HW123999   4.454   6.135   3.126
 7700SOL    HW224000   4.436   6.292   3.167
 7701SOL     OW24001   0.141   1.593   5.759
 7701SOL    HW124002   0.078   1.653   5.807
 7701SOL    HW224003   0.230   1.638   5.750
 7702SOL     OW24004   4.301   6.703   5.722
 7702SOL    HW124005   4.395   6.682   5.694
 7702SOL    HW224006   4.243   6.623   5.706
 7703SOL     OW24007   6.545   0.267   5.128
 7703SOL    HW124008   6.598   0.282   5.044
 7703SOL    HW224009   6.447   0.263   5.105
 7704SOL     OW24010   6.268   2.097   3.979
 7704SOL    HW124011   6.243   2.008   3.942
 7704SOL    HW224012   6.367   2.101   3.992
 7705SOL     OW24013   2.568   5.029   0.849
 7705SOL    HW124014   2.484   4.988   0.812
 7705SOL    HW224015   2.640   5.024   0.780
 7706SOL     OW24016   3.269   2.917   2.852
 7706SOL    HW124017   3.238   2.833   2.895
 7706SOL    HW224018   3.204   2.991   2.872
 7707SOL     OW24019   0.199   5.298   6.275
 7707SOL    HW124020   0.145   5.328   6.197
 7707SOL    HW224021   0.145   5.305   6.359
 7708SOL     OW24022   1.129   6.706   3.907
 7708SOL    HW124023   1.105   6.698   3.810
 7708SOL    HW224024   1.154   6.801   3.927
 7709SOL     OW24025   6.473   5.672   1.189
 7709SOL    HW124026   6.544   5.620   1.237
 7709SOL    HW224027   6.515   5.724   1.114
 7710SOL     OW24028   2.019   2.595   0.768
 7710SOL    HW124029   2.083   2.670   0.785
 7710SOL    HW224030   2.067   2.508   0.766
 7711SOL     OW24031   6.661   5.728   5.769
 7711SOL    HW124032   6.590   5.769   5.712
 7711SOL    HW224033   6.683   5.637   5.736
 7712SOL     OW24034   6.558   4.474   6.402
 7712SOL    HW124035   6.471   4.439   6.367
 7712SOL    HW224036   6.575   4.565   6.364
 7713SOL     OW24037   1.656   4.241   0.661
 7713SOL    HW124038   1.587   4.247   0.589
 7713SOL    HW224039   1.613   4.218   0.748
 7714SOL     OW24040   7.020   6.720   5.102
 7714SOL    HW124041   6.963   6.800   5.118
 7714SOL    HW224042   0.055   6.739   5.026
 7715SOL     OW24043   2.850   2.159   6.258
 7715SOL    HW124044   2.886   2.170   6.351
 7715SOL    HW224045   2.926   2.158   6.193
 7716SOL     OW24046   0.183   4.863   6.585
 7716SOL    HW124047   0.084   4.866   6.572
 7716SOL    HW224048   0.204   4.820   6.673
 7717SOL     OW24049   1.270   1.943   5.256
 7717SOL    HW124050   1.324   1.859   5.263
 7717SOL    HW224051   1.265   1.987   5.346
 7718SOL     OW24052   0.461   3.499   3.182
 7718SOL    HW124053   0.529   3.569   3.204
 7718SOL    HW224054   0.467   3.476   3.085
 7719SOL     OW24055   1.678   4.083   4.627
 7719SOL    HW124056   1.767   4.042   4.606
 7719SOL    HW224057   1.691   4.174   4.666
 7720SOL     OW24058   5.993   2.229   6.445
 7720SOL    HW124059   5.988   2.329   6.439
 7720SOL    HW224060   5.984   2.201   6.541
 7721SOL     OW24061   1.430   0.630   2.623
 7721SOL    HW124062   1.365   0.686   2.674
 7721SOL    HW224063   1.395   0.536   2.616
 7722SOL     OW24064   2.129   5.326   4.076
 7722SOL    HW124065   2.223   5.356   4.091
 7722SOL    HW224066   2.122   5.228   4.092
 7723SOL     OW24067   4.980   3.294   6.411
 7723SOL    HW124068   4.895   3.243   6.423
 7723SOL    HW224069   5.022   3.311   6.499
 7724SOL     OW24070   3.243   4.224   0.336
 7724SOL    HW124071   3.342   4.220   0.325
 7724SOL    HW224072   3.221   4.284   0.413
 7725SOL     OW24073   6.092   2.507   2.414
 7725SOL    HW124074   6.187   2.477   2.420
 7725SOL    HW224075   6.036   2.456   2.479
 7726SOL     OW24076   1.417   2.931   6.093
 7726SOL    HW124077   1.511   2.947   6.121
 7726SOL    HW224078   1.397   2.834   6.096
 7727SOL     OW24079   6.018   2.596   1.519
 7727SOL    HW124080   6.068   2.511   1.534
 7727SOL    HW224081   5.947   2.606   1.589
 7728SOL     OW24082   2.447   2.595   5.531
 7728SOL    HW124083   2.537   2.569   5.495
 7728SOL    HW224084   2.390   2.514   5.539
 7729SOL     OW24085   6.314   1.766   1.988
 7729SOL    HW124086   6.365   1.805   1.912
 7729SOL    HW224087   6.311   1.666   1.979
 7730SOL     OW24088   5.677   4.704   5.185
 7730SOL    HW124089   5.604   4.772   5.178
 7730SOL    HW224090   5.710   4.681   5.093
 7731SOL     OW24091   6.046   0.243   0.861
 7731SOL    HW124092   6.098   0.218   0.779
 7731SOL    HW224093   5.983   0.169   0.884
 7732SOL     OW24094   3.835   0.539   0.399
 7732SOL    HW124095   3.760   0.604   0.410
 7732SOL    HW224096   3.902   0.554   0.472
 7733SOL     OW24097   5.940   5.627   2.405
 7733SOL    HW124098   5.927   5.611   2.503
 7733SOL    HW224099   5.967   5.722   2.389
 7734SOL     OW24100   2.467   4.303   5.244
 7734SOL    HW124101   2.556   4.341   5.267
 7734SOL    HW224102   2.476   4.204   5.228
 7735SOL     OW24103   6.283   5.833   0.157
 7735SOL    HW124104   6.246   5.883   0.235
 7735SOL    HW224105   6.296   5.895   0.080
 7736SOL     OW24106   2.855   2.979   0.509
 7736SOL    HW124107   2.817   2.954   0.599
 7736SOL    HW224108   2.948   3.016   0.521
 7737SOL     OW24109   3.568   4.933   1.709
 7737SOL    HW124110   3.611   4.854   1.753
 7737SOL    HW224111   3.472   4.937   1.736
 7738SOL     OW24112   2.191   5.892   6.644
 7738SOL    HW124113   2.176   5.951   6.564
 7738SOL    HW224114   2.223   5.948   6.721
 7739SOL     OW24115   0.945   2.031   2.167
 7739SOL    HW124116   0.944   2.121   2.211
 7739SOL    HW224117   1.037   2.012   2.133
 7740SOL     OW24118   1.918   1.070   2.728
 7740SOL    HW124119   1.826   1.049   2.760
 7740SOL    HW224120   1.924   1.167   2.705
 7741SOL     OW24121   1.675   4.554   5.356
 7741SOL    HW124122   1.767   4.535   5.388
 7741SOL    HW224123   1.610   4.495   5.404
 7742SOL     OW24124   3.786   1.270   3.867
 7742SOL    HW124125   3.706   1.216   3.892
 7742SOL    HW224126   3.801   1.264   3.768
 7743SOL     OW24127   4.847   1.074   6.833
 7743SOL    HW124128   4.860   1.048   6.738
 7743SOL    HW224129   4.763   1.128   6.842
 7744SOL     OW24130   0.731   5.772   4.237
 7744SOL    HW124131   0.787   5.690   4.242
 7744SOL    HW224132   0.788   5.850   4.213
 7745SOL     OW24133   2.186   6.437   0.287
 7745SOL    HW124134   2.172   6.396   0.378
 7745SOL    HW224135   2.273   6.486   0.286
 7746SOL     OW24136   1.452   6.384   0.808
 7746SOL    HW124137   1.403   6.403   0.723
 7746SOL    HW224138   1.471   6.469   0.856
 7747SOL     OW24139   0.248   6.074   0.663
 7747SOL    HW124140   0.169   6.103   0.716
 7747SOL    HW224141   0.225   5.994   0.608
 7748SOL     OW24142   3.613   2.833   5.040
 7748SOL    HW124143   3.536   2.819   5.103
 7748SOL    HW224144   3.585   2.808   4.947
 7749SOL     OW24145   3.309   4.076   3.202
 7749SOL    HW124146   3.358   4.104   3.120
 7749SOL    HW224147   3.212   4.066   3.181
 7750SOL     OW24148   5.267   5.317   5.894
 7750SOL    HW124149   5.170   5.311   5.917
 7750SOL    HW224150   5.284   5.402   5.844
 7751SOL     OW24151   0.270   1.371   3.717
 7751SOL    HW124152   0.240   1.379   3.622
 7751SOL    HW224153   0.190   1.371   3.777
 7752SOL     OW24154   5.754   5.459   5.400
 7752SOL    HW124155   5.774   5.381   5.340
 7752SOL    HW224156   5.811   5.454   5.482
 7753SOL     OW24157   2.520   0.618   4.917
 7753SOL    HW124158   2.481   0.535   4.958
 7753SOL    HW224159   2.620   0.616   4.928
 7754SOL     OW24160   5.554   0.627   1.308
 7754SOL    HW124161   5.498   0.709   1.316
 7754SOL    HW224162   5.650   0.653   1.293
 7755SOL     OW24163   0.773   6.661   5.516
 7755SOL    HW124164   0.740   6.629   5.605
 7755SOL    HW224165   0.722   6.743   5.489
 7756SOL     OW24166   2.317   5.588   2.526
 7756SOL    HW124167   2.221   5.565   2.507
 7756SOL    HW224168   2.356   5.634   2.446
 7757SOL     OW24169   4.554   6.033   4.864
 7757SOL    HW124170   4.613   6.089   4.806
 7757SOL    HW224171   4.516   5.958   4.809
 7758SOL     OW24172   1.955   2.468   6.444
 7758SOL    HW124173   2.033   2.468   6.506
 7758SOL    HW224174   1.924   2.562   6.430
 7759SOL     OW24175   2.737   0.878   5.149
 7759SOL    HW124176   2.764   0.782   5.153
 7759SOL    HW224177   2.790   0.925   5.079
 7760SOL     OW24178   5.802   2.909   2.194
 7760SOL    HW124179   5.833   2.864   2.279
 7760SOL    HW224180   5.835   3.003   2.193
 7761SOL     OW24181   3.009   7.004   6.047
 7761SOL    HW124182   2.998   6.906   6.031
 7761SOL    HW224183   3.083   7.019   6.113
 7762SOL     OW24184   4.024   1.123   6.038
 7762SOL    HW124185   4.043   1.033   6.000
 7762SOL    HW224186   4.108   1.163   6.074
 7763SOL     OW24187   1.237   1.773   1.417
 7763SOL    HW124188   1.330   1.755   1.385
 7763SOL    HW224189   1.228   1.742   1.511
 7764SOL     OW24190   4.023   3.465   2.593
 7764SOL    HW124191   4.074   3.546   2.622
 7764SOL    HW224192   4.054   3.386   2.644
 7765SOL     OW24193   6.508   3.597   4.380
 7765SOL    HW124194   6.586   3.583   4.319
 7765SOL    HW224195   6.537   3.582   4.475
 7766SOL     OW24196   5.221   2.379   6.747
 7766SOL    HW124197   5.180   2.288   6.756
 7766SOL    HW224198   5.318   2.370   6.724
 7767SOL     OW24199   3.549   6.315   3.477
 7767SOL    HW124200   3.490   6.256   3.532
 7767SOL    HW224201   3.628   6.262   3.446
 7768SOL     OW24202   3.846   4.863   2.937
 7768SOL    HW124203   3.879   4.851   2.844
 7768SOL    HW224204   3.921   4.845   3.001
 7769SOL     OW24205   5.032   1.614   1.946
 7769SOL    HW124206   5.014   1.612   1.848
 7769SOL    HW224207   4.966   1.556   1.993
 7770SOL     OW24208   2.267   4.444   2.232
 7770SOL    HW124209   2.344   4.494   2.273
 7770SOL    HW224210   2.212   4.508   2.178
 7771SOL     OW24211   2.497   2.460   5.098
 7771SOL    HW124212   2.479   2.556   5.079
 7771SOL    HW224213   2.428   2.426   5.162
 7772SOL     OW24214   4.880   1.312   3.573
 7772SOL    HW124215   4.935   1.237   3.610
 7772SOL    HW224216   4.783   1.290   3.582
 7773SOL     OW24217   3.306   5.009   5.399
 7773SOL    HW124218   3.350   4.921   5.377
 7773SOL    HW224219   3.212   5.009   5.365
 7774SOL     OW24220   5.754   1.921   5.992
 7774SOL    HW124221   5.654   1.916   6.001
 7774SOL    HW224222   5.795   1.927   6.083
 7775SOL     OW24223   3.777   7.000   3.130
 7775SOL    HW124224   3.716   6.954   3.195
 7775SOL    HW224225   3.857   6.942   3.113
 7776SOL     OW24226   3.052   3.035   5.871
 7776SOL    HW124227   3.054   3.084   5.784
 7776SOL    HW224228   3.143   3.039   5.914
 7777SOL     OW24229   2.441   1.679   5.440
 7777SOL    HW124230   2.415   1.658   5.346
 7777SOL    HW224231   2.521   1.739   5.440
 7778SOL     OW24232   5.090   0.071   6.848
 7778SOL    HW124233   5.146   0.007   6.796
 7778SOL    HW224234   5.049   0.138   6.787
 7779SOL     OW24235   3.802   2.874   0.334
 7779SOL    HW124236   3.809   2.973   0.348
 7779SOL    HW224237   3.860   2.848   0.256
 7780SOL     OW24238   1.906   5.442   4.835
 7780SOL    HW124239   1.943   5.350   4.846
 7780SOL    HW224240   1.834   5.440   4.766
 7781SOL     OW24241   0.686   3.831   5.982
 7781SOL    HW124242   0.771   3.778   5.973
 7781SOL    HW224243   0.608   3.770   5.973
 7782SOL     OW24244   1.881   3.625   5.604
 7782SOL    HW124245   1.897   3.724   5.604
 7782SOL    HW224246   1.783   3.607   5.597
 7783SOL     OW24247   3.190   6.499   6.130
 7783SOL    HW124248   3.166   6.573   6.067
 7783SOL    HW224249   3.195   6.413   6.079
 7784SOL     OW24250   1.742   2.498   0.173
 7784SOL    HW124251   1.683   2.509   0.093
 7784SOL    HW224252   1.722   2.570   0.240
 7785SOL     OW24253   1.710   6.822   4.294
 7785SOL    HW124254   1.745   6.913   4.271
 7785SOL    HW224255   1.645   6.794   4.224
 7786SOL     OW24256   3.132   4.776   5.611
 7786SOL    HW124257   3.094   4.726   5.689
 7786SOL    HW224258   3.219   4.735   5.584
 7787SOL     OW24259   2.164   2.053   5.414
 7787SOL    HW124260   2.139   2.145   5.445
 7787SOL    HW224261   2.198   2.058   5.320
 7788SOL     OW24262   1.436   1.058   1.801
 7788SOL    HW124263   1.369   1.126   1.830
 7788SOL    HW224264   1.509   1.103   1.749
 7789SOL     OW24265   2.667   0.250   0.894
 7789SOL    HW124266   2.610   0.328   0.921
 7789SOL    HW224267   2.629   0.207   0.812
 7790SOL     OW24268   6.411   4.901   3.088
 7790SOL    HW124269   6.434   4.858   3.175
 7790SOL    HW224270   6.494   4.909   3.032
 7791SOL     OW24271   2.555   6.432   4.025
 7791SOL    HW124272   2.498   6.422   3.943
 7791SOL    HW224273   2.609   6.349   4.039
 7792SOL     OW24274   1.288   5.242   5.750
 7792SOL    HW124275   1.266   5.180   5.825
 7792SOL    HW224276   1.305   5.189   5.667
 7793SOL     OW24277   1.935   1.167   5.794
 7793SOL    HW124278   1.876   1.231   5.844
 7793SOL    HW224279   1.963   1.208   5.707
 7794SOL     OW24280   5.125   5.214   4.475
 7794SOL    HW124281   5.211   5.237   4.522
 7794SOL    HW224282   5.117   5.115   4.469
 7795SOL     OW24283   2.228   4.136   5.303
 7795SOL    HW124284   2.173   4.193   5.242
 7795SOL    HW224285   2.283   4.073   5.248
 7796SOL     OW24286   3.578   4.072   3.926
 7796SOL    HW124287   3.658   4.068   3.986
 7796SOL    HW224288   3.603   4.039   3.835
 7797SOL     OW24289   0.244   5.942   3.233
 7797SOL    HW124290   0.236   5.975   3.328
 7797SOL    HW224291   0.312   5.996   3.185
 7798SOL     OW24292   1.775   4.901   6.727
 7798SOL    HW124293   1.698   4.897   6.663
 7798SOL    HW224294   1.834   4.822   6.713
 7799SOL     OW24295   6.794   6.013   1.868
 7799SOL    HW124296   6.799   6.020   1.768
 7799SOL    HW224297   6.807   6.103   1.908
 7800SOL     OW24298   0.934   4.244   1.388
 7800SOL    HW124299   0.996   4.257   1.310
 7800SOL    HW224300   0.927   4.146   1.408
 7801SOL     OW24301   2.421   1.885   1.575
 7801SOL    HW124302   2.455   1.940   1.498
 7801SOL    HW224303   2.342   1.832   1.546
 7802SOL     OW24304   5.959   3.024   0.906
 7802SOL    HW124305   5.952   2.941   0.962
 7802SOL    HW224306   5.950   3.104   0.965
 7803SOL     OW24307   4.490   3.774   5.660
 7803SOL    HW124308   4.412   3.731   5.614
 7803SOL    HW224309   4.575   3.748   5.614
 7804SOL     OW24310   6.041   1.530   4.135
 7804SOL    HW124311   5.966   1.470   4.107
 7804SOL    HW224312   6.083   1.494   4.218
 7805SOL     OW24313   5.288   1.529   1.215
 7805SOL    HW124314   5.282   1.548   1.117
 7805SOL    HW224315   5.196   1.519   1.254
 7806SOL     OW24316   6.179   3.339   5.613
 7806SOL    HW124317   6.266   3.299   5.584
 7806SOL    HW224318   6.166   3.428   5.567
 7807SOL     OW24319   0.274   5.045   6.299
 7807SOL    HW124320   0.259   5.144   6.293
 7807SOL    HW224321   0.306   5.022   6.391
 7808SOL     OW24322   0.194   3.404   4.544
 7808SOL    HW124323   0.132   3.467   4.589
 7808SOL    HW224324   0.245   3.452   4.472
 7809SOL     OW24325   2.677   6.549   4.847
 7809SOL    HW124326   2.759   6.511   4.889
 7809SOL    HW224327   2.610   6.476   4.833
 7810SOL     OW24328   3.384   0.353   5.606
 7810SOL    HW124329   3.432   0.321   5.688
 7810SOL    HW224330   3.386   0.453   5.604
 7811SOL     OW24331   6.612   4.243   3.791
 7811SOL    HW124332   6.687   4.192   3.748
 7811SOL    HW224333   6.649   4.313   3.852
 7812SOL     OW24334   1.407   1.621   3.711
 7812SOL    HW124335   1.410   1.528   3.748
 7812SOL    HW224336   1.500   1.656   3.703
 7813SOL     OW24337   4.717   2.479   6.003
 7813SOL    HW124338   4.664   2.428   6.070
 7813SOL    HW224339   4.763   2.415   5.942
 7814SOL     OW24340   6.986   2.557   3.188
 7814SOL    HW124341   6.920   2.482   3.192
 7814SOL    HW224342   0.001   2.568   3.278
 7815SOL     OW24343   4.787   1.275   6.385
 7815SOL    HW124344   4.855   1.300   6.454
 7815SOL    HW224345   4.699   1.256   6.430
 7816SOL     OW24346   2.267   2.774   6.267
 7816SOL    HW124347   2.346   2.812   6.220
 7816SOL    HW224348   2.284   2.772   6.366
 7817SOL     OW24349   6.211   3.431   3.810
 7817SOL    HW124350   6.118   3.413   3.778
 7817SOL    HW224351   6.210   3.503   3.878
 7818SOL     OW24352   5.117   0.715   2.529
 7818SOL    HW124353   5.118   0.798   2.473
 7818SOL    HW224354   5.146   0.637   2.473
 7819SOL     OW24355   0.100   3.188   1.758
 7819SOL    HW124356   0.148   3.107   1.724
 7819SOL    HW224357   0.102   3.259   1.688
 7820SOL     OW24358   1.925   2.023   4.431
 7820SOL    HW124359   1.951   2.038   4.526
 7820SOL    HW224360   1.875   2.102   4.397
 7821SOL     OW24361   4.676   5.355   1.258
 7821SOL    HW124362   4.632   5.297   1.189
 7821SOL    HW224363   4.636   5.447   1.255
 7822SOL     OW24364   0.257   0.692   5.219
 7822SOL    HW124365   0.227   0.609   5.172
 7822SOL    HW224366   0.344   0.674   5.265
 7823SOL     OW24367   2.225   4.009   4.751
 7823SOL    HW124368   2.228   4.069   4.671
 7823SOL    HW224369   2.284   4.047   4.822
 7824SOL     OW24370   6.774   2.256   4.628
 7824SOL    HW124371   6.847   2.305   4.677
 7824SOL    HW224372   6.688   2.305   4.640
 7825SOL     OW24373   2.676   2.945   0.268
 7825SOL    HW124374   2.651   2.941   0.171
 7825SOL    HW224375   2.756   2.888   0.285
 7826SOL     OW24376   6.536   1.367   0.764
 7826SOL    HW124377   6.578   1.283   0.731
 7826SOL    HW224378   6.460   1.345   0.826
 7827SOL     OW24379   1.407   5.549   1.653
 7827SOL    HW124380   1.382   5.457   1.623
 7827SOL    HW224381   1.455   5.596   1.580
 7828SOL     OW24382   6.249   4.595   6.930
 7828SOL    HW124383   6.165   4.645   6.911
 7828SOL    HW224384   6.328   4.654   6.911
 7829SOL     OW24385   3.177   3.264   1.380
 7829SOL    HW124386   3.246   3.336   1.389
 7829SOL    HW224387   3.087   3.301   1.407
 7830SOL     OW24388   3.479   5.286   5.556
 7830SOL    HW124389   3.412   5.354   5.526
 7830SOL    HW224390   3.432   5.203   5.586
 7831SOL     OW24391   2.287   0.822   2.101
 7831SOL    HW124392   2.191   0.796   2.112
 7831SOL    HW224393   2.309   0.899   2.161
 7832SOL     OW24394   5.929   0.161   4.293
 7832SOL    HW124395   5.888   0.144   4.383
 7832SOL    HW224396   6.003   0.228   4.302
 7833SOL     OW24397   1.625   0.950   4.615
 7833SOL    HW124398   1.600   0.946   4.518
 7833SOL    HW224399   1.640   1.045   4.642
 7834SOL     OW24400   0.057   1.548   3.264
 7834SOL    HW124401   0.047   1.449   3.277
 7834SOL    HW224402   6.998   1.593   3.284
 7835SOL     OW24403   3.783   1.927   4.458
 7835SOL    HW124404   3.701   1.876   4.432
 7835SOL    HW224405   3.757   2.003   4.517
 7836SOL     OW24406   3.149   4.237   5.617
 7836SOL    HW124407   3.156   4.308   5.546
 7836SOL    HW224408   3.240   4.220   5.655
 7837SOL     OW24409   5.176   6.286   0.139
 7837SOL    HW124410   5.119   6.365   0.161
 7837SOL    HW224411   5.271   6.315   0.129
 7838SOL     OW24412   4.945   5.405   1.310
 7838SOL    HW124413   4.868   5.356   1.269
 7838SOL    HW224414   4.910   5.487   1.357
 7839SOL     OW24415   5.676   4.358   4.770
 7839SOL    HW124416   5.679   4.296   4.691
 7839SOL    HW224417   5.703   4.307   4.852
 7840SOL     OW24418   0.799   4.117   4.648
 7840SOL    HW124419   0.758   4.199   4.610
 7840SOL    HW224420   0.842   4.064   4.575
 7841SOL     OW24421   4.585   1.881   6.671
 7841SOL    HW124422   4.640   1.951   6.717
 7841SOL    HW224423   4.539   1.825   6.738
 7842SOL     OW24424   2.161   1.296   2.542
 7842SOL    HW124425   2.077   1.324   2.590
 7842SOL    HW224426   2.138   1.260   2.452
 7843SOL     OW24427   0.072   6.366   4.229
 7843SOL    HW124428   0.117   6.448   4.196
 7843SOL    HW224429   0.138   6.309   4.279
 7844SOL     OW24430   3.878   0.693   2.145
 7844SOL    HW124431   3.859   0.601   2.178
 7844SOL    HW224432   3.851   0.700   2.049
 7845SOL     OW24433   5.353   1.734   1.385
 7845SOL    HW124434   5.312   1.734   1.477
 7845SOL    HW224435   5.324   1.651   1.336
 7846SOL     OW24436   1.281   1.997   0.428
 7846SOL    HW124437   1.249   1.998   0.333
 7846SOL    HW224438   1.375   2.031   0.433
 7847SOL     OW24439   6.319   1.600   4.033
 7847SOL    HW124440   6.346   1.695   4.050
 7847SOL    HW224441   6.220   1.594   4.023
 7848SOL     OW24442   3.025   4.280   0.655
 7848SOL    HW124443   2.926   4.295   0.658
 7848SOL    HW224444   3.070   4.361   0.618
 7849SOL     OW24445   5.999   3.578   5.015
 7849SOL    HW124446   5.997   3.529   4.928
 7849SOL    HW224447   6.034   3.670   5.001
 7850SOL     OW24448   6.965   1.921   3.874
 7850SOL    HW124449   7.022   1.995   3.910
 7850SOL    HW224450   7.022   1.844   3.848
 7851SOL     OW24451   0.944   2.754   1.904
 7851SOL    HW124452   0.870   2.814   1.872
 7851SOL    HW224453   0.907   2.662   1.919
 7852SOL     OW24454   2.699   0.957   0.040
 7852SOL    HW124455   2.702   0.870   0.089
 7852SOL    HW224456   2.787   0.973   7.024
 7853SOL     OW24457   4.606   2.922   1.607
 7853SOL    HW124458   4.587   2.960   1.697
 7853SOL    HW224459   4.633   2.995   1.545
 7854SOL     OW24460   4.026   2.377   6.348
 7854SOL    HW124461   3.955   2.343   6.286
 7854SOL    HW224462   4.011   2.474   6.367
 7855SOL     OW24463   4.641   6.302   4.177
 7855SOL    HW124464   4.689   6.364   4.240
 7855SOL    HW224465   4.542   6.318   4.184
 7856SOL     OW24466   1.244   4.970   5.290
 7856SOL    HW124467   1.255   4.881   5.245
 7856SOL    HW224468   1.147   4.994   5.293
 7857SOL     OW24469   4.865   3.833   0.468
 7857SOL    HW124470   4.817   3.920   0.483
 7857SOL    HW224471   4.805   3.758   0.495
 7858SOL     OW24472   6.735   5.876   4.561
 7858SOL    HW124473   6.786   5.850   4.643
 7858SOL    HW224474   6.649   5.920   4.588
 7859SOL     OW24475   4.671   3.238   6.865
 7859SOL    HW124476   4.627   3.176   6.800
 7859SOL    HW224477   4.684   3.327   6.823
 7860SOL     OW24478   3.849   1.372   4.117
 7860SOL    HW124479   3.838   1.343   4.022
 7860SOL    HW224480   3.919   1.316   4.161
 7861SOL     OW24481   2.674   5.368   2.202
 7861SOL    HW124482   2.661   5.277   2.163
 7861SOL    HW224483   2.618   5.434   2.152
 7862SOL     OW24484   2.631   5.633   1.982
 7862SOL    HW124485   2.552   5.580   2.011
 7862SOL    HW224486   2.626   5.651   1.884
 7863SOL     OW24487   0.653   4.444   3.536
 7863SOL    HW124488   0.696   4.360   3.570
 7863SOL    HW224489   0.606   4.424   3.450
 7864SOL     OW24490   1.667   5.552   6.588
 7864SOL    HW124491   1.737   5.538   6.518
 7864SOL    HW224492   1.692   5.502   6.671
 7865SOL     OW24493   5.916   5.853   3.846
 7865SOL    HW124494   5.861   5.936   3.850
 7865SOL    HW224495   5.996   5.868   3.788
 7866SOL     OW24496   2.322   0.412   5.098
 7866SOL    HW124497   2.235   0.458   5.117
 7866SOL    HW224498   2.305   0.334   5.037
 7867SOL     OW24499   5.687   6.910   3.459
 7867SOL    HW124500   5.630   6.831   3.437
 7867SOL    HW224501   5.756   6.884   3.527
 7868SOL     OW24502   3.834   5.574   0.890
 7868SOL    HW124503   3.897   5.619   0.827
 7868SOL    HW224504   3.844   5.475   0.881
 7869SOL     OW24505   4.969   4.819   5.520
 7869SOL    HW124506   4.974   4.835   5.619
 7869SOL    HW224507   4.979   4.906   5.472
 7870SOL     OW24508   4.706   0.214   4.998
 7870SOL    HW124509   4.726   0.224   5.096
 7870SOL    HW224510   4.781   0.252   4.945
 7871SOL     OW24511   5.664   1.803   1.789
 7871SOL    HW124512   5.628   1.729   1.733
 7871SOL    HW224513   5.675   1.885   1.732
 7872SOL     OW24514   1.682   4.798   2.707
 7872SOL    HW124515   1.679   4.707   2.666
 7872SOL    HW224516   1.712   4.864   2.639
 7873SOL     OW24517   6.292   1.296   0.309
 7873SOL    HW124518   6.313   1.228   0.379
 7873SOL    HW224519   6.377   1.335   0.274
 7874SOL     OW24520   5.341   2.859   1.357
 7874SOL    HW124521   5.363   2.880   1.452
 7874SOL    HW224522   5.423   2.829   1.308
 7875SOL     OW24523   3.723   3.320   0.245
 7875SOL    HW124524   3.675   3.366   0.170
 7875SOL    HW224525   3.813   3.362   0.258
 7876SOL     OW24526   1.118   0.002   3.514
 7876SOL    HW124527   1.085   0.062   3.587
 7876SOL    HW224528   1.185   0.051   3.458
 7877SOL     OW24529   6.817   1.958   2.887
 7877SOL    HW124530   6.735   1.972   2.832
 7877SOL    HW224531   6.811   1.871   2.935
 7878SOL     OW24532   4.803   3.973   3.311
 7878SOL    HW124533   4.825   3.876   3.306
 7878SOL    HW224534   4.767   3.995   3.402
 7879SOL     OW24535   3.163   4.890   3.111
 7879SOL    HW124536   3.263   4.892   3.105
 7879SOL    HW224537   3.123   4.923   3.026
 7880SOL     OW24538   2.314   3.785   0.937
 7880SOL    HW124539   2.341   3.699   0.981
 7880SOL    HW224540   2.371   3.799   0.856
 7881SOL     OW24541   5.080   4.456   4.562
 7881SOL    HW124542   5.022   4.433   4.484
 7881SOL    HW224543   5.079   4.380   4.627
 7882SOL     OW24544   2.386   3.836   1.665
 7882SOL    HW124545   2.478   3.872   1.657
 7882SOL    HW224546   2.332   3.861   1.584
 7883SOL     OW24547   1.081   0.214   5.801
 7883SOL    HW124548   1.101   0.175   5.712
 7883SOL    HW224549   1.096   0.313   5.799
 7884SOL     OW24550   0.926   4.093   4.197
 7884SOL    HW124551   0.916   4.164   4.127
 7884SOL    HW224552   0.835   4.058   4.222
 7885SOL     OW24553   6.252   5.432   1.092
 7885SOL    HW124554   6.289   5.524   1.108
 7885SOL    HW224555   6.328   5.368   1.082
 7886SOL     OW24556   4.394   6.083   0.518
 7886SOL    HW124557   4.307   6.073   0.566
 7886SOL    HW224558   4.377   6.118   0.425
 7887SOL     OW24559   3.561   2.112   0.099
 7887SOL    HW124560   3.600   2.202   0.082
 7887SOL    HW224561   3.461   2.118   0.098
 7888SOL     OW24562   5.007   0.439   3.879
 7888SOL    HW124563   5.007   0.526   3.929
 7888SOL    HW224564   4.917   0.423   3.840
 7889SOL     OW24565   1.525   5.668   1.460
 7889SOL    HW124566   1.617   5.703   1.477
 7889SOL    HW224567   1.465   5.745   1.436
 7890SOL     OW24568   1.954   3.661   2.246
 7890SOL    HW124569   1.885   3.733   2.251
 7890SOL    HW224570   1.964   3.617   2.335
 7891SOL     OW24571   2.342   5.055   2.779
 7891SOL    HW124572   2.337   5.146   2.738
 7891SOL    HW224573   2.252   5.011   2.774
 7892SOL     OW24574   2.046   2.355   5.023
 7892SOL    HW124575   2.113   2.306   4.968
 7892SOL    HW224576   2.025   2.301   5.105
 7893SOL     OW24577   5.937   6.730   1.235
 7893SOL    HW124578   5.974   6.639   1.219
 7893SOL    HW224579   5.905   6.768   1.148
 7894SOL     OW24580   2.462   6.204   2.221
 7894SOL    HW124581   2.558   6.197   2.250
 7894SOL    HW224582   2.408   6.133   2.266
 7895SOL     OW24583   6.383   1.457   5.222
 7895SOL    HW124584   6.337   1.537   5.259
 7895SOL    HW224585   6.438   1.414   5.293
 7896SOL     OW24586   4.788   4.155   5.889
 7896SOL    HW124587   4.864   4.095   5.910
 7896SOL    HW224588   4.819   4.229   5.830
 7897SOL     OW24589   2.546   3.488   6.056
 7897SOL    HW124590   2.615   3.549   6.017
 7897SOL    HW224591   2.464   3.542   6.081
 7898SOL     OW24592   4.720   2.230   3.792
 7898SOL    HW124593   4.724   2.169   3.871
 7898SOL    HW224594   4.806   2.280   3.783
 7899SOL     OW24595   6.618   1.867   1.199
 7899SOL    HW124596   6.602   1.898   1.293
 7899SOL    HW224597   6.659   1.941   1.146
 7900SOL     OW24598   1.082   4.941   1.252
 7900SOL    HW124599   1.115   4.856   1.294
 7900SOL    HW224600   1.156   4.983   1.200
 7901SOL     OW24601   5.392   0.305   5.871
 7901SOL    HW124602   5.483   0.345   5.886
 7901SOL    HW224603   5.324   0.360   5.919
 7902SOL     OW24604   4.989   4.978   1.853
 7902SOL    HW124605   4.950   4.886   1.848
 7902SOL    HW224606   4.967   5.028   1.770
 7903SOL     OW24607   5.746   2.057   0.223
 7903SOL    HW124608   5.655   2.080   0.190
 7903SOL    HW224609   5.755   2.086   0.318
 7904SOL     OW24610   6.536   1.059   2.515
 7904SOL    HW124611   6.448   1.014   2.531
 7904SOL    HW224612   6.598   0.996   2.468
 7905SOL     OW24613   4.743   1.709   0.780
 7905SOL    HW124614   4.744   1.786   0.718
 7905SOL    HW224615   4.778   1.737   0.870
 7906SOL     OW24616   6.785   5.916   6.684
 7906SOL    HW124617   6.751   5.910   6.778
 7906SOL    HW224618   6.786   6.012   6.656
 7907SOL     OW24619   6.277   2.344   4.473
 7907SOL    HW124620   6.222   2.276   4.426
 7907SOL    HW224621   6.261   2.434   4.432
 7908SOL     OW24622   1.395   1.065   3.932
 7908SOL    HW124623   1.332   1.141   3.946
 7908SOL    HW224624   1.452   1.053   4.013
 7909SOL     OW24625   4.902   3.639   4.750
 7909SOL    HW124626   4.866   3.626   4.842
 7909SOL    HW224627   4.870   3.565   4.691
 7910SOL     OW24628   3.850   2.962   5.023
 7910SOL    HW124629   3.899   2.927   4.944
 7910SOL    HW224630   3.759   2.921   5.027
 7911SOL     OW24631   0.005   4.817   0.823
 7911SOL    HW124632   6.981   4.744   0.779
 7911SOL    HW224633   6.975   4.869   0.885
 7912SOL     OW24634   6.928   5.457   6.690
 7912SOL    HW124635   6.919   5.534   6.626
 7912SOL    HW224636   6.839   5.416   6.706
 7913SOL     OW24637   0.345   5.550   6.252
 7913SOL    HW124638   0.423   5.585   6.200
 7913SOL    HW224639   0.331   5.454   6.231
 7914SOL     OW24640   6.810   4.975   0.452
 7914SOL    HW124641   6.800   5.073   0.470
 7914SOL    HW224642   6.743   4.947   0.382
 7915SOL     OW24643   5.121   2.388   2.962
 7915SOL    HW124644   5.048   2.434   3.014
 7915SOL    HW224645   5.086   2.361   2.872
 7916SOL     OW24646   5.674   3.935   5.279
 7916SOL    HW124647   5.653   3.851   5.229
 7916SOL    HW224648   5.753   3.919   5.339
 7917SOL     OW24649   3.864   2.982   3.825
 7917SOL    HW124650   3.843   2.956   3.919
 7917SOL    HW224651   3.793   2.947   3.764
 7918SOL     OW24652   5.933   1.502   1.602
 7918SOL    HW124653   5.856   1.522   1.542
 7918SOL    HW224654   5.921   1.549   1.690
 7919SOL     OW24655   6.597   4.471   2.929
 7919SOL    HW124656   6.524   4.524   2.886
 7919SOL    HW224657   6.557   4.405   2.992
 7920SOL     OW24658   6.891   4.931   1.134
 7920SOL    HW124659   6.850   5.022   1.139
 7920SOL    HW224660   6.848   4.878   1.061
 7921SOL     OW24661   3.377   6.521   1.204
 7921SOL    HW124662   3.463   6.540   1.157
 7921SOL    HW224663   3.340   6.434   1.171
 7922SOL     OW24664   6.717   5.657   0.180
 7922SOL    HW124665   6.791   5.711   0.139
 7922SOL    HW224666   6.698   5.691   0.271
 7923SOL     OW24667   1.938   1.082   3.114
 7923SOL    HW124668   1.961   1.004   3.173
 7923SOL    HW224669   2.021   1.122   3.077
 7924SOL     OW24670   3.132   6.573   3.520
 7924SOL    HW124671   3.045   6.523   3.528
 7924SOL    HW224672   3.191   6.526   3.454
 7925SOL     OW24673   6.979   1.737   6.177
 7925SOL    HW124674   0.012   1.714   6.252
 7925SOL    HW224675   6.893   1.687   6.189
 7926SOL     OW24676   3.423   0.608   3.714
 7926SOL    HW124677   3.323   0.608   3.716
 7926SOL    HW224678   3.456   0.698   3.744
 7927SOL     OW24679   4.023   5.417   4.684
 7927SOL    HW124680   4.056   5.455   4.597
 7927SOL    HW224681   4.070   5.330   4.701
 7928SOL     OW24682   1.470   4.480   3.400
 7928SOL    HW124683   1.478   4.447   3.493
 7928SOL    HW224684   1.461   4.580   3.401
 7929SOL     OW24685   4.157   3.518   4.618
 7929SOL    HW124686   4.188   3.461   4.543
 7929SOL    HW224687   4.201   3.490   4.703
 7930SOL     OW24688   5.070   6.037   3.729
 7930SOL    HW124689   5.028   5.955   3.689
 7930SOL    HW224690   5.101   6.097   3.655
 7931SOL     OW24691   2.100   2.620   6.910
 7931SOL    HW124692   2.169   2.553   6.938
 7931SOL    HW224693   2.025   2.573   6.862
 7932SOL     OW24694   2.415   0.534   0.065
 7932SOL    HW124695   2.450   0.441   0.074
 7932SOL    HW224696   2.482   0.590   0.018
 7933SOL     OW24697   0.488   6.826   6.973
 7933SOL    HW124698   0.576   6.789   7.002
 7933SOL    HW224699   0.473   6.914   7.017
 7934SOL     OW24700   2.224   3.537   0.236
 7934SOL    HW124701   2.253   3.583   0.152
 7934SOL    HW224702   2.251   3.440   0.232
 7935SOL     OW24703   4.931   5.922   6.829
 7935SOL    HW124704   4.911   5.867   6.910
 7935SOL    HW224705   4.999   5.992   6.852
 7936SOL     OW24706   3.470   5.967   3.192
 7936SOL    HW124707   3.412   6.040   3.157
 7936SOL    HW224708   3.433   5.878   3.164
 7937SOL     OW24709   5.043   7.017   4.913
 7937SOL    HW124710   5.042   7.026   4.814
 7937SOL    HW224711   5.137   7.003   4.944
 7938SOL     OW24712   4.602   4.938   4.828
 7938SOL    HW124713   4.545   4.966   4.750
 7938SOL    HW224714   4.599   5.009   4.898
 7939SOL     OW24715   0.868   1.356   6.061
 7939SOL    HW124716   0.894   1.442   6.015
 7939SOL    HW224717   0.794   1.313   6.010
 7940SOL     OW24718   2.597   5.075   2.085
 7940SOL    HW124719   2.622   4.984   2.055
 7940SOL    HW224720   2.505   5.073   2.125
 7941SOL     OW24721   6.841   0.339   0.695
 7941SOL    HW124722   6.914   0.407   0.690
 7941SOL    HW224723   6.790   0.352   0.781
 7942SOL     OW24724   0.186   6.687   2.316
 7942SOL    HW124725   0.285   6.690   2.302
 7942SOL    HW224726   0.143   6.641   2.239
 7943SOL     OW24727   5.851   2.126   1.081
 7943SOL    HW124728   5.826   2.193   1.151
 7943SOL    HW224729   5.818   2.158   0.992
 7944SOL     OW24730   0.199   3.411   1.054
 7944SOL    HW124731   0.106   3.420   1.089
 7944SOL    HW224732   0.258   3.372   1.125
 7945SOL     OW24733   5.077   0.171   2.764
 7945SOL    HW124734   5.052   0.236   2.837
 7945SOL    HW224735   5.001   0.162   2.700
 7946SOL     OW24736   2.093   1.906   6.175
 7946SOL    HW124737   2.162   1.861   6.232
 7946SOL    HW224738   2.040   1.970   6.231
 7947SOL     OW24739   3.924   2.823   6.708
 7947SOL    HW124740   3.945   2.882   6.631
 7947SOL    HW224741   3.855   2.755   6.681
 7948SOL     OW24742   6.746   6.685   0.868
 7948SOL    HW124743   6.795   6.727   0.944
 7948SOL    HW224744   6.812   6.650   0.801
 7949SOL     OW24745   5.172   4.914   4.422
 7949SOL    HW124746   5.174   4.862   4.507
 7949SOL    HW224747   5.097   4.880   4.365
 7950SOL     OW24748   4.487   4.936   3.728
 7950SOL    HW124749   4.445   4.854   3.766
 7950SOL    HW224750   4.510   4.920   3.632
 7951SOL     OW24751   2.718   3.515   1.051
 7951SOL    HW124752   2.695   3.597   1.105
 7951SOL    HW224753   2.767   3.543   0.969
 7952SOL     OW24754   6.700   3.036   6.850
 7952SOL    HW124755   6.658   3.013   6.938
 7952SOL    HW224756   6.632   3.026   6.777
 7953SOL     OW24757   2.178   2.536   3.111
 7953SOL    HW124758   2.142   2.462   3.169
 7953SOL    HW224759   2.190   2.502   3.018
 7954SOL     OW24760   4.325   5.558   4.285
 7954SOL    HW124761   4.424   5.554   4.271
 7954SOL    HW224762   4.288   5.639   4.240
 7955SOL     OW24763   0.127   6.535   6.778
 7955SOL    HW124764   0.033   6.523   6.745
 7955SOL    HW224765   0.191   6.520   6.703
 7956SOL     OW24766   0.551   5.923   2.910
 7956SOL    HW124767   0.572   5.919   3.008
 7956SOL    HW224768   0.517   6.015   2.888
 7957SOL     OW24769   1.545   1.956   0.570
 7957SOL    HW124770   1.542   1.887   0.642
 7957SOL    HW224771   1.555   1.912   0.481
 7958SOL     OW24772   3.596   5.795   4.402
 7958SOL    HW124773   3.572   5.855   4.478
 7958SOL    HW224774   3.640   5.849   4.330
 7959SOL     OW24775   4.935   5.009   0.461
 7959SOL    HW124776   4.860   5.026   0.397
 7959SOL    HW224777   4.999   5.086   0.458
 7960SOL     OW24778   3.116   1.971   1.469
 7960SOL    HW124779   3.181   2.047   1.464
 7960SOL    HW224780   3.107   1.930   1.378
 7961SOL     OW24781   2.072   6.448   6.588
 7961SOL    HW124782   2.166   6.455   6.556
 7961SOL    HW224783   2.017   6.400   6.520
 7962SOL     OW24784   2.243   0.724   1.124
 7962SOL    HW124785   2.220   0.693   1.032
 7962SOL    HW224786   2.199   0.664   1.191
 7963SOL     OW24787   6.930   1.201   4.973
 7963SOL    HW124788   6.925   1.118   5.028
 7963SOL    HW224789   6.841   1.246   4.972
 7964SOL     OW24790   5.511   5.232   3.867
 7964SOL    HW124791   5.480   5.147   3.824
 7964SOL    HW224792   5.576   5.211   3.940
 7965SOL     OW24793   4.360   2.686   0.028
 7965SOL    HW124794   4.450   2.696   0.071
 7965SOL    HW224795   4.338   2.770   7.007
 7966SOL     OW24796   0.839   3.797   4.816
 7966SOL    HW124797   0.896   3.755   4.887
 7966SOL    HW224798   0.856   3.753   4.728
 7967SOL     OW24799   3.093   5.977   3.475
 7967SOL    HW124800   3.132   5.982   3.567
 7967SOL    HW224801   2.993   5.983   3.481
 7968SOL     OW24802   2.388   2.691   3.462
 7968SOL    HW124803   2.337   2.765   3.419
 7968SOL    HW224804   2.324   2.623   3.498
 7969SOL     OW24805   3.689   6.782   2.039
 7969SOL    HW124806   3.687   6.794   1.939
 7969SOL    HW224807   3.782   6.796   2.072
 7970SOL     OW24808   0.152   3.601   2.988
 7970SOL    HW124809   0.072   3.592   2.929
 7970SOL    HW224810   0.235   3.579   2.936
 7971SOL     OW24811   3.045   1.234   1.805
 7971SOL    HW124812   3.067   1.190   1.892
 7971SOL    HW224813   2.947   1.222   1.786
 7972SOL     OW24814   6.648   4.508   1.171
 7972SOL    HW124815   6.738   4.537   1.139
 7972SOL    HW224816   6.609   4.579   1.229
 7973SOL     OW24817   5.108   3.736   3.476
 7973SOL    HW124818   5.033   3.794   3.444
 7973SOL    HW224819   5.126   3.664   3.408
 7974SOL     OW24820   6.136   0.312   4.589
 7974SOL    HW124821   6.188   0.358   4.517
 7974SOL    HW224822   6.117   0.377   4.663
 7975SOL     OW24823   5.087   0.423   4.277
 7975SOL    HW124824   5.074   0.522   4.274
 7975SOL    HW224825   5.002   0.377   4.250
 7976SOL     OW24826   0.878   6.462   5.313
 7976SOL    HW124827   0.805   6.410   5.270
 7976SOL    HW224828   0.839   6.537   5.367
 7977SOL     OW24829   4.588   5.794   2.474
 7977SOL    HW124830   4.667   5.819   2.529
 7977SOL    HW224831   4.505   5.832   2.516
 7978SOL     OW24832   4.982   3.900   6.147
 7978SOL    HW124833   5.039   3.822   6.173
 7978SOL    HW224834   4.888   3.870   6.131
 7979SOL     OW24835   3.268   6.980   4.712
 7979SOL    HW124836   3.289   6.972   4.810
 7979SOL    HW224837   3.353   6.975   4.660
 7980SOL     OW24838   3.896   5.843   0.303
 7980SOL    HW124839   3.950   5.768   0.341
 7980SOL    HW224840   3.804   5.839   0.341
 7981SOL     OW24841   1.069   5.344   1.494
 7981SOL    HW124842   1.160   5.301   1.494
 7981SOL    HW224843   1.039   5.358   1.588
 7982SOL     OW24844   0.017   2.558   0.811
 7982SOL    HW124845   0.108   2.519   0.793
 7982SOL    HW224846   0.026   2.636   0.873
 7983SOL     OW24847   5.437   1.896   3.415
 7983SOL    HW124848   5.359   1.893   3.478
 7983SOL    HW224849   5.403   1.891   3.321
 7984SOL     OW24850   0.879   1.780   2.006
 7984SOL    HW124851   0.921   1.848   2.066
 7984SOL    HW224852   0.788   1.757   2.041
 7985SOL     OW24853   1.556   0.200   2.723
 7985SOL    HW124854   1.464   0.201   2.683
 7985SOL    HW224855   1.551   0.163   2.816
 7986SOL     OW24856   3.412   1.444   6.929
 7986SOL    HW124857   3.427   1.383   6.851
 7986SOL    HW224858   3.416   1.539   6.898
 7987SOL     OW24859   0.358   3.697   5.756
 7987SOL    HW124860   0.360   3.792   5.725
 7987SOL    HW224861   0.440   3.649   5.722
 7988SOL     OW24862   2.710   2.334   4.749
 7988SOL    HW124863   2.638   2.349   4.817
 7988SOL    HW224864   2.702   2.402   4.676
 7989SOL     OW24865   3.420   2.815   5.244
 7989SOL    HW124866   3.509   2.780   5.273
 7989SOL    HW224867   3.347   2.760   5.285
 7990SOL     OW24868   1.532   3.415   3.353
 7990SOL    HW124869   1.621   3.443   3.316
 7990SOL    HW224870   1.488   3.493   3.397
 7991SOL     OW24871   0.007   2.654   6.268
 7991SOL    HW124872   6.999   2.561   6.275
 7991SOL    HW224873   7.015   2.705   6.351
 7992SOL     OW24874   1.193   6.270   0.854
 7992SOL    HW124875   1.289   6.247   0.842
 7992SOL    HW224876   1.156   6.219   0.932
 7993SOL     OW24877   2.129   5.530   6.699
 7993SOL    HW124878   2.045   5.573   6.668
 7993SOL    HW224879   2.160   5.464   6.629
 7994SOL     OW24880   4.720   0.506   3.863
 7994SOL    HW124881   4.767   0.586   3.826
 7994SOL    HW224882   4.691   0.525   3.957
 7995SOL     OW24883   3.680   5.347   4.006
 7995SOL    HW124884   3.677   5.255   4.044
 7995SOL    HW224885   3.702   5.412   4.079
 7996SOL     OW24886   3.643   6.366   4.086
 7996SOL    HW124887   3.722   6.419   4.117
 7996SOL    HW224888   3.583   6.426   4.032
 7997SOL     OW24889   6.361   1.697   1.256
 7997SOL    HW124890   6.365   1.598   1.266
 7997SOL    HW224891   6.454   1.734   1.248
 7998SOL     OW24892   4.704   5.038   0.309
 7998SOL    HW124893   4.611   5.060   0.340
 7998SOL    HW224894   4.700   4.975   0.232
 7999SOL     OW24895   1.062   7.001   5.538
 7999SOL    HW124896   1.152   7.000   5.582
 7999SOL    HW224897   1.043   0.064   5.504
 8000SOL     OW24898   5.480   0.304   6.313
 8000SOL    HW124899   5.571   0.264   6.327
 8000SOL    HW224900   5.413   0.256   6.368
 8001SOL     OW24901   2.829   6.059   1.935
 8001SOL    HW124902   2.870   6.044   2.026
 8001SOL    HW224903   2.835   6.156   1.912
 8002SOL     OW24904   0.231   3.471   5.859
 8002SOL    HW124905   0.135   3.499   5.866
 8002SOL    HW224906   0.285   3.548   5.825
 8003SOL     OW24907   2.762   4.737   2.716
 8003SOL    HW124908   2.846   4.779   2.681
 8003SOL    HW224909   2.712   4.695   2.640
 8004SOL     OW24910   1.878   4.783   3.232
 8004SOL    HW124911   1.949   4.783   3.161
 8004SOL    HW224912   1.904   4.845   3.305
 8005SOL     OW24913   3.336   1.526   2.282
 8005SOL    HW124914   3.362   1.492   2.191
 8005SOL    HW224915   3.237   1.544   2.284
 8006SOL     OW24916   2.437   5.897   0.171
 8006SOL    HW124917   2.368   5.929   0.237
 8006SOL    HW224918   2.525   5.940   0.191
 8007SOL     OW24919   0.831   0.327   3.852
 8007SOL    HW124920   0.757   0.277   3.897
 8007SOL    HW224921   0.919   0.297   3.889
 8008SOL     OW24922   5.166   6.681   6.199
 8008SOL    HW124923   5.159   6.770   6.245
 8008SOL    HW224924   5.074   6.643   6.186
 8009SOL     OW24925   6.302   0.347   2.664
 8009SOL    HW124926   6.337   0.264   2.621
 8009SOL    HW224927   6.294   0.333   2.763
 8010SOL     OW24928   2.185   1.470   6.924
 8010SOL    HW124929   2.088   1.455   6.903
 8010SOL    HW224930   2.197   1.483   7.022
 8011SOL     OW24931   2.023   2.009   1.567
 8011SOL    HW124932   2.058   2.093   1.526
 8011SOL    HW224933   2.095   1.940   1.570
 8012SOL     OW24934   1.755   6.005   0.852
 8012SOL    HW124935   1.814   5.927   0.834
 8012SOL    HW224936   1.791   6.086   0.805
 8013SOL     OW24937   6.729   5.168   4.557
 8013SOL    HW124938   6.755   5.072   4.570
 8013SOL    HW224939   6.757   5.221   4.637
 8014SOL     OW24940   1.398   5.985   6.198
 8014SOL    HW124941   1.355   5.972   6.109
 8014SOL    HW224942   1.328   5.985   6.269
 8015SOL     OW24943   2.903   2.162   0.871
 8015SOL    HW124944   2.867   2.074   0.902
 8015SOL    HW224945   2.829   2.229   0.867
 8016SOL     OW24946   4.596   0.260   0.256
 8016SOL    HW124947   4.592   0.174   0.307
 8016SOL    HW224948   4.681   0.309   0.279
 8017SOL     OW24949   0.575   4.619   5.678
 8017SOL    HW124950   0.534   4.694   5.626
 8017SOL    HW224951   0.611   4.654   5.765
 8018SOL     OW24952   4.950   1.947   5.755
 8018SOL    HW124953   5.032   1.913   5.709
 8018SOL    HW224954   4.921   1.882   5.825
 8019SOL     OW24955   1.900   4.192   0.467
 8019SOL    HW124956   1.814   4.158   0.427
 8019SOL    HW224957   1.898   4.178   0.566
 8020SOL     OW24958   5.743   6.177   6.493
 8020SOL    HW124959   5.665   6.225   6.453
 8020SOL    HW224960   5.828   6.213   6.454
 8021SOL     OW24961   0.885   1.153   1.729
 8021SOL    HW124962   0.870   1.092   1.807
 8021SOL    HW224963   0.944   1.229   1.757
 8022SOL     OW24964   3.779   1.136   2.859
 8022SOL    HW124965   3.712   1.206   2.885
 8022SOL    HW224966   3.869   1.178   2.854
 8023SOL     OW24967   6.273   6.407   3.059
 8023SOL    HW124968   6.188   6.458   3.072
 8023SOL    HW224969   6.252   6.317   3.021
 8024SOL     OW24970   3.634   5.230   6.808
 8024SOL    HW124971   3.625   5.329   6.793
 8024SOL    HW224972   3.716   5.197   6.761
 8025SOL     OW24973   3.612   6.201   6.208
 8025SOL    HW124974   3.700   6.246   6.215
 8025SOL    HW224975   3.573   6.189   6.299
 8026SOL     OW24976   0.301   4.157   0.169
 8026SOL    HW124977   0.272   4.092   0.099
 8026SOL    HW224978   0.221   4.197   0.213
 8027SOL     OW24979   4.603   2.102   5.295
 8027SOL    HW124980   4.534   2.031   5.307
 8027SOL    HW224981   4.679   2.066   5.241
 8028SOL     OW24982   3.850   4.751   5.575
 8028SOL    HW124983   3.911   4.829   5.559
 8028SOL    HW224984   3.853   4.726   5.672
 8029SOL     OW24985   5.347   4.094   6.365
 8029SOL    HW124986   5.300   4.152   6.300
 8029SOL    HW224987   5.345   3.999   6.334
 8030SOL     OW24988   5.560   4.416   5.946
 8030SOL    HW124989   5.473   4.460   5.926
 8030SOL    HW224990   5.623   4.483   5.986
 8031SOL     OW24991   4.914   5.619   2.556
 8031SOL    HW124992   4.908   5.602   2.458
 8031SOL    HW224993   4.842   5.568   2.604
 8032SOL     OW24994   5.963   4.028   4.899
 8032SOL    HW124995   6.050   4.001   4.941
 8032SOL    HW224996   5.981   4.074   4.812
 8033SOL     OW24997   5.508   2.835   0.180
 8033SOL    HW124998   5.438   2.764   0.196
 8033SOL    HW224999   5.523   2.885   0.265
 8034SOL     OW25000   6.518   0.709   5.304
 8034SOL    HW125001   6.459   0.714   5.223
 8034SOL    HW225002   6.464   0.675   5.382
 8035SOL     OW25003   5.767   6.507   5.262
 8035SOL    HW125004   5.670   6.491   5.243
 8035SOL    HW225005   5.787   6.480   5.356
 8036SOL     OW25006   1.605   3.686   1.666
 8036SOL    HW125007   1.632   3.679   1.762
 8036SOL    HW225008   1.580   3.781   1.645
 8037SOL     OW25009   1.647   3.510   1.329
 8037SOL    HW125010   1.691   3.441   1.270
 8037SOL    HW225011   1.613   3.466   1.412
 8038SOL     OW25012   5.592   2.042   3.152
 8038SOL    HW125013   5.517   1.976   3.148
 8038SOL    HW225014   5.636   2.037   3.242
 8039SOL     OW25015   1.768   6.989   3.490
 8039SOL    HW125016   1.729   6.923   3.553
 8039SOL    HW225017   1.802   0.040   3.541
 8040SOL     OW25018   0.614   5.366   0.940
 8040SOL    HW125019   0.685   5.297   0.954
 8040SOL    HW225020   0.524   5.322   0.940
 8041SOL     OW25021   3.635   1.519   1.338
 8041SOL    HW125022   3.607   1.545   1.431
 8041SOL    HW225023   3.708   1.579   1.307
 8042SOL     OW25024   3.363   2.794   1.717
 8042SOL    HW125025   3.275   2.841   1.705
 8042SOL    HW225026   3.433   2.860   1.744
 8043SOL     OW25027   2.977   0.517   0.500
 8043SOL    HW125028   2.947   0.422   0.491
 8043SOL    HW225029   3.058   0.532   0.443
 8044SOL     OW25030   2.991   3.119   1.208
 8044SOL    HW125031   3.046   3.157   1.282
 8044SOL    HW225032   3.051   3.085   1.136
 8045SOL     OW25033   5.794   1.114   2.355
 8045SOL    HW125034   5.754   1.148   2.440
 8045SOL    HW225035   5.889   1.144   2.348
 8046SOL     OW25036   6.207   4.838   5.918
 8046SOL    HW125037   6.206   4.820   5.819
 8046SOL    HW225038   6.258   4.765   5.964
 8047SOL     OW25039   3.484   5.012   4.843
 8047SOL    HW125040   3.433   4.988   4.926
 8047SOL    HW225041   3.424   5.005   4.763
 8048SOL     OW25042   5.333   1.196   5.475
 8048SOL    HW125043   5.332   1.295   5.459
 8048SOL    HW225044   5.240   1.164   5.490
 8049SOL     OW25045   0.445   7.000   1.495
 8049SOL    HW125046   0.415   6.941   1.420
 8049SOL    HW225047   0.370   0.030   1.524
 8050SOL     OW25048   1.126   3.332   1.324
 8050SOL    HW125049   1.099   3.380   1.407
 8050SOL    HW225050   1.221   3.302   1.331
 8051SOL     OW25051   5.002   0.052   3.375
 8051SOL    HW125052   5.023   6.999   3.430
 8051SOL    HW225053   4.903   0.059   3.363
 8052SOL     OW25054   3.571   1.787   2.305
 8052SOL    HW125055   3.567   1.762   2.402
 8052SOL    HW225056   3.499   1.853   2.285
 8053SOL     OW25057   4.066   3.775   2.710
 8053SOL    HW125058   4.035   3.713   2.782
 8053SOL    HW225059   4.106   3.857   2.752
 8054SOL     OW25060   4.453   6.731   4.777
 8054SOL    HW125061   4.382   6.756   4.843
 8054SOL    HW225062   4.543   6.755   4.814
 8055SOL     OW25063   0.490   0.518   5.905
 8055SOL    HW125064   0.470   0.455   5.829
 8055SOL    HW225065   0.557   0.585   5.875
 8056SOL     OW25066   4.348   1.414   3.093
 8056SOL    HW125067   4.441   1.378   3.090
 8056SOL    HW225068   4.283   1.337   3.096
 8057SOL     OW25069   2.981   0.303   2.606
 8057SOL    HW125070   2.910   0.268   2.667
 8057SOL    HW225071   2.939   0.367   2.541
 8058SOL     OW25072   3.254   6.961   2.687
 8058SOL    HW125073   3.296   6.871   2.677
 8058SOL    HW225074   3.159   6.950   2.719
 8059SOL     OW25075   3.754   2.153   4.581
 8059SOL    HW125076   3.713   2.243   4.570
 8059SOL    HW225077   3.838   2.161   4.634
 8060SOL     OW25078   0.888   1.344   4.735
 8060SOL    HW125079   0.939   1.280   4.793
 8060SOL    HW225080   0.800   1.364   4.778
 8061SOL     OW25081   6.705   5.851   2.065
 8061SOL    HW125082   6.633   5.792   2.028
 8061SOL    HW225083   6.714   5.932   2.007
 8062SOL     OW25084   1.967   4.211   4.283
 8062SOL    HW125085   2.024   4.225   4.364
 8062SOL    HW225086   1.902   4.286   4.274
 8063SOL     OW25087   2.274   3.808   6.844
 8063SOL    HW125088   2.324   3.891   6.819
 8063SOL    HW225089   2.318   3.729   6.801
 8064SOL     OW25090   0.507   4.671   0.385
 8064SOL    HW125091   0.409   4.659   0.374
 8064SOL    HW225092   0.525   4.752   0.442
 8065SOL     OW25093   4.137   0.097   4.298
 8065SOL    HW125094   4.149   0.196   4.298
 8065SOL    HW225095   4.132   0.064   4.203
 8066SOL     OW25096   1.639   0.911   6.818
 8066SOL    HW125097   1.723   0.857   6.820
 8066SOL    HW225098   1.566   0.857   6.776
 8067SOL     OW25099   3.943   3.389   1.742
 8067SOL    HW125100   3.887   3.470   1.725
 8067SOL    HW225101   3.963   3.382   1.840
 8068SOL     OW25102   6.293   6.038   5.346
 8068SOL    HW125103   6.261   5.969   5.281
 8068SOL    HW225104   6.218   6.102   5.365
 8069SOL     OW25105   2.599   6.079   1.487
 8069SOL    HW125106   2.685   6.092   1.537
 8069SOL    HW225107   2.523   6.085   1.551
 8070SOL     OW25108   3.245   5.248   1.369
 8070SOL    HW125109   3.344   5.259   1.380
 8070SOL    HW225110   3.199   5.274   1.454
 8071SOL     OW25111   4.268   6.825   4.970
 8071SOL    HW125112   4.247   6.762   5.045
 8071SOL    HW225113   4.201   6.900   4.969
 8072SOL     OW25114   4.147   1.199   0.418
 8072SOL    HW125115   4.211   1.130   0.453
 8072SOL    HW225116   4.155   1.204   0.319
 8073SOL     OW25117   4.734   0.586   6.608
 8073SOL    HW125118   4.810   0.531   6.574
 8073SOL    HW225119   4.658   0.526   6.634
 8074SOL     OW25120   3.137   3.251   0.364
 8074SOL    HW125121   3.105   3.298   0.447
 8074SOL    HW225122   3.219   3.296   0.329
 8075SOL     OW25123   6.865   1.148   1.318
 8075SOL    HW125124   6.922   1.122   1.396
 8075SOL    HW225125   6.923   1.156   1.237
 8076SOL     OW25126   4.910   2.234   5.440
 8076SOL    HW125127   4.916   2.295   5.519
 8076SOL    HW225128   4.876   2.284   5.361
 8077SOL     OW25129   0.545   6.545   1.472
 8077SOL    HW125130   0.568   6.551   1.375
 8077SOL    HW225131   0.611   6.599   1.525
 8078SOL     OW25132   6.034   1.839   0.342
 8078SOL    HW125133   5.966   1.897   0.386
 8078SOL    HW225134   6.061   1.766   0.404
 8079SOL     OW25135   6.243   2.066   2.975
 8079SOL    HW125136   6.332   2.019   2.973
 8079SOL    HW225137   6.255   2.158   3.014
 8080SOL     OW25138   2.245   3.653   0.575
 8080SOL    HW125139   2.181   3.700   0.635
 8080SOL    HW225140   2.337   3.688   0.590
 8081SOL     OW25141   5.563   1.081   5.420
 8081SOL    HW125142   5.472   1.120   5.439
 8081SOL    HW225143   5.580   1.006   5.483
 8082SOL     OW25144   5.910   2.332   3.011
 8082SOL    HW125145   5.886   2.283   3.095
 8082SOL    HW225146   5.893   2.273   2.932
 8083SOL     OW25147   4.937   3.306   2.357
 8083SOL    HW125148   4.988   3.237   2.307
 8083SOL    HW225149   4.925   3.277   2.452
 8084SOL     OW25150   6.688   6.167   1.151
 8084SOL    HW125151   6.743   6.244   1.183
 8084SOL    HW225152   6.713   6.085   1.202
 8085SOL     OW25153   5.868   6.833   0.985
 8085SOL    HW125154   5.962   6.811   0.962
 8085SOL    HW225155   5.836   6.910   0.928
 8086SOL     OW25156   3.912   0.332   4.121
 8086SOL    HW125157   3.965   0.247   4.121
 8086SOL    HW225158   3.841   0.327   4.051
 8087SOL     OW25159   2.551   2.174   1.086
 8087SOL    HW125160   2.575   2.093   1.139
 8087SOL    HW225161   2.582   2.256   1.135
 8088SOL     OW25162   6.263   1.507   1.936
 8088SOL    HW125163   6.300   1.510   1.843
 8088SOL    HW225164   6.168   1.475   1.932
 8089SOL     OW25165   5.254   2.665   6.698
 8089SOL    HW125166   5.156   2.657   6.720
 8089SOL    HW225167   5.266   2.736   6.629
 8090SOL     OW25168   5.043   2.204   6.352
 8090SOL    HW125169   5.037   2.121   6.296
 8090SOL    HW225170   5.139   2.226   6.369
 8091SOL     OW25171   3.368   4.546   0.013
 8091SOL    HW125172   3.300   4.477   0.039
 8091SOL    HW225173   3.428   4.509   6.971
 8092SOL     OW25174   1.280   1.347   4.600
 8092SOL    HW125175   1.361   1.341   4.542
 8092SOL    HW225176   1.214   1.277   4.573
 8093SOL     OW25177   6.355   5.927   1.346
 8093SOL    HW125178   6.436   5.969   1.388
 8093SOL    HW225179   6.300   5.883   1.417
 8094SOL     OW25180   1.736   4.629   6.175
 8094SOL    HW125181   1.760   4.603   6.082
 8094SOL    HW225182   1.687   4.554   6.219
 8095SOL     OW25183   6.078   3.755   4.366
 8095SOL    HW125184   5.990   3.709   4.356
 8095SOL    HW225185   6.151   3.693   4.335
 8096SOL     OW25186   2.765   5.636   3.324
 8096SOL    HW125187   2.762   5.634   3.424
 8096SOL    HW225188   2.672   5.647   3.288
 8097SOL     OW25189   4.582   0.229   3.402
 8097SOL    HW125190   4.605   0.254   3.496
 8097SOL    HW225191   4.484   0.211   3.395
 8098SOL     OW25192   2.417   5.820   4.264
 8098SOL    HW125193   2.344   5.758   4.293
 8098SOL    HW225194   2.381   5.886   4.198
 8099SOL     OW25195   6.667   0.700   4.127
 8099SOL    HW125196   6.717   0.652   4.054
 8099SOL    HW225197   6.625   0.782   4.089
 8100SOL     OW25198   0.500   6.499   0.134
 8100SOL    HW125199   0.431   6.526   0.068
 8100SOL    HW225200   0.557   6.427   0.095
 8101SOL     OW25201   1.631   0.384   4.901
 8101SOL    HW125202   1.670   0.474   4.921
 8101SOL    HW225203   1.544   0.394   4.854
 8102SOL     OW25204   0.957   5.343   6.281
 8102SOL    HW125205   1.022   5.411   6.314
 8102SOL    HW225206   0.870   5.388   6.258
 8103SOL     OW25207   4.403   1.142   1.704
 8103SOL    HW125208   4.502   1.156   1.707
 8103SOL    HW225209   4.364   1.166   1.793
 8104SOL     OW25210   3.919   0.016   5.917
 8104SOL    HW125211   3.986   6.981   5.878
 8104SOL    HW225212   3.827   7.008   5.904
 8105SOL     OW25213   2.595   2.392   3.584
 8105SOL    HW125214   2.692   2.369   3.585
 8105SOL    HW225215   2.572   2.435   3.497
 8106SOL     OW25216   1.252   5.158   3.604
 8106SOL    HW125217   1.225   5.240   3.655
 8106SOL    HW225218   1.306   5.185   3.524
 8107SOL     OW25219   2.245   6.471   5.793
 8107SOL    HW125220   2.244   6.374   5.817
 8107SOL    HW225221   2.288   6.483   5.704
 8108SOL     OW25222   6.843   3.638   4.473
 8108SOL    HW125223   6.936   3.636   4.508
 8108SOL    HW225224   6.781   3.599   4.541
 8109SOL     OW25225   2.131   4.544   4.849
 8109SOL    HW125226   2.223   4.505   4.858
 8109SOL    HW225227   2.076   4.517   4.928
 8110SOL     OW25228   2.526   6.200   0.638
 8110SOL    HW125229   2.462   6.133   0.600
 8110SOL    HW225230   2.476   6.267   0.692
 8111SOL     OW25231   2.702   6.828   5.195
 8111SOL    HW125232   2.647   6.745   5.201
 8111SOL    HW225233   2.774   6.825   5.265
 8112SOL     OW25234   2.440   0.723   5.607
 8112SOL    HW125235   2.359   0.741   5.664
 8112SOL    HW225236   2.415   0.663   5.532
 8113SOL     OW25237   3.065   2.569   0.470
 8113SOL    HW125238   3.058   2.509   0.549
 8113SOL    HW225239   2.975   2.607   0.448
 8114SOL     OW25240   2.155   2.905   2.166
 8114SOL    HW125241   2.191   2.946   2.249
 8114SOL    HW225242   2.088   2.967   2.124
 8115SOL     OW25243   4.160   1.058   1.559
 8115SOL    HW125244   4.073   1.108   1.553
 8115SOL    HW225245   4.212   1.092   1.638
 8116SOL     OW25246   5.649   6.970   5.547
 8116SOL    HW125247   5.624   6.907   5.620
 8116SOL    HW225248   5.743   7.002   5.561
 8117SOL     OW25249   1.491   2.006   4.023
 8117SOL    HW125250   1.482   2.104   4.041
 8117SOL    HW225251   1.500   1.957   4.109
 8118SOL     OW25252   0.895   3.897   5.610
 8118SOL    HW125253   0.892   3.915   5.708
 8118SOL    HW225254   0.829   3.955   5.563
 8119SOL     OW25255   0.445   5.300   3.932
 8119SOL    HW125256   0.442   5.201   3.948
 8119SOL    HW225257   0.540   5.331   3.934
 8120SOL     OW25258   4.155   4.358   0.196
 8120SOL    HW125259   4.186   4.319   0.283
 8120SOL    HW225260   4.226   4.420   0.161
 8121SOL     OW25261   0.358   6.681   2.904
 8121SOL    HW125262   0.378   6.737   2.824
 8121SOL    HW225263   0.413   6.712   2.982
 8122SOL     OW25264   0.712   4.800   2.152
 8122SOL    HW125265   0.678   4.893   2.144
 8122SOL    HW225266   0.740   4.767   2.061
 8123SOL     OW25267   0.588   0.195   6.190
 8123SOL    HW125268   0.626   0.282   6.156
 8123SOL    HW225269   0.642   0.119   6.154
 8124SOL     OW25270   1.525   6.142   0.941
 8124SOL    HW125271   1.602   6.086   0.909
 8124SOL    HW225272   1.506   6.214   0.875
 8125SOL     OW25273   5.819   4.872   2.749
 8125SOL    HW125274   5.738   4.859   2.805
 8125SOL    HW225275   5.868   4.785   2.740
 8126SOL     OW25276   5.938   4.418   2.950
 8126SOL    HW125277   5.850   4.442   2.990
 8126SOL    HW225278   5.950   4.319   2.952
 8127SOL     OW25279   2.408   5.288   0.781
 8127SOL    HW125280   2.418   5.375   0.732
 8127SOL    HW225281   2.409   5.213   0.715
 8128SOL     OW25282   3.066   2.717   6.794
 8128SOL    HW125283   3.086   2.749   6.887
 8128SOL    HW225284   3.082   2.792   6.729
 8129SOL     OW25285   5.457   1.067   6.280
 8129SOL    HW125286   5.359   1.047   6.289
 8129SOL    HW225287   5.501   0.993   6.231
 8130SOL     OW25288   1.075   5.626   6.008
 8130SOL    HW125289   1.153   5.640   5.948
 8130SOL    HW225290   1.028   5.542   5.982
 8131SOL     OW25291   3.062   1.403   0.568
 8131SOL    HW125292   3.127   1.445   0.632
 8131SOL    HW225293   3.110   1.340   0.508
 8132SOL     OW25294   6.014   5.595   5.212
 8132SOL    HW125295   6.059   5.516   5.254
 8132SOL    HW225296   5.983   5.657   5.284
 8133SOL     OW25297   3.418   4.984   3.369
 8133SOL    HW125298   3.445   5.020   3.458
 8133SOL    HW225299   3.495   4.938   3.326
 8134SOL     OW25300   1.832   1.928   4.181
 8134SOL    HW125301   1.882   1.945   4.265
 8134SOL    HW225302   1.805   1.831   4.177
 8135SOL     OW25303   3.238   4.924   2.142
 8135SOL    HW125304   3.144   4.891   2.147
 8135SOL    HW225305   3.242   5.021   2.166
 8136SOL     OW25306   4.032   5.014   2.352
 8136SOL    HW125307   3.967   4.950   2.310
 8136SOL    HW225308   4.009   5.107   2.322
 8137SOL     OW25309   1.790   3.151   4.642
 8137SOL    HW125310   1.801   3.152   4.742
 8137SOL    HW225311   1.880   3.153   4.599
 8138SOL     OW25312   5.505   1.815   2.022
 8138SOL    HW125313   5.531   1.771   1.935
 8138SOL    HW225314   5.575   1.796   2.090
 8139SOL     OW25315   0.699   3.449   3.772
 8139SOL    HW125316   0.697   3.350   3.785
 8139SOL    HW225317   0.638   3.493   3.838
 8140SOL     OW25318   4.244   6.899   6.733
 8140SOL    HW125319   4.256   6.993   6.701
 8140SOL    HW225320   4.167   6.896   6.797
 8141SOL     OW25321   4.716   1.114   5.588
 8141SOL    HW125322   4.679   1.051   5.519
 8141SOL    HW225323   4.750   1.062   5.666
 8142SOL     OW25324   2.700   5.270   0.238
 8142SOL    HW125325   2.698   5.220   0.152
 8142SOL    HW225326   2.696   5.369   0.219
 8143SOL     OW25327   5.442   4.468   1.081
 8143SOL    HW125328   5.401   4.544   1.032
 8143SOL    HW225329   5.532   4.448   1.042
 8144SOL     OW25330   0.198   5.936   5.487
 8144SOL    HW125331   0.116   5.982   5.452
 8144SOL    HW225332   0.278   5.969   5.436
 8145SOL     OW25333   5.109   5.774   0.219
 8145SOL    HW125334   5.134   5.719   0.298
 8145SOL    HW225335   5.123   5.871   0.239
 8146SOL     OW25336   6.478   0.439   4.764
 8146SOL    HW125337   6.441   0.464   4.675
 8146SOL    HW225338   6.410   0.460   4.835
 8147SOL     OW25339   0.684   0.617   6.785
 8147SOL    HW125340   0.600   0.584   6.829
 8147SOL    HW225341   0.697   0.714   6.808
 8148SOL     OW25342   4.341   4.001   0.096
 8148SOL    HW125343   4.420   3.983   0.038
 8148SOL    HW225344   4.371   4.047   0.180
 8149SOL     OW25345   1.595   6.915   4.539
 8149SOL    HW125346   1.646   6.868   4.467
 8149SOL    HW225347   1.499   6.886   4.537
 8150SOL     OW25348   0.957   3.401   1.004
 8150SOL    HW125349   0.924   3.420   0.911
 8150SOL    HW225350   1.053   3.428   1.011
 8151SOL     OW25351   6.035   5.163   3.654
 8151SOL    HW125352   5.984   5.088   3.613
 8151SOL    HW225353   6.007   5.250   3.612
 8152SOL     OW25354   4.317   2.180   2.726
 8152SOL    HW125355   4.310   2.084   2.699
 8152SOL    HW225356   4.413   2.204   2.737
 8153SOL     OW25357   0.974   0.482   3.413
 8153SOL    HW125358   0.957   0.406   3.350
 8153SOL    HW225359   0.975   0.568   3.363
 8154SOL     OW25360   2.768   1.811   3.436
 8154SOL    HW125361   2.820   1.881   3.486
 8154SOL    HW225362   2.776   1.724   3.485
 8155SOL     OW25363   1.423   4.388   2.289
 8155SOL    HW125364   1.506   4.384   2.345
 8155SOL    HW225365   1.421   4.311   2.225
 8156SOL     OW25366   5.834   5.722   1.090
 8156SOL    HW125367   5.907   5.673   1.136
 8156SOL    HW225368   5.856   5.731   0.993
 8157SOL     OW25369   6.210   3.671   5.983
 8157SOL    HW125370   6.149   3.749   5.969
 8157SOL    HW225371   6.169   3.590   5.941
 8158SOL     OW25372   5.239   4.904   5.837
 8158SOL    HW125373   5.238   4.986   5.779
 8158SOL    HW225374   5.325   4.855   5.822
 8159SOL     OW25375   4.202   6.432   5.776
 8159SOL    HW125376   4.228   6.464   5.867
 8159SOL    HW225377   4.115   6.383   5.782
 8160SOL     OW25378   5.016   1.494   3.392
 8160SOL    HW125379   4.952   1.570   3.382
 8160SOL    HW225380   4.970   1.418   3.438
 8161SOL     OW25381   5.350   3.163   0.418
 8161SOL    HW125382   5.319   3.155   0.512
 8161SOL    HW225383   5.450   3.172   0.416
 8162SOL     OW25384   0.153   4.867   0.149
 8162SOL    HW125385   0.061   4.853   0.184
 8162SOL    HW225386   0.152   4.936   0.077
 8163SOL     OW25387   4.171   4.692   5.693
 8163SOL    HW125388   4.167   4.594   5.711
 8163SOL    HW225389   4.246   4.711   5.629
 8164SOL     OW25390   4.457   0.884   6.861
 8164SOL    HW125391   4.372   0.856   6.816
 8164SOL    HW225392   4.466   0.984   6.858
 8165SOL     OW25393   6.588   3.361   6.493
 8165SOL    HW125394   6.513   3.415   6.455
 8165SOL    HW225395   6.670   3.419   6.500
 8166SOL     OW25396   1.718   2.043   3.805
 8166SOL    HW125397   1.648   2.054   3.875
 8166SOL    HW225398   1.799   2.095   3.830
 8167SOL     OW25399   6.521   1.227   3.850
 8167SOL    HW125400   6.472   1.314   3.859
 8167SOL    HW225401   6.580   1.229   3.770
 8168SOL     OW25402   2.033   0.559   1.544
 8168SOL    HW125403   2.024   0.657   1.528
 8168SOL    HW225404   1.942   0.518   1.551
 8169SOL     OW25405   4.278   1.812   0.185
 8169SOL    HW125406   4.302   1.831   0.281
 8169SOL    HW225407   4.258   1.715   0.175
 8170SOL     OW25408   6.744   4.070   2.299
 8170SOL    HW125409   6.730   3.972   2.312
 8170SOL    HW225410   6.678   4.121   2.352
 8171SOL     OW25411   1.900   1.004   0.158
 8171SOL    HW125412   1.817   0.961   0.124
 8171SOL    HW225413   1.921   1.085   0.104
 8172SOL     OW25414   0.468   1.723   1.799
 8172SOL    HW125415   0.418   1.707   1.884
 8172SOL    HW225416   0.557   1.762   1.819
 8173SOL     OW25417   5.914   2.127   2.567
 8173SOL    HW125418   5.982   2.063   2.604
 8173SOL    HW225419   5.852   2.077   2.506
 8174SOL     OW25420   1.417   6.320   2.310
 8174SOL    HW125421   1.326   6.285   2.288
 8174SOL    HW225422   1.476   6.314   2.229
 8175SOL     OW25423   0.688   2.432   3.950
 8175SOL    HW125424   0.689   2.369   4.027
 8175SOL    HW225425   0.623   2.505   3.967
 8176SOL     OW25426   1.663   4.393   1.414
 8176SOL    HW125427   1.753   4.437   1.408
 8176SOL    HW225428   1.592   4.464   1.420
 8177SOL     OW25429   3.503   0.855   3.128
 8177SOL    HW125430   3.428   0.917   3.105
 8177SOL    HW225431   3.590   0.898   3.105
 8178SOL     OW25432   2.981   6.581   1.032
 8178SOL    HW125433   3.040   6.502   1.015
 8178SOL    HW225434   2.917   6.592   0.956
 8179SOL     OW25435   5.544   0.365   4.220
 8179SOL    HW125436   5.469   0.355   4.155
 8179SOL    HW225437   5.623   0.311   4.188
 8180SOL     OW25438   5.773   0.044   6.832
 8180SOL    HW125439   5.843   0.115   6.841
 8180SOL    HW225440   5.808   6.997   6.777
 8181SOL     OW25441   0.856   0.946   0.965
 8181SOL    HW125442   0.929   1.014   0.970
 8181SOL    HW225443   0.884   0.864   1.016
 8182SOL     OW25444   3.804   3.507   4.576
 8182SOL    HW125445   3.812   3.407   4.570
 8182SOL    HW225446   3.859   3.540   4.653
 8183SOL     OW25447   6.654   1.034   5.109
 8183SOL    HW125448   6.614   1.115   5.066
 8183SOL    HW225449   6.733   1.060   5.164
 8184SOL     OW25450   1.177   0.009   0.149
 8184SOL    HW125451   1.147   0.096   0.111
 8184SOL    HW225452   1.261   7.008   0.105
 8185SOL     OW25453   1.644   0.647   1.193
 8185SOL    HW125454   1.633   0.612   1.287
 8185SOL    HW225455   1.573   0.714   1.174
 8186SOL     OW25456   1.486   4.592   6.559
 8186SOL    HW125457   1.401   4.566   6.604
 8186SOL    HW225458   1.563   4.571   6.620
 8187SOL     OW25459   2.320   1.708   5.186
 8187SOL    HW125460   2.261   1.789   5.189
 8187SOL    HW225461   2.412   1.736   5.157
 8188SOL     OW25462   4.194   2.344   3.923
 8188SOL    HW125463   4.190   2.300   3.833
 8188SOL    HW225464   4.126   2.417   3.928
 8189SOL     OW25465   5.211   4.599   3.640
 8189SOL    HW125466   5.293   4.582   3.586
 8189SOL    HW225467   5.221   4.684   3.692
 8190SOL     OW25468   5.360   3.856   3.268
 8190SOL    HW125469   5.387   3.782   3.330
 8190SOL    HW225470   5.409   3.846   3.181
 8191SOL     OW25471   4.436   5.095   2.166
 8191SOL    HW125472   4.426   5.121   2.070
 8191SOL    HW225473   4.531   5.070   2.184
 8192SOL     OW25474   1.803   5.446   2.351
 8192SOL    HW125475   1.793   5.442   2.252
 8192SOL    HW225476   1.786   5.355   2.390
 8193SOL     OW25477   6.756   5.615   4.434
 8193SOL    HW125478   6.852   5.587   4.420
 8193SOL    HW225479   6.753   5.692   4.497
 8194SOL     OW25480   4.428   0.084   0.752
 8194SOL    HW125481   4.365   0.079   0.674
 8194SOL    HW225482   4.513   0.127   0.722
 8195SOL     OW25483   5.989   6.507   4.396
 8195SOL    HW125484   5.943   6.476   4.479
 8195SOL    HW225485   6.085   6.479   4.398
 8196SOL     OW25486   4.329   0.485   7.017
 8196SOL    HW125487   4.331   0.398   6.969
 8196SOL    HW225488   4.419   0.528   7.014
 8197SOL     OW25489   4.823   1.906   1.693
 8197SOL    HW125490   4.899   1.962   1.728
 8197SOL    HW225491   4.737   1.938   1.733
 8198SOL     OW25492   2.550   0.484   2.028
 8198SOL    HW125493   2.630   0.425   2.033
 8198SOL    HW225494   2.571   0.565   1.973
 8199SOL     OW25495   4.578   2.987   6.175
 8199SOL    HW125496   4.669   2.961   6.207
 8199SOL    HW225497   4.558   3.081   6.203
 8200SOL     OW25498   5.921   4.292   1.959
 8200SOL    HW125499   5.850   4.223   1.945
 8200SOL    HW225500   6.011   4.252   1.939
 8201SOL     OW25501   0.406   1.328   5.191
 8201SOL    HW125502   0.477   1.258   5.186
 8201SOL    HW225503   0.382   1.358   5.098
 8202SOL     OW25504   0.217   6.629   2.585
 8202SOL    HW125505   0.195   6.659   2.492
 8202SOL    HW225506   0.281   6.553   2.582
 8203SOL     OW25507   2.037   2.388   0.164
 8203SOL    HW125508   2.086   2.365   0.248
 8203SOL    HW225509   1.952   2.436   0.187
 8204SOL     OW25510   4.203   3.822   0.877
 8204SOL    HW125511   4.223   3.775   0.963
 8204SOL    HW225512   4.200   3.920   0.892
 8205SOL     OW25513   0.653   2.623   6.908
 8205SOL    HW125514   0.606   2.683   6.844
 8205SOL    HW225515   0.711   2.558   6.857
 8206SOL     OW25516   5.006   1.242   0.225
 8206SOL    HW125517   5.084   1.300   0.249
 8206SOL    HW225518   5.015   1.212   0.130
 8207SOL     OW25519   3.138   3.986   4.107
 8207SOL    HW125520   3.169   4.038   4.028
 8207SOL    HW225521   3.155   4.038   4.190
 8208SOL     OW25522   0.598   1.131   0.592
 8208SOL    HW125523   0.633   1.046   0.551
 8208SOL    HW225524   0.535   1.108   0.666
 8209SOL     OW25525   0.562   1.132   5.275
 8209SOL    HW125526   0.585   1.069   5.201
 8209SOL    HW225527   0.632   1.126   5.346
 8210SOL     OW25528   2.075   2.693   0.361
 8210SOL    HW125529   2.032   2.746   0.433
 8210SOL    HW225530   2.110   2.755   0.290
 8211SOL     OW25531   3.353   4.303   1.191
 8211SOL    HW125532   3.258   4.310   1.221
 8211SOL    HW225533   3.411   4.276   1.268
 8212SOL     OW25534   1.176   2.300   3.095
 8212SOL    HW125535   1.112   2.231   3.061
 8212SOL    HW225536   1.169   2.382   3.038
 8213SOL     OW25537   6.733   4.264   2.097
 8213SOL    HW125538   6.758   4.173   2.130
 8213SOL    HW225539   6.634   4.269   2.085
 8214SOL     OW25540   5.573   5.032   3.575
 8214SOL    HW125541   5.552   5.129   3.562
 8214SOL    HW225542   5.591   4.990   3.486
 8215SOL     OW25543   3.282   5.949   5.400
 8215SOL    HW125544   3.274   5.860   5.353
 8215SOL    HW225545   3.198   5.967   5.451
 8216SOL     OW25546   5.512   5.878   4.379
 8216SOL    HW125547   5.422   5.904   4.344
 8216SOL    HW225548   5.529   5.781   4.359
 8217SOL     OW25549   2.241   4.825   0.025
 8217SOL    HW125550   2.255   4.819   0.124
 8217SOL    HW225551   2.328   4.848   7.010
 8218SOL     OW25552   0.568   1.525   6.973
 8218SOL    HW125553   0.626   1.508   6.893
 8218SOL    HW225554   0.603   1.471   0.022
 8219SOL     OW25555   4.747   1.558   0.235
 8219SOL    HW125556   4.845   1.579   0.236
 8219SOL    HW225557   4.702   1.609   0.308
 8220SOL     OW25558   3.081   3.097   2.931
 8220SOL    HW125559   3.037   3.082   2.842
 8220SOL    HW225560   3.130   3.183   2.930
 8221SOL     OW25561   5.015   6.200   4.516
 8221SOL    HW125562   4.981   6.129   4.577
 8221SOL    HW225563   4.938   6.256   4.485
 8222SOL     OW25564   5.430   1.749   2.421
 8222SOL    HW125565   5.341   1.718   2.455
 8222SOL    HW225566   5.416   1.822   2.354
 8223SOL     OW25567   1.484   4.005   5.862
 8223SOL    HW125568   1.543   4.050   5.794
 8223SOL    HW225569   1.500   3.906   5.858
 8224SOL     OW25570   0.693   2.464   2.901
 8224SOL    HW125571   0.721   2.437   2.809
 8224SOL    HW225572   0.772   2.494   2.953
 8225SOL     OW25573   4.016   1.118   0.648
 8225SOL    HW125574   3.942   1.065   0.606
 8225SOL    HW225575   4.058   1.177   0.579
 8226SOL     OW25576   5.261   0.111   2.202
 8226SOL    HW125577   5.242   0.200   2.161
 8226SOL    HW225578   5.329   0.122   2.274
 8227SOL     OW25579   0.327   2.445   3.947
 8227SOL    HW125580   0.375   2.451   3.859
 8227SOL    HW225581   0.364   2.514   4.009
 8228SOL     OW25582   0.513   2.682   6.159
 8228SOL    HW125583   0.449   2.606   6.171
 8228SOL    HW225584   0.467   2.758   6.112
 8229SOL     OW25585   3.697   4.302   0.005
 8229SOL    HW125586   3.705   4.402   7.028
 8229SOL    HW225587   3.781   4.263   0.041
 8230SOL     OW25588   5.721   0.203   5.712
 8230SOL    HW125589   5.655   0.129   5.700
 8230SOL    HW225590   5.803   0.185   5.658
 8231SOL     OW25591   3.888   5.883   1.605
 8231SOL    HW125592   3.862   5.955   1.669
 8231SOL    HW225593   3.849   5.903   1.515
 8232SOL     OW25594   5.454   1.058   0.685
 8232SOL    HW125595   5.448   0.977   0.743
 8232SOL    HW225596   5.425   1.139   0.737
 8233SOL     OW25597   1.033   5.860   6.113
 8233SOL    HW125598   1.089   5.879   6.194
 8233SOL    HW225599   1.045   5.765   6.086
 8234SOL     OW25600   2.717   3.502   0.023
 8234SOL    HW125601   2.764   3.547   6.975
 8234SOL    HW225602   2.626   3.542   0.035
 8235SOL     OW25603   2.116   3.387   0.940
 8235SOL    HW125604   2.082   3.328   0.867
 8235SOL    HW225605   2.186   3.338   0.992
 8236SOL     OW25606   6.630   3.465   0.165
 8236SOL    HW125607   6.600   3.391   0.105
 8236SOL    HW225608   6.719   3.500   0.135
 8237SOL     OW25609   4.749   6.540   5.030
 8237SOL    HW125610   4.705   6.508   5.114
 8237SOL    HW225611   4.846   6.514   5.031
 8238SOL     OW25612   1.546   4.209   0.136
 8238SOL    HW125613   1.511   4.140   0.072
 8238SOL    HW225614   1.577   4.164   0.219
 8239SOL     OW25615   6.589   1.564   5.496
 8239SOL    HW125616   6.605   1.662   5.502
 8239SOL    HW225617   6.673   1.514   5.520
 8240SOL     OW25618   3.433   3.660   2.677
 8240SOL    HW125619   3.424   3.585   2.610
 8240SOL    HW225620   3.409   3.626   2.768
 8241SOL     OW25621   3.398   6.458   0.440
 8241SOL    HW125622   3.302   6.431   0.433
 8241SOL    HW225623   3.446   6.433   0.356
 8242SOL     OW25624   1.357   4.265   6.205
 8242SOL    HW125625   1.387   4.313   6.122
 8242SOL    HW225626   1.393   4.172   6.205
 8243SOL     OW25627   0.999   3.192   6.380
 8243SOL    HW125628   1.015   3.179   6.477
 8243SOL    HW225629   1.082   3.170   6.329
 8244SOL     OW25630   0.253   0.005   2.904
 8244SOL    HW125631   0.325   0.071   2.927
 8244SOL    HW225632   0.235   0.009   2.806
 8245SOL     OW25633   3.459   1.102   2.486
 8245SOL    HW125634   3.533   1.161   2.519
 8245SOL    HW225635   3.371   1.138   2.519
 8246SOL     OW25636   6.831   3.836   5.446
 8246SOL    HW125637   6.806   3.801   5.536
 8246SOL    HW225638   6.872   3.927   5.456
 8247SOL     OW25639   1.175   0.148   1.942
 8247SOL    HW125640   1.262   0.172   1.986
 8247SOL    HW225641   1.153   0.216   1.872
 8248SOL     OW25642   5.554   5.070   2.813
 8248SOL    HW125643   5.499   5.153   2.806
 8248SOL    HW225644   5.592   5.063   2.906
 8249SOL     OW25645   2.126   3.523   4.931
 8249SOL    HW125646   2.174   3.487   5.011
 8249SOL    HW225647   2.148   3.620   4.920
 8250SOL     OW25648   3.175   4.078   2.257
 8250SOL    HW125649   3.207   4.098   2.349
 8250SOL    HW225650   3.160   4.163   2.207
 8251SOL     OW25651   6.152   2.811   4.223
 8251SOL    HW125652   6.223   2.853   4.167
 8251SOL    HW225653   6.140   2.865   4.307
 8252SOL     OW25654   3.383   3.085   0.077
 8252SOL    HW125655   3.372   3.185   0.079
 8252SOL    HW225656   3.415   3.053   0.166
 8253SOL     OW25657   3.978   4.021   5.036
 8253SOL    HW125658   3.917   4.100   5.029
 8253SOL    HW225659   3.991   3.981   4.945
 8254SOL     OW25660   4.546   4.800   4.554
 8254SOL    HW125661   4.611   4.832   4.485
 8254SOL    HW225662   4.525   4.704   4.538
 8255SOL     OW25663   3.584   6.250   4.754
 8255SOL    HW125664   3.523   6.296   4.690
 8255SOL    HW225665   3.576   6.151   4.743
 8256SOL     OW25666   6.436   0.690   1.768
 8256SOL    HW125667   6.347   0.686   1.723
 8256SOL    HW225668   6.424   0.679   1.866
 8257SOL     OW25669   6.570   4.008   3.222
 8257SOL    HW125670   6.470   3.999   3.216
 8257SOL    HW225671   6.595   4.024   3.318
 8258SOL     OW25672   5.372   1.207   0.470
 8258SOL    HW125673   5.424   1.167   0.546
 8258SOL    HW225674   5.389   1.305   0.466
 8259SOL     OW25675   4.206   1.725   3.783
 8259SOL    HW125676   4.293   1.702   3.739
 8259SOL    HW225677   4.165   1.805   3.738
 8260SOL     OW25678   2.996   0.660   1.454
 8260SOL    HW125679   2.985   0.755   1.482
 8260SOL    HW225680   3.089   0.646   1.420
 8261SOL     OW25681   6.368   1.520   1.589
 8261SOL    HW125682   6.352   1.515   1.490
 8261SOL    HW225683   6.463   1.498   1.609
 8262SOL     OW25684   1.103   3.065   1.132
 8262SOL    HW125685   1.147   3.151   1.158
 8262SOL    HW225686   1.147   3.029   1.050
 8263SOL     OW25687   0.421   2.355   0.380
 8263SOL    HW125688   0.456   2.423   0.445
 8263SOL    HW225689   0.490   2.336   0.311
 8264SOL     OW25690   1.769   6.158   2.263
 8264SOL    HW125691   1.707   6.111   2.201
 8264SOL    HW225692   1.716   6.216   2.326
 8265SOL     OW25693   0.960   6.623   1.401
 8265SOL    HW125694   0.943   6.528   1.374
 8265SOL    HW225695   0.934   6.684   1.327
 8266SOL     OW25696   2.076   0.848   3.243
 8266SOL    HW125697   2.136   0.904   3.301
 8266SOL    HW225698   2.119   0.836   3.153
 8267SOL     OW25699   1.776   3.123   0.958
 8267SOL    HW125700   1.858   3.068   0.945
 8267SOL    HW225701   1.695   3.064   0.955
 8268SOL     OW25702   2.247   6.454   6.175
 8268SOL    HW125703   2.266   6.356   6.171
 8268SOL    HW225704   2.323   6.504   6.134
 8269SOL     OW25705   5.699   1.585   1.471
 8269SOL    HW125706   5.646   1.519   1.418
 8269SOL    HW225707   5.682   1.677   1.437
 8270SOL     OW25708   2.741   0.058   5.058
 8270SOL    HW125709   2.675   7.012   5.048
 8270SOL    HW225710   2.772   0.063   5.152
 8271SOL     OW25711   0.202   0.796   2.454
 8271SOL    HW125712   0.270   0.854   2.498
 8271SOL    HW225713   0.230   0.778   2.359
 8272SOL     OW25714   5.094   1.337   1.304
 8272SOL    HW125715   5.014   1.288   1.339
 8272SOL    HW225716   5.175   1.279   1.314
 8273SOL     OW25717   2.242   5.902   0.865
 8273SOL    HW125718   2.277   5.860   0.948
 8273SOL    HW225719   2.146   5.879   0.854
 8274SOL     OW25720   4.828   4.638   3.006
 8274SOL    HW125721   4.737   4.678   2.999
 8274SOL    HW225722   4.887   4.677   2.936
 8275SOL     OW25723   4.268   1.325   6.097
 8275SOL    HW125724   4.338   1.306   6.028
 8275SOL    HW225725   4.311   1.365   6.178
 8276SOL     OW25726   1.158   2.233   4.027
 8276SOL    HW125727   1.126   2.141   4.005
 8276SOL    HW225728   1.246   2.227   4.074
 8277SOL     OW25729   0.170   0.964   7.002
 8277SOL    HW125730   0.244   0.983   0.037
 8277SOL    HW225731   0.196   0.886   6.944
 8278SOL     OW25732   2.566   1.742   5.986
 8278SOL    HW125733   2.530   1.714   5.897
 8278SOL    HW225734   2.640   1.807   5.972
 8279SOL     OW25735   1.455   0.513   4.313
 8279SOL    HW125736   1.517   0.513   4.234
 8279SOL    HW225737   1.417   0.605   4.325
 8280SOL     OW25738   2.688   3.207   0.535
 8280SOL    HW125739   2.596   3.167   0.532
 8280SOL    HW225740   2.752   3.147   0.485
 8281SOL     OW25741   1.977   4.849   1.397
 8281SOL    HW125742   1.938   4.799   1.320
 8281SOL    HW225743   1.939   4.814   1.483
 8282SOL     OW25744   5.535   3.734   6.520
 8282SOL    HW125745   5.566   3.641   6.502
 8282SOL    HW225746   5.614   3.796   6.517
 8283SOL     OW25747   1.224   4.416   6.629
 8283SOL    HW125748   1.187   4.486   6.567
 8283SOL    HW225749   1.249   4.335   6.576
 8284SOL     OW25750   0.680   3.651   1.027
 8284SOL    HW125751   0.682   3.593   0.946
 8284SOL    HW225752   0.760   3.711   1.027
 8285SOL     OW25753   3.497   2.867   4.753
 8285SOL    HW125754   3.435   2.945   4.756
 8285SOL    HW225755   3.459   2.796   4.693
 8286SOL     OW25756   5.397   3.356   6.606
 8286SOL    HW125757   5.429   3.266   6.636
 8286SOL    HW225758   5.414   3.423   6.678
 8287SOL     OW25759   1.938   5.214   4.420
 8287SOL    HW125760   1.994   5.144   4.464
 8287SOL    HW225761   1.892   5.175   4.340
 8288SOL     OW25762   2.668   1.729   1.629
 8288SOL    HW125763   2.570   1.747   1.614
 8288SOL    HW225764   2.691   1.751   1.724
 8289SOL     OW25765   0.608   6.136   1.790
 8289SOL    HW125766   0.702   6.151   1.760
 8289SOL    HW225767   0.576   6.215   1.842
 8290SOL     OW25768   5.936   0.984   0.787
 8290SOL    HW125769   5.855   1.010   0.735
 8290SOL    HW225770   5.964   0.892   0.762
 8291SOL     OW25771   4.486   5.670   6.590
 8291SOL    HW125772   4.557   5.709   6.648
 8291SOL    HW225773   4.418   5.739   6.569
 8292SOL     OW25774   2.555   6.136   6.987
 8292SOL    HW125775   2.548   6.042   7.021
 8292SOL    HW225776   2.593   6.135   6.894
 8293SOL     OW25777   3.364   0.028   0.060
 8293SOL    HW125778   3.274   0.044   0.020
 8293SOL    HW225779   3.361   6.976   0.119
 8294SOL     OW25780   5.862   4.724   4.956
 8294SOL    HW125781   5.943   4.682   4.997
 8294SOL    HW225782   5.886   4.813   4.917
 8295SOL     OW25783   5.475   5.214   1.667
 8295SOL    HW125784   5.404   5.193   1.735
 8295SOL    HW225785   5.535   5.285   1.702
 8296SOL     OW25786   2.579   6.666   6.508
 8296SOL    HW125787   2.598   6.572   6.481
 8296SOL    HW225788   2.631   6.728   6.450
 8297SOL     OW25789   6.889   3.018   2.358
 8297SOL    HW125790   6.961   2.955   2.329
 8297SOL    HW225791   6.829   3.039   2.280
 8298SOL     OW25792   6.040   2.279   1.270
 8298SOL    HW125793   5.953   2.290   1.318
 8298SOL    HW225794   6.066   2.367   1.230
 8299SOL     OW25795   7.005   2.407   2.039
 8299SOL    HW125796   6.936   2.480   2.043
 8299SOL    HW225797   7.025   2.386   1.943
 8300SOL     OW25798   0.864   5.888   5.138
 8300SOL    HW125799   0.768   5.915   5.135
 8300SOL    HW225800   0.874   5.804   5.192
 8301SOL     OW25801   4.232   1.730   1.571
 8301SOL    HW125802   4.173   1.776   1.505
 8301SOL    HW225803   4.238   1.633   1.549
 8302SOL     OW25804   5.406   6.196   6.063
 8302SOL    HW125805   5.333   6.261   6.045
 8302SOL    HW225806   5.370   6.118   6.114
 8303SOL     OW25807   6.931   1.130   4.061
 8303SOL    HW125808   6.848   1.184   4.077
 8303SOL    HW225809   6.979   1.167   3.981
 8304SOL     OW25810   1.120   3.097   0.155
 8304SOL    HW125811   1.127   2.998   0.168
 8304SOL    HW225812   1.075   3.137   0.235
 8305SOL     OW25813   4.009   4.848   4.105
 8305SOL    HW125814   4.027   4.929   4.050
 8305SOL    HW225815   4.079   4.840   4.176
 8306SOL     OW25816   0.272   2.815   5.239
 8306SOL    HW125817   0.353   2.826   5.181
 8306SOL    HW225818   0.296   2.758   5.318
 8307SOL     OW25819   4.336   5.154   1.545
 8307SOL    HW125820   4.359   5.252   1.549
 8307SOL    HW225821   4.237   5.143   1.551
 8308SOL     OW25822   4.413   5.999   1.568
 8308SOL    HW125823   4.334   6.016   1.510
 8308SOL    HW225824   4.438   6.084   1.615
 8309SOL     OW25825   6.650   5.534   3.446
 8309SOL    HW125826   6.688   5.457   3.396
 8309SOL    HW225827   6.713   5.559   3.521
 8310SOL     OW25828   1.128   4.334   0.745
 8310SOL    HW125829   1.184   4.416   0.731
 8310SOL    HW225830   1.032   4.356   0.730
 8311SOL     OW25831   0.672   1.187   4.817
 8311SOL    HW125832   0.670   1.132   4.900
 8311SOL    HW225833   0.688   1.127   4.738
 8312SOL     OW25834   4.594   5.891   1.389
 8312SOL    HW125835   4.653   5.965   1.357
 8312SOL    HW225836   4.531   5.926   1.458
 8313SOL     OW25837   4.914   1.116   2.260
 8313SOL    HW125838   4.817   1.101   2.278
 8313SOL    HW225839   4.925   1.190   2.194
 8314SOL     OW25840   4.869   6.901   1.447
 8314SOL    HW125841   4.829   6.815   1.416
 8314SOL    HW225842   4.952   6.882   1.499
 8315SOL     OW25843   4.042   3.502   1.011
 8315SOL    HW125844   4.114   3.532   0.948
 8315SOL    HW225845   4.080   3.489   1.102
 8316SOL     OW25846   1.201   2.466   1.718
 8316SOL    HW125847   1.193   2.374   1.680
 8316SOL    HW225848   1.144   2.529   1.665
 8317SOL     OW25849   2.336   2.694   2.216
 8317SOL    HW125850   2.319   2.790   2.195
 8317SOL    HW225851   2.254   2.653   2.255
 8318SOL     OW25852   4.106   1.482   4.603
 8318SOL    HW125853   4.177   1.472   4.533
 8318SOL    HW225854   4.017   1.462   4.562
 8319SOL     OW25855   3.095   1.920   6.480
 8319SOL    HW125856   3.149   1.873   6.410
 8319SOL    HW225857   3.096   2.018   6.463
 8320SOL     OW25858   3.538   4.194   1.370
 8320SOL    HW125859   3.583   4.115   1.329
 8320SOL    HW225860   3.529   4.180   1.469
 8321SOL     OW25861   0.201   1.571   0.137
 8321SOL    HW125862   0.233   1.517   0.059
 8321SOL    HW225863   0.101   1.569   0.140
 8322SOL     OW25864   0.382   0.312   0.656
 8322SOL    HW125865   0.420   0.244   0.593
 8322SOL    HW225866   0.300   0.274   0.700
 8323SOL     OW25867   6.519   6.513   3.063
 8323SOL    HW125868   6.547   6.503   3.159
 8323SOL    HW225869   6.425   6.479   3.053
 8324SOL     OW25870   6.090   0.854   1.982
 8324SOL    HW125871   6.103   0.755   1.977
 8324SOL    HW225872   6.174   0.896   2.017
 8325SOL     OW25873   3.184   3.348   5.041
 8325SOL    HW125874   3.197   3.331   4.944
 8325SOL    HW225875   3.098   3.306   5.071
 8326SOL     OW25876   4.608   3.070   5.304
 8326SOL    HW125877   4.576   3.159   5.336
 8326SOL    HW225878   4.703   3.078   5.274
 8327SOL     OW25879   5.451   2.708   6.351
 8327SOL    HW125880   5.493   2.758   6.276
 8327SOL    HW225881   5.422   2.618   6.319
 8328SOL     OW25882   2.667   4.091   6.429
 8328SOL    HW125883   2.614   4.176   6.434
 8328SOL    HW225884   2.697   4.076   6.335
 8329SOL     OW25885   6.845   4.116   6.223
 8329SOL    HW125886   6.938   4.150   6.229
 8329SOL    HW225887   6.785   4.171   6.282
 8330SOL     OW25888   2.245   6.832   0.726
 8330SOL    HW125889   2.330   6.780   0.732
 8330SOL    HW225890   2.174   6.785   0.778
 8331SOL     OW25891   2.530   0.874   1.359
 8331SOL    HW125892   2.492   0.932   1.287
 8331SOL    HW225893   2.587   0.803   1.318
 8332SOL     OW25894   4.909   5.278   2.357
 8332SOL    HW125895   4.830   5.325   2.396
 8332SOL    HW225896   4.915   5.297   2.259
 8333SOL     OW25897   0.505   6.436   6.846
 8333SOL    HW125898   0.424   6.484   6.878
 8333SOL    HW225899   0.501   6.340   6.875
 8334SOL     OW25900   4.646   1.479   3.863
 8334SOL    HW125901   4.646   1.452   3.767
 8334SOL    HW225902   4.692   1.567   3.873
 8335SOL     OW25903   6.354   5.648   6.104
 8335SOL    HW125904   6.305   5.563   6.085
 8335SOL    HW225905   6.449   5.639   6.072
 8336SOL     OW25906   0.058   0.055   1.906
 8336SOL    HW125907   0.099   0.133   1.954
 8336SOL    HW225908   0.119   0.026   1.832
 8337SOL     OW25909   0.780   6.626   2.945
 8337SOL    HW125910   0.712   6.562   2.981
 8337SOL    HW225911   0.851   6.641   3.014
 8338SOL     OW25912   1.590   5.169   2.035
 8338SOL    HW125913   1.659   5.233   2.068
 8338SOL    HW225914   1.626   5.076   2.039
 8339SOL     OW25915   5.816   0.679   1.302
 8339SOL    HW125916   5.820   0.723   1.392
 8339SOL    HW225917   5.886   0.607   1.298
 8340SOL     OW25918   5.032   4.017   1.184
 8340SOL    HW125919   4.990   3.946   1.128
 8340SOL    HW225920   5.131   4.018   1.170
 8341SOL     OW25921   2.589   6.407   7.023
 8341SOL    HW125922   2.579   6.307   7.024
 8341SOL    HW225923   2.535   6.445   6.948
 8342SOL     OW25924   3.780   0.562   1.363
 8342SOL    HW125925   3.836   0.550   1.281
 8342SOL    HW225926   3.717   0.485   1.372
 8343SOL     OW25927   1.148   4.815   6.109
 8343SOL    HW125928   1.049   4.808   6.112
 8343SOL    HW225929   1.187   4.726   6.085
 8344SOL     OW25930   4.613   0.203   5.560
 8344SOL    HW125931   4.571   0.112   5.562
 8344SOL    HW225932   4.631   0.229   5.465
 8345SOL     OW25933   5.333   1.938   3.897
 8345SOL    HW125934   5.385   2.020   3.919
 8345SOL    HW225935   5.344   1.916   3.800
 8346SOL     OW25936   3.257   4.639   0.355
 8346SOL    HW125937   3.158   4.630   0.346
 8346SOL    HW225938   3.279   4.728   0.394
 8347SOL     OW25939   3.551   6.589   4.682
 8347SOL    HW125940   3.476   6.637   4.637
 8347SOL    HW225941   3.517   6.542   4.763
 8348SOL     OW25942   0.776   6.658   1.607
 8348SOL    HW125943   0.788   6.758   1.607
 8348SOL    HW225944   0.839   6.618   1.540
 8349SOL     OW25945   6.053   5.800   1.434
 8349SOL    HW125946   6.126   5.735   1.414
 8349SOL    HW225947   5.964   5.754   1.424
 8350SOL     OW25948   5.137   1.146   4.408
 8350SOL    HW125949   5.224   1.187   4.433
 8350SOL    HW225950   5.132   1.135   4.308
 8351SOL     OW25951   4.773   5.300   4.313
 8351SOL    HW125952   4.866   5.335   4.325
 8351SOL    HW225953   4.741   5.262   4.400
 8352SOL     OW25954   6.989   6.715   2.472
 8352SOL    HW125955   6.928   6.643   2.504
 8352SOL    HW225956   0.029   6.676   2.410
 8353SOL     OW25957   5.982   3.888   2.050
 8353SOL    HW125958   6.074   3.925   2.034
 8353SOL    HW225959   5.936   3.874   1.962
 8354SOL     OW25960   3.125   0.933   6.540
 8354SOL    HW125961   3.082   0.843   6.543
 8354SOL    HW225962   3.206   0.933   6.599
 8355SOL     OW25963   2.840   0.663   6.947
 8355SOL    HW125964   2.892   0.612   7.015
 8355SOL    HW225965   2.894   0.741   6.915
 8356SOL     OW25966   1.459   6.404   0.485
 8356SOL    HW125967   1.548   6.433   0.449
 8356SOL    HW225968   1.409   6.484   0.519
 8357SOL     OW25969   3.708   6.869   6.267
 8357SOL    HW125970   3.631   6.885   6.206
 8357SOL    HW225971   3.719   6.771   6.283
 8358SOL     OW25972   1.736   2.679   5.210
 8358SOL    HW125973   1.802   2.753   5.200
 8358SOL    HW225974   1.689   2.664   5.123
 8359SOL     OW25975   3.252   6.374   4.234
 8359SOL    HW125976   3.198   6.299   4.271
 8359SOL    HW225977   3.262   6.445   4.303
 8360SOL     OW25978   3.360   6.192   2.092
 8360SOL    HW125979   3.446   6.224   2.053
 8360SOL    HW225980   3.314   6.268   2.138
 8361SOL     OW25981   2.062   0.674   2.519
 8361SOL    HW125982   2.144   0.627   2.488
 8361SOL    HW225983   1.982   0.633   2.475
 8362SOL     OW25984   2.635   2.294   0.871
 8362SOL    HW125985   2.630   2.227   0.797
 8362SOL    HW225986   2.607   2.251   0.957
 8363SOL     OW25987   0.389   2.475   6.865
 8363SOL    HW125988   0.374   2.394   6.922
 8363SOL    HW225989   0.431   2.547   6.920
 8364SOL     OW25990   6.571   3.391   3.231
 8364SOL    HW125991   6.503   3.439   3.175
 8364SOL    HW225992   6.603   3.452   3.304
 8365SOL     OW25993   1.488   4.230   1.663
 8365SOL    HW125994   1.434   4.218   1.580
 8365SOL    HW225995   1.489   4.146   1.716
 8366SOL     OW25996   3.688   5.303   2.242
 8366SOL    HW125997   3.663   5.395   2.211
 8366SOL    HW225998   3.679   5.239   2.166
 8367SOL     OW25999   3.991   6.105   3.815
 8367SOL    HW126000   3.907   6.106   3.870
 8367SOL    HW226001   3.968   6.113   3.718
 8368SOL     OW26002   2.534   6.548   6.108
 8368SOL    HW126003   2.555   6.493   6.028
 8368SOL    HW226004   2.521   6.644   6.081
 8369SOL     OW26005   2.213   0.236   6.949
 8369SOL    HW126006   2.268   0.265   6.871
 8369SOL    HW226007   2.189   0.316   7.004
 8370SOL     OW26008   2.806   2.178   5.954
 8370SOL    HW126009   2.712   2.213   5.956
 8370SOL    HW226010   2.821   2.127   5.869
 8371SOL     OW26011   1.593   4.162   0.939
 8371SOL    HW126012   1.633   4.113   1.017
 8371SOL    HW226013   1.494   4.150   0.939
 8372SOL     OW26014   0.439   6.165   2.807
 8372SOL    HW126015   0.342   6.141   2.803
 8372SOL    HW226016   0.449   6.264   2.795
 8373SOL     OW26017   0.980   0.447   4.720
 8373SOL    HW126018   0.915   0.397   4.663
 8373SOL    HW226019   1.009   0.390   4.797
 8374SOL     OW26020   6.482   0.491   6.394
 8374SOL    HW126021   6.462   0.452   6.484
 8374SOL    HW226022   6.416   0.564   6.374
 8375SOL     OW26023   3.127   6.664   5.681
 8375SOL    HW126024   3.203   6.606   5.711
 8375SOL    HW226025   3.153   6.760   5.691
 8376SOL     OW26026   1.966   6.976   3.994
 8376SOL    HW126027   1.926   0.002   4.067
 8376SOL    HW226028   2.060   6.953   4.017
 8377SOL     OW26029   5.573   5.771   1.194
 8377SOL    HW126030   5.658   5.763   1.144
 8377SOL    HW226031   5.496   5.779   1.130
 8378SOL     OW26032   4.554   4.445   2.888
 8378SOL    HW126033   4.623   4.463   2.818
 8378SOL    HW226034   4.529   4.531   2.933
 8379SOL     OW26035   6.633   2.720   0.865
 8379SOL    HW126036   6.595   2.661   0.936
 8379SOL    HW226037   6.706   2.671   0.817
 8380SOL     OW26038   6.667   1.308   2.509
 8380SOL    HW126039   6.611   1.360   2.573
 8380SOL    HW226040   6.620   1.223   2.484
 8381SOL     OW26041   0.432   4.043   4.994
 8381SOL    HW126042   0.332   4.041   4.996
 8381SOL    HW226043   0.465   3.980   4.924
 8382SOL     OW26044   1.292   1.391   2.121
 8382SOL    HW126045   1.227   1.442   2.177
 8382SOL    HW226046   1.366   1.451   2.091
 8383SOL     OW26047   2.124   1.011   6.104
 8383SOL    HW126048   2.218   1.001   6.136
 8383SOL    HW226049   2.061   0.982   6.176
 8384SOL     OW26050   0.484   0.080   0.009
 8384SOL    HW126051   0.579   0.077   0.040
 8384SOL    HW226052   0.426   0.112   0.084
 8385SOL     OW26053   6.093   2.702   1.267
 8385SOL    HW126054   6.139   2.634   1.211
 8385SOL    HW226055   6.116   2.687   1.363
 8386SOL     OW26056   0.880   4.208   2.536
 8386SOL    HW126057   0.858   4.161   2.451
 8386SOL    HW226058   0.806   4.271   2.559
 8387SOL     OW26059   0.723   1.358   1.113
 8387SOL    HW126060   0.705   1.404   1.201
 8387SOL    HW226061   0.811   1.311   1.118
 8388SOL     OW26062   1.806   5.893   0.514
 8388SOL    HW126063   1.755   5.812   0.544
 8388SOL    HW226064   1.834   5.882   0.419
 8389SOL     OW26065   5.934   3.624   2.572
 8389SOL    HW126066   5.990   3.627   2.654
 8389SOL    HW226067   5.990   3.598   2.494
 8390SOL     OW26068   3.584   1.735   6.413
 8390SOL    HW126069   3.634   1.758   6.496
 8390SOL    HW226070   3.604   1.802   6.341
 8391SOL     OW26071   6.264   5.757   0.504
 8391SOL    HW126072   6.342   5.698   0.524
 8391SOL    HW226073   6.180   5.702   0.503
 8392SOL     OW26074   5.966   3.588   3.584
 8392SOL    HW126075   5.895   3.556   3.521
 8392SOL    HW226076   6.056   3.572   3.543
 8393SOL     OW26077   5.899   0.736   2.828
 8393SOL    HW126078   5.943   0.799   2.892
 8393SOL    HW226079   5.879   0.784   2.743
 8394SOL     OW26080   5.770   2.968   1.940
 8394SOL    HW126081   5.787   2.939   2.034
 8394SOL    HW226082   5.809   2.900   1.877
 8395SOL     OW26083   3.029   6.741   5.999
 8395SOL    HW126084   2.980   6.734   5.912
 8395SOL    HW226085   2.987   6.680   6.066
 8396SOL     OW26086   4.628   4.625   3.266
 8396SOL    HW126087   4.645   4.630   3.168
 8396SOL    HW226088   4.702   4.672   3.315
 8397SOL     OW26089   0.543   0.981   3.519
 8397SOL    HW126090   0.484   0.904   3.544
 8397SOL    HW226091   0.523   1.059   3.578
 8398SOL     OW26092   5.049   2.668   6.429
 8398SOL    HW126093   4.989   2.601   6.385
 8398SOL    HW226094   5.116   2.702   6.363
 8399SOL     OW26095   6.078   6.355   6.861
 8399SOL    HW126096   6.088   6.410   6.778
 8399SOL    HW226097   6.167   6.344   6.905
 8400SOL     OW26098   1.695   2.435   4.059
 8400SOL    HW126099   1.754   2.508   4.025
 8400SOL    HW226100   1.750   2.353   4.075
 8401SOL     OW26101   2.336   1.146   5.367
 8401SOL    HW126102   2.394   1.226   5.381
 8401SOL    HW226103   2.391   1.063   5.370
 8402SOL     OW26104   5.445   1.863   6.039
 8402SOL    HW126105   5.383   1.934   6.072
 8402SOL    HW226106   5.394   1.798   5.983
 8403SOL     OW26107   0.601   3.458   4.703
 8403SOL    HW126108   0.659   3.392   4.751
 8403SOL    HW226109   0.658   3.530   4.665
 8404SOL     OW26110   3.644   0.400   5.790
 8404SOL    HW126111   3.633   0.499   5.785
 8404SOL    HW226112   3.742   0.377   5.786
 8405SOL     OW26113   3.344   1.854   6.055
 8405SOL    HW126114   3.280   1.930   6.042
 8405SOL    HW226115   3.356   1.837   6.152
 8406SOL     OW26116   4.162   6.814   0.294
 8406SOL    HW126117   4.082   6.870   0.315
 8406SOL    HW226118   4.214   6.857   0.220
 8407SOL     OW26119   4.195   6.365   3.314
 8407SOL    HW126120   4.253   6.312   3.252
 8407SOL    HW226121   4.198   6.461   3.289
 8408SOL     OW26122   5.346   5.410   0.170
 8408SOL    HW126123   5.257   5.431   0.129
 8408SOL    HW226124   5.392   5.495   0.195
 8409SOL     OW26125   4.683   2.379   1.861
 8409SOL    HW126126   4.681   2.326   1.776
 8409SOL    HW226127   4.590   2.391   1.895
 8410SOL     OW26128   6.273   2.133   1.757
 8410SOL    HW126129   6.286   2.178   1.846
 8410SOL    HW226130   6.240   2.040   1.772
 8411SOL     OW26131   0.447   5.993   1.125
 8411SOL    HW126132   0.506   5.915   1.102
 8411SOL    HW226133   0.428   6.046   1.043
 8412SOL     OW26134   4.003   2.358   1.334
 8412SOL    HW126135   4.084   2.406   1.365
 8412SOL    HW226136   3.922   2.397   1.377
 8413SOL     OW26137   4.348   5.548   6.233
 8413SOL    HW126138   4.289   5.612   6.281
 8413SOL    HW226139   4.339   5.457   6.273
 8414SOL     OW26140   2.610   1.052   2.737
 8414SOL    HW126141   2.541   1.110   2.694
 8414SOL    HW226142   2.571   0.961   2.755
 8415SOL     OW26143   2.110   6.769   4.265
 8415SOL    HW126144   2.043   6.839   4.288
 8415SOL    HW226145   2.173   6.804   4.196
 8416SOL     OW26146   6.142   1.621   4.890
 8416SOL    HW126147   6.058   1.597   4.938
 8416SOL    HW226148   6.185   1.538   4.854
 8417SOL     OW26149   2.156   3.262   5.685
 8417SOL    HW126150   2.250   3.241   5.659
 8417SOL    HW226151   2.119   3.187   5.740
 8418SOL     OW26152   0.135   5.652   2.058
 8418SOL    HW126153   0.053   5.709   2.050
 8418SOL    HW226154   0.117   5.577   2.120
 8419SOL     OW26155   5.873   1.552   2.980
 8419SOL    HW126156   5.883   1.585   3.074
 8419SOL    HW226157   5.900   1.624   2.916
 8420SOL     OW26158   3.143   6.615   2.142
 8420SOL    HW126159   3.228   6.627   2.090
 8420SOL    HW226160   3.065   6.618   2.080
 8421SOL     OW26161   3.144   5.301   6.997
 8421SOL    HW126162   3.242   5.286   6.980
 8421SOL    HW226163   3.095   5.300   6.910
 8422SOL     OW26164   3.729   2.004   2.539
 8422SOL    HW126165   3.821   2.040   2.520
 8422SOL    HW226166   3.664   2.046   2.475
 8423SOL     OW26167   4.513   4.046   5.615
 8423SOL    HW126168   4.516   3.959   5.664
 8423SOL    HW226169   4.513   4.028   5.517
 8424SOL     OW26170   2.175   1.941   3.372
 8424SOL    HW126171   2.103   1.966   3.308
 8424SOL    HW226172   2.249   2.008   3.366
 8425SOL     OW26173   4.094   3.526   4.232
 8425SOL    HW126174   4.006   3.559   4.266
 8425SOL    HW226175   4.105   3.553   4.136
 8426SOL     OW26176   3.593   3.462   2.500
 8426SOL    HW126177   3.635   3.434   2.414
 8426SOL    HW226178   3.549   3.383   2.543
 8427SOL     OW26179   3.318   3.776   3.157
 8427SOL    HW126180   3.234   3.730   3.130
 8427SOL    HW226181   3.298   3.870   3.184
 8428SOL     OW26182   6.988   6.565   1.469
 8428SOL    HW126183   6.953   6.489   1.523
 8428SOL    HW226184   6.993   6.647   1.526
 8429SOL     OW26185   1.626   5.337   5.748
 8429SOL    HW126186   1.535   5.319   5.786
 8429SOL    HW226187   1.649   5.434   5.761
 8430SOL     OW26188   4.061   5.052   3.934
 8430SOL    HW126189   4.045   5.005   3.847
 8430SOL    HW226190   4.019   5.143   3.930
 8431SOL     OW26191   3.204   3.809   6.843
 8431SOL    HW126192   3.120   3.858   6.822
 8431SOL    HW226193   3.236   3.761   6.761
 8432SOL     OW26194   6.868   5.357   5.493
 8432SOL    HW126195   6.913   5.322   5.410
 8432SOL    HW226196   6.792   5.417   5.467
 8433SOL     OW26197   4.435   2.619   0.829
 8433SOL    HW126198   4.391   2.703   0.797
 8433SOL    HW226199   4.374   2.570   0.891
 8434SOL     OW26200   2.275   6.097   4.314
 8434SOL    HW126201   2.217   6.156   4.370
 8434SOL    HW226202   2.254   6.001   4.334
 8435SOL     OW26203   5.393   0.441   3.064
 8435SOL    HW126204   5.445   0.357   3.048
 8435SOL    HW226205   5.456   0.517   3.078
 8436SOL     OW26206   3.202   6.442   3.981
 8436SOL    HW126207   3.206   6.402   4.073
 8436SOL    HW226208   3.131   6.512   3.978
 8437SOL     OW26209   2.176   2.585   2.423
 8437SOL    HW126210   2.172   2.496   2.468
 8437SOL    HW226211   2.114   2.649   2.468
 8438SOL     OW26212   2.323   4.220   2.907
 8438SOL    HW126213   2.395   4.287   2.923
 8438SOL    HW226214   2.258   4.255   2.840
 8439SOL     OW26215   6.441   5.158   3.273
 8439SOL    HW126216   6.427   5.085   3.206
 8439SOL    HW226217   6.387   5.238   3.247
 8440SOL     OW26218   2.384   2.215   3.563
 8440SOL    HW126219   2.394   2.186   3.467
 8440SOL    HW226220   2.460   2.274   3.588
 8441SOL     OW26221   5.190   5.956   5.907
 8441SOL    HW126222   5.192   6.054   5.888
 8441SOL    HW226223   5.261   5.910   5.853
 8442SOL     OW26224   3.649   0.649   5.191
 8442SOL    HW126225   3.671   0.723   5.127
 8442SOL    HW226226   3.549   0.640   5.198
 8443SOL     OW26227   2.346   4.825   3.976
 8443SOL    HW126228   2.317   4.787   3.888
 8443SOL    HW226229   2.395   4.911   3.961
 8444SOL     OW26230   3.118   6.859   3.444
 8444SOL    HW126231   3.074   6.874   3.355
 8444SOL    HW226232   3.085   6.773   3.484
 8445SOL     OW26233   2.720   0.727   0.505
 8445SOL    HW126234   2.752   0.635   0.527
 8445SOL    HW226235   2.631   0.743   0.546
 8446SOL     OW26236   6.596   5.931   5.045
 8446SOL    HW126237   6.523   5.883   4.997
 8446SOL    HW226238   6.582   6.030   5.037
 8447SOL     OW26239   3.921   1.190   1.601
 8447SOL    HW126240   3.848   1.124   1.585
 8447SOL    HW226241   3.970   1.167   1.685
 8448SOL     OW26242   4.726   6.405   3.192
 8448SOL    HW126243   4.774   6.350   3.259
 8448SOL    HW226244   4.793   6.449   3.131
 8449SOL     OW26245   0.508   3.379   4.155
 8449SOL    HW126246   0.526   3.408   4.061
 8449SOL    HW226247   0.486   3.281   4.156
 8450SOL     OW26248   0.390   0.914   1.246
 8450SOL    HW126249   0.447   0.950   1.320
 8450SOL    HW226250   0.304   0.881   1.284
 8451SOL     OW26251   3.122   1.006   0.625
 8451SOL    HW126252   3.027   1.002   0.594
 8451SOL    HW226253   3.171   1.077   0.573
 8452SOL     OW26254   5.226   2.412   4.109
 8452SOL    HW126255   5.291   2.434   4.182
 8452SOL    HW226256   5.198   2.496   4.063
 8453SOL     OW26257   0.250   5.141   0.064
 8453SOL    HW126258   0.324   5.135   0.131
 8453SOL    HW226259   0.167   5.174   0.108
 8454SOL     OW26260   0.335   5.016   0.303
 8454SOL    HW126261   0.267   4.953   0.265
 8454SOL    HW226262   0.288   5.090   0.352
 8455SOL     OW26263   6.968   2.170   3.015
 8455SOL    HW126264   6.910   2.202   3.090
 8455SOL    HW226265   6.919   2.101   2.962
 8456SOL     OW26266   4.825   0.637   3.426
 8456SOL    HW126267   4.732   0.625   3.462
 8456SOL    HW226268   4.829   0.721   3.373
 8457SOL     OW26269   6.546   6.231   5.018
 8457SOL    HW126270   6.468   6.276   4.975
 8457SOL    HW226271   6.618   6.298   5.034
 8458SOL     OW26272   1.195   0.320   0.972
 8458SOL    HW126273   1.118   0.259   0.992
 8458SOL    HW226274   1.249   0.333   1.055
 8459SOL     OW26275   1.966   5.838   3.248
 8459SOL    HW126276   1.884   5.784   3.229
 8459SOL    HW226277   1.945   5.935   3.237
 8460SOL     OW26278   4.259   3.827   5.341
 8460SOL    HW126279   4.259   3.761   5.266
 8460SOL    HW226280   4.350   3.868   5.349
 8461SOL     OW26281   0.906   2.113   5.273
 8461SOL    HW126282   0.886   2.204   5.237
 8461SOL    HW226283   0.848   2.095   5.352
 8462SOL     OW26284   3.255   1.534   0.714
 8462SOL    HW126285   3.327   1.554   0.648
 8462SOL    HW226286   3.295   1.498   0.797
 8463SOL     OW26287   6.466   0.008   1.739
 8463SOL    HW126288   6.410   0.047   1.666
 8463SOL    HW226289   6.499   0.081   1.798
 8464SOL     OW26290   5.701   4.319   4.252
 8464SOL    HW126291   5.618   4.314   4.196
 8464SOL    HW226292   5.781   4.303   4.195
 8465SOL     OW26293   1.693   2.168   0.659
 8465SOL    HW126294   1.646   2.083   0.636
 8465SOL    HW226295   1.783   2.170   0.616
 8466SOL     OW26296   1.254   6.022   3.975
 8466SOL    HW126297   1.280   6.011   3.879
 8466SOL    HW226298   1.329   6.063   4.026
 8467SOL     OW26299   2.937   5.784   0.719
 8467SOL    HW126300   3.027   5.825   0.707
 8467SOL    HW226301   2.942   5.686   0.698
 8468SOL     OW26302   3.658   1.810   0.845
 8468SOL    HW126303   3.731   1.822   0.913
 8468SOL    HW226304   3.596   1.888   0.847
 8469SOL     OW26305   3.268   3.313   6.681
 8469SOL    HW126306   3.209   3.309   6.601
 8469SOL    HW226307   3.312   3.224   6.694
 8470SOL     OW26308   2.335   2.976   1.628
 8470SOL    HW126309   2.344   2.885   1.669
 8470SOL    HW226310   2.299   3.040   1.697
 8471SOL     OW26311   2.480   0.433   3.406
 8471SOL    HW126312   2.486   0.335   3.388
 8471SOL    HW226313   2.448   0.479   3.323
 8472SOL     OW26314   0.163   6.973   4.337
 8472SOL    HW126315   0.101   0.010   4.294
 8472SOL    HW226316   0.256   6.990   4.306
 8473SOL     OW26317   0.161   5.490   0.025
 8473SOL    HW126318   0.137   5.491   0.122
 8473SOL    HW226319   0.100   5.551   7.003
 8474SOL     OW26320   3.025   3.026   1.781
 8474SOL    HW126321   3.049   2.976   1.865
 8474SOL    HW226322   3.083   3.107   1.773
 8475SOL     OW26323   6.409   1.757   2.574
 8475SOL    HW126324   6.360   1.825   2.519
 8475SOL    HW226325   6.352   1.677   2.588
 8476SOL     OW26326   6.031   0.228   1.765
 8476SOL    HW126327   5.985   0.241   1.853
 8476SOL    HW226328   6.050   0.131   1.751
 8477SOL     OW26329   3.138   6.394   1.397
 8477SOL    HW126330   3.093   6.483   1.397
 8477SOL    HW226331   3.153   6.364   1.303
 8478SOL     OW26332   1.617   0.328   5.393
 8478SOL    HW126333   1.640   0.338   5.490
 8478SOL    HW226334   1.562   0.406   5.363
 8479SOL     OW26335   6.059   1.159   0.276
 8479SOL    HW126336   5.976   1.214   0.265
 8479SOL    HW226337   6.139   1.217   0.261
 8480SOL     OW26338   3.370   1.333   1.417
 8480SOL    HW126339   3.278   1.296   1.433
 8480SOL    HW226340   3.367   1.433   1.421
 8481SOL     OW26341   3.645   1.551   4.174
 8481SOL    HW126342   3.574   1.491   4.209
 8481SOL    HW226343   3.729   1.499   4.158
 8482SOL     OW26344   2.103   0.166   2.296
 8482SOL    HW126345   2.152   0.093   2.343
 8482SOL    HW226346   2.005   0.147   2.299
 8483SOL     OW26347   3.437   5.451   2.883
 8483SOL    HW126348   3.483   5.393   2.815
 8483SOL    HW226349   3.431   5.401   2.969
 8484SOL     OW26350   0.265   4.756   3.030
 8484SOL    HW126351   0.241   4.743   2.934
 8484SOL    HW226352   0.360   4.786   3.037
 8485SOL     OW26353   1.927   3.670   0.173
 8485SOL    HW126354   1.975   3.654   0.259
 8485SOL    HW226355   1.987   3.720   0.110
 8486SOL     OW26356   5.244   1.251   2.464
 8486SOL    HW126357   5.181   1.328   2.472
 8486SOL    HW226358   5.240   1.214   2.372
 8487SOL     OW26359   5.176   0.295   0.715
 8487SOL    HW126360   5.160   0.222   0.649
 8487SOL    HW226361   5.167   0.259   0.808
 8488SOL     OW26362   5.397   5.595   4.809
 8488SOL    HW126363   5.437   5.682   4.779
 8488SOL    HW226364   5.329   5.612   4.880
 8489SOL     OW26365   5.765   6.109   1.550
 8489SOL    HW126366   5.840   6.172   1.530
 8489SOL    HW226367   5.709   6.096   1.467
 8490SOL     OW26368   4.653   6.047   3.676
 8490SOL    HW126369   4.616   6.112   3.743
 8490SOL    HW226370   4.637   6.082   3.583
 8491SOL     OW26371   2.468   0.454   1.512
 8491SOL    HW126372   2.457   0.367   1.464
 8491SOL    HW226373   2.557   0.456   1.558
 8492SOL     OW26374   4.742   3.717   5.580
 8492SOL    HW126375   4.805   3.782   5.623
 8492SOL    HW226376   4.751   3.723   5.481
 8493SOL     OW26377   3.313   1.976   0.385
 8493SOL    HW126378   3.277   2.017   0.301
 8493SOL    HW226379   3.338   1.880   0.367
 8494SOL     OW26380   1.817   4.702   6.497
 8494SOL    HW126381   1.732   4.754   6.495
 8494SOL    HW226382   1.810   4.630   6.566
 8495SOL     OW26383   0.091   2.992   0.825
 8495SOL    HW126384   0.111   3.089   0.816
 8495SOL    HW226385   0.013   2.968   0.768
 8496SOL     OW26386   0.491   1.926   3.343
 8496SOL    HW126387   0.454   1.996   3.283
 8496SOL    HW226388   0.578   1.958   3.382
 8497SOL     OW26389   5.350   6.252   4.260
 8497SOL    HW126390   5.250   6.257   4.267
 8497SOL    HW226391   5.379   6.157   4.248
 8498SOL     OW26392   0.373   6.513   1.668
 8498SOL    HW126393   0.432   6.540   1.744
 8498SOL    HW226394   0.422   6.527   1.581
 8499SOL     OW26395   2.197   5.696   6.431
 8499SOL    HW126396   2.236   5.604   6.435
 8499SOL    HW226397   2.203   5.739   6.522
 8500SOL     OW26398   2.191   0.364   5.778
 8500SOL    HW126399   2.169   0.395   5.686
 8500SOL    HW226400   2.289   0.345   5.785
 8501SOL     OW26401   1.661   2.490   6.854
 8501SOL    HW126402   1.750   2.458   6.823
 8501SOL    HW226403   1.603   2.511   6.775
 8502SOL     OW26404   0.972   5.605   1.453
 8502SOL    HW126405   1.049   5.668   1.465
 8502SOL    HW226406   1.007   5.513   1.438
 8503SOL     OW26407   1.095   5.285   2.951
 8503SOL    HW126408   1.122   5.257   2.859
 8503SOL    HW226409   1.112   5.383   2.962
 8504SOL     OW26410   1.619   5.901   3.705
 8504SOL    HW126411   1.629   5.995   3.739
 8504SOL    HW226412   1.684   5.886   3.630
 8505SOL     OW26413   5.147   4.082   3.339
 8505SOL    HW126414   5.168   3.987   3.317
 8505SOL    HW226415   5.068   4.112   3.286
 8506SOL     OW26416   0.986   6.818   0.213
 8506SOL    HW126417   1.041   6.902   0.208
 8506SOL    HW226418   1.023   6.750   0.150
 8507SOL     OW26419   2.568   0.927   5.363
 8507SOL    HW126420   2.551   0.830   5.382
 8507SOL    HW226421   2.626   0.936   5.282
 8508SOL     OW26422   6.637   2.978   4.715
 8508SOL    HW126423   6.706   2.936   4.774
 8508SOL    HW226424   6.682   3.035   4.646
 8509SOL     OW26425   5.878   1.345   5.057
 8509SOL    HW126426   5.781   1.321   5.061
 8509SOL    HW226427   5.889   1.436   5.017
 8510SOL     OW26428   6.686   5.308   3.270
 8510SOL    HW126429   6.594   5.269   3.273
 8510SOL    HW226430   6.753   5.234   3.264
 8511SOL     OW26431   5.455   4.218   1.823
 8511SOL    HW126432   5.544   4.250   1.789
 8511SOL    HW226433   5.425   4.277   1.898
 8512SOL     OW26434   4.132   2.037   0.418
 8512SOL    HW126435   4.090   2.021   0.329
 8512SOL    HW226436   4.229   2.011   0.414
 8513SOL     OW26437   4.875   3.749   1.297
 8513SOL    HW126438   4.939   3.702   1.236
 8513SOL    HW226439   4.925   3.789   1.374
 8514SOL     OW26440   2.415   2.686   3.765
 8514SOL    HW126441   2.476   2.617   3.805
 8514SOL    HW226442   2.431   2.690   3.667
 8515SOL     OW26443   0.324   1.422   6.946
 8515SOL    HW126444   0.346   1.325   6.948
 8515SOL    HW226445   0.408   1.477   6.949
 8516SOL     OW26446   5.812   3.198   2.222
 8516SOL    HW126447   5.749   3.189   2.299
 8516SOL    HW226448   5.767   3.250   2.149
 8517SOL     OW26449   2.239   2.806   5.572
 8517SOL    HW126450   2.310   2.742   5.543
 8517SOL    HW226451   2.210   2.860   5.493
 8518SOL     OW26452   5.219   4.266   6.196
 8518SOL    HW126453   5.211   4.363   6.174
 8518SOL    HW226454   5.210   4.213   6.111
 8519SOL     OW26455   0.700   4.672   0.845
 8519SOL    HW126456   0.649   4.755   0.822
 8519SOL    HW226457   0.761   4.648   0.769
 8520SOL     OW26458   3.317   3.458   5.262
 8520SOL    HW126459   3.358   3.547   5.244
 8520SOL    HW226460   3.266   3.428   5.181
 8521SOL     OW26461   2.111   6.452   5.503
 8521SOL    HW126462   2.182   6.388   5.476
 8521SOL    HW226463   2.113   6.531   5.441
 8522SOL     OW26464   0.218   0.027   1.203
 8522SOL    HW126465   0.233   0.124   1.221
 8522SOL    HW226466   0.168   7.015   1.280
 8523SOL     OW26467   3.098   0.017   6.959
 8523SOL    HW126468   3.020   7.017   7.014
 8523SOL    HW226469   3.080   7.027   6.862
 8524SOL     OW26470   1.597   4.252   4.889
 8524SOL    HW126471   1.536   4.331   4.899
 8524SOL    HW226472   1.681   4.281   4.844
 8525SOL     OW26473   5.677   5.478   1.108
 8525SOL    HW126474   5.689   5.427   1.193
 8525SOL    HW226475   5.720   5.567   1.116
 8526SOL     OW26476   3.301   6.603   0.847
 8526SOL    HW126477   3.282   6.692   0.806
 8526SOL    HW226478   3.400   6.588   0.848
 8527SOL     OW26479   3.539   0.819   0.063
 8527SOL    HW126480   3.542   0.730   0.109
 8527SOL    HW226481   3.542   0.892   0.132
 8528SOL     OW26482   4.500   1.623   0.672
 8528SOL    HW126483   4.573   1.649   0.736
 8528SOL    HW226484   4.536   1.620   0.579
 8529SOL     OW26485   1.152   6.699   0.461
 8529SOL    HW126486   1.160   6.791   0.423
 8529SOL    HW226487   1.168   6.632   0.388
 8530SOL     OW26488   3.722   3.849   4.675
 8530SOL    HW126489   3.730   3.806   4.585
 8530SOL    HW226490   3.650   3.918   4.673
 8531SOL     OW26491   6.883   5.506   2.816
 8531SOL    HW126492   6.933   5.432   2.862
 8531SOL    HW226493   6.894   5.591   2.868
 8532SOL     OW26494   3.979   6.503   4.532
 8532SOL    HW126495   4.026   6.442   4.469
 8532SOL    HW226496   3.880   6.492   4.521
 8533SOL     OW26497   1.687   6.081   0.168
 8533SOL    HW126498   1.681   5.988   0.203
 8533SOL    HW226499   1.661   6.081   0.071
 8534SOL     OW26500   4.683   2.778   3.704
 8534SOL    HW126501   4.775   2.814   3.694
 8534SOL    HW226502   4.656   2.731   3.620
 8535SOL     OW26503   5.661   1.399   4.399
 8535SOL    HW126504   5.700   1.490   4.384
 8535SOL    HW226505   5.706   1.355   4.476
 8536SOL     OW26506   1.010   1.809   4.898
 8536SOL    HW126507   0.989   1.894   4.946
 8536SOL    HW226508   1.109   1.796   4.893
 8537SOL     OW26509   5.914   1.729   3.404
 8537SOL    HW126510   5.963   1.817   3.404
 8537SOL    HW226511   5.819   1.743   3.430
 8538SOL     OW26512   2.230   2.011   0.326
 8538SOL    HW126513   2.304   2.038   0.388
 8538SOL    HW226514   2.213   2.084   0.260
 8539SOL     OW26515   6.548   1.721   2.322
 8539SOL    HW126516   6.498   1.634   2.328
 8539SOL    HW226517   6.483   1.796   2.309
 8540SOL     OW26518   5.768   0.409   6.583
 8540SOL    HW126519   5.678   0.422   6.541
 8540SOL    HW226520   5.808   0.498   6.604
 8541SOL     OW26521   3.500   1.944   3.374
 8541SOL    HW126522   3.484   1.936   3.275
 8541SOL    HW226523   3.576   1.885   3.400
 8542SOL     OW26524   3.700   4.306   6.362
 8542SOL    HW126525   3.799   4.312   6.371
 8542SOL    HW226526   3.668   4.225   6.411
 8543SOL     OW26527   1.802   1.371   1.397
 8543SOL    HW126528   1.795   1.436   1.473
 8543SOL    HW226529   1.837   1.418   1.316
 8544SOL     OW26530   5.725   2.890   4.489
 8544SOL    HW126531   5.819   2.861   4.504
 8544SOL    HW226532   5.669   2.811   4.463
 8545SOL     OW26533   4.843   7.018   5.881
 8545SOL    HW126534   4.786   0.070   5.896
 8545SOL    HW226535   4.925   7.024   5.937
 8546SOL     OW26536   5.863   2.694   3.850
 8546SOL    HW126537   5.849   2.790   3.822
 8546SOL    HW226538   5.882   2.690   3.948
 8547SOL     OW26539   0.923   6.213   6.133
 8547SOL    HW126540   0.925   6.243   6.037
 8547SOL    HW226541   0.890   6.118   6.137
 8548SOL     OW26542   6.211   2.421   4.758
 8548SOL    HW126543   6.300   2.422   4.803
 8548SOL    HW226544   6.222   2.393   4.662
 8549SOL     OW26545   0.253   3.772   4.395
 8549SOL    HW126546   0.348   3.782   4.368
 8549SOL    HW226547   0.224   3.677   4.382
 8550SOL     OW26548   1.561   4.665   0.033
 8550SOL    HW126549   1.650   4.710   0.033
 8550SOL    HW226550   1.496   4.719   7.009
 8551SOL     OW26551   3.696   4.352   6.670
 8551SOL    HW126552   3.740   4.441   6.669
 8551SOL    HW226553   3.762   4.282   6.698
 8552SOL     OW26554   2.957   6.259   3.890
 8552SOL    HW126555   2.999   6.338   3.934
 8552SOL    HW226556   2.871   6.237   3.935
 8553SOL     OW26557   5.259   5.909   6.881
 8553SOL    HW126558   5.328   5.909   6.809
 8553SOL    HW226559   5.231   6.003   6.900
 8554SOL     OW26560   0.050   4.940   0.534
 8554SOL    HW126561   0.013   4.862   0.584
 8554SOL    HW226562   7.016   4.966   0.461
 8555SOL     OW26563   0.931   0.711   3.285
 8555SOL    HW126564   0.892   0.748   3.201
 8555SOL    HW226565   0.993   0.779   3.326
 8556SOL     OW26566   0.446   0.190   2.996
 8556SOL    HW126567   0.382   0.205   3.072
 8556SOL    HW226568   0.535   0.162   3.033
 8557SOL     OW26569   6.653   1.287   1.947
 8557SOL    HW126570   6.639   1.369   1.892
 8557SOL    HW226571   6.600   1.211   1.909
 8558SOL     OW26572   2.590   5.356   3.156
 8558SOL    HW126573   2.682   5.394   3.154
 8558SOL    HW226574   2.588   5.279   3.220
 8559SOL     OW26575   0.078   0.553   2.481
 8559SOL    HW126576   0.078   0.535   2.383
 8559SOL    HW226577   0.111   0.646   2.497
 8560SOL     OW26578   6.849   0.247   1.051
 8560SOL    HW126579   6.781   0.183   1.014
 8560SOL    HW226580   6.850   0.239   1.151
 8561SOL     OW26581   4.045   5.828   2.390
 8561SOL    HW126582   4.008   5.817   2.482
 8561SOL    HW226583   3.970   5.846   2.326
 8562SOL     OW26584   5.289   0.023   5.007
 8562SOL    HW126585   5.299   0.097   4.941
 8562SOL    HW226586   5.372   0.016   5.062
 8563SOL     OW26587   2.947   3.058   6.692
 8563SOL    HW126588   2.899   3.111   6.762
 8563SOL    HW226589   2.896   2.973   6.674
 8564SOL     OW26590   2.107   0.525   3.198
 8564SOL    HW126591   2.128   0.558   3.106
 8564SOL    HW226592   2.058   0.596   3.249
 8565SOL     OW26593   4.293   6.903   1.684
 8565SOL    HW126594   4.239   6.861   1.756
 8565SOL    HW226595   4.288   7.003   1.692
 8566SOL     OW26596   1.382   1.280   2.728
 8566SOL    HW126597   1.368   1.363   2.674
 8566SOL    HW226598   1.304   1.266   2.789
 8567SOL     OW26599   6.688   1.339   1.392
 8567SOL    HW126600   6.764   1.276   1.379
 8567SOL    HW226601   6.721   1.421   1.439
 8568SOL     OW26602   4.990   1.603   6.976
 8568SOL    HW126603   4.917   1.671   6.971
 8568SOL    HW226604   5.024   1.597   0.041
 8569SOL     OW26605   4.788   1.619   5.674
 8569SOL    HW126606   4.791   1.686   5.748
 8569SOL    HW226607   4.824   1.660   5.590
 8570SOL     OW26608   1.163   3.308   6.039
 8570SOL    HW126609   1.079   3.256   6.048
 8570SOL    HW226610   1.228   3.256   5.983
 8571SOL     OW26611   0.235   5.130   5.587
 8571SOL    HW126612   0.161   5.064   5.582
 8571SOL    HW226613   0.237   5.185   5.503
 8572SOL     OW26614   2.257   5.442   5.716
 8572SOL    HW126615   2.269   5.419   5.620
 8572SOL    HW226616   2.237   5.359   5.768
 8573SOL     OW26617   3.788   6.170   6.624
 8573SOL    HW126618   3.752   6.156   6.717
 8573SOL    HW226619   3.795   6.082   6.577
 8574SOL     OW26620   0.828   4.815   5.473
 8574SOL    HW126621   0.759   4.866   5.526
 8574SOL    HW226622   0.914   4.866   5.473
 8575SOL     OW26623   2.667   2.320   6.982
 8575SOL    HW126624   2.726   2.294   0.029
 8575SOL    HW226625   2.600   2.387   7.013
 8576SOL     OW26626   0.693   6.495   0.905
 8576SOL    HW126627   0.598   6.466   0.898
 8576SOL    HW226628   0.748   6.420   0.944
 8577SOL     OW26629   6.274   5.186   4.616
 8577SOL    HW126630   6.370   5.210   4.602
 8577SOL    HW226631   6.220   5.269   4.630
 8578SOL     OW26632   4.415   0.243   4.443
 8578SOL    HW126633   4.437   0.335   4.411
 8578SOL    HW226634   4.316   0.233   4.453
 8579SOL     OW26635   1.198   5.896   3.434
 8579SOL    HW126636   1.281   5.840   3.446
 8579SOL    HW226637   1.216   5.968   3.368
 8580SOL     OW26638   2.683   0.032   2.022
 8580SOL    HW126639   2.590   0.062   2.043
 8580SOL    HW226640   2.687   6.961   2.021
 8581SOL     OW26641   3.684   2.619   1.740
 8581SOL    HW126642   3.585   2.631   1.730
 8581SOL    HW226643   3.702   2.531   1.783
 8582SOL     OW26644   4.653   4.634   2.393
 8582SOL    HW126645   4.565   4.623   2.439
 8582SOL    HW226646   4.723   4.580   2.440
 8583SOL     OW26647   5.647   0.804   6.435
 8583SOL    HW126648   5.551   0.819   6.459
 8583SOL    HW226649   5.705   0.844   6.505
 8584SOL     OW26650   0.237   4.603   0.568
 8584SOL    HW126651   0.162   4.610   0.503
 8584SOL    HW226652   0.208   4.549   0.647
 8585SOL     OW26653   0.107   6.970   0.518
 8585SOL    HW126654   0.058   0.026   0.496
 8585SOL    HW226655   0.067   6.894   0.467
 8586SOL     OW26656   2.610   6.012   3.060
 8586SOL    HW126657   2.685   5.989   3.123
 8586SOL    HW226658   2.577   5.928   3.016
 8587SOL     OW26659   0.560   0.771   2.861
 8587SOL    HW126660   0.570   0.685   2.911
 8587SOL    HW226661   0.535   0.751   2.766
 8588SOL     OW26662   3.151   1.683   0.407
 8588SOL    HW126663   3.072   1.745   0.410
 8588SOL    HW226664   3.126   1.596   0.448
 8589SOL     OW26665   4.126   1.596   4.255
 8589SOL    HW126666   4.166   1.516   4.300
 8589SOL    HW226667   4.113   1.669   4.322
 8590SOL     OW26668   6.829   5.793   4.173
 8590SOL    HW126669   6.781   5.810   4.259
 8590SOL    HW226670   6.927   5.805   4.187
 8591SOL     OW26671   0.645   4.251   6.736
 8591SOL    HW126672   0.611   4.235   6.828
 8591SOL    HW226673   0.745   4.250   6.737
 8592SOL     OW26674   6.936   4.390   0.416
 8592SOL    HW126675   6.848   4.348   0.394
 8592SOL    HW226676   6.951   4.386   0.514
 8593SOL     OW26677   0.645   6.566   1.828
 8593SOL    HW126678   0.698   6.573   1.744
 8593SOL    HW226679   0.646   6.472   1.862
 8594SOL     OW26680   3.265   4.155   4.910
 8594SOL    HW126681   3.238   4.143   4.814
 8594SOL    HW226682   3.186   4.142   4.969
 8595SOL     OW26683   1.982   1.765   2.619
 8595SOL    HW126684   2.044   1.823   2.567
 8595SOL    HW226685   1.904   1.739   2.562
 8596SOL     OW26686   5.883   5.399   2.260
 8596SOL    HW126687   5.922   5.474   2.314
 8596SOL    HW226688   5.797   5.429   2.218
 8597SOL     OW26689   3.790   1.853   1.332
 8597SOL    HW126690   3.762   1.941   1.295
 8597SOL    HW226691   3.889   1.853   1.346
 8598SOL     OW26692   0.173   5.541   1.190
 8598SOL    HW126693   0.169   5.444   1.214
 8598SOL    HW226694   0.268   5.572   1.189
 8599SOL     OW26695   0.961   3.116   3.879
 8599SOL    HW126696   0.967   3.047   3.807
 8599SOL    HW226697   0.973   3.072   3.968
 8600SOL     OW26698   6.023   4.790   6.697
 8600SOL    HW126699   5.974   4.818   6.779
 8600SOL    HW226700   6.074   4.867   6.660
 8601SOL     OW26701   0.530   1.095   4.469
 8601SOL    HW126702   0.598   1.056   4.531
 8601SOL    HW226703   0.519   1.036   4.389
 8602SOL     OW26704   2.558   6.750   2.675
 8602SOL    HW126705   2.624   6.722   2.606
 8602SOL    HW226706   2.580   6.841   2.709
 8603SOL     OW26707   3.749   3.632   6.813
 8603SOL    HW126708   3.691   3.692   6.758
 8603SOL    HW226709   3.814   3.585   6.754
 8604SOL     OW26710   5.881   3.100   3.831
 8604SOL    HW126711   5.820   3.129   3.757
 8604SOL    HW226712   5.976   3.102   3.798
 8605SOL     OW26713   3.575   5.067   4.426
 8605SOL    HW126714   3.488   5.113   4.445
 8605SOL    HW226715   3.605   5.016   4.507
 8606SOL     OW26716   1.856   4.091   5.764
 8606SOL    HW126717   1.933   4.153   5.781
 8606SOL    HW226718   1.848   4.074   5.665
 8607SOL     OW26719   3.488   5.150   1.074
 8607SOL    HW126720   3.433   5.068   1.090
 8607SOL    HW226721   3.570   5.146   1.131
 8608SOL     OW26722   4.692   4.829   2.770
 8608SOL    HW126723   4.680   4.776   2.687
 8608SOL    HW226724   4.673   4.926   2.751
 8609SOL     OW26725   3.657   0.531   3.838
 8609SOL    HW126726   3.560   0.539   3.817
 8609SOL    HW226727   3.678   0.437   3.866
 8610SOL     OW26728   0.998   0.003   3.077
 8610SOL    HW126729   1.093   0.034   3.078
 8610SOL    HW226730   0.974   7.002   2.985
 8611SOL     OW26731   1.593   2.213   4.537
 8611SOL    HW126732   1.506   2.212   4.488
 8611SOL    HW226733   1.668   2.207   4.472
 8612SOL     OW26734   3.240   3.091   6.288
 8612SOL    HW126735   3.278   3.179   6.318
 8612SOL    HW226736   3.306   3.018   6.307
 8613SOL     OW26737   2.343   1.122   1.440
 8613SOL    HW126738   2.315   1.031   1.470
 8613SOL    HW226739   2.330   1.131   1.341
 8614SOL     OW26740   0.959   4.082   2.985
 8614SOL    HW126741   0.982   4.009   3.049
 8614SOL    HW226742   0.891   4.143   3.026
 8615SOL     OW26743   4.374   1.842   5.008
 8615SOL    HW126744   4.310   1.897   4.954
 8615SOL    HW226745   4.339   1.748   5.014
 8616SOL     OW26746   0.350   4.833   0.567
 8616SOL    HW126747   0.261   4.866   0.536
 8616SOL    HW226748   0.351   4.733   0.565
 8617SOL     OW26749   6.591   1.801   0.362
 8617SOL    HW126750   6.517   1.809   0.428
 8617SOL    HW226751   6.639   1.888   0.355
 8618SOL     OW26752   4.590   7.028   1.931
 8618SOL    HW126753   4.690   7.026   1.942
 8618SOL    HW226754   4.567   0.051   1.848
 8619SOL     OW26755   3.912   4.940   0.656
 8619SOL    HW126756   3.921   4.881   0.576
 8619SOL    HW226757   3.938   5.033   0.633
 8620SOL     OW26758   6.393   6.753   2.758
 8620SOL    HW126759   6.342   6.713   2.682
 8620SOL    HW226760   6.491   6.739   2.743
 8621SOL     OW26761   6.054   1.238   3.571
 8621SOL    HW126762   5.966   1.284   3.562
 8621SOL    HW226763   6.126   1.295   3.532
 8622SOL     OW26764   4.549   4.268   0.441
 8622SOL    HW126765   4.512   4.338   0.502
 8622SOL    HW226766   4.627   4.305   0.391
 8623SOL     OW26767   0.509   4.372   3.179
 8623SOL    HW126768   0.502   4.281   3.139
 8623SOL    HW226769   0.420   4.401   3.214
 8624SOL     OW26770   1.418   4.939   3.600
 8624SOL    HW126771   1.369   5.026   3.593
 8624SOL    HW226772   1.361   4.873   3.648
 8625SOL     OW26773   4.497   0.683   4.039
 8625SOL    HW126774   4.555   0.621   4.092
 8625SOL    HW226775   4.473   0.762   4.095
 8626SOL     OW26776   3.795   3.299   4.175
 8626SOL    HW126777   3.718   3.278   4.235
 8626SOL    HW226778   3.817   3.397   4.182
 8627SOL     OW26779   1.193   0.096   2.275
 8627SOL    HW126780   1.181   0.190   2.307
 8627SOL    HW226781   1.201   0.035   2.354
 8628SOL     OW26782   6.280   6.802   0.579
 8628SOL    HW126783   6.331   6.727   0.620
 8628SOL    HW226784   6.186   6.774   0.561
 8629SOL     OW26785   1.758   4.821   4.252
 8629SOL    HW126786   1.843   4.780   4.287
 8629SOL    HW226787   1.681   4.788   4.307
 8630SOL     OW26788   6.079   4.413   4.777
 8630SOL    HW126789   6.066   4.328   4.725
 8630SOL    HW226790   6.060   4.396   4.873
 8631SOL     OW26791   3.856   6.356   6.152
 8631SOL    HW126792   3.926   6.288   6.130
 8631SOL    HW226793   3.886   6.410   6.231
 8632SOL     OW26794   3.452   6.515   3.950
 8632SOL    HW126795   3.358   6.480   3.949
 8632SOL    HW226796   3.472   6.558   3.862
 8633SOL     OW26797   5.296   1.251   4.171
 8633SOL    HW126798   5.231   1.179   4.148
 8633SOL    HW226799   5.330   1.237   4.264
 8634SOL     OW26800   6.335   3.374   0.982
 8634SOL    HW126801   6.411   3.439   0.981
 8634SOL    HW226802   6.343   3.311   0.905
 8635SOL     OW26803   6.036   3.876   5.949
 8635SOL    HW126804   5.954   3.858   6.003
 8635SOL    HW226805   6.017   3.948   5.883
 8636SOL     OW26806   6.184   5.041   6.643
 8636SOL    HW126807   6.220   5.097   6.568
 8636SOL    HW226808   6.156   5.101   6.718
 8637SOL     OW26809   1.305   0.578   0.571
 8637SOL    HW126810   1.221   0.628   0.548
 8637SOL    HW226811   1.314   0.498   0.511
 8638SOL     OW26812   1.961   3.402   0.051
 8638SOL    HW126813   2.051   3.374   0.086
 8638SOL    HW226814   1.929   3.481   0.104
 8639SOL     OW26815   5.654   2.366   1.688
 8639SOL    HW126816   5.568   2.348   1.639
 8639SOL    HW226817   5.711   2.284   1.686
 8640SOL     OW26818   5.309   3.612   0.524
 8640SOL    HW126819   5.380   3.642   0.461
 8640SOL    HW226820   5.240   3.684   0.533
 8641SOL     OW26821   6.810   4.041   4.030
 8641SOL    HW126822   6.886   3.991   4.073
 8641SOL    HW226823   6.840   4.075   3.940
 8642SOL     OW26824   4.453   0.453   2.387
 8642SOL    HW126825   4.501   0.380   2.435
 8642SOL    HW226826   4.515   0.494   2.319
 8643SOL     OW26827   4.517   6.898   6.808
 8643SOL    HW126828   4.546   6.805   6.830
 8643SOL    HW226829   4.422   6.897   6.775
 8644SOL     OW26830   5.511   2.789   5.830
 8644SOL    HW126831   5.456   2.735   5.766
 8644SOL    HW226832   5.482   2.884   5.827
 8645SOL     OW26833   5.709   4.776   1.882
 8645SOL    HW126834   5.677   4.710   1.814
 8645SOL    HW226835   5.766   4.730   1.950
 8646SOL     OW26836   6.041   1.067   1.031
 8646SOL    HW126837   5.990   1.143   1.071
 8646SOL    HW226838   6.009   1.052   0.937
 8647SOL     OW26839   3.952   4.885   6.540
 8647SOL    HW126840   3.859   4.920   6.529
 8647SOL    HW226841   3.961   4.798   6.491
 8648SOL     OW26842   5.614   1.268   5.052
 8648SOL    HW126843   5.566   1.204   4.992
 8648SOL    HW226844   5.554   1.295   5.127
 8649SOL     OW26845   5.535   5.037   5.740
 8649SOL    HW126846   5.443   5.075   5.724
 8649SOL    HW226847   5.539   4.945   5.701
 8650SOL     OW26848   1.595   4.930   4.595
 8650SOL    HW126849   1.581   4.852   4.534
 8650SOL    HW226850   1.557   5.012   4.553
 8651SOL     OW26851   4.266   0.772   0.362
 8651SOL    HW126852   4.206   0.704   0.403
 8651SOL    HW226853   4.261   0.766   0.262
 8652SOL     OW26854   1.651   4.501   3.136
 8652SOL    HW126855   1.596   4.506   3.219
 8652SOL    HW226856   1.721   4.431   3.147
 8653SOL     OW26857   6.407   2.887   6.872
 8653SOL    HW126858   6.312   2.885   6.904
 8653SOL    HW226859   6.409   2.900   6.773
 8654SOL     OW26860   0.582   6.338   1.992
 8654SOL    HW126861   0.525   6.394   2.051
 8654SOL    HW226862   0.637   6.275   2.047
 8655SOL     OW26863   5.705   0.511   3.900
 8655SOL    HW126864   5.609   0.484   3.904
 8655SOL    HW226865   5.762   0.429   3.887
 8656SOL     OW26866   6.370   1.290   0.995
 8656SOL    HW126867   6.361   1.284   1.095
 8656SOL    HW226868   6.280   1.305   0.954
 8657SOL     OW26869   4.364   5.309   6.326
 8657SOL    HW126870   4.441   5.246   6.321
 8657SOL    HW226871   4.279   5.259   6.317
 8658SOL     OW26872   4.834   5.456   0.100
 8658SOL    HW126873   4.767   5.479   0.029
 8658SOL    HW226874   4.787   5.412   0.177
 8659SOL     OW26875   4.354   1.116   2.818
 8659SOL    HW126876   4.292   1.078   2.749
 8659SOL    HW226877   4.310   1.193   2.864
 8660SOL     OW26878   5.541   3.933   0.687
 8660SOL    HW126879   5.632   3.946   0.649
 8660SOL    HW226880   5.519   4.009   0.748
 8661SOL     OW26881   5.755   4.095   1.960
 8661SOL    HW126882   5.737   4.091   1.862
 8661SOL    HW226883   5.668   4.103   2.009
 8662SOL     OW26884   5.161   6.773   1.873
 8662SOL    HW126885   5.143   6.822   1.959
 8662SOL    HW226886   5.248   6.725   1.880
 8663SOL     OW26887   2.419   5.755   0.473
 8663SOL    HW126888   2.342   5.808   0.438
 8663SOL    HW226889   2.452   5.694   0.401
 8664SOL     OW26890   3.984   5.183   0.612
 8664SOL    HW126891   4.077   5.146   0.610
 8664SOL    HW226892   3.977   5.254   0.682
 8665SOL     OW26893   5.015   5.783   5.524
 8665SOL    HW126894   5.040   5.846   5.450
 8665SOL    HW226895   4.933   5.732   5.499
 8666SOL     OW26896   5.209   2.397   5.321
 8666SOL    HW126897   5.175   2.425   5.411
 8666SOL    HW226898   5.307   2.382   5.326
 8667SOL     OW26899   5.178   2.198   3.157
 8667SOL    HW126900   5.169   2.264   3.082
 8667SOL    HW226901   5.091   2.191   3.205
 8668SOL     OW26902   5.157   2.655   3.750
 8668SOL    HW126903   5.095   2.595   3.699
 8668SOL    HW226904   5.245   2.659   3.702
 8669SOL     OW26905   3.469   0.441   6.615
 8669SOL    HW126906   3.504   0.526   6.577
 8669SOL    HW226907   3.506   0.427   6.706
 8670SOL     OW26908   3.322   4.915   5.038
 8670SOL    HW126909   3.348   4.837   5.095
 8670SOL    HW226910   3.259   4.974   5.089
 8671SOL     OW26911   5.329   0.666   4.038
 8671SOL    HW126912   5.425   0.658   4.067
 8671SOL    HW226913   5.325   0.669   3.938
 8672SOL     OW26914   2.658   6.009   4.272
 8672SOL    HW126915   2.631   6.063   4.352
 8672SOL    HW226916   2.578   5.959   4.238
 8673SOL     OW26917   0.404   1.154   6.982
 8673SOL    HW126918   0.310   1.154   7.017
 8673SOL    HW226919   0.460   1.092   0.008
 8674SOL     OW26920   6.539   5.903   1.790
 8674SOL    HW126921   6.623   5.953   1.811
 8674SOL    HW226922   6.561   5.809   1.766
 8675SOL     OW26923   3.299   2.160   4.086
 8675SOL    HW126924   3.369   2.126   4.148
 8675SOL    HW226925   3.216   2.183   4.137
 8676SOL     OW26926   3.363   6.868   3.248
 8676SOL    HW126927   3.284   6.835   3.300
 8676SOL    HW226928   3.334   6.888   3.154
 8677SOL     OW26929   2.017   5.387   6.206
 8677SOL    HW126930   2.099   5.414   6.257
 8677SOL    HW226931   1.936   5.408   6.261
 8678SOL     OW26932   0.012   0.103   6.904
 8678SOL    HW126933   0.084   0.034   6.900
 8678SOL    HW226934   0.048   0.191   6.871
 8679SOL     OW26935   6.167   2.545   4.346
 8679SOL    HW126936   6.131   2.631   4.309
 8679SOL    HW226937   6.096   2.475   4.345
 8680SOL     OW26938   0.459   3.869   0.984
 8680SOL    HW126939   0.391   3.799   1.007
 8680SOL    HW226940   0.549   3.827   0.973
 8681SOL     OW26941   4.744   4.460   0.291
 8681SOL    HW126942   4.756   4.504   0.202
 8681SOL    HW226943   4.761   4.527   0.363
 8682SOL     OW26944   3.652   6.569   2.823
 8682SOL    HW126945   3.752   6.566   2.822
 8682SOL    HW226946   3.616   6.512   2.749
 8683SOL     OW26947   1.644   2.433   2.114
 8683SOL    HW126948   1.591   2.406   2.033
 8683SOL    HW226949   1.629   2.367   2.187
 8684SOL     OW26950   0.326   3.203   4.812
 8684SOL    HW126951   0.398   3.153   4.860
 8684SOL    HW226952   0.352   3.216   4.716
 8685SOL     OW26953   1.393   2.288   6.152
 8685SOL    HW126954   1.334   2.368   6.165
 8685SOL    HW226955   1.431   2.290   6.060
 8686SOL     OW26956   6.521   1.768   1.781
 8686SOL    HW126957   6.556   1.855   1.815
 8686SOL    HW226958   6.486   1.781   1.687
 8687SOL     OW26959   3.371   6.081   2.414
 8687SOL    HW126960   3.363   5.989   2.375
 8687SOL    HW226961   3.281   6.113   2.443
 8688SOL     OW26962   2.979   6.292   6.994
 8688SOL    HW126963   2.953   6.316   6.900
 8688SOL    HW226964   3.026   6.369   0.007
 8689SOL     OW26965   3.445   5.750   0.253
 8689SOL    HW126966   3.436   5.800   0.167
 8689SOL    HW226967   3.415   5.655   0.240
 8690SOL     OW26968   1.560   2.563   3.670
 8690SOL    HW126969   1.632   2.512   3.623
 8690SOL    HW226970   1.515   2.504   3.737
 8691SOL     OW26971   4.299   3.049   6.004
 8691SOL    HW126972   4.232   3.003   5.945
 8691SOL    HW226973   4.355   2.981   6.050
 8692SOL     OW26974   3.292   2.148   2.471
 8692SOL    HW126975   3.246   2.195   2.547
 8692SOL    HW226976   3.238   2.156   2.388
 8693SOL     OW26977   5.726   1.938   0.737
 8693SOL    HW126978   5.720   1.924   0.835
 8693SOL    HW226979   5.643   1.982   0.703
 8694SOL     OW26980   4.209   0.876   6.744
 8694SOL    HW126981   4.150   0.798   6.725
 8694SOL    HW226982   4.154   0.952   6.778
 8695SOL     OW26983   4.789   2.663   5.659
 8695SOL    HW126984   4.752   2.659   5.752
 8695SOL    HW226985   4.734   2.725   5.603
 8696SOL     OW26986   3.496   6.047   1.123
 8696SOL    HW126987   3.549   6.068   1.041
 8696SOL    HW226988   3.496   6.126   1.184
 8697SOL     OW26989   6.403   3.880   0.711
 8697SOL    HW126990   6.425   3.956   0.649
 8697SOL    HW226991   6.475   3.810   0.704
 8698SOL     OW26992   5.848   6.152   3.806
 8698SOL    HW126993   5.934   6.151   3.754
 8698SOL    HW226994   5.772   6.134   3.744
 8699SOL     OW26995   1.456   2.279   5.630
 8699SOL    HW126996   1.477   2.240   5.719
 8699SOL    HW226997   1.402   2.362   5.642
 8700SOL     OW26998   2.509   0.955   4.710
 8700SOL    HW126999   2.453   0.874   4.724
 8700SOL    HW227000   2.561   0.974   4.794
 8701SOL     OW27001   1.667   0.875   0.069
 8701SOL    HW127002   1.654   0.891   7.000
 8701SOL    HW227003   1.585   0.903   0.118
 8702SOL     OW27004   5.486   4.967   0.271
 8702SOL    HW127005   5.447   4.877   0.248
 8702SOL    HW227006   5.571   4.954   0.321
 8703SOL     OW27007   2.759   5.383   1.193
 8703SOL    HW127008   2.703   5.303   1.216
 8703SOL    HW227009   2.842   5.382   1.249
 8704SOL     OW27010   6.013   3.373   2.903
 8704SOL    HW127011   6.056   3.311   2.838
 8704SOL    HW227012   6.046   3.467   2.887
 8705SOL     OW27013   5.074   1.163   6.976
 8705SOL    HW127014   4.993   1.111   6.949
 8705SOL    HW227015   5.132   1.106   0.006
 8706SOL     OW27016   4.941   2.431   5.603
 8706SOL    HW127017   4.930   2.400   5.698
 8706SOL    HW227018   4.890   2.516   5.590
 8707SOL     OW27019   4.845   2.363   7.023
 8707SOL    HW127020   4.789   2.382   0.075
 8707SOL    HW227021   4.787   2.329   6.949
 8708SOL     OW27022   4.242   2.223   2.130
 8708SOL    HW127023   4.233   2.253   2.226
 8708SOL    HW227024   4.190   2.139   2.117
 8709SOL     OW27025   6.644   5.492   6.474
 8709SOL    HW127026   6.546   5.494   6.453
 8709SOL    HW227027   6.668   5.573   6.528
 8710SOL     OW27028   1.886   3.099   2.953
 8710SOL    HW127029   1.946   3.179   2.948
 8710SOL    HW227030   1.941   3.016   2.963
 8711SOL     OW27031   6.841   6.048   2.203
 8711SOL    HW127032   6.759   6.083   2.250
 8711SOL    HW227033   6.833   5.949   2.192
 8712SOL     OW27034   4.204   2.325   4.197
 8712SOL    HW127035   4.285   2.373   4.231
 8712SOL    HW227036   4.210   2.315   4.097
 8713SOL     OW27037   0.203   4.079   3.415
 8713SOL    HW127038   0.270   4.018   3.373
 8713SOL    HW227039   0.235   4.174   3.407
 8714SOL     OW27040   0.352   0.920   5.990
 8714SOL    HW127041   0.287   0.981   6.035
 8714SOL    HW227042   0.306   0.871   5.916
 8715SOL     OW27043   5.298   0.538   1.250
 8715SOL    HW127044   5.250   0.569   1.332
 8715SOL    HW227045   5.395   0.563   1.256
 8716SOL     OW27046   0.989   1.076   1.253
 8716SOL    HW127047   1.011   1.081   1.156
 8716SOL    HW227048   1.060   1.025   1.301
 8717SOL     OW27049   4.011   3.591   2.886
 8717SOL    HW127050   4.032   3.495   2.864
 8717SOL    HW227051   3.918   3.597   2.922
 8718SOL     OW27052   1.344   2.789   5.553
 8718SOL    HW127053   1.383   2.706   5.513
 8718SOL    HW227054   1.400   2.868   5.527
 8719SOL     OW27055   1.847   0.367   6.199
 8719SOL    HW127056   1.903   0.350   6.280
 8719SOL    HW227057   1.751   0.343   6.219
 8720SOL     OW27058   6.349   5.041   5.665
 8720SOL    HW127059   6.409   5.042   5.745
 8720SOL    HW227060   6.288   5.120   5.668
 8721SOL     OW27061   5.581   2.486   3.997
 8721SOL    HW127062   5.663   2.540   3.978
 8721SOL    HW227063   5.603   2.389   3.988
 8722SOL     OW27064   3.887   0.539   0.703
 8722SOL    HW127065   3.788   0.549   0.715
 8722SOL    HW227066   3.919   0.459   0.755
 8723SOL     OW27067   5.457   6.248   1.727
 8723SOL    HW127068   5.394   6.184   1.772
 8723SOL    HW227069   5.551   6.224   1.752
 8724SOL     OW27070   6.124   6.655   4.843
 8724SOL    HW127071   6.037   6.703   4.829
 8724SOL    HW227072   6.127   6.619   4.937
 8725SOL     OW27073   2.870   6.881   0.036
 8725SOL    HW127074   2.839   6.914   6.976
 8725SOL    HW227075   2.815   6.802   0.064
 8726SOL     OW27076   6.487   0.714   1.046
 8726SOL    HW127077   6.560   0.735   0.981
 8726SOL    HW227078   6.398   0.728   1.002
 8727SOL     OW27079   6.339   6.439   1.875
 8727SOL    HW127080   6.342   6.341   1.895
 8727SOL    HW227081   6.429   6.469   1.844
 8728SOL     OW27082   4.012   0.062   4.539
 8728SOL    HW127083   4.076   0.065   4.462
 8728SOL    HW227084   3.959   0.147   4.542
 8729SOL     OW27085   4.773   6.089   3.333
 8729SOL    HW127086   4.833   6.146   3.389
 8729SOL    HW227087   4.679   6.122   3.342
 8730SOL     OW27088   6.757   5.363   2.623
 8730SOL    HW127089   6.697   5.287   2.647
 8730SOL    HW227090   6.789   5.407   2.706
 8731SOL     OW27091   2.191   1.885   2.846
 8731SOL    HW127092   2.104   1.881   2.798
 8731SOL    HW227093   2.239   1.799   2.836
 8732SOL     OW27094   4.801   4.726   1.931
 8732SOL    HW127095   4.837   4.757   2.018
 8732SOL    HW227096   4.763   4.634   1.942
 8733SOL     OW27097   1.497   5.766   3.112
 8733SOL    HW127098   1.525   5.672   3.093
 8733SOL    HW227099   1.439   5.800   3.038
 8734SOL     OW27100   1.087   4.414   1.815
 8734SOL    HW127101   1.032   4.467   1.880
 8734SOL    HW227102   1.114   4.473   1.739
 8735SOL     OW27103   0.824   1.629   0.129
 8735SOL    HW127104   0.918   1.639   0.097
 8735SOL    HW227105   0.818   1.553   0.194
 8736SOL     OW27106   0.736   6.700   0.012
 8736SOL    HW127107   0.831   6.721   0.037
 8736SOL    HW227108   0.736   6.631   6.968
 8737SOL     OW27109   3.290   6.964   6.363
 8737SOL    HW127110   3.342   6.979   6.447
 8737SOL    HW227111   3.206   6.914   6.383
 8738SOL     OW27112   2.024   3.929   3.962
 8738SOL    HW127113   2.058   4.011   4.008
 8738SOL    HW227114   1.931   3.910   3.992
 8739SOL     OW27115   6.579   5.391   6.092
 8739SOL    HW127116   6.490   5.362   6.126
 8739SOL    HW227117   6.569   5.478   6.043
 8740SOL     OW27118   3.946   1.432   5.482
 8740SOL    HW127119   3.905   1.341   5.471
 8740SOL    HW227120   4.003   1.453   5.402
 8741SOL     OW27121   1.906   1.290   2.203
 8741SOL    HW127122   1.972   1.230   2.249
 8741SOL    HW227123   1.823   1.238   2.183
 8742SOL     OW27124   5.110   6.033   1.590
 8742SOL    HW127125   5.010   6.037   1.601
 8742SOL    HW227126   5.146   6.126   1.588
 8743SOL     OW27127   2.361   6.629   2.918
 8743SOL    HW127128   2.377   6.725   2.898
 8743SOL    HW227129   2.303   6.589   2.846
 8744SOL     OW27130   3.704   2.787   6.202
 8744SOL    HW127131   3.771   2.779   6.277
 8744SOL    HW227132   3.651   2.702   6.197
 8745SOL     OW27133   6.421   2.573   5.835
 8745SOL    HW127134   6.465   2.624   5.761
 8745SOL    HW227135   6.335   2.533   5.802
 8746SOL     OW27136   4.110   4.354   5.302
 8746SOL    HW127137   4.056   4.274   5.275
 8746SOL    HW227138   4.177   4.374   5.231
 8747SOL     OW27139   0.950   2.854   3.695
 8747SOL    HW127140   0.886   2.795   3.645
 8747SOL    HW227141   1.028   2.874   3.636
 8748SOL     OW27142   0.577   1.129   6.769
 8748SOL    HW127143   0.540   1.189   6.699
 8748SOL    HW227144   0.516   1.127   6.848
 8749SOL     OW27145   2.770   0.541   5.046
 8749SOL    HW127146   2.751   0.570   5.139
 8749SOL    HW227147   2.794   0.444   5.045
 8750SOL     OW27148   2.292   3.102   5.326
 8750SOL    HW127149   2.321   3.103   5.421
 8750SOL    HW227150   2.368   3.074   5.267
 8751SOL     OW27151   6.434   6.789   2.103
 8751SOL    HW127152   6.507   6.720   2.096
 8751SOL    HW227153   6.412   6.823   2.012
 8752SOL     OW27154   2.660   4.178   0.063
 8752SOL    HW127155   2.586   4.159   0.128
 8752SOL    HW227156   2.707   4.093   0.039
 8753SOL     OW27157   5.222   1.570   4.766
 8753SOL    HW127158   5.224   1.658   4.814
 8753SOL    HW227159   5.140   1.520   4.792
 8754SOL     OW27160   0.992   2.318   6.077
 8754SOL    HW127161   0.965   2.237   6.128
 8754SOL    HW227162   0.912   2.357   6.031
 8755SOL     OW27163   3.036   1.584   6.669
 8755SOL    HW127164   3.012   1.549   6.578
 8755SOL    HW227165   2.976   1.543   6.737
 8756SOL     OW27166   2.135   3.194   3.329
 8756SOL    HW127167   2.039   3.199   3.300
 8756SOL    HW227168   2.141   3.221   3.426
 8757SOL     OW27169   5.434   6.425   6.263
 8757SOL    HW127170   5.393   6.431   6.172
 8757SOL    HW227171   5.532   6.446   6.257
 8758SOL     OW27172   5.114   5.959   2.524
 8758SOL    HW127173   5.183   5.949   2.596
 8758SOL    HW227174   5.160   5.982   2.438
 8759SOL     OW27175   4.455   1.702   6.271
 8759SOL    HW127176   4.457   1.689   6.370
 8759SOL    HW227177   4.365   1.738   6.244
 8760SOL     OW27178   1.935   1.595   4.857
 8760SOL    HW127179   1.874   1.577   4.934
 8760SOL    HW227180   1.957   1.508   4.812
 8761SOL     OW27181   4.483   0.179   1.009
 8761SOL    HW127182   4.450   0.174   0.915
 8761SOL    HW227183   4.515   0.272   1.028
 8762SOL     OW27184   1.400   3.145   2.564
 8762SOL    HW127185   1.432   3.070   2.621
 8762SOL    HW227186   1.467   3.219   2.566
 8763SOL     OW27187   6.015   6.180   4.602
 8763SOL    HW127188   5.947   6.163   4.673
 8763SOL    HW227189   6.073   6.098   4.593
 8764SOL     OW27190   4.902   1.078   3.945
 8764SOL    HW127191   4.848   1.161   3.954
 8764SOL    HW227192   4.841   0.999   3.937
 8765SOL     OW27193   6.182   6.385   4.699
 8765SOL    HW127194   6.110   6.330   4.657
 8765SOL    HW227195   6.150   6.480   4.707
 8766SOL     OW27196   4.027   4.833   3.422
 8766SOL    HW127197   4.079   4.918   3.427
 8766SOL    HW227198   4.080   4.759   3.462
 8767SOL     OW27199   4.611   0.799   3.074
 8767SOL    HW127200   4.597   0.702   3.054
 8767SOL    HW227201   4.542   0.830   3.139
 8768SOL     OW27202   2.161   3.265   0.164
 8768SOL    HW127203   2.079   3.215   0.194
 8768SOL    HW227204   2.240   3.235   0.218
 8769SOL     OW27205   0.887   0.555   5.492
 8769SOL    HW127206   0.931   0.524   5.408
 8769SOL    HW227207   0.844   0.644   5.476
 8770SOL     OW27208   4.889   3.812   2.127
 8770SOL    HW127209   4.900   3.713   2.131
 8770SOL    HW227210   4.911   3.844   2.035
 8771SOL     OW27211   2.034   0.118   5.995
 8771SOL    HW127212   2.002   0.211   6.015
 8771SOL    HW227213   1.958   0.065   5.957
 8772SOL     OW27214   5.727   7.027   0.301
 8772SOL    HW127215   5.696   6.949   0.247
 8772SOL    HW227216   5.767   0.067   0.240
 8773SOL     OW27217   4.513   1.926   3.554
 8773SOL    HW127218   4.418   1.915   3.524
 8773SOL    HW227219   4.537   2.024   3.556
 8774SOL     OW27220   1.586   1.157   0.774
 8774SOL    HW127221   1.659   1.090   0.785
 8774SOL    HW227222   1.498   1.116   0.799
 8775SOL     OW27223   5.718   0.168   4.131
 8775SOL    HW127224   5.809   0.166   4.172
 8775SOL    HW227225   5.685   0.074   4.119
 8776SOL     OW27226   3.300   3.072   4.812
 8776SOL    HW127227   3.339   3.063   4.904
 8776SOL    HW227228   3.282   3.169   4.793
 8777SOL     OW27229   6.656   4.339   1.397
 8777SOL    HW127230   6.658   4.409   1.326
 8777SOL    HW227231   6.746   4.333   1.441
 8778SOL     OW27232   0.134   2.427   4.209
 8778SOL    HW127233   0.121   2.399   4.304
 8778SOL    HW227234   0.116   2.349   4.149
 8779SOL     OW27235   2.008   5.186   2.127
 8779SOL    HW127236   2.076   5.234   2.183
 8779SOL    HW227237   1.974   5.248   2.056
 8780SOL     OW27238   1.463   5.793   3.434
 8780SOL    HW127239   1.462   5.805   3.334
 8780SOL    HW227240   1.549   5.828   3.470
 8781SOL     OW27241   6.717   1.582   3.861
 8781SOL    HW127242   6.703   1.675   3.828
 8781SOL    HW227243   6.636   1.527   3.841
 8782SOL     OW27244   5.746   1.116   1.367
 8782SOL    HW127245   5.679   1.084   1.300
 8782SOL    HW227246   5.705   1.186   1.425
 8783SOL     OW27247   6.192   3.937   3.904
 8783SOL    HW127248   6.289   3.951   3.888
 8783SOL    HW227249   6.172   3.946   4.002
 8784SOL     OW27250   4.912   4.875   4.982
 8784SOL    HW127251   4.879   4.817   4.907
 8784SOL    HW227252   4.848   4.951   4.995
 8785SOL     OW27253   5.598   3.446   0.027
 8785SOL    HW127254   5.567   3.496   0.108
 8785SOL    HW227255   5.677   3.493   7.017
 8786SOL     OW27256   2.421   6.542   6.813
 8786SOL    HW127257   2.502   6.598   6.798
 8786SOL    HW227258   2.353   6.595   6.865
 8787SOL     OW27259   1.552   2.842   2.104
 8787SOL    HW127260   1.481   2.831   2.174
 8787SOL    HW227261   1.635   2.794   2.133
 8788SOL     OW27262   6.493   2.289   5.635
 8788SOL    HW127263   6.591   2.287   5.615
 8788SOL    HW227264   6.452   2.372   5.596
 8789SOL     OW27265   5.813   0.293   6.150
 8789SOL    HW127266   5.901   0.338   6.166
 8789SOL    HW227267   5.777   0.257   6.236
 8790SOL     OW27268   6.625   1.130   0.339
 8790SOL    HW127269   6.621   1.187   0.257
 8790SOL    HW227270   6.717   1.135   0.378
 8791SOL     OW27271   5.116   0.246   5.710
 8791SOL    HW127272   5.085   0.335   5.678
 8791SOL    HW227273   5.052   0.175   5.679
 8792SOL     OW27274   4.022   6.879   3.110
 8792SOL    HW127275   4.055   6.935   3.186
 8792SOL    HW227276   4.047   6.921   3.023
 8793SOL     OW27277   1.883   5.759   4.193
 8793SOL    HW127278   1.876   5.681   4.132
 8793SOL    HW227279   1.793   5.782   4.230
 8794SOL     OW27280   3.003   6.311   2.409
 8794SOL    HW127281   3.053   6.343   2.329
 8794SOL    HW227282   3.067   6.273   2.476
 8795SOL     OW27283   1.580   6.438   5.138
 8795SOL    HW127284   1.591   6.357   5.196
 8795SOL    HW227285   1.567   6.409   5.043
 8796SOL     OW27286   3.662   1.510   5.474
 8796SOL    HW127287   3.635   1.509   5.378
 8796SOL    HW227288   3.758   1.482   5.482
 8797SOL     OW27289   1.647   6.475   6.254
 8797SOL    HW127290   1.624   6.395   6.199
 8797SOL    HW227291   1.741   6.504   6.232
 8798SOL     OW27292   5.448   4.288   5.255
 8798SOL    HW127293   5.405   4.364   5.208
 8798SOL    HW227294   5.384   4.212   5.262
 8799SOL     OW27295   2.479   4.486   3.426
 8799SOL    HW127296   2.530   4.536   3.355
 8799SOL    HW227297   2.394   4.451   3.387
 8800SOL     OW27298   5.224   3.427   5.473
 8800SOL    HW127299   5.300   3.432   5.537
 8800SOL    HW227300   5.139   3.414   5.524
 8801SOL     OW27301   2.149   1.214   3.876
 8801SOL    HW127302   2.195   1.127   3.895
 8801SOL    HW227303   2.214   1.279   3.838
 8802SOL     OW27304   0.884   0.062   1.196
 8802SOL    HW127305   0.825   0.111   1.260
 8802SOL    HW227306   0.901   0.119   1.116
 8803SOL     OW27307   1.459   4.856   6.179
 8803SOL    HW127308   1.450   4.762   6.214
 8803SOL    HW227309   1.436   4.858   6.082
 8804SOL     OW27310   4.115   0.808   1.524
 8804SOL    HW127311   4.145   0.903   1.536
 8804SOL    HW227312   4.155   0.772   1.440
 8805SOL     OW27313   2.342   6.909   3.685
 8805SOL    HW127314   2.375   6.828   3.733
 8805SOL    HW227315   2.252   6.891   3.645
 8806SOL     OW27316   2.174   5.162   1.627
 8806SOL    HW127317   2.193   5.237   1.691
 8806SOL    HW227318   2.193   5.192   1.534
 8807SOL     OW27319   6.729   6.000   5.969
 8807SOL    HW127320   6.751   5.921   5.911
 8807SOL    HW227321   6.631   6.021   5.961
 8808SOL     OW27322   5.413   1.759   0.805
 8808SOL    HW127323   5.489   1.713   0.851
 8808SOL    HW227324   5.449   1.817   0.731
 8809SOL     OW27325   5.702   3.808   1.929
 8809SOL    HW127326   5.749   3.891   1.959
 8809SOL    HW227327   5.603   3.822   1.931
 8810SOL     OW27328   5.796   1.645   5.278
 8810SOL    HW127329   5.760   1.717   5.337
 8810SOL    HW227330   5.805   1.560   5.330
 8811SOL     OW27331   2.266   1.883   4.050
 8811SOL    HW127332   2.240   1.903   4.144
 8811SOL    HW227333   2.252   1.965   3.994
 8812SOL     OW27334   0.751   0.526   0.708
 8812SOL    HW127335   0.704   0.448   0.749
 8812SOL    HW227336   0.848   0.504   0.694
 8813SOL     OW27337   1.277   4.921   1.822
 8813SOL    HW127338   1.262   5.003   1.767
 8813SOL    HW227339   1.355   4.871   1.785
 8814SOL     OW27340   6.987   0.930   0.196
 8814SOL    HW127341   0.028   0.972   0.139
 8814SOL    HW227342   6.940   0.859   0.144
 8815SOL     OW27343   6.645   5.931   0.636
 8815SOL    HW127344   6.728   5.980   0.664
 8815SOL    HW227345   6.573   5.945   0.704
 8816SOL     OW27346   1.140   6.981   0.745
 8816SOL    HW127347   1.175   6.933   0.665
 8816SOL    HW227348   1.205   6.972   0.820
 8817SOL     OW27349   0.405   5.518   5.605
 8817SOL    HW127350   0.497   5.550   5.583
 8817SOL    HW227351   0.337   5.578   5.562
 8818SOL     OW27352   0.288   3.441   3.403
 8818SOL    HW127353   0.364   3.472   3.347
 8818SOL    HW227354   0.308   3.351   3.440
 8819SOL     OW27355   4.591   6.725   3.697
 8819SOL    HW127356   4.505   6.675   3.688
 8819SOL    HW227357   4.622   6.721   3.792
 8820SOL     OW27358   2.404   2.536   4.161
 8820SOL    HW127359   2.328   2.481   4.128
 8820SOL    HW227360   2.491   2.489   4.144
 8821SOL     OW27361   1.676   6.528   6.804
 8821SOL    HW127362   1.770   6.504   6.779
 8821SOL    HW227363   1.637   6.454   6.858
 8822SOL     OW27364   0.587   0.552   3.030
 8822SOL    HW127365   0.494   0.516   3.021
 8822SOL    HW227366   0.590   0.618   3.106
 8823SOL     OW27367   2.151   0.546   1.305
 8823SOL    HW127368   2.118   0.468   1.251
 8823SOL    HW227369   2.108   0.545   1.395
 8824SOL     OW27370   2.579   3.565   0.624
 8824SOL    HW127371   2.522   3.559   0.542
 8824SOL    HW227372   2.561   3.652   0.670
 8825SOL     OW27373   1.727   0.569   3.520
 8825SOL    HW127374   1.826   0.569   3.515
 8825SOL    HW227375   1.690   0.495   3.463
 8826SOL     OW27376   6.126   2.202   0.220
 8826SOL    HW127377   6.058   2.168   0.156
 8826SOL    HW227378   6.159   2.292   0.191
 8827SOL     OW27379   3.260   1.311   3.236
 8827SOL    HW127380   3.207   1.384   3.279
 8827SOL    HW227381   3.308   1.258   3.306
 8828SOL     OW27382   4.261   5.377   3.858
 8828SOL    HW127383   4.280   5.475   3.854
 8828SOL    HW227384   4.173   5.361   3.902
 8829SOL     OW27385   0.217   3.128   0.202
 8829SOL    HW127386   0.281   3.103   0.129
 8829SOL    HW227387   0.197   3.048   0.258
 8830SOL     OW27388   6.964   1.819   6.934
 8830SOL    HW127389   6.969   1.831   0.004
 8830SOL    HW227390   6.923   1.901   6.893
 8831SOL     OW27391   5.328   1.262   3.339
 8831SOL    HW127392   5.403   1.197   3.349
 8831SOL    HW227393   5.249   1.215   3.299
 8832SOL     OW27394   0.044   6.496   2.178
 8832SOL    HW127395   6.999   6.497   2.246
 8832SOL    HW227396   0.050   6.404   2.138
 8833SOL     OW27397   1.910   6.025   5.164
 8833SOL    HW127398   1.955   6.004   5.078
 8833SOL    HW227399   1.821   5.979   5.167
 8834SOL     OW27400   5.618   3.564   4.397
 8834SOL    HW127401   5.584   3.470   4.385
 8834SOL    HW227402   5.544   3.628   4.379
 8835SOL     OW27403   6.180   0.605   5.797
 8835SOL    HW127404   6.129   0.674   5.745
 8835SOL    HW227405   6.185   0.520   5.744
 8836SOL     OW27406   4.477   1.176   0.605
 8836SOL    HW127407   4.479   1.077   0.624
 8836SOL    HW227408   4.400   1.196   0.544
 8837SOL     OW27409   0.879   0.224   2.558
 8837SOL    HW127410   0.883   0.271   2.646
 8837SOL    HW227411   0.869   0.291   2.484
 8838SOL     OW27412   2.927   5.110   3.345
 8838SOL    HW127413   2.943   5.063   3.258
 8838SOL    HW227414   2.854   5.063   3.395
 8839SOL     OW27415   5.629   6.011   3.118
 8839SOL    HW127416   5.654   6.042   3.026
 8839SOL    HW227417   5.702   6.034   3.182
 8840SOL     OW27418   6.546   2.269   2.155
 8840SOL    HW127419   6.588   2.198   2.212
 8840SOL    HW227420   6.616   2.316   2.102
 8841SOL     OW27421   1.541   0.839   5.099
 8841SOL    HW127422   1.501   0.928   5.076
 8841SOL    HW227423   1.602   0.849   5.177
 8842SOL     OW27424   3.523   2.457   0.546
 8842SOL    HW127425   3.510   2.358   0.548
 8842SOL    HW227426   3.616   2.476   0.515
 8843SOL     OW27427   1.750   2.292   5.560
 8843SOL    HW127428   1.657   2.277   5.524
 8843SOL    HW227429   1.797   2.360   5.504
 8844SOL     OW27430   6.028   1.143   6.568
 8844SOL    HW127431   6.034   1.075   6.642
 8844SOL    HW227432   5.935   1.178   6.562
 8845SOL     OW27433   4.138   3.399   0.186
 8845SOL    HW127434   4.052   3.429   0.229
 8845SOL    HW227435   4.197   3.478   0.170
 8846SOL     OW27436   2.145   5.766   3.995
 8846SOL    HW127437   2.064   5.708   4.003
 8846SOL    HW227438   2.220   5.713   3.956
 8847SOL     OW27439   3.184   0.858   2.795
 8847SOL    HW127440   3.159   0.907   2.878
 8847SOL    HW227441   3.128   0.890   2.719
 8848SOL     OW27442   2.425   0.937   1.085
 8848SOL    HW127443   2.351   0.872   1.100
 8848SOL    HW227444   2.493   0.897   1.025
 8849SOL     OW27445   2.491   5.685   3.207
 8849SOL    HW127446   2.466   5.701   3.112
 8849SOL    HW227447   2.471   5.767   3.261
 8850SOL     OW27448   2.241   1.808   0.033
 8850SOL    HW127449   2.274   1.893   7.020
 8850SOL    HW227450   2.317   1.760   0.076
 8851SOL     OW27451   2.084   4.630   2.671
 8851SOL    HW127452   2.180   4.600   2.669
 8851SOL    HW227453   2.025   4.550   2.677
 8852SOL     OW27454   1.194   2.011   5.785
 8852SOL    HW127455   1.135   2.087   5.812
 8852SOL    HW227456   1.229   2.028   5.693
 8853SOL     OW27457   3.150   1.449   1.621
 8853SOL    HW127458   3.180   1.357   1.647
 8853SOL    HW227459   3.230   1.507   1.607
 8854SOL     OW27460   1.912   3.323   4.989
 8854SOL    HW127461   1.938   3.297   5.082
 8854SOL    HW227462   1.981   3.384   4.951
 8855SOL     OW27463   6.266   5.263   1.816
 8855SOL    HW127464   6.220   5.178   1.840
 8855SOL    HW227465   6.329   5.289   1.890
 8856SOL     OW27466   6.258   5.705   6.600
 8856SOL    HW127467   6.226   5.798   6.619
 8856SOL    HW227468   6.287   5.662   6.685
 8857SOL     OW27469   6.697   2.101   4.899
 8857SOL    HW127470   6.763   2.176   4.894
 8857SOL    HW227471   6.618   2.131   4.952
 8858SOL     OW27472   0.380   4.725   5.290
 8858SOL    HW127473   0.394   4.628   5.271
 8858SOL    HW227474   0.302   4.737   5.352
 8859SOL     OW27475   1.002   0.683   3.967
 8859SOL    HW127476   1.042   0.621   4.034
 8859SOL    HW227477   1.065   0.760   3.952
 8860SOL     OW27478   6.899   3.171   1.428
 8860SOL    HW127479   6.875   3.135   1.338
 8860SOL    HW227480   6.998   3.183   1.434
 8861SOL     OW27481   4.151   0.906   0.851
 8861SOL    HW127482   4.123   0.991   0.806
 8861SOL    HW227483   4.076   0.841   0.849
 8862SOL     OW27484   4.701   5.770   4.110
 8862SOL    HW127485   4.677   5.866   4.121
 8862SOL    HW227486   4.742   5.756   4.020
 8863SOL     OW27487   2.160   4.460   3.506
 8863SOL    HW127488   2.155   4.502   3.415
 8863SOL    HW227489   2.141   4.529   3.575
 8864SOL     OW27490   4.830   3.682   6.407
 8864SOL    HW127491   4.736   3.654   6.424
 8864SOL    HW227492   4.831   3.758   6.342
 8865SOL     OW27493   2.699   1.456   5.704
 8865SOL    HW127494   2.625   1.508   5.745
 8865SOL    HW227495   2.685   1.450   5.605
 8866SOL     OW27496   5.668   6.500   2.539
 8866SOL    HW127497   5.672   6.491   2.439
 8866SOL    HW227498   5.625   6.588   2.562
 8867SOL     OW27499   6.373   3.540   3.094
 8867SOL    HW127500   6.290   3.563   3.146
 8867SOL    HW227501   6.362   3.569   2.999
 8868SOL     OW27502   6.941   3.309   2.193
 8868SOL    HW127503   6.854   3.348   2.164
 8868SOL    HW227504   6.924   3.225   2.246
 8869SOL     OW27505   4.279   5.302   4.361
 8869SOL    HW127506   4.288   5.400   4.343
 8869SOL    HW227507   4.346   5.252   4.307
 8870SOL     OW27508   2.267   6.704   1.686
 8870SOL    HW127509   2.282   6.669   1.594
 8870SOL    HW227510   2.350   6.749   1.719
 8871SOL     OW27511   1.205   1.103   3.171
 8871SOL    HW127512   1.248   1.175   3.116
 8871SOL    HW227513   1.123   1.139   3.215
 8872SOL     OW27514   0.936   4.596   6.021
 8872SOL    HW127515   0.967   4.502   6.012
 8872SOL    HW227516   0.964   4.648   5.940
 8873SOL     OW27517   1.658   0.586   1.771
 8873SOL    HW127518   1.583   0.630   1.722
 8873SOL    HW227519   1.625   0.503   1.816
 8874SOL     OW27520   1.243   5.053   1.578
 8874SOL    HW127521   1.145   5.070   1.571
 8874SOL    HW227522   1.293   5.132   1.540
 8875SOL     OW27523   0.065   3.447   4.127
 8875SOL    HW127524   0.052   3.408   4.035
 8875SOL    HW227525   0.002   3.403   4.191
 8876SOL     OW27526   2.849   0.494   6.480
 8876SOL    HW127527   2.879   0.589   6.476
 8876SOL    HW227528   2.887   0.444   6.402
 8877SOL     OW27529   1.334   3.547   1.708
 8877SOL    HW127530   1.427   3.520   1.685
 8877SOL    HW227531   1.321   3.644   1.687
 8878SOL     OW27532   3.625   4.247   0.540
 8878SOL    HW127533   3.723   4.266   0.548
 8878SOL    HW227534   3.601   4.238   0.443
 8879SOL     OW27535   6.726   4.803   2.631
 8879SOL    HW127536   6.763   4.711   2.641
 8879SOL    HW227537   6.798   4.864   2.597
 8880SOL     OW27538   3.992   6.469   3.997
 8880SOL    HW127539   3.946   6.482   3.909
 8880SOL    HW227540   3.961   6.540   4.061
 8881SOL     OW27541   5.136   4.650   4.068
 8881SOL    HW127542   5.164   4.729   4.122
 8881SOL    HW227543   5.057   4.606   4.112
 8882SOL     OW27544   3.840   0.941   0.541
 8882SOL    HW127545   3.801   0.953   0.450
 8882SOL    HW227546   3.773   0.898   0.601
 8883SOL     OW27547   0.143   6.826   5.957
 8883SOL    HW127548   0.109   6.748   6.009
 8883SOL    HW227549   0.220   6.867   6.004
 8884SOL     OW27550   5.211   4.644   5.300
 8884SOL    HW127551   5.148   4.705   5.252
 8884SOL    HW227552   5.279   4.610   5.236
 8885SOL     OW27553   5.809   5.262   6.981
 8885SOL    HW127554   5.783   5.179   0.002
 8885SOL    HW227555   5.760   5.264   6.894
 8886SOL     OW27556   3.882   5.298   6.391
 8886SOL    HW127557   3.877   5.272   6.488
 8886SOL    HW227558   3.976   5.322   6.368
 8887SOL     OW27559   4.282   0.379   0.817
 8887SOL    HW127560   4.322   0.382   0.725
 8887SOL    HW227561   4.348   0.415   0.883
 8888SOL     OW27562   1.620   1.894   3.376
 8888SOL    HW127563   1.548   1.837   3.335
 8888SOL    HW227564   1.709   1.864   3.344
 8889SOL     OW27565   6.846   6.407   6.157
 8889SOL    HW127566   6.916   6.447   6.217
 8889SOL    HW227567   6.881   6.322   6.118
 8890SOL     OW27568   0.467   5.978   6.814
 8890SOL    HW127569   0.503   5.909   6.751
 8890SOL    HW227570   0.485   5.950   6.908
 8891SOL     OW27571   5.061   4.308   6.817
 8891SOL    HW127572   5.160   4.304   6.811
 8891SOL    HW227573   5.032   4.404   6.822
 8892SOL     OW27574   3.838   4.997   3.687
 8892SOL    HW127575   3.918   4.939   3.702
 8892SOL    HW227576   3.866   5.081   3.639
 8893SOL     OW27577   1.452   5.073   5.135
 8893SOL    HW127578   1.372   5.045   5.189
 8893SOL    HW227579   1.436   5.052   5.039
 8894SOL     OW27580   5.067   1.930   0.794
 8894SOL    HW127581   5.138   1.940   0.863
 8894SOL    HW227582   4.982   1.972   0.827
 8895SOL     OW27583   1.038   3.067   0.652
 8895SOL    HW127584   1.117   3.125   0.669
 8895SOL    HW227585   0.962   3.098   0.710
 8896SOL     OW27586   1.563   2.599   5.018
 8896SOL    HW127587   1.478   2.635   4.980
 8896SOL    HW227588   1.560   2.499   5.017
 8897SOL     OW27589   2.175   3.762   3.564
 8897SOL    HW127590   2.187   3.818   3.647
 8897SOL    HW227591   2.259   3.762   3.511
 8898SOL     OW27592   5.666   3.660   2.556
 8898SOL    HW127593   5.765   3.673   2.553
 8898SOL    HW227594   5.631   3.653   2.462
 8899SOL     OW27595   6.762   5.103   6.220
 8899SOL    HW127596   6.748   5.200   6.240
 8899SOL    HW227597   6.845   5.071   6.265
 8900SOL     OW27598   5.395   2.312   3.466
 8900SOL    HW127599   5.423   2.304   3.371
 8900SOL    HW227600   5.447   2.248   3.522
 8901SOL     OW27601   0.736   2.026   3.436
 8901SOL    HW127602   0.776   2.092   3.373
 8901SOL    HW227603   0.804   1.956   3.458
 8902SOL     OW27604   1.216   4.753   0.152
 8902SOL    HW127605   1.259   4.833   0.194
 8902SOL    HW227606   1.167   4.701   0.222
 8903SOL     OW27607   1.306   1.266   5.224
 8903SOL    HW127608   1.330   1.197   5.156
 8903SOL    HW227609   1.289   1.353   5.177
 8904SOL     OW27610   0.290   1.446   2.725
 8904SOL    HW127611   0.213   1.397   2.765
 8904SOL    HW227612   0.265   1.478   2.633
 8905SOL     OW27613   1.721   3.027   2.572
 8905SOL    HW127614   1.716   2.929   2.591
 8905SOL    HW227615   1.808   3.048   2.526
 8906SOL     OW27616   0.591   6.637   0.578
 8906SOL    HW127617   0.609   6.540   0.598
 8906SOL    HW227618   0.661   6.672   0.516
 8907SOL     OW27619   3.178   2.668   5.341
 8907SOL    HW127620   3.171   2.603   5.266
 8907SOL    HW227621   3.100   2.731   5.338
 8908SOL     OW27622   1.082   4.712   0.380
 8908SOL    HW127623   1.025   4.630   0.380
 8908SOL    HW227624   1.065   4.765   0.463
 8909SOL     OW27625   2.581   0.835   6.045
 8909SOL    HW127626   2.546   0.860   6.135
 8909SOL    HW227627   2.563   0.909   5.980
 8910SOL     OW27628   0.670   2.577   5.315
 8910SOL    HW127629   0.672   2.554   5.412
 8910SOL    HW227630   0.748   2.635   5.293
 8911SOL     OW27631   5.080   1.722   4.490
 8911SOL    HW127632   5.117   1.634   4.522
 8911SOL    HW227633   4.980   1.717   4.486
 8912SOL     OW27634   3.808   3.042   5.443
 8912SOL    HW127635   3.836   2.951   5.411
 8912SOL    HW227636   3.888   3.102   5.447
 8913SOL     OW27637   5.300   5.163   6.930
 8913SOL    HW127638   5.360   5.177   7.009
 8913SOL    HW227639   5.328   5.080   6.881
 8914SOL     OW27640   5.184   6.743   5.139
 8914SOL    HW127641   5.276   6.781   5.132
 8914SOL    HW227642   5.117   6.815   5.119
 8915SOL     OW27643   0.885   1.320   4.085
 8915SOL    HW127644   0.921   1.261   4.013
 8915SOL    HW227645   0.917   1.287   4.174
 8916SOL     OW27646   5.433   2.058   6.777
 8916SOL    HW127647   5.397   2.012   6.858
 8916SOL    HW227648   5.494   2.132   6.806
 8917SOL     OW27649   5.914   1.631   0.633
 8917SOL    HW127650   5.976   1.709   0.635
 8917SOL    HW227651   5.913   1.587   0.723
 8918SOL     OW27652   1.721   5.520   1.007
 8918SOL    HW127653   1.745   5.428   1.037
 8918SOL    HW227654   1.662   5.562   1.076
 8919SOL     OW27655   5.060   4.868   6.801
 8919SOL    HW127656   5.034   4.796   6.864
 8919SOL    HW227657   4.980   4.924   6.779
 8920SOL     OW27658   0.414   1.312   0.470
 8920SOL    HW127659   0.345   1.274   0.409
 8920SOL    HW227660   0.469   1.238   0.509
 8921SOL     OW27661   1.393   2.645   1.272
 8921SOL    HW127662   1.469   2.666   1.333
 8921SOL    HW227663   1.308   2.642   1.324
 8922SOL     OW27664   3.745   6.692   2.432
 8922SOL    HW127665   3.823   6.661   2.485
 8922SOL    HW227666   3.700   6.613   2.389
 8923SOL     OW27667   1.455   2.178   5.886
 8923SOL    HW127668   1.374   2.124   5.907
 8923SOL    HW227669   1.536   2.120   5.886
 8924SOL     OW27670   5.500   5.791   4.671
 8924SOL    HW127671   5.404   5.792   4.640
 8924SOL    HW227672   5.560   5.813   4.594
 8925SOL     OW27673   0.504   0.675   2.594
 8925SOL    HW127674   0.438   0.603   2.617
 8925SOL    HW227675   0.595   0.635   2.588
 8926SOL     OW27676   6.624   3.755   5.279
 8926SOL    HW127677   6.576   3.835   5.242
 8926SOL    HW227678   6.701   3.786   5.334
 8927SOL     OW27679   6.412   2.110   5.822
 8927SOL    HW127680   6.435   2.159   5.738
 8927SOL    HW227681   6.462   2.150   5.899
 8928SOL     OW27682   2.194   0.452   6.029
 8928SOL    HW127683   2.278   0.505   6.016
 8928SOL    HW227684   2.164   0.415   5.941
 8929SOL     OW27685   6.443   2.424   4.930
 8929SOL    HW127686   6.394   2.495   4.980
 8929SOL    HW227687   6.459   2.346   4.991
 8930SOL     OW27688   0.696   3.559   2.854
 8930SOL    HW127689   0.696   3.472   2.903
 8930SOL    HW227690   0.756   3.623   2.900
 8931SOL     OW27691   3.056   2.646   1.417
 8931SOL    HW127692   3.110   2.674   1.338
 8931SOL    HW227693   3.082   2.701   1.496
 8932SOL     OW27694   0.164   1.783   3.148
 8932SOL    HW127695   0.224   1.770   3.069
 8932SOL    HW227696   0.136   1.694   3.183
 8933SOL     OW27697   3.155   2.479   6.765
 8933SOL    HW127698   3.124   2.574   6.767
 8933SOL    HW227699   3.076   2.418   6.755
 8934SOL     OW27700   3.263   5.275   4.719
 8934SOL    HW127701   3.340   5.230   4.675
 8934SOL    HW227702   3.274   5.374   4.714
 8935SOL     OW27703   0.668   4.963   0.974
 8935SOL    HW127704   0.648   4.920   1.062
 8935SOL    HW227705   0.599   5.032   0.954
 8936SOL     OW27706   1.896   3.515   0.742
 8936SOL    HW127707   1.943   3.429   0.723
 8936SOL    HW227708   1.894   3.531   0.841
 8937SOL     OW27709   0.122   6.947   5.459
 8937SOL    HW127710   0.024   6.960   5.472
 8937SOL    HW227711   0.139   6.859   5.415
 8938SOL     OW27712   0.415   5.579   1.001
 8938SOL    HW127713   0.326   5.562   0.959
 8938SOL    HW227714   0.481   5.512   0.968
 8939SOL     OW27715   4.894   2.476   4.726
 8939SOL    HW127716   4.871   2.451   4.632
 8939SOL    HW227717   4.815   2.520   4.769
 8940SOL     OW27718   0.327   0.952   3.915
 8940SOL    HW127719   0.290   0.904   3.994
 8940SOL    HW227720   0.425   0.967   3.928
 8941SOL     OW27721   5.749   2.218   5.766
 8941SOL    HW127722   5.843   2.184   5.771
 8941SOL    HW227723   5.711   2.226   5.859
 8942SOL     OW27724   0.591   3.504   5.682
 8942SOL    HW127725   0.662   3.539   5.620
 8942SOL    HW227726   0.567   3.411   5.655
 8943SOL     OW27727   5.116   3.803   0.537
 8943SOL    HW127728   5.016   3.799   0.538
 8943SOL    HW227729   5.146   3.898   0.546
 8944SOL     OW27730   4.870   5.343   5.608
 8944SOL    HW127731   4.787   5.374   5.562
 8944SOL    HW227732   4.907   5.416   5.664
 8945SOL     OW27733   1.914   0.618   4.452
 8945SOL    HW127734   1.999   0.573   4.480
 8945SOL    HW227735   1.837   0.555   4.465
 8946SOL     OW27736   3.301   2.109   4.907
 8946SOL    HW127737   3.278   2.110   4.809
 8946SOL    HW227738   3.253   2.183   4.953
 8947SOL     OW27739   1.599   3.560   5.205
 8947SOL    HW127740   1.639   3.499   5.137
 8947SOL    HW227741   1.500   3.549   5.205
 8948SOL     OW27742   5.910   5.383   3.911
 8948SOL    HW127743   5.837   5.397   3.844
 8948SOL    HW227744   5.999   5.398   3.866
 8949SOL     OW27745   2.007   0.225   0.717
 8949SOL    HW127746   2.018   0.324   0.722
 8949SOL    HW227747   2.095   0.181   0.737
 8950SOL     OW27748   4.559   3.184   5.652
 8950SOL    HW127749   4.589   3.137   5.735
 8950SOL    HW227750   4.639   3.226   5.607
 8951SOL     OW27751   1.865   2.129   4.927
 8951SOL    HW127752   1.887   2.174   5.014
 8951SOL    HW227753   1.817   2.043   4.945
 8952SOL     OW27754   1.209   0.683   2.325
 8952SOL    HW127755   1.190   0.752   2.394
 8952SOL    HW227756   1.244   0.727   2.242
 8953SOL     OW27757   1.111   3.690   6.945
 8953SOL    HW127758   1.098   3.716   6.849
 8953SOL    HW227759   1.029   3.646   6.979
 8954SOL     OW27760   0.453   6.056   5.385
 8954SOL    HW127761   0.480   5.960   5.388
 8954SOL    HW227762   0.522   6.108   5.334
 8955SOL     OW27763   6.953   4.143   2.806
 8955SOL    HW127764   6.906   4.228   2.784
 8955SOL    HW227765   6.917   4.069   2.749
 8956SOL     OW27766   0.102   1.522   6.616
 8956SOL    HW127767   0.019   1.551   6.662
 8956SOL    HW227768   0.151   1.455   6.672
 8957SOL     OW27769   3.136   4.327   1.404
 8957SOL    HW127770   3.114   4.230   1.416
 8957SOL    HW227771   3.200   4.356   1.474
 8958SOL     OW27772   0.849   0.614   4.173
 8958SOL    HW127773   0.870   0.518   4.195
 8958SOL    HW227774   0.861   0.630   4.075
 8959SOL     OW27775   0.828   4.393   0.873
 8959SOL    HW127776   0.841   4.301   0.838
 8959SOL    HW227777   0.840   4.459   0.799
 8960SOL     OW27778   4.645   5.456   2.757
 8960SOL    HW127779   4.613   5.496   2.843
 8960SOL    HW227780   4.711   5.384   2.777
 8961SOL     OW27781   1.269   2.362   4.553
 8961SOL    HW127782   1.272   2.298   4.476
 8961SOL    HW227783   1.341   2.430   4.542
 8962SOL     OW27784   6.097   6.781   1.997
 8962SOL    HW127785   6.180   6.798   1.945
 8962SOL    HW227786   6.053   6.868   2.020
 8963SOL     OW27787   4.548   6.544   3.987
 8963SOL    HW127788   4.636   6.570   4.026
 8963SOL    HW227789   4.498   6.487   4.051
 8964SOL     OW27790   6.173   4.197   2.619
 8964SOL    HW127791   6.188   4.237   2.710
 8964SOL    HW227792   6.176   4.269   2.550
 8965SOL     OW27793   1.559   4.843   1.031
 8965SOL    HW127794   1.599   4.926   0.993
 8965SOL    HW227795   1.585   4.764   0.975
 8966SOL     OW27796   1.942   3.348   5.510
 8966SOL    HW127797   2.004   3.305   5.576
 8966SOL    HW227798   1.943   3.447   5.523
 8967SOL     OW27799   2.829   6.075   1.665
 8967SOL    HW127800   2.920   6.102   1.633
 8967SOL    HW227801   2.825   6.084   1.764
 8968SOL     OW27802   4.631   5.421   2.467
 8968SOL    HW127803   4.645   5.457   2.560
 8968SOL    HW227804   4.587   5.332   2.472
 8969SOL     OW27805   6.254   0.618   3.788
 8969SOL    HW127806   6.189   0.542   3.783
 8969SOL    HW227807   6.273   0.639   3.883
 8970SOL     OW27808   3.138   3.011   0.546
 8970SOL    HW127809   3.117   3.038   0.641
 8970SOL    HW227810   3.173   3.091   0.497
 8971SOL     OW27811   3.323   5.821   2.421
 8971SOL    HW127812   3.410   5.807   2.375
 8971SOL    HW227813   3.287   5.733   2.452
 8972SOL     OW27814   4.776   6.025   6.505
 8972SOL    HW127815   4.705   6.003   6.573
 8972SOL    HW227816   4.814   5.941   6.469
 8973SOL     OW27817   0.501   3.527   2.087
 8973SOL    HW127818   0.542   3.556   2.174
 8973SOL    HW227819   0.411   3.570   2.077
 8974SOL     OW27820   1.119   4.365   5.931
 8974SOL    HW127821   1.191   4.428   5.962
 8974SOL    HW227822   1.162   4.285   5.888
 8975SOL     OW27823   2.513   1.163   6.989
 8975SOL    HW127824   2.562   1.250   6.993
 8975SOL    HW227825   2.576   1.088   7.010
 8976SOL     OW27826   0.958   5.052   5.292
 8976SOL    HW127827   0.920   4.983   5.231
 8976SOL    HW227828   0.958   5.141   5.246
 8977SOL     OW27829   5.717   1.394   6.824
 8977SOL    HW127830   5.799   1.359   6.870
 8977SOL    HW227831   5.728   1.388   6.725
 8978SOL     OW27832   6.338   6.132   6.769
 8978SOL    HW127833   6.378   6.043   6.748
 8978SOL    HW227834   6.252   6.141   6.720
 8979SOL     OW27835   1.550   3.379   4.164
 8979SOL    HW127836   1.503   3.366   4.251
 8979SOL    HW227837   1.491   3.431   4.102
 8980SOL     OW27838   2.356   3.082   5.603
 8980SOL    HW127839   2.293   3.012   5.635
 8980SOL    HW227840   2.444   3.071   5.650
 8981SOL     OW27841   3.866   1.825   5.098
 8981SOL    HW127842   3.811   1.880   5.035
 8981SOL    HW227843   3.806   1.774   5.159
 8982SOL     OW27844   1.370   2.648   0.194
 8982SOL    HW127845   1.427   2.567   0.180
 8982SOL    HW227846   1.312   2.634   0.274
 8983SOL     OW27847   2.864   5.892   6.888
 8983SOL    HW127848   2.867   5.835   6.806
 8983SOL    HW227849   2.783   5.869   6.942
 8984SOL     OW27850   1.143   7.010   3.927
 8984SOL    HW127851   1.062   6.990   3.871
 8984SOL    HW227852   1.211   0.028   3.871
 8985SOL     OW27853   4.138   2.253   1.099
 8985SOL    HW127854   4.107   2.305   1.178
 8985SOL    HW227855   4.127   2.156   1.116
 8986SOL     OW27856   4.234   5.177   2.981
 8986SOL    HW127857   4.242   5.228   2.895
 8986SOL    HW227858   4.304   5.107   2.986
 8987SOL     OW27859   3.638   6.471   2.309
 8987SOL    HW127860   3.732   6.472   2.274
 8987SOL    HW227861   3.587   6.396   2.267
 8988SOL     OW27862   1.592   4.752   4.022
 8988SOL    HW127863   1.645   4.752   3.937
 8988SOL    HW227864   1.649   4.784   4.097
 8989SOL     OW27865   4.404   3.372   6.842
 8989SOL    HW127866   4.448   3.284   6.823
 8989SOL    HW227867   4.473   3.444   6.845
 8990SOL     OW27868   1.347   5.176   4.061
 8990SOL    HW127869   1.342   5.274   4.075
 8990SOL    HW227870   1.320   5.153   3.968
 8991SOL     OW27871   1.639   3.540   4.799
 8991SOL    HW127872   1.597   3.468   4.854
 8991SOL    HW227873   1.568   3.594   4.754
 8992SOL     OW27874   4.857   2.071   0.888
 8992SOL    HW127875   4.762   2.067   0.858
 8992SOL    HW227876   4.861   2.113   0.978
 8993SOL     OW27877   4.006   2.967   0.887
 8993SOL    HW127878   4.027   2.910   0.967
 8993SOL    HW227879   3.931   3.029   0.910
 8994SOL     OW27880   1.506   4.359   5.473
 8994SOL    HW127881   1.434   4.412   5.518
 8994SOL    HW227882   1.466   4.308   5.396
 8995SOL     OW27883   0.380   2.012   0.005
 8995SOL    HW127884   0.429   1.999   6.948
 8995SOL    HW227885   0.408   1.942   0.071
 8996SOL     OW27886   5.165   4.128   6.570
 8996SOL    HW127887   5.116   4.043   6.587
 8996SOL    HW227888   5.236   4.113   6.501
 8997SOL     OW27889   4.474   1.339   5.931
 8997SOL    HW127890   4.511   1.388   6.010
 8997SOL    HW227891   4.546   1.326   5.864
 8998SOL     OW27892   5.864   3.617   4.233
 8998SOL    HW127893   5.780   3.608   4.285
 8998SOL    HW227894   5.890   3.528   4.195
 8999SOL     OW27895   4.849   6.595   6.450
 8999SOL    HW127896   4.903   6.661   6.399
 8999SOL    HW227897   4.753   6.623   6.449
 9000SOL     OW27898   1.931   3.046   2.411
 9000SOL    HW127899   1.894   3.071   2.321
 9000SOL    HW227900   2.030   3.058   2.410
 9001SOL     OW27901   1.164   4.960   2.055
 9001SOL    HW127902   1.071   4.979   2.024
 9001SOL    HW227903   1.222   4.940   1.975
 9002SOL     OW27904   1.947   5.220   5.283
 9002SOL    HW127905   1.972   5.249   5.190
 9002SOL    HW227906   1.890   5.138   5.277
 9003SOL     OW27907   5.495   3.789   1.316
 9003SOL    HW127908   5.397   3.796   1.338
 9003SOL    HW227909   5.529   3.878   1.287
 9004SOL     OW27910   4.598   5.257   0.666
 9004SOL    HW127911   4.551   5.343   0.682
 9004SOL    HW227912   4.687   5.274   0.624
 9005SOL     OW27913   6.659   2.068   5.247
 9005SOL    HW127914   6.577   2.125   5.242
 9005SOL    HW227915   6.703   2.080   5.336
 9006SOL     OW27916   2.590   5.823   1.235
 9006SOL    HW127917   2.633   5.747   1.187
 9006SOL    HW227918   2.586   5.903   1.174
 9007SOL     OW27919   3.127   0.818   3.104
 9007SOL    HW127920   3.190   0.892   3.082
 9007SOL    HW227921   3.171   0.730   3.087
 9008SOL     OW27922   0.378   5.023   2.452
 9008SOL    HW127923   0.366   5.123   2.451
 9008SOL    HW227924   0.472   5.000   2.425
 9009SOL     OW27925   3.617   4.809   1.057
 9009SOL    HW127926   3.528   4.847   1.079
 9009SOL    HW227927   3.646   4.748   1.131
 9010SOL     OW27928   1.938   6.561   4.230
 9010SOL    HW127929   2.007   6.631   4.246
 9010SOL    HW227930   1.850   6.604   4.208
 9011SOL     OW27931   4.366   1.044   1.070
 9011SOL    HW127932   4.355   0.945   1.076
 9011SOL    HW227933   4.464   1.067   1.075
 9012SOL     OW27934   2.136   4.742   6.658
 9012SOL    HW127935   2.082   4.807   6.605
 9012SOL    HW227936   2.227   4.733   6.618
 9013SOL     OW27937   1.301   1.142   6.205
 9013SOL    HW127938   1.206   1.125   6.179
 9013SOL    HW227939   1.356   1.061   6.187
 9014SOL     OW27940   6.889   2.135   0.840
 9014SOL    HW127941   6.976   2.091   0.859
 9014SOL    HW227942   6.857   2.108   0.749
 9015SOL     OW27943   4.740   2.217   1.632
 9015SOL    HW127944   4.835   2.199   1.607
 9015SOL    HW227945   4.694   2.263   1.557
 9016SOL     OW27946   6.469   5.880   6.755
 9016SOL    HW127947   6.444   5.785   6.774
 9016SOL    HW227948   6.514   5.920   6.835
 9017SOL     OW27949   4.801   1.318   4.055
 9017SOL    HW127950   4.839   1.378   4.125
 9017SOL    HW227951   4.769   1.373   3.978
 9018SOL     OW27952   2.545   3.591   5.366
 9018SOL    HW127953   2.632   3.595   5.318
 9018SOL    HW227954   2.544   3.513   5.428
 9019SOL     OW27955   1.232   5.204   2.728
 9019SOL    HW127956   1.314   5.187   2.782
 9019SOL    HW227957   1.179   5.120   2.721
 9020SOL     OW27958   6.759   4.266   1.065
 9020SOL    HW127959   6.850   4.276   1.103
 9020SOL    HW227960   6.700   4.339   1.099
 9021SOL     OW27961   6.739   1.334   3.382
 9021SOL    HW127962   6.653   1.379   3.359
 9021SOL    HW227963   6.808   1.356   3.313
 9022SOL     OW27964   3.463   1.388   0.162
 9022SOL    HW127965   3.450   1.413   0.066
 9022SOL    HW227966   3.447   1.468   0.220
 9023SOL     OW27967   4.021   3.732   1.626
 9023SOL    HW127968   4.061   3.684   1.704
 9023SOL    HW227969   3.926   3.702   1.614
 9024SOL     OW27970   1.337   4.089   5.534
 9024SOL    HW127971   1.327   4.136   5.622
 9024SOL    HW227972   1.321   3.991   5.546
 9025SOL     OW27973   0.410   5.116   0.893
 9025SOL    HW127974   0.347   5.040   0.881
 9025SOL    HW227975   0.381   5.193   0.835
 9026SOL     OW27976   3.721   2.090   1.227
 9026SOL    HW127977   3.715   2.165   1.293
 9026SOL    HW227978   3.632   2.078   1.183
 9027SOL     OW27979   0.662   3.345   2.991
 9027SOL    HW127980   0.691   3.282   2.919
 9027SOL    HW227981   0.655   3.296   3.078
 9028SOL     OW27982   3.402   3.032   5.051
 9028SOL    HW127983   3.493   3.064   5.080
 9028SOL    HW227984   3.371   2.961   5.114
 9029SOL     OW27985   3.993   6.696   5.073
 9029SOL    HW127986   3.915   6.671   5.131
 9029SOL    HW227987   3.962   6.704   4.978
 9030SOL     OW27988   2.294   1.973   3.685
 9030SOL    HW127989   2.358   2.041   3.651
 9030SOL    HW227990   2.333   1.882   3.674
 9031SOL     OW27991   4.136   6.830   4.361
 9031SOL    HW127992   4.187   6.838   4.446
 9031SOL    HW227993   4.144   6.916   4.310
 9032SOL     OW27994   4.593   4.438   0.910
 9032SOL    HW127995   4.656   4.392   0.848
 9032SOL    HW227996   4.598   4.396   1.000
 9033SOL     OW27997   0.890   4.570   2.688
 9033SOL    HW127998   0.907   4.599   2.594
 9033SOL    HW227999   0.929   4.637   2.751
 9034SOL     OW28000   3.288   5.899   4.691
 9034SOL    HW128001   3.335   5.952   4.621
 9034SOL    HW228002   3.189   5.906   4.678
 9035SOL     OW28003   2.652   5.115   0.023
 9035SOL    HW128004   2.594   5.036   0.044
 9035SOL    HW228005   2.736   5.083   7.007
 9036SOL     OW28006   2.159   3.509   5.768
 9036SOL    HW128007   2.167   3.581   5.699
 9036SOL    HW228008   2.167   3.420   5.724
 9037SOL     OW28009   1.289   3.633   3.696
 9037SOL    HW128010   1.332   3.631   3.786
 9037SOL    HW228011   1.206   3.576   3.697
 9038SOL     OW28012   4.483   2.474   6.744
 9038SOL    HW128013   4.484   2.562   6.791
 9038SOL    HW228014   4.432   2.483   6.658
 9039SOL     OW28015   2.537   4.556   6.267
 9039SOL    HW128016   2.629   4.582   6.235
 9039SOL    HW228017   2.474   4.558   6.190
 9040SOL     OW28018   2.694   2.286   2.495
 9040SOL    HW128019   2.641   2.371   2.491
 9040SOL    HW228020   2.713   2.264   2.590
 9041SOL     OW28021   0.985   2.220   1.036
 9041SOL    HW128022   0.941   2.142   0.991
 9041SOL    HW228023   1.023   2.190   1.124
 9042SOL     OW28024   3.733   0.315   4.324
 9042SOL    HW128025   3.806   0.305   4.257
 9042SOL    HW228026   3.757   0.386   4.390
 9043SOL     OW28027   2.569   1.214   6.274
 9043SOL    HW128028   2.655   1.226   6.224
 9043SOL    HW228029   2.523   1.302   6.283
 9044SOL     OW28030   6.904   1.101   0.447
 9044SOL    HW128031   6.909   1.038   0.370
 9044SOL    HW228032   6.878   1.192   0.415
 9045SOL     OW28033   3.401   0.844   2.490
 9045SOL    HW128034   3.454   0.796   2.560
 9045SOL    HW228035   3.426   0.941   2.490
 9046SOL     OW28036   3.752   4.083   2.833
 9046SOL    HW128037   3.739   3.984   2.826
 9046SOL    HW228038   3.824   4.103   2.899
 9047SOL     OW28039   1.428   3.704   4.730
 9047SOL    HW128040   1.372   3.691   4.648
 9047SOL    HW228041   1.390   3.648   4.804
 9048SOL     OW28042   6.389   2.686   6.145
 9048SOL    HW128043   6.327   2.725   6.077
 9048SOL    HW228044   6.409   2.591   6.122
 9049SOL     OW28045   4.378   6.342   5.558
 9049SOL    HW128046   4.389   6.268   5.491
 9049SOL    HW228047   4.367   6.302   5.649
 9050SOL     OW28048   0.266   3.449   1.437
 9050SOL    HW128049   0.254   3.539   1.396
 9050SOL    HW228050   0.349   3.407   1.401
 9051SOL     OW28051   2.291   0.016   1.467
 9051SOL    HW128052   2.325   6.956   1.433
 9051SOL    HW228053   2.303   0.019   1.567
 9052SOL     OW28054   2.257   2.899   4.050
 9052SOL    HW128055   2.192   2.833   4.012
 9052SOL    HW228056   2.345   2.854   4.065
 9053SOL     OW28057   1.986   1.046   1.692
 9053SOL    HW128058   1.986   1.030   1.791
 9053SOL    HW228059   2.004   0.960   1.645
 9054SOL     OW28060   2.736   5.926   4.912
 9054SOL    HW128061   2.801   5.856   4.943
 9054SOL    HW228062   2.785   6.011   4.894
 9055SOL     OW28063   6.376   2.539   3.685
 9055SOL    HW128064   6.386   2.601   3.763
 9055SOL    HW228065   6.452   2.554   3.621
 9056SOL     OW28066   0.056   2.133   1.620
 9056SOL    HW128067   0.086   2.045   1.656
 9056SOL    HW228068   0.059   2.130   1.520
 9057SOL     OW28069   4.537   2.540   5.124
 9057SOL    HW128070   4.526   2.559   5.026
 9057SOL    HW228071   4.554   2.625   5.173
 9058SOL     OW28072   1.502   1.314   1.544
 9058SOL    HW128073   1.525   1.231   1.493
 9058SOL    HW228074   1.541   1.309   1.636
 9059SOL     OW28075   1.061   2.203   3.334
 9059SOL    HW128076   1.130   2.153   3.388
 9059SOL    HW228077   1.107   2.259   3.266
 9060SOL     OW28078   5.967   2.824   4.576
 9060SOL    HW128079   6.022   2.751   4.618
 9060SOL    HW228080   6.027   2.892   4.535
 9061SOL     OW28081   3.120   5.605   2.441
 9061SOL    HW128082   3.070   5.560   2.514
 9061SOL    HW228083   3.055   5.647   2.378
 9062SOL     OW28084   1.126   6.157   1.365
 9062SOL    HW128085   1.200   6.144   1.299
 9062SOL    HW228086   1.162   6.148   1.458
 9063SOL     OW28087   2.916   0.307   3.556
 9063SOL    HW128088   2.972   0.227   3.535
 9063SOL    HW228089   2.905   0.314   3.656
 9064SOL     OW28090   6.354   3.519   6.398
 9064SOL    HW128091   6.310   3.580   6.464
 9064SOL    HW228092   6.384   3.572   6.319
 9065SOL     OW28093   3.928   6.989   0.047
 9065SOL    HW128094   3.864   6.999   0.123
 9065SOL    HW228095   3.994   0.036   0.049
 9066SOL     OW28096   4.947   0.213   0.047
 9066SOL    HW128097   4.966   0.172   6.987
 9066SOL    HW228098   4.923   0.141   0.112
 9067SOL     OW28099   1.372   0.567   3.714
 9067SOL    HW128100   1.291   0.592   3.660
 9067SOL    HW228101   1.440   0.640   3.708
 9068SOL     OW28102   1.391   6.967   4.994
 9068SOL    HW128103   1.379   7.000   5.087
 9068SOL    HW228104   1.484   6.988   4.962
 9069SOL     OW28105   1.067   3.059   6.904
 9069SOL    HW128106   1.098   3.071   6.998
 9069SOL    HW228107   1.126   2.992   6.858
 9070SOL     OW28108   1.860   3.627   4.999
 9070SOL    HW128109   1.924   3.559   4.964
 9070SOL    HW228110   1.770   3.613   4.958
 9071SOL     OW28111   6.572   6.388   0.613
 9071SOL    HW128112   6.649   6.386   0.549
 9071SOL    HW228113   6.605   6.368   0.705
 9072SOL     OW28114   6.726   3.003   0.969
 9072SOL    HW128115   6.736   2.903   0.967
 9072SOL    HW228116   6.673   3.029   1.050
 9073SOL     OW28117   1.963   6.938   1.870
 9073SOL    HW128118   1.913   6.852   1.878
 9073SOL    HW228119   1.902   7.009   1.837
 9074SOL     OW28120   1.265   0.815   2.755
 9074SOL    HW128121   1.325   0.894   2.740
 9074SOL    HW228122   1.204   0.833   2.833
 9075SOL     OW28123   7.008   1.173   2.450
 9075SOL    HW128124   6.926   1.155   2.395
 9075SOL    HW228125   0.032   1.247   2.408
 9076SOL     OW28126   0.855   1.149   6.843
 9076SOL    HW128127   0.878   1.246   6.836
 9076SOL    HW228128   0.770   1.131   6.793
 9077SOL     OW28129   4.631   6.462   1.521
 9077SOL    HW128130   4.584   6.532   1.575
 9077SOL    HW228131   4.693   6.411   1.581
 9078SOL     OW28132   3.403   3.043   4.470
 9078SOL    HW128133   3.431   3.085   4.556
 9078SOL    HW228134   3.303   3.044   4.463
 9079SOL     OW28135   2.601   0.564   4.493
 9079SOL    HW128136   2.676   0.503   4.469
 9079SOL    HW228137   2.638   0.651   4.526
 9080SOL     OW28138   4.974   2.767   6.684
 9080SOL    HW128139   5.015   2.761   6.594
 9080SOL    HW228140   4.961   2.864   6.709
 9081SOL     OW28141   5.227   5.979   2.981
 9081SOL    HW128142   5.280   6.050   3.028
 9081SOL    HW228143   5.153   5.947   3.041
 9082SOL     OW28144   1.304   7.014   4.677
 9082SOL    HW128145   1.335   6.992   4.769
 9082SOL    HW228146   1.377   0.033   4.628
 9083SOL     OW28147   4.672   4.415   6.010
 9083SOL    HW128148   4.766   4.406   6.042
 9083SOL    HW228149   4.667   4.487   5.940
 9084SOL     OW28150   3.741   3.589   3.039
 9084SOL    HW128151   3.663   3.546   2.994
 9084SOL    HW228152   3.752   3.552   3.130
 9085SOL     OW28153   2.278   0.872   0.786
 9085SOL    HW128154   2.237   0.961   0.767
 9085SOL    HW228155   2.207   0.810   0.821
 9086SOL     OW28156   0.307   4.333   0.487
 9086SOL    HW128157   0.392   4.328   0.539
 9086SOL    HW228158   0.296   4.426   0.451
 9087SOL     OW28159   5.307   3.026   2.570
 9087SOL    HW128160   5.258   3.031   2.483
 9087SOL    HW228161   5.399   3.063   2.559
 9088SOL     OW28162   6.216   0.466   0.515
 9088SOL    HW128163   6.314   0.452   0.502
 9088SOL    HW228164   6.200   0.554   0.560
 9089SOL     OW28165   4.953   6.441   5.685
 9089SOL    HW128166   4.959   6.525   5.631
 9089SOL    HW228167   5.018   6.374   5.650
 9090SOL     OW28168   6.163   0.921   5.125
 9090SOL    HW128169   6.213   0.861   5.063
 9090SOL    HW228170   6.128   1.001   5.076
 9091SOL     OW28171   3.100   3.307   6.461
 9091SOL    HW128172   3.063   3.398   6.440
 9091SOL    HW228173   3.073   3.243   6.390
 9092SOL     OW28174   6.745   1.300   0.089
 9092SOL    HW128175   6.752   1.209   0.050
 9092SOL    HW228176   6.745   1.368   0.015
 9093SOL     OW28177   1.806   5.737   5.235
 9093SOL    HW128178   1.830   5.768   5.327
 9093SOL    HW228179   1.713   5.699   5.235
 9094SOL     OW28180   0.599   3.726   3.191
 9094SOL    HW128181   0.695   3.750   3.206
 9094SOL    HW228182   0.574   3.750   3.097
 9095SOL     OW28183   4.427   4.702   5.568
 9095SOL    HW128184   4.403   4.605   5.563
 9095SOL    HW228185   4.526   4.711   5.573
 9096SOL     OW28186   6.485   4.714   3.538
 9096SOL    HW128187   6.515   4.685   3.447
 9096SOL    HW228188   6.515   4.808   3.554
 9097SOL     OW28189   1.408   2.636   6.340
 9097SOL    HW128190   1.356   2.672   6.263
 9097SOL    HW228191   1.344   2.603   6.410
 9098SOL     OW28192   2.245   2.035   5.145
 9098SOL    HW128193   2.264   2.078   5.057
 9098SOL    HW228194   2.173   1.966   5.134
 9099SOL     OW28195   2.551   2.800   6.419
 9099SOL    HW128196   2.556   2.834   6.325
 9099SOL    HW228197   2.548   2.876   6.483
 9100SOL     OW28198   0.822   3.710   2.436
 9100SOL    HW128199   0.826   3.757   2.524
 9100SOL    HW228200   0.875   3.625   2.441
 9101SOL     OW28201   2.999   1.373   2.765
 9101SOL    HW128202   2.917   1.326   2.799
 9101SOL    HW228203   2.997   1.468   2.794
 9102SOL     OW28204   4.384   6.534   2.665
 9102SOL    HW128205   4.420   6.615   2.713
 9102SOL    HW228206   4.405   6.452   2.719
 9103SOL     OW28207   5.954   1.295   6.886
 9103SOL    HW128208   6.030   1.308   6.950
 9103SOL    HW228209   5.988   1.296   6.793
 9104SOL     OW28210   6.573   0.807   1.453
 9104SOL    HW128211   6.500   0.765   1.399
 9104SOL    HW228212   6.613   0.738   1.514
 9105SOL     OW28213   1.044   6.765   5.438
 9105SOL    HW128214   0.968   6.711   5.472
 9105SOL    HW228215   1.047   6.853   5.486
 9106SOL     OW28216   0.769   4.074   0.342
 9106SOL    HW128217   0.778   4.100   0.438
 9106SOL    HW228218   0.672   4.061   0.319
 9107SOL     OW28219   2.606   0.171   6.421
 9107SOL    HW128220   2.701   0.197   6.440
 9107SOL    HW228221   2.545   0.247   6.445
 9108SOL     OW28222   5.324   5.029   5.371
 9108SOL    HW128223   5.260   5.028   5.294
 9108SOL    HW228224   5.390   4.955   5.361
 9109SOL     OW28225   4.940   3.180   2.596
 9109SOL    HW128226   4.932   3.156   2.693
 9109SOL    HW228227   4.932   3.098   2.540
 9110SOL     OW28228   0.898   5.663   4.689
 9110SOL    HW128229   0.968   5.733   4.702
 9110SOL    HW228230   0.821   5.701   4.638
 9111SOL     OW28231   4.696   3.094   5.892
 9111SOL    HW128232   4.788   3.089   5.931
 9111SOL    HW228233   4.629   3.099   5.966
 9112SOL     OW28234   1.970   5.142   2.871
 9112SOL    HW128235   1.960   5.042   2.873
 9112SOL    HW228236   2.011   5.173   2.957
 9113SOL     OW28237   5.266   2.536   3.449
 9113SOL    HW128238   5.318   2.534   3.364
 9113SOL    HW228239   5.313   2.480   3.517
 9114SOL     OW28240   1.694   6.071   4.390
 9114SOL    HW128241   1.785   6.074   4.432
 9114SOL    HW228242   1.668   6.162   4.359
 9115SOL     OW28243   5.442   4.649   3.495
 9115SOL    HW128244   5.525   4.633   3.548
 9115SOL    HW228245   5.423   4.747   3.491
 9116SOL     OW28246   0.379   6.907   3.361
 9116SOL    HW128247   0.316   6.980   3.333
 9116SOL    HW228248   0.430   6.875   3.281
 9117SOL     OW28249   4.286   1.222   6.860
 9117SOL    HW128250   4.197   1.185   6.884
 9117SOL    HW228251   4.335   1.249   6.943
 9118SOL     OW28252   6.221   3.489   0.616
 9118SOL    HW128253   6.314   3.480   0.649
 9118SOL    HW228254   6.158   3.450   0.684
 9119SOL     OW28255   3.630   6.572   1.086
 9119SOL    HW128256   3.616   6.564   0.987
 9119SOL    HW228257   3.724   6.601   1.104
 9120SOL     OW28258   6.686   2.666   6.287
 9120SOL    HW128259   6.671   2.720   6.204
 9120SOL    HW228260   6.773   2.617   6.279
 9121SOL     OW28261   4.178   0.612   5.460
 9121SOL    HW128262   4.137   0.534   5.507
 9121SOL    HW228263   4.275   0.594   5.443
 9122SOL     OW28264   2.434   4.259   1.902
 9122SOL    HW128265   2.350   4.210   1.922
 9122SOL    HW228266   2.442   4.338   1.963
 9123SOL     OW28267   1.810   0.138   3.278
 9123SOL    HW128268   1.812   0.083   3.194
 9123SOL    HW228269   1.824   0.078   3.357
 9124SOL     OW28270   3.778   5.204   1.571
 9124SOL    HW128271   3.733   5.173   1.655
 9124SOL    HW228272   3.709   5.236   1.506
 9125SOL     OW28273   3.413   5.783   6.890
 9125SOL    HW128274   3.420   5.685   6.909
 9125SOL    HW228275   3.318   5.812   6.901
 9126SOL     OW28276   4.484   4.692   0.999
 9126SOL    HW128277   4.540   4.611   0.979
 9126SOL    HW228278   4.517   4.770   0.946
 9127SOL     OW28279   6.903   3.757   4.872
 9127SOL    HW128280   6.856   3.835   4.831
 9127SOL    HW228281   6.836   3.696   4.915
 9128SOL     OW28282   6.100   2.963   4.872
 9128SOL    HW128283   6.169   2.896   4.845
 9128SOL    HW228284   6.029   2.968   4.801
 9129SOL     OW28285   2.163   1.946   0.861
 9129SOL    HW128286   2.151   1.865   0.919
 9129SOL    HW228287   2.173   2.027   0.919
 9130SOL     OW28288   2.777   4.419   5.592
 9130SOL    HW128289   2.803   4.324   5.610
 9130SOL    HW228290   2.707   4.420   5.521
 9131SOL     OW28291   6.359   2.911   0.982
 9131SOL    HW128292   6.383   2.966   0.902
 9131SOL    HW228293   6.298   2.837   0.954
 9132SOL     OW28294   1.149   4.716   3.488
 9132SOL    HW128295   1.180   4.795   3.435
 9132SOL    HW228296   1.145   4.636   3.429
 9133SOL     OW28297   4.296   0.766   1.025
 9133SOL    HW128298   4.383   0.730   0.991
 9133SOL    HW228299   4.245   0.807   0.950
 9134SOL     OW28300   4.764   5.291   0.977
 9134SOL    HW128301   4.843   5.269   0.921
 9134SOL    HW228302   4.769   5.387   1.006
 9135SOL     OW28303   1.365   5.908   1.421
 9135SOL    HW128304   1.280   5.855   1.419
 9135SOL    HW228305   1.371   5.964   1.339
 9136SOL     OW28306   5.459   5.204   6.290
 9136SOL    HW128307   5.396   5.281   6.286
 9136SOL    HW228308   5.448   5.157   6.378
 9137SOL     OW28309   4.665   6.313   6.342
 9137SOL    HW128310   4.568   6.323   6.321
 9137SOL    HW228311   4.706   6.403   6.355
 9138SOL     OW28312   2.751   2.640   0.425
 9138SOL    HW128313   2.710   2.580   0.356
 9138SOL    HW228314   2.796   2.717   0.381
 9139SOL     OW28315   7.011   0.047   1.007
 9139SOL    HW128316   6.969   0.135   1.031
 9139SOL    HW228317   0.058   0.029   1.069
 9140SOL     OW28318   0.548   4.025   2.585
 9140SOL    HW128319   0.532   3.990   2.493
 9140SOL    HW228320   0.624   3.976   2.627
 9141SOL     OW28321   0.168   5.464   5.879
 9141SOL    HW128322   0.106   5.503   5.811
 9141SOL    HW228323   0.115   5.425   5.954
 9142SOL     OW28324   1.145   3.805   2.645
 9142SOL    HW128325   1.087   3.727   2.669
 9142SOL    HW228326   1.099   3.890   2.669
 9143SOL     OW28327   0.525   3.805   2.935
 9143SOL    HW128328   0.475   3.876   2.885
 9143SOL    HW228329   0.490   3.715   2.911
 9144SOL     OW28330   2.735   5.062   5.162
 9144SOL    HW128331   2.819   5.097   5.202
 9144SOL    HW228332   2.657   5.090   5.217
 9145SOL     OW28333   1.092   6.808   6.612
 9145SOL    HW128334   1.106   6.903   6.641
 9145SOL    HW228335   1.007   6.773   6.652
 9146SOL     OW28336   5.540   3.057   3.312
 9146SOL    HW128337   5.484   2.974   3.305
 9146SOL    HW228338   5.632   3.032   3.342
 9147SOL     OW28339   5.433   6.813   3.992
 9147SOL    HW128340   5.446   6.838   3.897
 9147SOL    HW228341   5.508   6.755   4.022
 9148SOL     OW28342   6.705   0.106   1.437
 9148SOL    HW128343   6.690   0.200   1.466
 9148SOL    HW228344   6.637   0.081   1.369
 9149SOL     OW28345   6.140   3.843   1.240
 9149SOL    HW128346   6.238   3.854   1.259
 9149SOL    HW228347   6.089   3.916   1.285
 9150SOL     OW28348   2.474   4.283   6.914
 9150SOL    HW128349   2.560   4.262   6.959
 9150SOL    HW228350   2.482   4.266   6.816
 9151SOL     OW28351   1.691   3.860   3.786
 9151SOL    HW128352   1.642   3.946   3.770
 9151SOL    HW228353   1.767   3.853   3.721
 9152SOL     OW28354   2.149   4.249   3.844
 9152SOL    HW128355   2.234   4.258   3.792
 9152SOL    HW228356   2.164   4.189   3.923
 9153SOL     OW28357   0.496   2.463   6.609
 9153SOL    HW128358   0.508   2.559   6.584
 9153SOL    HW228359   0.435   2.456   6.688
 9154SOL     OW28360   5.757   5.179   3.184
 9154SOL    HW128361   5.825   5.237   3.140
 9154SOL    HW228362   5.803   5.112   3.242
 9155SOL     OW28363   0.866   5.928   2.360
 9155SOL    HW128364   0.769   5.920   2.337
 9155SOL    HW228365   0.920   5.917   2.277
 9156SOL     OW28366   6.999   3.998   0.401
 9156SOL    HW128367   7.002   3.924   0.333
 9156SOL    HW228368   0.029   4.073   0.370
 9157SOL     OW28369   3.178   4.286   6.753
 9157SOL    HW128370   3.274   4.265   6.770
 9157SOL    HW228371   3.156   4.375   6.794
 9158SOL     OW28372   0.561   3.790   3.715
 9158SOL    HW128373   0.593   3.776   3.621
 9158SOL    HW228374   0.563   3.702   3.764
 9159SOL     OW28375   3.441   0.107   3.306
 9159SOL    HW128376   3.456   0.010   3.287
 9159SOL    HW228377   3.343   0.125   3.313
 9160SOL     OW28378   0.574   4.958   6.818
 9160SOL    HW128379   0.520   5.009   6.750
 9160SOL    HW228380   0.521   4.948   6.902
 9161SOL     OW28381   5.550   3.856   1.589
 9161SOL    HW128382   5.541   3.817   1.497
 9161SOL    HW228383   5.646   3.857   1.615
 9162SOL     OW28384   5.006   2.299   2.119
 9162SOL    HW128385   4.973   2.310   2.213
 9162SOL    HW228386   4.987   2.382   2.066
 9163SOL     OW28387   1.561   1.531   3.006
 9163SOL    HW128388   1.564   1.569   2.914
 9163SOL    HW228389   1.465   1.520   3.034
 9164SOL     OW28390   2.580   0.680   6.897
 9164SOL    HW128391   2.556   0.760   6.841
 9164SOL    HW228392   2.679   0.666   6.894
 9165SOL     OW28393   4.769   2.668   5.325
 9165SOL    HW128394   4.833   2.686   5.399
 9165SOL    HW228395   4.692   2.732   5.331
 9166SOL     OW28396   5.002   5.791   2.037
 9166SOL    HW128397   4.908   5.762   2.022
 9166SOL    HW228398   5.005   5.890   2.049
 9167SOL     OW28399   1.243   0.895   5.880
 9167SOL    HW128400   1.307   0.851   5.817
 9167SOL    HW228401   1.246   0.994   5.866
 9168SOL     OW28402   6.259   5.748   4.450
 9168SOL    HW128403   6.287   5.652   4.458
 9168SOL    HW228404   6.280   5.781   4.358
 9169SOL     OW28405   6.265   6.269   0.194
 9169SOL    HW128406   6.275   6.296   0.289
 9169SOL    HW228407   6.173   6.232   0.179
 9170SOL     OW28408   1.331   1.586   6.306
 9170SOL    HW128409   1.252   1.608   6.364
 9170SOL    HW228410   1.320   1.629   6.216
 9171SOL     OW28411   3.444   4.689   0.704
 9171SOL    HW128412   3.514   4.761   0.703
 9171SOL    HW228413   3.447   4.641   0.791
 9172SOL     OW28414   5.301   1.313   4.661
 9172SOL    HW128415   5.256   1.268   4.738
 9172SOL    HW228416   5.312   1.410   4.680
 9173SOL     OW28417   6.390   2.574   4.144
 9173SOL    HW128418   6.295   2.544   4.132
 9173SOL    HW228419   6.414   2.570   4.241
 9174SOL     OW28420   0.744   5.730   6.907
 9174SOL    HW128421   0.776   5.794   6.836
 9174SOL    HW228422   0.780   5.759   6.996
 9175SOL     OW28423   1.848   6.971   6.824
 9175SOL    HW128424   1.921   6.903   6.819
 9175SOL    HW228425   1.851   7.015   6.914
 9176SOL     OW28426   1.687   1.267   2.766
 9176SOL    HW128427   1.612   1.221   2.718
 9176SOL    HW228428   1.696   1.228   2.858
 9177SOL     OW28429   0.321   4.466   3.791
 9177SOL    HW128430   0.382   4.545   3.794
 9177SOL    HW228431   0.264   4.470   3.709
 9178SOL     OW28432   1.721   6.464   0.386
 9178SOL    HW128433   1.798   6.463   0.450
 9178SOL    HW228434   1.755   6.484   0.294
 9179SOL     OW28435   4.428   6.353   5.135
 9179SOL    HW128436   4.391   6.278   5.080
 9179SOL    HW228437   4.353   6.412   5.165
 9180SOL     OW28438   6.739   1.832   3.758
 9180SOL    HW128439   6.681   1.913   3.747
 9180SOL    HW228440   6.811   1.851   3.824
 9181SOL     OW28441   3.861   1.705   3.797
 9181SOL    HW128442   3.778   1.650   3.807
 9181SOL    HW228443   3.911   1.705   3.884
 9182SOL     OW28444   2.031   1.346   3.321
 9182SOL    HW128445   2.077   1.263   3.290
 9182SOL    HW228446   1.936   1.326   3.344
 9183SOL     OW28447   5.749   2.710   6.118
 9183SOL    HW128448   5.670   2.771   6.110
 9183SOL    HW228449   5.759   2.656   6.035
 9184SOL     OW28450   3.934   3.040   1.198
 9184SOL    HW128451   3.925   3.028   1.297
 9184SOL    HW228452   3.959   2.952   1.157
 9185SOL     OW28453   0.606   0.413   6.522
 9185SOL    HW128454   0.629   0.449   6.432
 9185SOL    HW228455   0.691   0.392   6.572
 9186SOL     OW28456   5.299   0.758   6.300
 9186SOL    HW128457   5.372   0.692   6.317
 9186SOL    HW228458   5.295   0.780   6.203
 9187SOL     OW28459   5.188   1.731   0.372
 9187SOL    HW128460   5.203   1.821   0.414
 9187SOL    HW228461   5.245   1.663   0.418
 9188SOL     OW28462   0.800   6.797   1.956
 9188SOL    HW128463   0.759   6.710   1.928
 9188SOL    HW228464   0.835   6.845   1.876
 9189SOL     OW28465   3.299   1.504   3.924
 9189SOL    HW128466   3.230   1.438   3.894
 9189SOL    HW228467   3.357   1.462   3.994
 9190SOL     OW28468   5.909   4.180   5.423
 9190SOL    HW128469   5.823   4.211   5.465
 9190SOL    HW228470   5.901   4.184   5.323
 9191SOL     OW28471   5.018   6.317   6.293
 9191SOL    HW128472   4.955   6.248   6.259
 9191SOL    HW228473   5.014   6.320   6.393
 9192SOL     OW28474   6.605   4.014   5.680
 9192SOL    HW128475   6.533   3.969   5.734
 9192SOL    HW228476   6.623   4.105   5.717
 9193SOL     OW28477   3.797   2.920   3.506
 9193SOL    HW128478   3.758   3.009   3.528
 9193SOL    HW228479   3.750   2.849   3.559
 9194SOL     OW28480   2.875   5.326   3.175
 9194SOL    HW128481   2.946   5.390   3.204
 9194SOL    HW228482   2.871   5.249   3.239
 9195SOL     OW28483   0.598   2.707   3.639
 9195SOL    HW128484   0.552   2.705   3.550
 9195SOL    HW228485   0.696   2.690   3.626
 9196SOL     OW28486   4.213   0.404   2.870
 9196SOL    HW128487   4.276   0.332   2.842
 9196SOL    HW228488   4.247   0.493   2.837
 9197SOL     OW28489   3.068   2.764   6.478
 9197SOL    HW128490   3.022   2.721   6.556
 9197SOL    HW228491   3.010   2.757   6.397
 9198SOL     OW28492   5.980   2.945   6.044
 9198SOL    HW128493   5.964   2.995   5.958
 9198SOL    HW228494   5.911   2.874   6.054
 9199SOL     OW28495   1.670   4.342   6.489
 9199SOL    HW128496   1.645   4.245   6.481
 9199SOL    HW228497   1.640   4.376   6.578
 9200SOL     OW28498   6.372   0.123   0.288
 9200SOL    HW128499   6.376   0.073   0.374
 9200SOL    HW228500   6.422   0.209   0.298
 9201SOL     OW28501   0.173   3.953   2.190
 9201SOL    HW128502   0.113   3.976   2.114
 9201SOL    HW228503   0.265   3.986   2.171
 9202SOL     OW28504   2.809   5.178   4.312
 9202SOL    HW128505   2.796   5.262   4.259
 9202SOL    HW228506   2.907   5.163   4.326
 9203SOL     OW28507   5.106   1.069   5.605
 9203SOL    HW128508   5.095   1.163   5.638
 9203SOL    HW228509   5.028   1.014   5.635
 9204SOL     OW28510   5.609   4.093   2.954
 9204SOL    HW128511   5.663   4.014   2.981
 9204SOL    HW228512   5.651   4.176   2.992
 9205SOL     OW28513   5.832   2.637   2.948
 9205SOL    HW128514   5.810   2.562   3.010
 9205SOL    HW228515   5.752   2.657   2.890
 9206SOL     OW28516   1.272   6.741   3.363
 9206SOL    HW128517   1.337   6.782   3.426
 9206SOL    HW228518   1.183   6.732   3.407
 9207SOL     OW28519   4.077   6.280   6.660
 9207SOL    HW128520   4.025   6.314   6.739
 9207SOL    HW228521   4.019   6.281   6.579
 9208SOL     OW28522   5.249   3.342   2.119
 9208SOL    HW128523   5.163   3.310   2.079
 9208SOL    HW228524   5.304   3.387   2.048
 9209SOL     OW28525   4.149   1.032   2.649
 9209SOL    HW128526   4.090   0.980   2.587
 9209SOL    HW228527   4.093   1.077   2.719
 9210SOL     OW28528   2.209   0.020   1.082
 9210SOL    HW128529   2.148   7.024   1.007
 9210SOL    HW228530   2.155   0.051   1.160
 9211SOL     OW28531   5.086   1.807   6.582
 9211SOL    HW128532   5.038   1.737   6.529
 9211SOL    HW228533   5.182   1.808   6.555
 9212SOL     OW28534   5.512   4.541   4.554
 9212SOL    HW128535   5.585   4.493   4.601
 9212SOL    HW228536   5.486   4.622   4.608
 9213SOL     OW28537   5.856   6.669   3.493
 9213SOL    HW128538   5.757   6.655   3.498
 9213SOL    HW228539   5.901   6.613   3.562
 9214SOL     OW28540   2.401   2.348   4.481
 9214SOL    HW128541   2.320   2.402   4.502
 9214SOL    HW228542   2.483   2.400   4.506
 9215SOL     OW28543   0.367   4.010   2.803
 9215SOL    HW128544   0.269   4.015   2.783
 9215SOL    HW228545   0.419   4.039   2.722
 9216SOL     OW28546   2.686   6.062   5.199
 9216SOL    HW128547   2.700   6.004   5.119
 9216SOL    HW228548   2.630   6.014   5.266
 9217SOL     OW28549   4.515   1.289   6.449
 9217SOL    HW128550   4.426   1.245   6.453
 9217SOL    HW228551   4.519   1.363   6.516
 9218SOL     OW28552   6.036   6.215   5.877
 9218SOL    HW128553   5.996   6.165   5.954
 9218SOL    HW228554   6.027   6.313   5.893
 9219SOL     OW28555   3.585   3.183   5.213
 9219SOL    HW128556   3.664   3.154   5.265
 9219SOL    HW228557   3.519   3.227   5.274
 9220SOL     OW28558   1.503   6.312   3.107
 9220SOL    HW128559   1.461   6.362   3.183
 9220SOL    HW228560   1.489   6.364   3.022
 9221SOL     OW28561   2.379   0.912   6.536
 9221SOL    HW128562   2.347   1.004   6.557
 9221SOL    HW228563   2.440   0.879   6.608
 9222SOL     OW28564   1.665   4.229   3.338
 9222SOL    HW128565   1.761   4.232   3.310
 9222SOL    HW228566   1.608   4.205   3.259
 9223SOL     OW28567   1.225   3.702   4.543
 9223SOL    HW128568   1.170   3.785   4.546
 9223SOL    HW228569   1.276   3.698   4.457
 9224SOL     OW28570   2.008   4.099   3.568
 9224SOL    HW128571   2.017   4.154   3.651
 9224SOL    HW228572   1.992   4.003   3.593
 9225SOL     OW28573   4.533   0.062   6.291
 9225SOL    HW128574   4.603   0.014   6.236
 9225SOL    HW228575   4.540   0.032   6.386
 9226SOL     OW28576   0.957   0.159   0.634
 9226SOL    HW128577   1.045   0.114   0.617
 9226SOL    HW228578   0.889   0.126   0.568
 9227SOL     OW28579   2.697   5.308   0.930
 9227SOL    HW128580   2.729   5.376   0.996
 9227SOL    HW228581   2.709   5.343   0.837
 9228SOL     OW28582   3.133   2.621   5.762
 9228SOL    HW128583   3.135   2.523   5.780
 9228SOL    HW228584   3.056   2.663   5.811
 9229SOL     OW28585   6.959   4.810   6.775
 9229SOL    HW128586   6.973   4.909   6.779
 9229SOL    HW228587   6.867   4.791   6.743
 9230SOL     OW28588   4.995   1.667   4.057
 9230SOL    HW128589   5.040   1.740   4.107
 9230SOL    HW228590   5.020   1.579   4.096
 9231SOL     OW28591   0.565   5.311   4.730
 9231SOL    HW128592   0.470   5.292   4.757
 9231SOL    HW228593   0.623   5.233   4.754
 9232SOL     OW28594   1.604   5.316   1.567
 9232SOL    HW128595   1.584   5.273   1.655
 9232SOL    HW228596   1.655   5.401   1.582
 9233SOL     OW28597   0.957   0.663   7.015
 9233SOL    HW128598   1.049   0.636   0.014
 9233SOL    HW228599   0.944   0.761   0.005
 9234SOL     OW28600   2.272   4.904   0.753
 9234SOL    HW128601   2.173   4.888   0.754
 9234SOL    HW228602   2.320   4.816   0.756
 9235SOL     OW28603   2.459   2.653   4.410
 9235SOL    HW128604   2.430   2.634   4.316
 9235SOL    HW228605   2.427   2.744   4.436
 9236SOL     OW28606   2.119   3.330   6.583
 9236SOL    HW128607   2.047   3.398   6.597
 9236SOL    HW228608   2.110   3.258   6.652
 9237SOL     OW28609   6.027   5.462   3.194
 9237SOL    HW128610   6.078   5.504   3.120
 9237SOL    HW228611   5.940   5.509   3.206
 9238SOL     OW28612   1.353   2.996   5.329
 9238SOL    HW128613   1.357   2.908   5.283
 9238SOL    HW228614   1.259   3.014   5.359
 9239SOL     OW28615   0.607   4.777   0.062
 9239SOL    HW128616   0.587   4.707   7.022
 9239SOL    HW228617   0.591   4.739   0.154
 9240SOL     OW28618   4.697   2.624   3.039
 9240SOL    HW128619   4.674   2.718   3.063
 9240SOL    HW228620   4.790   2.621   3.001
 9241SOL     OW28621   6.001   6.467   0.890
 9241SOL    HW128622   5.907   6.476   0.858
 9241SOL    HW228623   6.019   6.372   0.915
 9242SOL     OW28624   1.371   2.148   1.630
 9242SOL    HW128625   1.453   2.204   1.642
 9242SOL    HW228626   1.355   2.133   1.532
 9243SOL     OW28627   0.610   0.547   1.291
 9243SOL    HW128628   0.579   0.533   1.196
 9243SOL    HW228629   0.633   0.643   1.304
 9244SOL     OW28630   4.522   6.811   5.158
 9244SOL    HW128631   4.445   6.802   5.095
 9244SOL    HW228632   4.604   6.838   5.107
 9245SOL     OW28633   1.116   4.627   3.117
 9245SOL    HW128634   1.176   4.706   3.122
 9245SOL    HW228635   1.121   4.575   3.202
 9246SOL     OW28636   6.761   1.261   4.352
 9246SOL    HW128637   6.772   1.352   4.392
 9246SOL    HW228638   6.770   1.266   4.253
 9247SOL     OW28639   3.745   5.340   3.247
 9247SOL    HW128640   3.681   5.315   3.320
 9247SOL    HW228641   3.763   5.438   3.251
 9248SOL     OW28642   2.465   1.394   5.474
 9248SOL    HW128643   2.439   1.488   5.495
 9248SOL    HW228644   2.504   1.390   5.382
 9249SOL     OW28645   3.853   4.894   1.840
 9249SOL    HW128646   3.812   4.806   1.866
 9249SOL    HW228647   3.790   4.968   1.864
 9250SOL     OW28648   0.288   3.501   4.299
 9250SOL    HW128649   0.370   3.454   4.268
 9250SOL    HW228650   0.210   3.471   4.244
 9251SOL     OW28651   3.630   2.274   0.843
 9251SOL    HW128652   3.656   2.279   0.746
 9251SOL    HW228653   3.697   2.323   0.898
 9252SOL     OW28654   5.228   0.276   5.358
 9252SOL    HW128655   5.245   0.248   5.263
 9252SOL    HW228656   5.306   0.329   5.392
 9253SOL     OW28657   1.186   4.691   5.405
 9253SOL    HW128658   1.115   4.622   5.418
 9253SOL    HW228659   1.215   4.691   5.310
 9254SOL     OW28660   6.266   4.964   2.720
 9254SOL    HW128661   6.218   4.916   2.794
 9254SOL    HW228662   6.204   5.028   2.675
 9255SOL     OW28663   5.937   4.588   0.449
 9255SOL    HW128664   5.887   4.648   0.385
 9255SOL    HW228665   5.976   4.511   0.398
 9256SOL     OW28666   1.847   6.700   1.933
 9256SOL    HW128667   1.750   6.709   1.956
 9256SOL    HW228668   1.889   6.627   1.987
 9257SOL     OW28669   0.275   5.432   4.128
 9257SOL    HW128670   0.348   5.392   4.072
 9257SOL    HW228671   0.231   5.506   4.076
 9258SOL     OW28672   3.613   3.849   0.532
 9258SOL    HW128673   3.566   3.772   0.487
 9258SOL    HW228674   3.664   3.901   0.464
 9259SOL     OW28675   2.383   1.993   6.876
 9259SOL    HW128676   2.465   1.940   6.897
 9259SOL    HW228677   2.321   1.938   6.820
 9260SOL     OW28678   5.886   2.725   5.090
 9260SOL    HW128679   5.976   2.767   5.101
 9260SOL    HW228680   5.849   2.750   5.000
 9261SOL     OW28681   4.349   1.878   1.249
 9261SOL    HW128682   4.333   1.930   1.333
 9261SOL    HW228683   4.438   1.833   1.255
 9262SOL     OW28684   6.232   6.372   3.857
 9262SOL    HW128685   6.139   6.377   3.822
 9262SOL    HW228686   6.259   6.461   3.893
 9263SOL     OW28687   2.146   3.835   3.164
 9263SOL    HW128688   2.100   3.906   3.216
 9263SOL    HW228689   2.150   3.751   3.218
 9264SOL     OW28690   4.994   4.386   6.488
 9264SOL    HW128691   5.007   4.353   6.581
 9264SOL    HW228692   4.970   4.310   6.428
 9265SOL     OW28693   4.669   2.034   6.901
 9265SOL    HW128694   4.662   2.124   6.858
 9265SOL    HW228695   4.587   2.018   6.956
 9266SOL     OW28696   0.172   4.331   1.525
 9266SOL    HW128697   0.153   4.386   1.606
 9266SOL    HW228698   0.221   4.386   1.457
 9267SOL     OW28699   0.200   0.860   3.682
 9267SOL    HW128700   0.118   0.914   3.662
 9267SOL    HW228701   0.247   0.900   3.761
 9268SOL     OW28702   0.624   6.527   1.213
 9268SOL    HW128703   0.707   6.475   1.191
 9268SOL    HW228704   0.625   6.613   1.161
 9269SOL     OW28705   4.309   0.461   0.531
 9269SOL    HW128706   4.291   0.417   0.442
 9269SOL    HW228707   4.396   0.510   0.526
 9270SOL     OW28708   2.894   0.976   6.019
 9270SOL    HW128709   2.856   1.021   5.938
 9270SOL    HW228710   2.966   0.913   5.991
 9271SOL     OW28711   0.892   0.638   6.570
 9271SOL    HW128712   0.812   0.669   6.622
 9271SOL    HW228713   0.973   0.640   6.629
 9272SOL     OW28714   6.818   6.537   5.641
 9272SOL    HW128715   6.917   6.523   5.648
 9272SOL    HW228716   6.799   6.602   5.567
 9273SOL     OW28717   4.992   5.261   3.798
 9273SOL    HW128718   5.016   5.355   3.822
 9273SOL    HW228719   4.894   5.247   3.807
 9274SOL     OW28720   0.802   3.512   0.332
 9274SOL    HW128721   0.766   3.594   0.287
 9274SOL    HW228722   0.871   3.539   0.399
 9275SOL     OW28723   0.696   6.194   0.829
 9275SOL    HW128724   0.643   6.171   0.910
 9275SOL    HW228725   0.774   6.132   0.821
 9276SOL     OW28726   3.519   4.599   0.295
 9276SOL    HW128727   3.533   4.631   0.201
 9276SOL    HW228728   3.422   4.607   0.318
 9277SOL     OW28729   4.154   4.744   2.547
 9277SOL    HW128730   4.087   4.786   2.608
 9277SOL    HW228731   4.133   4.770   2.452
 9278SOL     OW28732   0.614   0.673   4.291
 9278SOL    HW128733   0.694   0.651   4.235
 9278SOL    HW228734   0.620   0.625   4.379
 9279SOL     OW28735   4.060   5.177   1.551
 9279SOL    HW128736   3.961   5.168   1.548
 9279SOL    HW228737   4.087   5.224   1.635
 9280SOL     OW28738   1.363   1.318   3.064
 9280SOL    HW128739   1.407   1.319   2.974
 9280SOL    HW228740   1.423   1.271   3.129
 9281SOL     OW28741   3.188   4.342   0.071
 9281SOL    HW128742   3.201   4.346   0.170
 9281SOL    HW228743   3.212   4.250   0.038
 9282SOL     OW28744   3.509   0.136   5.181
 9282SOL    HW128745   3.429   0.083   5.211
 9282SOL    HW228746   3.526   0.117   5.084
 9283SOL     OW28747   4.575   6.208   6.654
 9283SOL    HW128748   4.483   6.194   6.617
 9283SOL    HW228749   4.609   6.297   6.623
 9284SOL     OW28750   2.924   4.083   5.215
 9284SOL    HW128751   2.922   4.155   5.285
 9284SOL    HW228752   3.019   4.052   5.203
 9285SOL     OW28753   6.395   3.474   2.650
 9285SOL    HW128754   6.322   3.453   2.585
 9285SOL    HW228755   6.418   3.393   2.703
 9286SOL     OW28756   4.848   5.995   1.220
 9286SOL    HW128757   4.883   6.088   1.231
 9286SOL    HW228758   4.896   5.950   1.145
 9287SOL     OW28759   3.192   4.719   6.329
 9287SOL    HW128760   3.202   4.812   6.295
 9287SOL    HW228761   3.188   4.720   6.429
 9288SOL     OW28762   4.494   2.123   4.036
 9288SOL    HW128763   4.430   2.153   3.964
 9288SOL    HW228764   4.451   2.052   4.091
 9289SOL     OW28765   4.441   6.313   6.981
 9289SOL    HW128766   4.435   6.262   6.895
 9289SOL    HW228767   4.391   6.264   0.023
 9290SOL     OW28768   5.515   0.622   4.652
 9290SOL    HW128769   5.612   0.605   4.668
 9290SOL    HW228770   5.486   0.576   4.569
 9291SOL     OW28771   1.038   5.302   5.664
 9291SOL    HW128772   1.133   5.309   5.696
 9291SOL    HW228773   1.036   5.324   5.566
 9292SOL     OW28774   1.609   1.632   6.390
 9292SOL    HW128775   1.517   1.601   6.366
 9292SOL    HW228776   1.665   1.554   6.417
 9293SOL     OW28777   4.940   2.955   5.639
 9293SOL    HW128778   4.990   2.884   5.589
 9293SOL    HW228779   4.842   2.942   5.624
 9294SOL     OW28780   4.915   1.065   0.501
 9294SOL    HW128781   4.963   0.978   0.488
 9294SOL    HW228782   4.942   1.129   0.429
 9295SOL     OW28783   0.560   0.757   5.525
 9295SOL    HW128784   0.641   0.778   5.470
 9295SOL    HW228785   0.584   0.690   5.595
 9296SOL     OW28786   2.743   4.613   0.812
 9296SOL    HW128787   2.699   4.645   0.895
 9296SOL    HW228788   2.675   4.608   0.738
 9297SOL     OW28789   6.823   6.658   2.839
 9297SOL    HW128790   6.921   6.666   2.854
 9297SOL    HW228791   6.797   6.562   2.836
 9298SOL     OW28792   1.518   6.385   6.002
 9298SOL    HW128793   1.445   6.439   5.960
 9298SOL    HW228794   1.607   6.423   5.977
 9299SOL     OW28795   2.158   2.592   4.998
 9299SOL    HW128796   2.112   2.503   5.001
 9299SOL    HW228797   2.252   2.580   4.964
 9300SOL     OW28798   1.683   5.787   5.913
 9300SOL    HW128799   1.748   5.858   5.942
 9300SOL    HW228800   1.624   5.823   5.841
 9301SOL     OW28801   0.330   4.169   4.571
 9301SOL    HW128802   0.402   4.124   4.518
 9301SOL    HW228803   0.351   4.266   4.579
 9302SOL     OW28804   2.143   3.304   4.727
 9302SOL    HW128805   2.159   3.387   4.781
 9302SOL    HW228806   2.186   3.226   4.773
 9303SOL     OW28807   2.483   4.329   0.277
 9303SOL    HW128808   2.530   4.246   0.307
 9303SOL    HW228809   2.384   4.317   0.290
 9304SOL     OW28810   5.248   5.072   0.300
 9304SOL    HW128811   5.341   5.039   0.315
 9304SOL    HW228812   5.227   5.143   0.368
 9305SOL     OW28813   3.232   1.529   1.015
 9305SOL    HW128814   3.303   1.465   1.045
 9305SOL    HW228815   3.144   1.481   1.008
 9306SOL     OW28816   0.571   4.408   5.199
 9306SOL    HW128817   0.578   4.453   5.288
 9306SOL    HW228818   0.577   4.309   5.211
 9307SOL     OW28819   2.379   2.977   1.250
 9307SOL    HW128820   2.436   2.914   1.302
 9307SOL    HW228821   2.365   3.061   1.303
 9308SOL     OW28822   1.728   4.118   1.400
 9308SOL    HW128823   1.737   4.079   1.492
 9308SOL    HW228824   1.701   4.214   1.407
 9309SOL     OW28825   4.196   5.973   5.110
 9309SOL    HW128826   4.124   6.034   5.078
 9309SOL    HW228827   4.156   5.884   5.134
 9310SOL     OW28828   4.502   6.065   5.727
 9310SOL    HW128829   4.405   6.067   5.703
 9310SOL    HW228830   4.514   6.022   5.816
 9311SOL     OW28831   4.953   3.449   1.879
 9311SOL    HW128832   5.040   3.467   1.832
 9311SOL    HW228833   4.877   3.469   1.818
 9312SOL     OW28834   0.871   2.479   1.211
 9312SOL    HW128835   0.868   2.559   1.272
 9312SOL    HW228836   0.953   2.484   1.154
 9313SOL     OW28837   1.126   6.669   1.789
 9313SOL    HW128838   1.098   6.764   1.775
 9313SOL    HW228839   1.111   6.643   1.884
 9314SOL     OW28840   5.298   2.517   0.727
 9314SOL    HW128841   5.300   2.418   0.714
 9314SOL    HW228842   5.290   2.563   0.638
 9315SOL     OW28843   5.794   0.925   6.633
 9315SOL    HW128844   5.886   0.916   6.670
 9315SOL    HW228845   5.749   1.004   6.676
 9316SOL     OW28846   4.182   1.169   5.565
 9316SOL    HW128847   4.244   1.097   5.595
 9316SOL    HW228848   4.212   1.257   5.602
 9317SOL     OW28849   2.979   5.982   3.793
 9317SOL    HW128850   2.979   6.077   3.823
 9317SOL    HW228851   2.896   5.963   3.740
 9318SOL     OW28852   4.768   6.188   0.475
 9318SOL    HW128853   4.681   6.231   0.499
 9318SOL    HW228854   4.836   6.259   0.457
 9319SOL     OW28855   2.368   4.581   0.796
 9319SOL    HW128856   2.445   4.530   0.756
 9319SOL    HW228857   2.286   4.566   0.741
 9320SOL     OW28858   6.251   0.143   6.312
 9320SOL    HW128859   6.173   0.101   6.266
 9320SOL    HW228860   6.274   0.229   6.267
 9321SOL     OW28861   0.223   3.224   5.334
 9321SOL    HW128862   0.203   3.304   5.278
 9321SOL    HW228863   0.321   3.218   5.350
 9322SOL     OW28864   5.986   4.482   5.698
 9322SOL    HW128865   6.019   4.499   5.791
 9322SOL    HW228866   6.059   4.440   5.645
 9323SOL     OW28867   1.120   2.943   3.163
 9323SOL    HW128868   1.212   2.940   3.125
 9323SOL    HW228869   1.074   3.027   3.133
 9324SOL     OW28870   0.493   4.007   1.356
 9324SOL    HW128871   0.590   4.032   1.354
 9324SOL    HW228872   0.442   4.068   1.296
 9325SOL     OW28873   1.496   5.368   2.692
 9325SOL    HW128874   1.572   5.304   2.700
 9325SOL    HW228875   1.526   5.460   2.718
 9326SOL     OW28876   4.253   4.161   6.931
 9326SOL    HW128877   4.282   4.098   7.004
 9326SOL    HW228878   4.187   4.115   6.872
 9327SOL     OW28879   4.489   1.198   3.157
 9327SOL    HW128880   4.530   1.107   3.159
 9327SOL    HW228881   4.439   1.214   3.243
 9328SOL     OW28882   2.856   6.361   4.289
 9328SOL    HW128883   2.947   6.325   4.310
 9328SOL    HW228884   2.809   6.386   4.374
 9329SOL     OW28885   0.587   6.260   6.251
 9329SOL    HW128886   0.616   6.185   6.192
 9329SOL    HW228887   0.625   6.346   6.217
 9330SOL     OW28888   5.957   6.758   6.253
 9330SOL    HW128889   5.929   6.705   6.173
 9330SOL    HW228890   5.979   6.696   6.328
 9331SOL     OW28891   1.625   3.357   5.002
 9331SOL    HW128892   1.721   3.329   4.993
 9331SOL    HW228893   1.587   3.319   5.086
 9332SOL     OW28894   4.688   5.647   0.695
 9332SOL    HW128895   4.697   5.673   0.599
 9332SOL    HW228896   4.777   5.620   0.731
 9333SOL     OW28897   3.652   4.932   0.793
 9333SOL    HW128898   3.736   4.976   0.762
 9333SOL    HW228899   3.666   4.893   0.884
 9334SOL     OW28900   4.816   6.201   5.536
 9334SOL    HW128901   4.872   6.152   5.602
 9334SOL    HW228902   4.804   6.296   5.565
 9335SOL     OW28903   2.640   2.040   1.634
 9335SOL    HW128904   2.578   1.968   1.663
 9335SOL    HW228905   2.683   2.082   1.714
 9336SOL     OW28906   6.591   1.279   4.959
 9336SOL    HW128907   6.522   1.347   4.935
 9336SOL    HW228908   6.640   1.252   4.877
 9337SOL     OW28909   4.417   0.562   5.785
 9337SOL    HW128910   4.325   0.588   5.758
 9337SOL    HW228911   4.416   0.523   5.877
 9338SOL     OW28912   6.651   5.955   6.977
 9338SOL    HW128913   6.720   5.885   6.996
 9338SOL    HW228914   6.591   5.965   0.028
 9339SOL     OW28915   6.748   4.907   6.014
 9339SOL    HW128916   6.759   4.820   6.062
 9339SOL    HW228917   6.733   4.980   6.079
 9340SOL     OW28918   3.560   5.844   2.270
 9340SOL    HW128919   3.506   5.905   2.212
 9340SOL    HW228920   3.653   5.880   2.280
 9341SOL     OW28921   5.299   4.370   7.003
 9341SOL    HW128922   5.245   4.313   0.035
 9341SOL    HW228923   5.314   4.322   6.916
 9342SOL     OW28924   2.763   0.121   4.307
 9342SOL    HW128925   2.796   0.033   4.341
 9342SOL    HW228926   2.671   0.138   4.342
 9343SOL     OW28927   4.685   4.483   1.968
 9343SOL    HW128928   4.739   4.448   1.891
 9343SOL    HW228929   4.598   4.434   1.971
 9344SOL     OW28930   6.189   5.295   5.739
 9344SOL    HW128931   6.209   5.351   5.819
 9344SOL    HW228932   6.111   5.236   5.758
 9345SOL     OW28933   0.145   5.791   0.108
 9345SOL    HW128934   0.165   5.851   0.185
 9345SOL    HW228935   0.225   5.736   0.086
 9346SOL     OW28936   5.690   6.670   1.935
 9346SOL    HW128937   5.765   6.603   1.937
 9346SOL    HW228938   5.671   6.701   2.028
 9347SOL     OW28939   4.374   5.611   0.941
 9347SOL    HW128940   4.374   5.555   0.858
 9347SOL    HW228941   4.281   5.644   0.959
 9348SOL     OW28942   2.372   5.847   2.694
 9348SOL    HW128943   2.289   5.899   2.715
 9348SOL    HW228944   2.348   5.750   2.682
 9349SOL     OW28945   6.445   5.424   1.946
 9349SOL    HW128946   6.472   5.519   1.965
 9349SOL    HW228947   6.518   5.378   1.897
 9350SOL     OW28948   7.018   1.721   4.892
 9350SOL    HW128949   6.918   1.724   4.892
 9350SOL    HW228950   0.021   1.682   4.978
 9351SOL     OW28951   3.127   0.633   5.622
 9351SOL    HW128952   3.109   0.704   5.555
 9351SOL    HW228953   3.225   0.611   5.622
 9352SOL     OW28954   2.878   2.542   5.554
 9352SOL    HW128955   2.794   2.489   5.565
 9352SOL    HW228956   2.946   2.487   5.506
 9353SOL     OW28957   0.944   4.003   1.526
 9353SOL    HW128958   0.970   4.039   1.616
 9353SOL    HW228959   0.863   3.945   1.534
 9354SOL     OW28960   6.545   2.240   1.308
 9354SOL    HW128961   6.475   2.219   1.240
 9354SOL    HW228962   6.631   2.261   1.262
 9355SOL     OW28963   6.940   0.124   4.346
 9355SOL    HW128964   6.925   0.125   4.445
 9355SOL    HW228965   6.909   0.036   4.308
 9356SOL     OW28966   4.323   5.069   1.902
 9356SOL    HW128967   4.255   5.013   1.951
 9356SOL    HW228968   4.278   5.150   1.865
 9357SOL     OW28969   3.012   3.383   0.590
 9357SOL    HW128970   2.936   3.401   0.528
 9357SOL    HW228971   2.977   3.348   0.677
 9358SOL     OW28972   6.207   4.254   1.864
 9358SOL    HW128973   6.213   4.154   1.868
 9358SOL    HW228974   6.275   4.288   1.799
 9359SOL     OW28975   6.937   4.218   6.594
 9359SOL    HW128976   7.017   4.189   6.542
 9359SOL    HW228977   6.867   4.252   6.532
 9360SOL     OW28978   1.899   0.240   5.722
 9360SOL    HW128979   1.988   0.281   5.742
 9360SOL    HW228980   1.895   0.213   5.626
 9361SOL     OW28981   2.935   5.766   2.726
 9361SOL    HW128982   2.928   5.766   2.826
 9361SOL    HW228983   3.025   5.800   2.698
 9362SOL     OW28984   2.610   1.016   2.421
 9362SOL    HW128985   2.651   0.927   2.442
 9362SOL    HW228986   2.634   1.082   2.492
 9363SOL     OW28987   3.238   5.727   2.853
 9363SOL    HW128988   3.223   5.781   2.771
 9363SOL    HW228989   3.271   5.636   2.828
 9364SOL     OW28990   4.486   3.261   6.375
 9364SOL    HW128991   4.512   3.268   6.279
 9364SOL    HW228992   4.386   3.258   6.383
 9365SOL     OW28993   2.724   2.075   4.918
 9365SOL    HW128994   2.777   2.047   4.838
 9365SOL    HW228995   2.774   2.145   4.969
 9366SOL     OW28996   3.455   1.725   0.616
 9366SOL    HW128997   3.534   1.733   0.677
 9366SOL    HW228998   3.390   1.797   0.638
 9367SOL     OW28999   6.814   5.509   3.683
 9367SOL    HW129000   6.720   5.480   3.702
 9367SOL    HW229001   6.868   5.505   3.767
 9368SOL     OW29002   3.433   1.910   1.674
 9368SOL    HW129003   3.499   1.970   1.718
 9368SOL    HW229004   3.390   1.852   1.743
 9369SOL     OW29005   6.749   1.619   5.821
 9369SOL    HW129006   6.679   1.571   5.874
 9369SOL    HW229007   6.782   1.560   5.748
 9370SOL     OW29008   6.038   0.925   2.997
 9370SOL    HW129009   5.999   0.945   3.087
 9370SOL    HW229010   6.129   0.886   3.008
 9371SOL     OW29011   1.248   5.550   0.185
 9371SOL    HW129012   1.207   5.636   0.155
 9371SOL    HW229013   1.175   5.486   0.209
 9372SOL     OW29014   5.541   6.684   3.416
 9372SOL    HW129015   5.447   6.675   3.449
 9372SOL    HW229016   5.569   6.598   3.373
 9373SOL     OW29017   4.385   1.894   3.063
 9373SOL    HW129018   4.336   1.895   2.976
 9373SOL    HW229019   4.339   1.953   3.129
 9374SOL     OW29020   5.984   2.656   0.362
 9374SOL    HW129021   5.905   2.597   0.344
 9374SOL    HW229022   6.040   2.615   0.434
 9375SOL     OW29023   6.584   1.246   3.007
 9375SOL    HW129024   6.523   1.223   3.083
 9375SOL    HW229025   6.562   1.188   2.928
 9376SOL     OW29026   3.438   3.921   0.721
 9376SOL    HW129027   3.361   3.968   0.679
 9376SOL    HW229028   3.505   3.897   0.650
 9377SOL     OW29029   6.439   5.382   3.774
 9377SOL    HW129030   6.442   5.285   3.753
 9377SOL    HW229031   6.518   5.407   3.830
 9378SOL     OW29032   2.676   6.855   6.340
 9378SOL    HW129033   2.637   6.876   6.251
 9378SOL    HW229034   2.664   6.933   6.401
 9379SOL     OW29035   4.863   4.424   4.377
 9379SOL    HW129036   4.765   4.404   4.383
 9379SOL    HW229037   4.879   4.491   4.304
 9380SOL     OW29038   6.737   6.757   5.463
 9380SOL    HW129039   6.700   6.689   5.399
 9380SOL    HW229040   6.693   6.845   5.446
 9381SOL     OW29041   2.624   3.045   5.409
 9381SOL    HW129042   2.604   3.142   5.425
 9381SOL    HW229043   2.587   3.018   5.320
 9382SOL     OW29044   3.976   0.713   2.957
 9382SOL    HW129045   3.980   0.614   2.946
 9382SOL    HW229046   4.030   0.757   2.885
 9383SOL     OW29047   3.158   6.645   4.917
 9383SOL    HW129048   3.202   6.720   4.965
 9383SOL    HW229049   3.060   6.664   4.909
 9384SOL     OW29050   4.163   5.665   2.761
 9384SOL    HW129051   4.239   5.631   2.706
 9384SOL    HW229052   4.084   5.604   2.751
 9385SOL     OW29053   3.970   1.741   2.853
 9385SOL    HW129054   3.905   1.765   2.781
 9385SOL    HW229055   3.925   1.684   2.921
 9386SOL     OW29056   3.179   6.307   4.677
 9386SOL    HW129057   3.105   6.369   4.702
 9386SOL    HW229058   3.202   6.250   4.755
 9387SOL     OW29059   4.140   6.788   1.333
 9387SOL    HW129060   4.165   6.768   1.239
 9387SOL    HW229061   4.158   6.707   1.390
 9388SOL     OW29062   1.306   5.968   2.253
 9388SOL    HW129063   1.266   6.059   2.258
 9388SOL    HW229064   1.340   5.951   2.160
 9389SOL     OW29065   2.163   0.085   5.489
 9389SOL    HW129066   2.106   0.157   5.450
 9389SOL    HW229067   2.208   0.034   5.416
 9390SOL     OW29068   4.177   5.820   3.349
 9390SOL    HW129069   4.117   5.741   3.346
 9390SOL    HW229070   4.219   5.834   3.260
 9391SOL     OW29071   2.002   0.699   5.483
 9391SOL    HW129072   2.011   0.798   5.495
 9391SOL    HW229073   1.908   0.671   5.502
 9392SOL     OW29074   0.593   6.682   4.956
 9392SOL    HW129075   0.566   6.586   4.947
 9392SOL    HW229076   0.566   6.716   5.046
 9393SOL     OW29077   3.737   1.589   4.619
 9393SOL    HW129078   3.783   1.572   4.706
 9393SOL    HW229079   3.713   1.686   4.612
 9394SOL     OW29080   6.283   2.475   3.347
 9394SOL    HW129081   6.269   2.530   3.429
 9394SOL    HW229082   6.281   2.534   3.267
 9395SOL     OW29083   2.770   2.389   0.617
 9395SOL    HW129084   2.820   2.392   0.703
 9395SOL    HW229085   2.747   2.482   0.588
 9396SOL     OW29086   6.705   6.566   4.703
 9396SOL    HW129087   6.782   6.555   4.765
 9396SOL    HW229088   6.737   6.568   4.609
 9397SOL     OW29089   2.481   0.195   0.679
 9397SOL    HW129090   2.547   0.256   0.634
 9397SOL    HW229091   2.484   0.105   0.635
 9398SOL     OW29092   2.009   0.671   0.059
 9398SOL    HW129093   2.071   0.597   0.084
 9398SOL    HW229094   2.014   0.743   0.128
 9399SOL     OW29095   6.966   2.224   0.107
 9399SOL    HW129096   0.011   2.281   0.143
 9399SOL    HW229097   6.957   2.240   0.009
 9400SOL     OW29098   5.205   3.478   1.783
 9400SOL    HW129099   5.214   3.553   1.849
 9400SOL    HW229100   5.275   3.410   1.800
 9401SOL     OW29101   2.524   6.302   3.593
 9401SOL    HW129102   2.530   6.256   3.504
 9401SOL    HW229103   2.429   6.325   3.612
 9402SOL     OW29104   2.350   4.781   6.497
 9402SOL    HW129105   2.315   4.713   6.433
 9402SOL    HW229106   2.380   4.862   6.446
 9403SOL     OW29107   5.030   1.811   3.386
 9403SOL    HW129108   5.078   1.797   3.473
 9403SOL    HW229109   5.025   1.908   3.366
 9404SOL     OW29110   1.004   4.964   6.586
 9404SOL    HW129111   1.039   4.895   6.523
 9404SOL    HW229112   0.924   5.009   6.547
 9405SOL     OW29113   6.202   6.573   1.695
 9405SOL    HW129114   6.107   6.545   1.687
 9405SOL    HW229115   6.251   6.510   1.755
 9406SOL     OW29116   0.396   1.692   5.513
 9406SOL    HW129117   0.336   1.627   5.466
 9406SOL    HW229118   0.439   1.752   5.446
 9407SOL     OW29119   2.698   6.955   2.289
 9407SOL    HW129120   2.621   7.009   2.254
 9407SOL    HW229121   2.775   7.016   2.307
 9408SOL     OW29122   3.693   1.133   5.289
 9408SOL    HW129123   3.783   1.173   5.306
 9408SOL    HW229124   3.680   1.052   5.347
 9409SOL     OW29125   4.673   4.271   4.516
 9409SOL    HW129126   4.707   4.325   4.592
 9409SOL    HW229127   4.727   4.187   4.507
 9410SOL     OW29128   3.597   5.713   1.616
 9410SOL    HW129129   3.576   5.652   1.693
 9410SOL    HW229130   3.550   5.800   1.630
 9411SOL     OW29131   3.917   4.695   1.082
 9411SOL    HW129132   3.971   4.773   1.051
 9411SOL    HW229133   3.937   4.677   1.178
 9412SOL     OW29134   1.083   2.749   1.641
 9412SOL    HW129135   1.062   2.823   1.578
 9412SOL    HW229136   1.044   2.769   1.731
 9413SOL     OW29137   4.072   5.719   5.128
 9413SOL    HW129138   4.100   5.665   5.049
 9413SOL    HW229139   4.023   5.661   5.193
 9414SOL     OW29140   2.981   1.741   2.732
 9414SOL    HW129141   3.064   1.793   2.754
 9414SOL    HW229142   2.946   1.699   2.816
 9415SOL     OW29143   1.449   6.815   2.680
 9415SOL    HW129144   1.470   6.799   2.583
 9415SOL    HW229145   1.351   6.828   2.691
 9416SOL     OW29146   0.655   1.368   1.395
 9416SOL    HW129147   0.611   1.370   1.485
 9416SOL    HW229148   0.752   1.391   1.404
 9417SOL     OW29149   3.017   7.009   5.563
 9417SOL    HW129150   2.930   6.992   5.609
 9417SOL    HW229151   3.035   0.078   5.562
 9418SOL     OW29152   2.511   6.244   0.988
 9418SOL    HW129153   2.448   6.284   0.922
 9418SOL    HW229154   2.475   6.256   1.080
 9419SOL     OW29155   3.602   6.797   5.057
 9419SOL    HW129156   3.663   6.833   5.128
 9419SOL    HW229157   3.657   6.756   4.984
 9420SOL     OW29158   0.254   1.718   5.149
 9420SOL    HW129159   0.157   1.693   5.144
 9420SOL    HW229160   0.277   1.776   5.071
 9421SOL     OW29161   2.497   6.043   5.473
 9421SOL    HW129162   2.417   6.102   5.478
 9421SOL    HW229163   2.517   6.005   5.563
 9422SOL     OW29164   5.495   0.366   2.536
 9422SOL    HW129165   5.433   0.326   2.603
 9422SOL    HW229166   5.529   0.454   2.570
 9423SOL     OW29167   4.281   0.652   2.769
 9423SOL    HW129168   4.364   0.682   2.721
 9423SOL    HW229169   4.202   0.664   2.709
 9424SOL     OW29170   5.203   0.817   5.539
 9424SOL    HW129171   5.113   0.773   5.541
 9424SOL    HW229172   5.191   0.914   5.521
 9425SOL     OW29173   0.226   3.473   6.295
 9425SOL    HW129174   0.149   3.429   6.247
 9425SOL    HW229175   0.279   3.528   6.231
 9426SOL     OW29176   2.767   1.721   0.547
 9426SOL    HW129177   2.694   1.658   0.522
 9426SOL    HW229178   2.815   1.685   0.628
 9427SOL     OW29179   2.776   4.719   5.374
 9427SOL    HW129180   2.840   4.650   5.338
 9427SOL    HW229181   2.683   4.692   5.351
 9428SOL     OW29182   5.701   0.047   2.519
 9428SOL    HW129183   5.761   0.127   2.524
 9428SOL    HW229184   5.722   7.024   2.436
 9429SOL     OW29185   1.408   4.164   2.158
 9429SOL    HW129186   1.347   4.177   2.079
 9429SOL    HW229187   1.443   4.071   2.157
 9430SOL     OW29188   6.532   6.137   1.483
 9430SOL    HW129189   6.449   6.142   1.539
 9430SOL    HW229190   6.535   6.215   1.421
 9431SOL     OW29191   5.511   4.019   0.392
 9431SOL    HW129192   5.484   4.095   0.451
 9431SOL    HW229193   5.477   4.035   0.300
 9432SOL     OW29194   6.504   0.311   3.944
 9432SOL    HW129195   6.551   0.230   3.980
 9432SOL    HW229196   6.463   0.362   4.020
 9433SOL     OW29197   3.083   4.860   4.301
 9433SOL    HW129198   3.067   4.958   4.286
 9433SOL    HW229199   3.053   4.835   4.393
 9434SOL     OW29200   5.562   4.230   3.525
 9434SOL    HW129201   5.624   4.241   3.603
 9434SOL    HW229202   5.616   4.215   3.442
 9435SOL     OW29203   1.189   1.127   4.445
 9435SOL    HW129204   1.105   1.097   4.400
 9435SOL    HW229205   1.245   1.180   4.381
 9436SOL     OW29206   1.114   3.410   1.598
 9436SOL    HW129207   1.046   3.483   1.601
 9436SOL    HW229208   1.205   3.448   1.617
 9437SOL     OW29209   1.053   6.298   3.423
 9437SOL    HW129210   0.959   6.326   3.405
 9437SOL    HW229211   1.103   6.375   3.463
 9438SOL     OW29212   1.086   6.504   1.051
 9438SOL    HW129213   1.132   6.591   1.070
 9438SOL    HW229214   1.136   6.456   0.978
 9439SOL     OW29215   0.168   3.201   2.070
 9439SOL    HW129216   0.084   3.225   2.119
 9439SOL    HW229217   0.149   3.191   1.973
 9440SOL     OW29218   4.830   5.645   4.495
 9440SOL    HW129219   4.756   5.637   4.562
 9440SOL    HW229220   4.877   5.558   4.485
 9441SOL     OW29221   1.380   5.318   5.247
 9441SOL    HW129222   1.398   5.402   5.195
 9441SOL    HW229223   1.433   5.243   5.208
 9442SOL     OW29224   6.473   1.736   0.115
 9442SOL    HW129225   6.374   1.741   0.127
 9442SOL    HW229226   6.518   1.755   0.202
 9443SOL     OW29227   2.266   4.212   1.507
 9443SOL    HW129228   2.213   4.250   1.431
 9443SOL    HW229229   2.242   4.116   1.520
 9444SOL     OW29230   0.525   3.440   0.299
 9444SOL    HW129231   0.622   3.448   0.321
 9444SOL    HW229232   0.513   3.430   0.200
 9445SOL     OW29233   4.952   3.230   2.053
 9445SOL    HW129234   4.933   3.303   1.988
 9445SOL    HW229235   4.870   3.172   2.063
 9446SOL     OW29236   6.316   0.002   2.744
 9446SOL    HW129237   6.320   6.931   2.741
 9446SOL    HW229238   6.367   0.040   2.667
 9447SOL     OW29239   5.574   3.570   3.214
 9447SOL    HW129240   5.614   3.620   3.136
 9447SOL    HW229241   5.571   3.473   3.192
 9448SOL     OW29242   5.131   5.792   6.326
 9448SOL    HW129243   5.113   5.706   6.278
 9448SOL    HW229244   5.113   5.780   6.424
 9449SOL     OW29245   6.960   5.787   5.972
 9449SOL    HW129246   6.937   5.689   5.974
 9449SOL    HW229247   6.998   5.814   6.061
 9450SOL     OW29248   2.736   4.758   4.785
 9450SOL    HW129249   2.700   4.838   4.833
 9450SOL    HW229250   2.784   4.699   4.850
 9451SOL     OW29251   4.392   5.463   5.702
 9451SOL    HW129252   4.435   5.529   5.763
 9451SOL    HW229253   4.292   5.470   5.710
 9452SOL     OW29254   1.817   3.314   0.469
 9452SOL    HW129255   1.868   3.399   0.461
 9452SOL    HW229256   1.721   3.333   0.489
 9453SOL     OW29257   1.620   3.915   3.125
 9453SOL    HW129258   1.642   3.896   3.220
 9453SOL    HW229259   1.557   3.846   3.090
 9454SOL     OW29260   1.813   3.700   5.983
 9454SOL    HW129261   1.871   3.623   5.955
 9454SOL    HW229262   1.784   3.751   5.901
 9455SOL     OW29263   3.618   1.298   2.589
 9455SOL    HW129264   3.700   1.271   2.538
 9455SOL    HW229265   3.638   1.380   2.643
 9456SOL     OW29266   0.174   4.615   1.092
 9456SOL    HW129267   0.190   4.712   1.112
 9456SOL    HW229268   0.258   4.564   1.109
 9457SOL     OW29269   1.184   3.742   6.288
 9457SOL    HW129270   1.226   3.701   6.369
 9457SOL    HW229271   1.252   3.797   6.240
 9458SOL     OW29272   0.790   4.674   6.528
 9458SOL    HW129273   0.703   4.673   6.479
 9458SOL    HW229274   0.774   4.661   6.626
 9459SOL     OW29275   6.673   5.105   2.157
 9459SOL    HW129276   6.646   5.099   2.253
 9459SOL    HW229277   6.669   5.200   2.126
 9460SOL     OW29278   0.074   2.147   5.365
 9460SOL    HW129279   0.052   2.049   5.365
 9460SOL    HW229280   7.019   2.199   5.345
 9461SOL     OW29281   6.439   1.719   3.399
 9461SOL    HW129282   6.464   1.774   3.320
 9461SOL    HW229283   6.396   1.634   3.368
 9462SOL     OW29284   1.886   3.138   3.222
 9462SOL    HW129285   1.870   3.052   3.271
 9462SOL    HW229286   1.868   3.124   3.124
 9463SOL     OW29287   0.222   0.761   0.816
 9463SOL    HW129288   0.256   0.729   0.905
 9463SOL    HW229289   0.257   0.701   0.744
 9464SOL     OW29290   5.709   6.723   6.500
 9464SOL    HW129291   5.615   6.731   6.468
 9464SOL    HW229292   5.725   6.629   6.531
 9465SOL     OW29293   6.872   0.323   3.358
 9465SOL    HW129294   6.860   0.417   3.327
 9465SOL    HW229295   6.866   0.320   3.458
 9466SOL     OW29296   3.955   3.710   5.093
 9466SOL    HW129297   3.902   3.657   5.027
 9466SOL    HW229298   3.957   3.806   5.064
 9467SOL     OW29299   1.729   2.914   1.295
 9467SOL    HW129300   1.685   2.848   1.356
 9467SOL    HW229301   1.658   2.961   1.241
 9468SOL     OW29302   5.953   2.717   6.313
 9468SOL    HW129303   5.875   2.736   6.254
 9468SOL    HW229304   5.984   2.802   6.354
 9469SOL     OW29305   6.143   5.640   2.121
 9469SOL    HW129306   6.189   5.643   2.033
 9469SOL    HW229307   6.045   5.658   2.108
 9470SOL     OW29308   5.160   3.067   6.393
 9470SOL    HW129309   5.090   3.096   6.458
 9470SOL    HW229310   5.182   3.143   6.332
 9471SOL     OW29311   0.108   2.497   5.666
 9471SOL    HW129312   0.062   2.582   5.690
 9471SOL    HW229313   0.115   2.490   5.566
 9472SOL     OW29314   6.466   3.765   4.054
 9472SOL    HW129315   6.464   3.815   4.141
 9472SOL    HW229316   6.558   3.769   4.016
 9473SOL     OW29317   3.884   6.527   5.649
 9473SOL    HW129318   3.873   6.453   5.716
 9473SOL    HW229319   3.795   6.566   5.628
 9474SOL     OW29320   6.044   4.179   1.617
 9474SOL    HW129321   6.102   4.192   1.536
 9474SOL    HW229322   6.037   4.265   1.667
 9475SOL     OW29323   3.237   3.527   0.710
 9475SOL    HW129324   3.214   3.518   0.807
 9475SOL    HW229325   3.164   3.487   0.655
 9476SOL     OW29326   2.943   3.469   4.540
 9476SOL    HW129327   2.942   3.556   4.490
 9476SOL    HW229328   2.942   3.487   4.638
 9477SOL     OW29329   0.716   3.125   1.637
 9477SOL    HW129330   0.641   3.184   1.668
 9477SOL    HW229331   0.802   3.158   1.674
 9478SOL     OW29332   5.686   4.222   6.079
 9478SOL    HW129333   5.652   4.204   6.172
 9478SOL    HW229334   5.624   4.285   6.033
 9479SOL     OW29335   5.796   6.430   6.382
 9479SOL    HW129336   5.879   6.484   6.395
 9479SOL    HW229337   5.772   6.428   6.285
 9480SOL     OW29338   4.299   4.084   6.328
 9480SOL    HW129339   4.326   4.145   6.254
 9480SOL    HW229340   4.248   4.007   6.291
 9481SOL     OW29341   5.934   3.721   1.380
 9481SOL    HW129342   6.017   3.761   1.340
 9481SOL    HW229343   5.949   3.623   1.397
 9482SOL     OW29344   5.995   0.963   3.290
 9482SOL    HW129345   6.094   0.952   3.276
 9482SOL    HW229346   5.979   1.019   3.371
 9483SOL     OW29347   2.120   1.498   1.147
 9483SOL    HW129348   2.127   1.453   1.057
 9483SOL    HW229349   2.024   1.516   1.168
 9484SOL     OW29350   5.663   1.748   3.489
 9484SOL    HW129351   5.646   1.653   3.461
 9484SOL    HW229352   5.580   1.802   3.474
 9485SOL     OW29353   0.979   0.184   1.534
 9485SOL    HW129354   0.995   0.117   1.462
 9485SOL    HW229355   0.893   0.232   1.516
 9486SOL     OW29356   2.323   5.040   1.020
 9486SOL    HW129357   2.228   5.058   1.042
 9486SOL    HW229358   2.327   4.974   0.944
 9487SOL     OW29359   2.989   3.812   3.739
 9487SOL    HW129360   3.081   3.830   3.703
 9487SOL    HW229361   2.985   3.839   3.835
 9488SOL     OW29362   2.699   6.410   1.319
 9488SOL    HW129363   2.697   6.399   1.418
 9488SOL    HW229364   2.733   6.326   1.277
 9489SOL     OW29365   3.332   4.088   0.951
 9489SOL    HW129366   3.291   4.032   1.023
 9489SOL    HW229367   3.390   4.031   0.893
 9490SOL     OW29368   5.452   0.107   0.422
 9490SOL    HW129369   5.515   0.101   0.345
 9490SOL    HW229370   5.495   0.158   0.497
 9491SOL     OW29371   6.656   4.902   5.006
 9491SOL    HW129372   6.596   4.890   4.927
 9491SOL    HW229373   6.618   4.855   5.085
 9492SOL     OW29374   3.339   3.569   2.402
 9492SOL    HW129375   3.316   3.657   2.360
 9492SOL    HW229376   3.438   3.555   2.396
 9493SOL     OW29377   4.722   5.298   3.785
 9493SOL    HW129378   4.721   5.397   3.772
 9493SOL    HW229379   4.697   5.253   3.699
 9494SOL     OW29380   4.809   3.982   0.922
 9494SOL    HW129381   4.836   4.038   0.844
 9494SOL    HW229382   4.860   3.895   0.921
 9495SOL     OW29383   6.227   2.155   4.256
 9495SOL    HW129384   6.241   2.118   4.164
 9495SOL    HW229385   6.315   2.158   4.304
 9496SOL     OW29386   5.112   4.705   7.008
 9496SOL    HW129387   5.203   4.669   6.993
 9496SOL    HW229388   5.072   4.665   0.061
 9497SOL     OW29389   4.456   3.892   0.465
 9497SOL    HW129390   4.402   3.964   0.421
 9497SOL    HW229391   4.470   3.817   0.400
 9498SOL     OW29392   5.324   0.720   6.007
 9498SOL    HW129393   5.391   0.649   6.029
 9498SOL    HW229394   5.353   0.769   5.925
 9499SOL     OW29395   2.162   3.651   5.531
 9499SOL    HW129396   2.067   3.665   5.501
 9499SOL    HW229397   2.202   3.575   5.480
 9500SOL     OW29398   2.836   6.339   1.923
 9500SOL    HW129399   2.920   6.320   1.974
 9500SOL    HW229400   2.812   6.436   1.933
 9501SOL     OW29401   3.209   1.524   4.701
 9501SOL    HW129402   3.215   1.615   4.660
 9501SOL    HW229403   3.301   1.483   4.704
 9502SOL     OW29404   0.117   2.280   4.937
 9502SOL    HW129405   0.093   2.188   4.968
 9502SOL    HW229406   0.164   2.275   4.849
 9503SOL     OW29407   0.588   1.074   1.425
 9503SOL    HW129408   0.685   1.051   1.428
 9503SOL    HW229409   0.570   1.153   1.484
 9504SOL     OW29410   6.764   2.089   1.087
 9504SOL    HW129411   6.810   2.118   1.171
 9504SOL    HW229412   6.824   2.108   1.009
 9505SOL     OW29413   5.766   3.824   3.482
 9505SOL    HW129414   5.731   3.879   3.557
 9505SOL    HW229415   5.859   3.794   3.502
 9506SOL     OW29416   0.487   3.036   6.653
 9506SOL    HW129417   0.415   3.092   6.693
 9506SOL    HW229418   0.576   3.080   6.668
 9507SOL     OW29419   2.266   1.165   4.485
 9507SOL    HW129420   2.278   1.250   4.433
 9507SOL    HW229421   2.304   1.177   4.577
 9508SOL     OW29422   6.083   2.466   0.524
 9508SOL    HW129423   6.011   2.400   0.502
 9508SOL    HW229424   6.102   2.463   0.623
 9509SOL     OW29425   1.392   6.416   5.438
 9509SOL    HW129426   1.341   6.375   5.362
 9509SOL    HW229427   1.392   6.353   5.516
 9510SOL     OW29428   0.457   3.903   1.599
 9510SOL    HW129429   0.379   3.938   1.651
 9510SOL    HW229430   0.452   3.936   1.505
 9511SOL     OW29431   0.714   2.284   6.942
 9511SOL    HW129432   0.691   2.264   6.847
 9511SOL    HW229433   0.735   2.199   6.990
 9512SOL     OW29434   5.587   2.252   3.637
 9512SOL    HW129435   5.667   2.311   3.621
 9512SOL    HW229436   5.593   2.212   3.728
 9513SOL     OW29437   1.571   3.315   4.588
 9513SOL    HW129438   1.622   3.231   4.572
 9513SOL    HW229439   1.634   3.388   4.616
 9514SOL     OW29440   1.650   4.073   0.379
 9514SOL    HW129441   1.591   4.039   0.453
 9514SOL    HW229442   1.695   3.997   0.334
 9515SOL     OW29443   1.547   5.569   6.891
 9515SOL    HW129444   1.508   5.519   6.969
 9515SOL    HW229445   1.627   5.520   6.857
 9516SOL     OW29446   4.883   3.417   4.598
 9516SOL    HW129447   4.879   3.354   4.676
 9516SOL    HW229448   4.868   3.366   4.513
 9517SOL     OW29449   1.332   5.011   1.042
 9517SOL    HW129450   1.326   5.036   0.945
 9517SOL    HW229451   1.410   4.950   1.055
 9518SOL     OW29452   1.915   2.435   6.764
 9518SOL    HW129453   1.982   2.448   6.692
 9518SOL    HW229454   1.912   2.338   6.791
 9519SOL     OW29455   3.193   3.368   2.918
 9519SOL    HW129456   3.102   3.396   2.886
 9519SOL    HW229457   3.254   3.447   2.915
 9520SOL     OW29458   6.508   1.448   4.192
 9520SOL    HW129459   6.491   1.474   4.287
 9520SOL    HW229460   6.440   1.490   4.133
 9521SOL     OW29461   3.518   4.598   1.243
 9521SOL    HW129462   3.493   4.506   1.274
 9521SOL    HW229463   3.579   4.640   1.310
 9522SOL     OW29464   4.371   5.552   2.623
 9522SOL    HW129465   4.377   5.538   2.524
 9522SOL    HW229466   4.462   5.573   2.659
 9523SOL     OW29467   2.616   5.468   4.953
 9523SOL    HW129468   2.689   5.435   5.013
 9523SOL    HW229469   2.639   5.559   4.919
 9524SOL     OW29470   1.791   3.305   1.180
 9524SOL    HW129471   1.774   3.251   1.098
 9524SOL    HW229472   1.833   3.248   1.250
 9525SOL     OW29473   1.658   1.621   6.128
 9525SOL    HW129474   1.756   1.632   6.114
 9525SOL    HW229475   1.637   1.628   6.226
 9526SOL     OW29476   5.787   5.098   0.802
 9526SOL    HW129477   5.842   5.076   0.721
 9526SOL    HW229478   5.738   5.016   0.831
 9527SOL     OW29479   2.517   0.112   4.450
 9527SOL    HW129480   2.468   0.185   4.497
 9527SOL    HW229481   2.557   0.050   4.516
 9528SOL     OW29482   6.102   1.706   1.353
 9528SOL    HW129483   6.097   1.608   1.373
 9528SOL    HW229484   6.181   1.724   1.295
 9529SOL     OW29485   5.498   3.732   0.991
 9529SOL    HW129486   5.588   3.698   0.963
 9529SOL    HW229487   5.508   3.821   1.036
 9530SOL     OW29488   1.138   4.596   4.276
 9530SOL    HW129489   1.235   4.572   4.281
 9530SOL    HW229490   1.083   4.513   4.282
 9531SOL     OW29491   4.412   4.909   3.231
 9531SOL    HW129492   4.344   4.837   3.247
 9531SOL    HW229493   4.415   4.930   3.133
 9532SOL     OW29494   6.340   5.134   1.383
 9532SOL    HW129495   6.244   5.116   1.403
 9532SOL    HW229496   6.374   5.206   1.443
 9533SOL     OW29497   0.607   5.501   3.673
 9533SOL    HW129498   0.653   5.587   3.652
 9533SOL    HW229499   0.594   5.448   3.590
 9534SOL     OW29500   6.095   4.588   5.041
 9534SOL    HW129501   6.152   4.566   5.120
 9534SOL    HW229502   6.149   4.641   4.975
 9535SOL     OW29503   1.974   1.286   6.287
 9535SOL    HW129504   2.047   1.347   6.255
 9535SOL    HW229505   2.012   1.219   6.350
 9536SOL     OW29506   3.820   3.467   5.257
 9536SOL    HW129507   3.780   3.556   5.278
 9536SOL    HW229508   3.753   3.395   5.277
 9537SOL     OW29509   2.752   1.770   4.525
 9537SOL    HW129510   2.778   1.799   4.433
 9537SOL    HW229511   2.676   1.827   4.557
 9538SOL     OW29512   4.703   1.186   4.264
 9538SOL    HW129513   4.726   1.235   4.180
 9538SOL    HW229514   4.749   1.097   4.265
 9539SOL     OW29515   2.920   3.392   4.040
 9539SOL    HW129516   2.961   3.483   4.037
 9539SOL    HW229517   2.931   3.353   4.132
 9540SOL     OW29518   5.066   5.777   3.896
 9540SOL    HW129519   5.138   5.841   3.922
 9540SOL    HW229520   4.994   5.826   3.848
 9541SOL     OW29521   1.497   0.562   5.588
 9541SOL    HW129522   1.417   0.521   5.545
 9541SOL    HW229523   1.567   0.492   5.602
 9542SOL     OW29524   5.391   5.019   4.288
 9542SOL    HW129525   5.314   4.982   4.339
 9542SOL    HW229526   5.444   4.944   4.248
 9543SOL     OW29527   3.426   0.369   5.955
 9543SOL    HW129528   3.512   0.379   5.905
 9543SOL    HW229529   3.383   0.283   5.930
 9544SOL     OW29530   5.277   3.661   3.954
 9544SOL    HW129531   5.177   3.656   3.959
 9544SOL    HW229532   5.308   3.630   3.864
 9545SOL     OW29533   6.604   5.128   2.439
 9545SOL    HW129534   6.631   5.139   2.535
 9545SOL    HW229535   6.519   5.177   2.422
 9546SOL     OW29536   3.567   1.687   5.667
 9546SOL    HW129537   3.578   1.781   5.635
 9546SOL    HW229538   3.608   1.624   5.601
 9547SOL     OW29539   2.629   5.445   3.931
 9547SOL    HW129540   2.603   5.530   3.886
 9547SOL    HW229541   2.706   5.404   3.883
 9548SOL     OW29542   0.459   5.564   4.764
 9548SOL    HW129543   0.507   5.477   4.751
 9548SOL    HW229544   0.522   5.640   4.747
 9549SOL     OW29545   2.845   0.823   2.315
 9549SOL    HW129546   2.811   0.808   2.222
 9549SOL    HW229547   2.944   0.840   2.312
 9550SOL     OW29548   6.456   2.298   0.770
 9550SOL    HW129549   6.501   2.225   0.822
 9550SOL    HW229550   6.504   2.312   0.683
 9551SOL     OW29551   6.138   3.394   5.863
 9551SOL    HW129552   6.219   3.353   5.906
 9551SOL    HW229553   6.141   3.380   5.764
 9552SOL     OW29554   2.262   6.647   6.365
 9552SOL    HW129555   2.289   6.727   6.312
 9552SOL    HW229556   2.241   6.571   6.303
 9553SOL     OW29557   5.433   2.514   6.912
 9553SOL    HW129558   5.377   2.552   6.839
 9553SOL    HW229559   5.489   2.439   6.876
 9554SOL     OW29560   1.531   6.783   4.070
 9554SOL    HW129561   1.586   6.795   3.987
 9554SOL    HW229562   1.483   6.868   4.091
 9555SOL     OW29563   0.292   1.328   3.180
 9555SOL    HW129564   0.328   1.421   3.191
 9555SOL    HW229565   0.200   1.323   3.221
 9556SOL     OW29566   1.905   3.924   1.144
 9556SOL    HW129567   1.808   3.909   1.164
 9556SOL    HW229568   1.958   3.846   1.177
 9557SOL     OW29569   5.382   6.897   1.501
 9557SOL    HW129570   5.465   6.845   1.478
 9557SOL    HW229571   5.356   6.953   1.422
 9558SOL     OW29572   5.524   6.382   5.433
 9558SOL    HW129573   5.562   6.291   5.421
 9558SOL    HW229574   5.476   6.409   5.350
 9559SOL     OW29575   1.276   3.881   0.023
 9559SOL    HW129576   1.360   3.853   0.069
 9559SOL    HW229577   1.216   3.801   0.012
 9560SOL     OW29578   2.820   0.903   2.775
 9560SOL    HW129579   2.744   0.967   2.765
 9560SOL    HW229580   2.887   0.918   2.703
 9561SOL     OW29581   0.222   0.307   1.261
 9561SOL    HW129582   0.143   0.357   1.298
 9561SOL    HW229583   0.244   0.343   1.171
 9562SOL     OW29584   2.544   6.171   4.495
 9562SOL    HW129585   2.450   6.144   4.471
 9562SOL    HW229586   2.554   6.270   4.485
 9563SOL     OW29587   0.299   6.576   6.976
 9563SOL    HW129588   0.245   6.553   6.896
 9563SOL    HW229589   0.315   6.675   6.979
 9564SOL     OW29590   2.262   1.138   1.163
 9564SOL    HW129591   2.176   1.135   1.112
 9564SOL    HW229592   2.320   1.062   1.134
 9565SOL     OW29593   3.366   1.034   5.370
 9565SOL    HW129594   3.282   0.981   5.376
 9565SOL    HW229595   3.399   1.034   5.276
 9566SOL     OW29596   2.404   5.621   0.197
 9566SOL    HW129597   2.304   5.617   0.203
 9566SOL    HW229598   2.431   5.709   0.157
 9567SOL     OW29599   5.525   4.408   0.234
 9567SOL    HW129600   5.439   4.368   0.265
 9567SOL    HW229601   5.532   4.398   0.135
 9568SOL     OW29602   3.986   1.423   6.992
 9568SOL    HW129603   3.923   1.368   0.017
 9568SOL    HW229604   3.938   1.460   6.912
 9569SOL     OW29605   0.135   1.236   2.017
 9569SOL    HW129606   0.179   1.292   1.947
 9569SOL    HW229607   0.083   1.295   2.079
 9570SOL     OW29608   0.023   2.725   1.037
 9570SOL    HW129609   6.995   2.796   1.079
 9570SOL    HW229610   0.105   2.710   1.092
 9571SOL     OW29611   2.806   3.273   5.781
 9571SOL    HW129612   2.827   3.192   5.726
 9571SOL    HW229613   2.826   3.355   5.727
 9572SOL     OW29614   1.767   5.008   2.520
 9572SOL    HW129615   1.668   4.998   2.510
 9572SOL    HW229616   1.805   5.046   2.435
 9573SOL     OW29617   0.096   1.699   6.407
 9573SOL    HW129618   0.104   1.648   6.493
 9573SOL    HW229619   0.053   1.787   6.426
 9574SOL     OW29620   3.412   2.872   2.183
 9574SOL    HW129621   3.321   2.893   2.146
 9574SOL    HW229622   3.404   2.795   2.246
 9575SOL     OW29623   6.994   1.408   2.150
 9575SOL    HW129624   6.916   1.366   2.197
 9575SOL    HW229625   6.962   1.457   2.069
 9576SOL     OW29626   1.935   2.212   0.513
 9576SOL    HW129627   1.989   2.296   0.503
 9576SOL    HW229628   1.996   2.135   0.532
 9577SOL     OW29629   0.587   6.852   5.481
 9577SOL    HW129630   0.585   6.910   5.400
 9577SOL    HW229631   0.559   6.906   5.561
 9578SOL     OW29632   1.159   2.771   2.812
 9578SOL    HW129633   1.177   2.869   2.822
 9578SOL    HW229634   1.060   2.756   2.805
 9579SOL     OW29635   0.412   6.210   3.161
 9579SOL    HW129636   0.353   6.251   3.231
 9579SOL    HW229637   0.415   6.269   3.081
 9580SOL     OW29638   4.640   3.535   0.787
 9580SOL    HW129639   4.635   3.586   0.873
 9580SOL    HW229640   4.608   3.442   0.802
 9581SOL     OW29641   0.382   0.278   6.366
 9581SOL    HW129642   0.430   0.259   6.451
 9581SOL    HW229643   0.437   0.244   6.289
 9582SOL     OW29644   3.804   5.883   4.698
 9582SOL    HW129645   3.725   5.824   4.715
 9582SOL    HW229646   3.863   5.882   4.779
 9583SOL     OW29647   3.243   3.911   1.153
 9583SOL    HW129648   3.170   3.864   1.202
 9583SOL    HW229649   3.332   3.886   1.192
 9584SOL     OW29650   0.446   4.837   5.945
 9584SOL    HW129651   0.400   4.796   6.023
 9584SOL    HW229652   0.534   4.791   5.931
 9585SOL     OW29653   5.294   6.772   2.988
 9585SOL    HW129654   5.245   6.754   3.073
 9585SOL    HW229655   5.283   6.867   2.962
 9586SOL     OW29656   4.644   5.611   2.278
 9586SOL    HW129657   4.637   5.543   2.350
 9586SOL    HW229658   4.658   5.702   2.319
 9587SOL     OW29659   0.897   6.829   1.187
 9587SOL    HW129660   0.889   6.929   1.189
 9587SOL    HW229661   0.837   6.793   1.116
 9588SOL     OW29662   6.068   6.645   0.563
 9588SOL    HW129663   6.038   6.601   0.479
 9588SOL    HW229664   6.115   6.578   0.621
 9589SOL     OW29665   2.038   4.607   0.288
 9589SOL    HW129666   2.083   4.518   0.294
 9589SOL    HW229667   2.000   4.631   0.377
 9590SOL     OW29668   6.219   2.563   1.875
 9590SOL    HW129669   6.206   2.495   1.803
 9590SOL    HW229670   6.130   2.599   1.903
 9591SOL     OW29671   3.129   5.423   6.041
 9591SOL    HW129672   3.045   5.373   6.023
 9591SOL    HW229673   3.207   5.372   6.003
 9592SOL     OW29674   3.230   4.432   0.517
 9592SOL    HW129675   3.244   4.523   0.477
 9592SOL    HW229676   3.257   4.434   0.613
 9593SOL     OW29677   1.010   1.368   6.464
 9593SOL    HW129678   0.964   1.436   6.407
 9593SOL    HW229679   1.094   1.336   6.418
 9594SOL     OW29680   2.391   5.365   4.054
 9594SOL    HW129681   2.396   5.410   4.144
 9594SOL    HW229682   2.481   5.366   4.011
 9595SOL     OW29683   0.445   2.626   4.108
 9595SOL    HW129684   0.521   2.690   4.107
 9595SOL    HW229685   0.375   2.658   4.172
 9596SOL     OW29686   0.798   5.216   6.767
 9596SOL    HW129687   0.894   5.209   6.794
 9596SOL    HW229688   0.791   5.271   6.684
 9597SOL     OW29689   6.891   3.978   1.672
 9597SOL    HW129690   6.917   3.975   1.768
 9597SOL    HW229691   6.905   3.888   1.630
 9598SOL     OW29692   2.122   4.551   3.201
 9598SOL    HW129693   2.122   4.630   3.139
 9598SOL    HW229694   2.205   4.498   3.185
 9599SOL     OW29695   2.822   0.351   3.800
 9599SOL    HW129696   2.851   0.351   3.896
 9599SOL    HW229697   2.778   0.438   3.778
 9600SOL     OW29698   3.113   0.284   6.939
 9600SOL    HW129699   3.143   0.325   6.853
 9600SOL    HW229700   3.103   0.185   6.927
 9601SOL     OW29701   5.254   4.771   0.528
 9601SOL    HW129702   5.275   4.781   0.431
 9601SOL    HW229703   5.277   4.679   0.558
 9602SOL     OW29704   5.874   4.131   6.538
 9602SOL    HW129705   5.922   4.184   6.608
 9602SOL    HW229706   5.938   4.108   6.465
 9603SOL     OW29707   4.270   1.121   6.356
 9603SOL    HW129708   4.319   1.059   6.418
 9603SOL    HW229709   4.253   1.208   6.403
 9604SOL     OW29710   4.899   0.045   0.859
 9604SOL    HW129711   4.957   0.127   0.858
 9604SOL    HW229712   4.941   7.004   0.916
 9605SOL     OW29713   1.050   6.317   2.927
 9605SOL    HW129714   1.081   6.229   2.963
 9605SOL    HW229715   1.053   6.386   2.999
 9606SOL     OW29716   1.939   6.480   6.824
 9606SOL    HW129717   1.969   6.434   6.908
 9606SOL    HW229718   1.985   6.439   6.746
 9607SOL     OW29719   2.668   1.391   0.009
 9607SOL    HW129720   2.703   1.393   6.944
 9607SOL    HW229721   2.706   1.468   0.061
 9608SOL     OW29722   0.111   4.519   1.715
 9608SOL    HW129723   0.079   4.610   1.741
 9608SOL    HW229724   0.211   4.519   1.714
 9609SOL     OW29725   3.277   2.839   0.358
 9609SOL    HW129726   3.284   2.744   0.329
 9609SOL    HW229727   3.208   2.847   0.430
 9610SOL     OW29728   1.695   4.993   3.600
 9610SOL    HW129729   1.603   4.953   3.598
 9610SOL    HW229730   1.691   5.086   3.637
 9611SOL     OW29731   1.173   6.372   0.409
 9611SOL    HW129732   1.161   6.449   0.345
 9611SOL    HW229733   1.269   6.347   0.414
 9612SOL     OW29734   0.028   3.423   1.585
 9612SOL    HW129735   6.965   3.458   1.566
 9612SOL    HW229736   0.094   3.468   1.526
 9613SOL     OW29737   4.747   0.060   3.281
 9613SOL    HW129738   4.698   0.126   3.337
 9613SOL    HW229739   4.764   0.098   3.190
 9614SOL     OW29740   3.974   2.045   1.840
 9614SOL    HW129741   4.001   2.057   1.935
 9614SOL    HW229742   4.044   1.994   1.791
 9615SOL     OW29743   2.674   0.969   0.812
 9615SOL    HW129744   2.758   0.990   0.761
 9615SOL    HW229745   2.663   0.870   0.817
 9616SOL     OW29746   3.686   3.939   1.365
 9616SOL    HW129747   3.736   3.858   1.335
 9616SOL    HW229748   3.705   3.956   1.462
 9617SOL     OW29749   1.644   2.753   2.928
 9617SOL    HW129750   1.582   2.690   2.882
 9617SOL    HW229751   1.660   2.722   3.022
 9618SOL     OW29752   2.993   6.475   0.474
 9618SOL    HW129753   3.067   6.421   0.434
 9618SOL    HW229754   2.905   6.439   0.444
 9619SOL     OW29755   1.450   0.232   6.379
 9619SOL    HW129756   1.354   0.260   6.377
 9619SOL    HW229757   1.492   0.252   6.291
 9620SOL     OW29758   4.375   0.463   6.038
 9620SOL    HW129759   4.288   0.470   6.086
 9620SOL    HW229760   4.428   0.387   6.076
 9621SOL     OW29761   1.366   2.540   2.224
 9621SOL    HW129762   1.413   2.621   2.258
 9621SOL    HW229763   1.385   2.462   2.284
 9622SOL     OW29764   0.136   1.324   0.345
 9622SOL    HW129765   0.162   1.370   0.260
 9622SOL    HW229766   0.065   1.378   0.391
 9623SOL     OW29767   2.921   3.479   5.646
 9623SOL    HW129768   3.000   3.461   5.587
 9623SOL    HW229769   2.861   3.546   5.601
 9624SOL     OW29770   6.619   4.209   3.039
 9624SOL    HW129771   6.601   4.177   2.946
 9624SOL    HW229772   6.590   4.139   3.104
 9625SOL     OW29773   4.765   5.690   6.734
 9625SOL    HW129774   4.731   5.682   6.828
 9625SOL    HW229775   4.823   5.771   6.726
 9626SOL     OW29776   4.271   5.584   0.316
 9626SOL    HW129777   4.304   5.667   0.361
 9626SOL    HW229778   4.347   5.539   0.269
 9627SOL     OW29779   6.884   5.990   4.965
 9627SOL    HW129780   6.789   5.975   4.937
 9627SOL    HW229781   6.887   6.011   5.063
 9628SOL     OW29782   4.733   4.727   0.432
 9628SOL    HW129783   4.755   4.780   0.513
 9628SOL    HW229784   4.796   4.752   0.358
 9629SOL     OW29785   0.821   6.948   1.690
 9629SOL    HW129786   0.846   7.026   1.632
 9629SOL    HW229787   0.726   6.956   1.718
 9630SOL     OW29788   6.383   0.128   4.578
 9630SOL    HW129789   6.374   0.051   4.514
 9630SOL    HW229790   6.295   0.174   4.586
 9631SOL     OW29791   0.055   6.819   6.995
 9631SOL    HW129792   6.988   6.841   7.010
 9631SOL    HW229793   0.078   6.832   6.899
 9632SOL     OW29794   1.319   0.180   2.567
 9632SOL    HW129795   1.224   0.156   2.585
 9632SOL    HW229796   1.359   0.115   2.503
 9633SOL     OW29797   4.830   4.986   5.965
 9633SOL    HW129798   4.858   4.902   5.918
 9633SOL    HW229799   4.865   4.985   6.059
 9634SOL     OW29800   1.223   5.769   4.089
 9634SOL    HW129801   1.312   5.735   4.122
 9634SOL    HW229802   1.237   5.854   4.038
 9635SOL     OW29803   1.752   5.607   4.987
 9635SOL    HW129804   1.824   5.553   4.943
 9635SOL    HW229805   1.794   5.670   5.052
 9636SOL     OW29806   3.826   2.338   5.912
 9636SOL    HW129807   3.821   2.273   5.836
 9636SOL    HW229808   3.771   2.418   5.892
 9637SOL     OW29809   2.608   1.602   6.708
 9637SOL    HW129810   2.628   1.588   6.611
 9637SOL    HW229811   2.509   1.593   6.723
 9638SOL     OW29812   6.581   3.914   6.555
 9638SOL    HW129813   6.536   3.825   6.562
 9638SOL    HW229814   6.652   3.911   6.485
 9639SOL     OW29815   3.911   1.304   2.500
 9639SOL    HW129816   4.010   1.297   2.506
 9639SOL    HW229817   3.877   1.236   2.435
 9640SOL     OW29818   2.158   2.641   3.861
 9640SOL    HW129819   2.090   2.666   3.792
 9640SOL    HW229820   2.250   2.658   3.826
 9641SOL     OW29821   4.107   5.744   0.985
 9641SOL    HW129822   4.011   5.728   1.006
 9641SOL    HW229823   4.120   5.840   0.959
 9642SOL     OW29824   3.327   6.808   5.031
 9642SOL    HW129825   3.289   6.892   5.070
 9642SOL    HW229826   3.417   6.790   5.071
 9643SOL     OW29827   5.405   5.420   4.057
 9643SOL    HW129828   5.476   5.360   4.020
 9643SOL    HW229829   5.336   5.365   4.105
 9644SOL     OW29830   1.016   4.122   6.097
 9644SOL    HW129831   1.018   4.123   6.197
 9644SOL    HW229832   1.052   4.208   6.061
 9645SOL     OW29833   2.699   5.507   4.602
 9645SOL    HW129834   2.621   5.545   4.652
 9645SOL    HW229835   2.678   5.414   4.572
 9646SOL     OW29836   2.621   4.812   1.989
 9646SOL    HW129837   2.582   4.782   1.902
 9646SOL    HW229838   2.699   4.754   2.012
 9647SOL     OW29839   6.651   5.284   1.780
 9647SOL    HW129840   6.646   5.315   1.685
 9647SOL    HW229841   6.620   5.189   1.786
 9648SOL     OW29842   4.723   1.314   0.564
 9648SOL    HW129843   4.646   1.251   0.561
 9648SOL    HW229844   4.750   1.338   0.471
 9649SOL     OW29845   2.796   6.354   0.273
 9649SOL    HW129846   2.844   6.376   0.188
 9649SOL    HW229847   2.698   6.370   0.261
 9650SOL     OW29848   6.356   4.945   2.048
 9650SOL    HW129849   6.448   4.962   2.014
 9650SOL    HW229850   6.349   4.976   2.143
 9651SOL     OW29851   7.016   1.242   5.794
 9651SOL    HW129852   7.010   1.341   5.810
 9651SOL    HW229853   6.952   1.195   5.855
 9652SOL     OW29854   1.774   4.324   1.079
 9652SOL    HW129855   1.748   4.275   0.996
 9652SOL    HW229856   1.796   4.259   1.151
 9653SOL     OW29857   4.134   4.785   4.600
 9653SOL    HW129858   4.156   4.761   4.506
 9653SOL    HW229859   4.203   4.747   4.662
 9654SOL     OW29860   3.296   2.737   1.257
 9654SOL    HW129861   3.394   2.717   1.262
 9654SOL    HW229862   3.279   2.829   1.292
 9655SOL     OW29863   0.313   1.034   0.202
 9655SOL    HW129864   0.367   0.972   0.259
 9655SOL    HW229865   0.222   1.044   0.242
 9656SOL     OW29866   2.579   0.973   1.824
 9656SOL    HW129867   2.607   0.967   1.728
 9656SOL    HW229868   2.482   0.995   1.830
 9657SOL     OW29869   5.251   0.428   3.727
 9657SOL    HW129870   5.234   0.400   3.632
 9657SOL    HW229871   5.166   0.423   3.779
 9658SOL     OW29872   6.778   2.383   3.179
 9658SOL    HW129873   6.778   2.298   3.232
 9658SOL    HW229874   6.689   2.395   3.136
 9659SOL     OW29875   6.409   4.294   0.320
 9659SOL    HW129876   6.387   4.198   0.339
 9659SOL    HW229877   6.330   4.338   0.276
 9660SOL     OW29878   0.382   5.618   0.662
 9660SOL    HW129879   0.474   5.657   0.669
 9660SOL    HW229880   0.353   5.619   0.566
 9661SOL     OW29881   4.592   5.614   1.542
 9661SOL    HW129882   4.654   5.553   1.491
 9661SOL    HW229883   4.588   5.702   1.496
 9662SOL     OW29884   6.197   2.701   4.753
 9662SOL    HW129885   6.293   2.728   4.753
 9662SOL    HW229886   6.191   2.601   4.756
 9663SOL     OW29887   1.468   5.718   4.127
 9663SOL    HW129888   1.521   5.762   4.200
 9663SOL    HW229889   1.529   5.687   4.054
 9664SOL     OW29890   5.402   0.048   2.917
 9664SOL    HW129891   5.452   0.118   2.968
 9664SOL    HW229892   5.311   0.035   2.958
 9665SOL     OW29893   5.880   4.897   5.679
 9665SOL    HW129894   5.840   4.814   5.716
 9665SOL    HW229895   5.854   4.907   5.583
 9666SOL     OW29896   5.467   3.936   1.829
 9666SOL    HW129897   5.462   4.035   1.815
 9666SOL    HW229898   5.510   3.893   1.750
 9667SOL     OW29899   3.811   2.997   4.395
 9667SOL    HW129900   3.875   2.970   4.324
 9667SOL    HW229901   3.718   2.973   4.366
 9668SOL     OW29902   7.010   1.789   5.891
 9668SOL    HW129903   6.914   1.762   5.879
 9668SOL    HW229904   0.002   1.794   5.989
 9669SOL     OW29905   0.912   1.620   1.091
 9669SOL    HW129906   0.879   1.549   1.030
 9669SOL    HW229907   1.011   1.610   1.105
 9670SOL     OW29908   4.671   4.618   5.824
 9670SOL    HW129909   4.579   4.631   5.859
 9670SOL    HW229910   4.681   4.666   5.737
 9671SOL     OW29911   0.588   5.258   6.200
 9671SOL    HW129912   0.642   5.336   6.169
 9671SOL    HW229913   0.547   5.212   6.121
 9672SOL     OW29914   0.901   6.992   4.434
 9672SOL    HW129915   0.872   0.039   4.376
 9672SOL    HW229916   0.827   6.969   4.499
 9673SOL     OW29917   4.816   4.265   6.933
 9673SOL    HW129918   4.749   4.235   6.865
 9673SOL    HW229919   4.908   4.260   6.894
 9674SOL     OW29920   2.956   5.551   2.934
 9674SOL    HW129921   3.014   5.480   2.893
 9674SOL    HW229922   2.964   5.547   3.034
 9675SOL     OW29923   5.750   1.046   1.831
 9675SOL    HW129924   5.813   1.093   1.769
 9675SOL    HW229925   5.778   1.062   1.926
 9676SOL     OW29926   1.430   3.411   5.669
 9676SOL    HW129927   1.486   3.349   5.723
 9676SOL    HW229928   1.486   3.451   5.596
 9677SOL     OW29929   2.395   4.274   6.118
 9677SOL    HW129930   2.324   4.203   6.112
 9677SOL    HW229931   2.351   4.363   6.127
 9678SOL     OW29932   3.410   4.105   2.958
 9678SOL    HW129933   3.448   4.183   2.909
 9678SOL    HW229934   3.467   4.024   2.942
 9679SOL     OW29935   0.672   1.366   1.784
 9679SOL    HW129936   0.739   1.297   1.757
 9679SOL    HW229937   0.717   1.455   1.790
 9680SOL     OW29938   6.141   0.257   3.285
 9680SOL    HW129939   6.204   0.292   3.216
 9680SOL    HW229940   6.134   0.158   3.277
 9681SOL     OW29941   2.723   0.696   1.316
 9681SOL    HW129942   2.799   0.647   1.359
 9681SOL    HW229943   2.644   0.635   1.308
 9682SOL     OW29944   4.968   5.442   3.048
 9682SOL    HW129945   4.923   5.482   3.127
 9682SOL    HW229946   4.925   5.475   2.964
 9683SOL     OW29947   4.063   5.415   0.762
 9683SOL    HW129948   4.138   5.388   0.702
 9683SOL    HW229949   4.073   5.370   0.851
 9684SOL     OW29950   0.291   3.399   5.025
 9684SOL    HW129951   0.208   3.371   5.073
 9684SOL    HW229952   0.291   3.359   4.933
 9685SOL     OW29953   2.120   3.105   1.131
 9685SOL    HW129954   2.048   3.164   1.169
 9685SOL    HW229955   2.209   3.145   1.152
 9686SOL     OW29956   6.671   1.888   0.714
 9686SOL    HW129957   6.603   1.818   0.739
 9686SOL    HW229958   6.664   1.965   0.777
 9687SOL     OW29959   1.787   0.792   3.264
 9687SOL    HW129960   1.738   0.835   3.340
 9687SOL    HW229961   1.882   0.823   3.264
 9688SOL     OW29962   6.735   2.696   3.250
 9688SOL    HW129963   6.714   2.730   3.159
 9688SOL    HW229964   6.830   2.665   3.253
 9689SOL     OW29965   1.611   6.770   0.642
 9689SOL    HW129966   1.621   6.766   0.542
 9689SOL    HW229967   1.584   6.863   0.669
 9690SOL     OW29968   5.698   5.528   6.403
 9690SOL    HW129969   5.717   5.603   6.339
 9690SOL    HW229970   5.739   5.444   6.369
 9691SOL     OW29971   2.805   4.779   1.276
 9691SOL    HW129972   2.752   4.748   1.197
 9691SOL    HW229973   2.827   4.875   1.265
 9692SOL     OW29974   2.095   5.287   2.677
 9692SOL    HW129975   2.185   5.321   2.704
 9692SOL    HW229976   2.051   5.244   2.756
 9693SOL     OW29977   0.058   5.357   2.028
 9693SOL    HW129978   0.146   5.325   1.994
 9693SOL    HW229979   7.028   5.382   1.951
 9694SOL     OW29980   1.840   1.036   6.221
 9694SOL    HW129981   1.741   1.046   6.216
 9694SOL    HW229982   1.880   1.118   6.261
 9695SOL     OW29983   6.052   4.580   1.123
 9695SOL    HW129984   6.019   4.487   1.109
 9695SOL    HW229985   5.992   4.644   1.073
 9696SOL     OW29986   4.913   2.747   1.148
 9696SOL    HW129987   4.971   2.744   1.067
 9696SOL    HW229988   4.829   2.696   1.131
 9697SOL     OW29989   0.251   5.214   6.817
 9697SOL    HW129990   0.277   5.199   6.913
 9697SOL    HW229991   0.283   5.304   6.788
 9698SOL     OW29992   6.026   1.168   5.459
 9698SOL    HW129993   5.970   1.243   5.494
 9698SOL    HW229994   6.113   1.165   5.508
 9699SOL     OW29995   0.337   4.194   6.146
 9699SOL    HW129996   0.398   4.264   6.182
 9699SOL    HW229997   0.348   4.188   6.046
 9700SOL     OW29998   3.712   5.128   5.784
 9700SOL    HW129999   3.621   5.110   5.823
 9700SOL    HW230000   3.711   5.216   5.737
 9701SOL     OW30001   3.820   5.589   4.758
 9701SOL    HW130002   3.904   5.543   4.730
 9701SOL    HW230003   3.754   5.588   4.682
 9702SOL     OW30004   5.296   0.400   6.635
 9702SOL    HW130005   5.305   0.499   6.626
 9702SOL    HW230006   5.283   0.359   6.545
 9703SOL     OW30007   3.726   6.007   4.258
 9703SOL    HW130008   3.669   6.081   4.292
 9703SOL    HW230009   3.731   6.012   4.158
 9704SOL     OW30010   3.127   0.824   2.384
 9704SOL    HW130011   3.225   0.837   2.399
 9704SOL    HW230012   3.110   0.733   2.346
 9705SOL     OW30013   5.214   5.238   0.544
 9705SOL    HW130014   5.179   5.317   0.595
 9705SOL    HW230015   5.259   5.175   0.608
 9706SOL     OW30016   0.107   2.285   1.099
 9706SOL    HW130017   0.016   2.299   1.060
 9706SOL    HW230018   0.170   2.253   1.028
 9707SOL     OW30019   6.987   4.362   2.097
 9707SOL    HW130020   6.895   4.325   2.112
 9707SOL    HW230021   6.981   4.460   2.082
 9708SOL     OW30022   1.709   2.349   3.521
 9708SOL    HW130023   1.738   2.264   3.476
 9708SOL    HW230024   1.625   2.383   3.478
 9709SOL     OW30025   0.215   6.065   3.464
 9709SOL    HW130026   0.160   6.061   3.547
 9709SOL    HW230027   0.260   6.155   3.458
 9710SOL     OW30028   0.601   1.495   2.570
 9710SOL    HW130029   0.572   1.523   2.662
 9710SOL    HW230030   0.554   1.552   2.502
 9711SOL     OW30031   1.339   3.111   5.901
 9711SOL    HW130032   1.363   3.040   5.968
 9711SOL    HW230033   1.422   3.151   5.863
 9712SOL     OW30034   5.424   3.341   4.710
 9712SOL    HW130035   5.470   3.348   4.799
 9712SOL    HW230036   5.358   3.416   4.701
 9713SOL     OW30037   0.117   5.068   2.545
 9713SOL    HW130038   0.132   5.132   2.620
 9713SOL    HW230039   0.205   5.044   2.504
 9714SOL     OW30040   1.703   1.125   1.720
 9714SOL    HW130041   1.744   1.048   1.770
 9714SOL    HW230042   1.768   1.201   1.717
 9715SOL     OW30043   6.893   6.009   4.379
 9715SOL    HW130044   6.919   6.097   4.418
 9715SOL    HW230045   6.841   5.956   4.447
 9716SOL     OW30046   4.144   2.550   6.964
 9716SOL    HW130047   4.140   2.555   6.864
 9716SOL    HW230048   4.220   2.606   6.997
 9717SOL     OW30049   5.487   5.906   5.126
 9717SOL    HW130050   5.515   5.906   5.030
 9717SOL    HW230051   5.535   5.834   5.176
 9718SOL     OW30052   4.634   3.278   1.714
 9718SOL    HW130053   4.602   3.213   1.783
 9718SOL    HW230054   4.713   3.240   1.666
 9719SOL     OW30055   0.634   2.229   6.634
 9719SOL    HW130056   0.568   2.304   6.628
 9719SOL    HW230057   0.587   2.146   6.664
 9720SOL     OW30058   0.897   5.839   1.630
 9720SOL    HW130059   0.866   5.744   1.626
 9720SOL    HW230060   0.831   5.899   1.585
 9721SOL     OW30061   0.780   2.535   1.914
 9721SOL    HW130062   0.810   2.441   1.925
 9721SOL    HW230063   0.686   2.537   1.880
 9722SOL     OW30064   0.317   0.167   3.464
 9722SOL    HW130065   0.402   0.134   3.504
 9722SOL    HW230066   0.335   0.246   3.406
 9723SOL     OW30067   1.213   6.073   2.722
 9723SOL    HW130068   1.272   6.035   2.652
 9723SOL    HW230069   1.268   6.112   2.796
 9724SOL     OW30070   3.274   2.988   1.425
 9724SOL    HW130071   3.229   3.077   1.427
 9724SOL    HW230072   3.373   3.000   1.437
 9725SOL     OW30073   4.266   3.461   6.016
 9725SOL    HW130074   4.223   3.386   6.065
 9725SOL    HW230075   4.299   3.529   6.081
 9726SOL     OW30076   4.733   0.361   4.567
 9726SOL    HW130077   4.787   0.373   4.650
 9726SOL    HW230078   4.652   0.419   4.572
 9727SOL     OW30079   1.606   3.502   5.493
 9727SOL    HW130080   1.634   3.406   5.490
 9727SOL    HW230081   1.608   3.541   5.401
 9728SOL     OW30082   0.909   6.302   6.685
 9728SOL    HW130083   0.997   6.342   6.710
 9728SOL    HW230084   0.902   6.296   6.586
 9729SOL     OW30085   1.476   4.495   2.909
 9729SOL    HW130086   1.544   4.484   2.982
 9729SOL    HW230087   1.522   4.486   2.821
 9730SOL     OW30088   7.027   3.167   2.966
 9730SOL    HW130089   0.093   3.190   2.989
 9730SOL    HW230090   6.965   3.221   3.023
 9731SOL     OW30091   4.449   4.935   0.864
 9731SOL    HW130092   4.365   4.946   0.918
 9731SOL    HW230093   4.425   4.916   0.769
 9732SOL     OW30094   5.913   6.176   3.013
 9732SOL    HW130095   5.893   6.141   3.104
 9732SOL    HW230096   5.957   6.265   3.020
 9733SOL     OW30097   5.690   5.274   4.724
 9733SOL    HW130098   5.720   5.369   4.724
 9733SOL    HW230099   5.770   5.214   4.715
 9734SOL     OW30100   5.447   2.081   4.197
 9734SOL    HW130101   5.471   2.150   4.266
 9734SOL    HW230102   5.500   1.998   4.214
 9735SOL     OW30103   1.776   4.658   2.908
 9735SOL    HW130104   1.709   4.637   2.980
 9735SOL    HW230105   1.736   4.725   2.845
 9736SOL     OW30106   5.315   1.385   6.102
 9736SOL    HW130107   5.375   1.382   6.181
 9736SOL    HW230108   5.221   1.405   6.132
 9737SOL     OW30109   4.648   2.771   4.978
 9737SOL    HW130110   4.647   2.856   4.925
 9737SOL    HW230111   4.598   2.784   5.064
 9738SOL     OW30112   1.782   7.005   3.057
 9738SOL    HW130113   1.871   7.011   3.013
 9738SOL    HW230114   1.714   6.970   2.993
 9739SOL     OW30115   0.792   4.743   1.877
 9739SOL    HW130116   0.865   4.781   1.820
 9739SOL    HW230117   0.746   4.669   1.828
 9740SOL     OW30118   6.199   3.166   3.197
 9740SOL    HW130119   6.271   3.203   3.256
 9740SOL    HW230120   6.231   3.165   3.103
 9741SOL     OW30121   4.496   1.384   2.618
 9741SOL    HW130122   4.537   1.461   2.570
 9741SOL    HW230123   4.536   1.299   2.585
 9742SOL     OW30124   4.464   0.149   3.077
 9742SOL    HW130125   4.419   0.096   3.004
 9742SOL    HW230126   4.475   0.091   3.157
 9743SOL     OW30127   2.216   2.052   5.800
 9743SOL    HW130128   2.211   2.148   5.775
 9743SOL    HW230129   2.215   1.996   5.718
 9744SOL     OW30130   1.201   0.414   2.681
 9744SOL    HW130131   1.196   0.393   2.778
 9744SOL    HW230132   1.248   0.340   2.633
 9745SOL     OW30133   0.611   2.416   5.762
 9745SOL    HW130134   0.512   2.417   5.775
 9745SOL    HW230135   0.637   2.335   5.710
 9746SOL     OW30136   5.514   1.688   5.038
 9746SOL    HW130137   5.476   1.707   5.128
 9746SOL    HW230138   5.587   1.753   5.017
 9747SOL     OW30139   1.314   1.302   1.853
 9747SOL    HW130140   1.225   1.322   1.812
 9747SOL    HW230141   1.312   1.323   1.951
 9748SOL     OW30142   0.919   6.936   5.238
 9748SOL    HW130143   0.971   6.944   5.153
 9748SOL    HW230144   0.972   6.884   5.305
 9749SOL     OW30145   2.129   2.307   5.459
 9749SOL    HW130146   2.033   2.333   5.453
 9749SOL    HW230147   2.178   2.339   5.378
 9750SOL     OW30148   5.696   5.193   4.056
 9750SOL    HW130149   5.636   5.164   4.130
 9750SOL    HW230150   5.787   5.154   4.070
 9751SOL     OW30151   2.024   2.506   1.555
 9751SOL    HW130152   1.933   2.466   1.572
 9751SOL    HW230153   2.020   2.605   1.569
 9752SOL     OW30154   4.442   0.752   6.282
 9752SOL    HW130155   4.450   0.806   6.366
 9752SOL    HW230156   4.352   0.766   6.242
 9753SOL     OW30157   6.329   6.376   4.930
 9753SOL    HW130158   6.267   6.346   4.857
 9753SOL    HW230159   6.283   6.446   4.985
 9754SOL     OW30160   1.083   1.663   0.098
 9754SOL    HW130161   1.132   1.625   0.177
 9754SOL    HW230162   1.148   1.689   0.027
 9755SOL     OW30163   4.083   3.283   4.920
 9755SOL    HW130164   4.156   3.241   4.866
 9755SOL    HW230165   3.998   3.282   4.868
 9756SOL     OW30166   6.162   2.704   0.156
 9756SOL    HW130167   6.212   2.618   0.160
 9756SOL    HW230168   6.077   2.696   0.208
 9757SOL     OW30169   4.900   3.309   3.627
 9757SOL    HW130170   4.920   3.279   3.533
 9757SOL    HW230171   4.869   3.231   3.681
 9758SOL     OW30172   1.592   0.081   5.960
 9758SOL    HW130173   1.519   0.145   5.982
 9758SOL    HW230174   1.628   0.042   6.045
 9759SOL     OW30175   2.479   7.006   1.000
 9759SOL    HW130176   2.539   0.039   1.050
 9759SOL    HW230177   2.384   7.022   1.025
 9760SOL     OW30178   5.160   3.908   5.189
 9760SOL    HW130179   5.084   3.903   5.124
 9760SOL    HW230180   5.149   3.837   5.258
 9761SOL     OW30181   5.608   6.040   2.059
 9761SOL    HW130182   5.639   6.048   1.965
 9761SOL    HW230183   5.510   6.021   2.061
 9762SOL     OW30184   2.474   2.013   4.634
 9762SOL    HW130185   2.462   2.110   4.616
 9762SOL    HW230186   2.565   1.996   4.670
 9763SOL     OW30187   4.558   1.516   1.857
 9763SOL    HW130188   4.468   1.523   1.900
 9763SOL    HW230189   4.555   1.444   1.786
 9764SOL     OW30190   1.268   1.996   3.401
 9764SOL    HW130191   1.350   2.045   3.371
 9764SOL    HW230192   1.263   1.908   3.355
 9765SOL     OW30193   6.743   1.815   4.830
 9765SOL    HW130194   6.766   1.911   4.815
 9765SOL    HW230195   6.661   1.791   4.779
 9766SOL     OW30196   2.351   0.556   2.717
 9766SOL    HW130197   2.268   0.566   2.772
 9766SOL    HW230198   2.326   0.545   2.621
 9767SOL     OW30199   5.009   2.122   4.778
 9767SOL    HW130200   5.100   2.095   4.811
 9767SOL    HW230201   5.018   2.204   4.722
 9768SOL     OW30202   5.522   2.247   2.522
 9768SOL    HW130203   5.527   2.235   2.621
 9768SOL    HW230204   5.615   2.245   2.484
 9769SOL     OW30205   1.458   1.906   1.977
 9769SOL    HW130206   1.482   2.002   1.966
 9769SOL    HW230207   1.522   1.863   2.042
 9770SOL     OW30208   5.976   6.154   6.153
 9770SOL    HW130209   5.960   6.065   6.110
 9770SOL    HW230210   6.028   6.142   6.237
 9771SOL     OW30211   4.893   4.596   0.951
 9771SOL    HW130212   4.867   4.642   1.036
 9771SOL    HW230213   4.946   4.513   0.972
 9772SOL     OW30214   6.967   6.767   1.630
 9772SOL    HW130215   6.878   6.812   1.638
 9772SOL    HW230216   0.008   6.825   1.672
 9773SOL     OW30217   6.030   6.118   3.620
 9773SOL    HW130218   6.116   6.169   3.615
 9773SOL    HW230219   6.027   6.050   3.546
 9774SOL     OW30220   5.925   5.405   3.459
 9774SOL    HW130221   5.829   5.422   3.480
 9774SOL    HW230222   5.939   5.412   3.360
 9775SOL     OW30223   2.016   2.087   4.697
 9775SOL    HW130224   1.952   2.087   4.774
 9775SOL    HW230225   2.081   2.163   4.707
 9776SOL     OW30226   7.019   5.540   4.381
 9776SOL    HW130227   0.071   5.489   4.412
 9776SOL    HW230228   0.018   5.611   4.317
 9777SOL     OW30229   5.825   4.984   6.456
 9777SOL    HW130230   5.835   4.884   6.456
 9777SOL    HW230231   5.760   5.011   6.385
 9778SOL     OW30232   5.493   0.127   3.721
 9778SOL    HW130233   5.474   0.122   3.623
 9778SOL    HW230234   5.553   0.052   3.748
 9779SOL     OW30235   2.273   1.474   4.705
 9779SOL    HW130236   2.294   1.391   4.654
 9779SOL    HW230237   2.319   1.552   4.662
 9780SOL     OW30238   2.472   2.473   0.791
 9780SOL    HW130239   2.378   2.440   0.779
 9780SOL    HW230240   2.532   2.397   0.815
 9781SOL     OW30241   2.006   4.701   3.988
 9781SOL    HW130242   2.073   4.716   4.060
 9781SOL    HW230243   1.990   4.602   3.978
 9782SOL     OW30244   6.487   0.109   0.781
 9782SOL    HW130245   6.487   0.209   0.782
 9782SOL    HW230246   6.481   0.074   0.874
 9783SOL     OW30247   6.492   1.105   1.843
 9783SOL    HW130248   6.572   1.049   1.863
 9783SOL    HW230249   6.447   1.071   1.760
 9784SOL     OW30250   4.373   1.637   3.230
 9784SOL    HW130251   4.360   1.563   3.164
 9784SOL    HW230252   4.398   1.721   3.182
 9785SOL     OW30253   0.305   2.896   3.169
 9785SOL    HW130254   0.343   2.805   3.154
 9785SOL    HW230255   0.218   2.905   3.120
 9786SOL     OW30256   1.876   4.785   5.718
 9786SOL    HW130257   1.812   4.861   5.703
 9786SOL    HW230258   1.944   4.785   5.644
 9787SOL     OW30259   5.387   3.279   1.854
 9787SOL    HW130260   5.456   3.215   1.888
 9787SOL    HW230261   5.306   3.227   1.823
 9788SOL     OW30262   0.383   0.384   3.971
 9788SOL    HW130263   0.388   0.455   4.042
 9788SOL    HW230264   0.289   0.374   3.940
 9789SOL     OW30265   2.331   5.226   6.231
 9789SOL    HW130266   2.406   5.184   6.282
 9789SOL    HW230267   2.323   5.183   6.141
 9790SOL     OW30268   5.804   2.580   4.367
 9790SOL    HW130269   5.719   2.631   4.380
 9790SOL    HW230270   5.815   2.515   4.443
 9791SOL     OW30271   0.761   0.815   1.658
 9791SOL    HW130272   0.771   0.878   1.581
 9791SOL    HW230273   0.771   0.866   1.744
 9792SOL     OW30274   4.589   5.256   1.696
 9792SOL    HW130275   4.532   5.338   1.692
 9792SOL    HW230276   4.676   5.277   1.739
 9793SOL     OW30277   4.743   5.947   2.934
 9793SOL    HW130278   4.830   5.930   2.887
 9793SOL    HW230279   4.686   5.864   2.930
 9794SOL     OW30280   5.596   3.485   6.426
 9794SOL    HW130281   5.533   3.421   6.470
 9794SOL    HW230282   5.587   3.478   6.327
 9795SOL     OW30283   0.893   2.720   3.937
 9795SOL    HW130284   0.901   2.769   3.851
 9795SOL    HW230285   0.948   2.636   3.933
 9796SOL     OW30286   3.175   4.635   0.716
 9796SOL    HW130287   3.170   4.638   0.816
 9796SOL    HW230288   3.267   4.661   0.687
 9797SOL     OW30289   4.854   3.705   0.061
 9797SOL    HW130290   4.923   3.658   0.116
 9797SOL    HW230291   4.849   3.801   0.089
 9798SOL     OW30292   2.468   0.602   1.273
 9798SOL    HW130293   2.379   0.643   1.256
 9798SOL    HW230294   2.472   0.567   1.367
 9799SOL     OW30295   3.382   3.271   2.671
 9799SOL    HW130296   3.372   3.172   2.657
 9799SOL    HW230297   3.294   3.316   2.653
 9800SOL     OW30298   4.296   5.955   6.180
 9800SOL    HW130299   4.262   5.965   6.273
 9800SOL    HW230300   4.221   5.967   6.115
 9801SOL     OW30301   4.655   5.574   6.959
 9801SOL    HW130302   4.614   5.636   7.026
 9801SOL    HW230303   4.583   5.528   6.908
 9802SOL     OW30304   0.494   3.272   1.737
 9802SOL    HW130305   0.430   3.299   1.809
 9802SOL    HW230306   0.539   3.353   1.700
 9803SOL     OW30307   6.189   0.223   6.608
 9803SOL    HW130308   6.270   0.186   6.654
 9803SOL    HW230309   6.190   0.195   6.512
 9804SOL     OW30310   0.192   5.034   3.379
 9804SOL    HW130311   0.198   5.123   3.424
 9804SOL    HW230312   0.175   5.047   3.281
 9805SOL     OW30313   1.330   5.549   6.710
 9805SOL    HW130314   1.413   5.564   6.764
 9805SOL    HW230315   1.340   5.592   6.620
 9806SOL     OW30316   0.874   2.665   1.469
 9806SOL    HW130317   0.956   2.684   1.523
 9806SOL    HW230318   0.811   2.609   1.523
 9807SOL     OW30319   3.504   1.822   0.035
 9807SOL    HW130320   3.516   1.763   0.115
 9807SOL    HW230321   3.571   1.896   0.039
 9808SOL     OW30322   5.910   1.324   5.673
 9808SOL    HW130323   5.869   1.242   5.712
 9808SOL    HW230324   5.845   1.367   5.611
 9809SOL     OW30325   0.880   1.184   5.637
 9809SOL    HW130326   0.904   1.257   5.574
 9809SOL    HW230327   0.956   1.167   5.699
 9810SOL     OW30328   2.790   1.760   3.158
 9810SOL    HW130329   2.789   1.753   3.258
 9810SOL    HW230330   2.723   1.827   3.128
 9811SOL     OW30331   6.342   5.978   3.590
 9811SOL    HW130332   6.417   5.982   3.656
 9811SOL    HW230333   6.330   6.068   3.548
 9812SOL     OW30334   4.026   2.001   6.254
 9812SOL    HW130335   4.083   2.035   6.329
 9812SOL    HW230336   4.078   2.001   6.170
 9813SOL     OW30337   6.239   5.411   0.114
 9813SOL    HW130338   6.329   5.449   0.138
 9813SOL    HW230339   6.199   5.465   0.040
 9814SOL     OW30340   6.535   0.837   5.975
 9814SOL    HW130341   6.442   0.814   6.001
 9814SOL    HW230342   6.542   0.840   5.875
 9815SOL     OW30343   6.416   3.240   1.212
 9815SOL    HW130344   6.358   3.160   1.229
 9815SOL    HW230345   6.381   3.290   1.132
 9816SOL     OW30346   6.338   1.191   6.553
 9816SOL    HW130347   6.404   1.133   6.504
 9816SOL    HW230348   6.286   1.246   6.486
 9817SOL     OW30349   3.140   5.280   1.833
 9817SOL    HW130350   3.066   5.222   1.869
 9817SOL    HW230351   3.159   5.353   1.899
 9818SOL     OW30352   1.923   1.488   3.626
 9818SOL    HW130353   2.018   1.471   3.600
 9818SOL    HW230354   1.868   1.406   3.607
 9819SOL     OW30355   5.702   3.889   4.607
 9819SOL    HW130356   5.704   3.790   4.622
 9819SOL    HW230357   5.697   3.936   4.695
 9820SOL     OW30358   3.194   1.790   6.695
 9820SOL    HW130359   3.149   1.703   6.717
 9820SOL    HW230360   3.143   1.837   6.623
 9821SOL     OW30361   4.558   2.029   1.730
 9821SOL    HW130362   4.490   2.075   1.786
 9821SOL    HW230363   4.633   2.092   1.711
 9822SOL     OW30364   3.937   5.946   4.417
 9822SOL    HW130365   3.903   5.932   4.510
 9822SOL    HW230366   3.860   5.967   4.357
 9823SOL     OW30367   1.171   0.356   2.328
 9823SOL    HW130368   1.125   0.384   2.244
 9823SOL    HW230369   1.122   0.393   2.407
 9824SOL     OW30370   2.252   6.201   5.734
 9824SOL    HW130371   2.163   6.171   5.770
 9824SOL    HW230372   2.250   6.197   5.634
 9825SOL     OW30373   4.919   5.959   5.113
 9825SOL    HW130374   5.011   5.928   5.087
 9825SOL    HW230375   4.923   6.055   5.140
 9826SOL     OW30376   3.539   6.924   5.482
 9826SOL    HW130377   3.617   6.961   5.432
 9826SOL    HW230378   3.548   6.945   5.580
 9827SOL     OW30379   1.791   5.802   2.668
 9827SOL    HW130380   1.809   5.801   2.767
 9827SOL    HW230381   1.877   5.791   2.619
 9828SOL     OW30382   3.564   1.789   4.760
 9828SOL    HW130383   3.477   1.777   4.807
 9828SOL    HW230384   3.564   1.875   4.709
 9829SOL     OW30385   4.305   6.243   6.054
 9829SOL    HW130386   4.346   6.153   6.067
 9829SOL    HW230387   4.358   6.295   5.987
 9830SOL     OW30388   6.086   1.699   2.506
 9830SOL    HW130389   6.072   1.632   2.579
 9830SOL    HW230390   6.092   1.651   2.418
 9831SOL     OW30391   0.257   3.833   2.497
 9831SOL    HW130392   0.244   3.747   2.546
 9831SOL    HW230393   0.189   3.900   2.530
 9832SOL     OW30394   4.974   4.926   4.655
 9832SOL    HW130395   4.917   4.880   4.587
 9832SOL    HW230396   5.057   4.872   4.672
 9833SOL     OW30397   3.827   4.104   4.069
 9833SOL    HW130398   3.861   4.015   4.099
 9833SOL    HW230399   3.903   4.167   4.058
 9834SOL     OW30400   2.622   5.470   6.071
 9834SOL    HW130401   2.612   5.463   5.972
 9834SOL    HW230402   2.715   5.444   6.097
 9835SOL     OW30403   3.717   4.154   4.784
 9835SOL    HW130404   3.643   4.095   4.817
 9835SOL    HW230405   3.714   4.158   4.684
 9836SOL     OW30406   0.759   3.973   6.411
 9836SOL    HW130407   0.804   3.913   6.345
 9836SOL    HW230408   0.666   3.992   6.381
 9837SOL     OW30409   6.140   1.879   1.787
 9837SOL    HW130410   6.085   1.844   1.712
 9837SOL    HW230411   6.146   1.810   1.859
 9838SOL     OW30412   1.162   5.780   1.268
 9838SOL    HW130413   1.199   5.813   1.181
 9838SOL    HW230414   1.071   5.818   1.283
 9839SOL     OW30415   4.356   0.880   3.202
 9839SOL    HW130416   4.292   0.823   3.253
 9839SOL    HW230417   4.331   0.878   3.105
 9840SOL     OW30418   5.283   2.003   7.002
 9840SOL    HW130419   5.231   2.087   6.985
 9840SOL    HW230420   5.236   1.926   6.961
 9841SOL     OW30421   0.172   5.236   3.521
 9841SOL    HW130422   0.072   5.242   3.528
 9841SOL    HW230423   0.214   5.282   3.600
 9842SOL     OW30424   3.765   2.382   0.323
 9842SOL    HW130425   3.672   2.365   0.356
 9842SOL    HW230426   3.830   2.330   0.378
 9843SOL     OW30427   0.023   6.150   0.865
 9843SOL    HW130428   6.982   6.220   0.876
 9843SOL    HW230429   0.066   6.132   0.953
 9844SOL     OW30430   5.051   0.019   4.627
 9844SOL    HW130431   5.100   0.099   4.591
 9844SOL    HW230432   4.953   0.038   4.628
 9845SOL     OW30433   1.107   2.514   2.095
 9845SOL    HW130434   1.195   2.508   2.142
 9845SOL    HW230435   1.076   2.609   2.095
 9846SOL     OW30436   5.333   1.186   1.379
 9846SOL    HW130437   5.381   1.158   1.295
 9846SOL    HW230438   5.357   1.122   1.452
 9847SOL     OW30439   3.819   3.675   0.991
 9847SOL    HW130440   3.905   3.623   0.992
 9847SOL    HW230441   3.755   3.633   0.927
 9848SOL     OW30442   3.382   3.644   4.981
 9848SOL    HW130443   3.428   3.733   4.983
 9848SOL    HW230444   3.436   3.579   4.928
 9849SOL     OW30445   1.465   0.736   6.678
 9849SOL    HW130446   1.462   0.638   6.697
 9849SOL    HW230447   1.437   0.752   6.583
 9850SOL     OW30448   0.268   0.373   4.292
 9850SOL    HW130449   0.320   0.456   4.273
 9850SOL    HW230450   0.205   0.355   4.216
 9851SOL     OW30451   4.028   5.265   4.266
 9851SOL    HW130452   3.990   5.195   4.325
 9851SOL    HW230453   4.123   5.284   4.293
 9852SOL     OW30454   1.676   1.161   6.994
 9852SOL    HW130455   1.657   1.085   6.932
 9852SOL    HW230456   1.770   1.154   7.028
 9853SOL     OW30457   7.026   4.537   4.051
 9853SOL    HW130458   0.020   4.592   3.970
 9853SOL    HW230459   0.029   4.584   4.133
 9854SOL     OW30460   0.699   6.125   5.816
 9854SOL    HW130461   0.776   6.182   5.789
 9854SOL    HW230462   0.615   6.162   5.776
 9855SOL     OW30463   0.834   3.537   0.765
 9855SOL    HW130464   0.751   3.490   0.734
 9855SOL    HW230465   0.838   3.627   0.721
 9856SOL     OW30466   5.749   4.759   3.254
 9856SOL    HW130467   5.826   4.823   3.249
 9856SOL    HW230468   5.664   4.809   3.271
 9857SOL     OW30469   5.021   2.159   3.447
 9857SOL    HW130470   5.107   2.209   3.437
 9857SOL    HW230471   5.025   2.101   3.528
 9858SOL     OW30472   0.999   6.148   2.531
 9858SOL    HW130473   1.048   6.096   2.600
 9858SOL    HW230474   0.934   6.088   2.484
 9859SOL     OW30475   0.766   4.458   5.020
 9859SOL    HW130476   0.701   4.453   5.095
 9859SOL    HW230477   0.849   4.506   5.049
 9860SOL     OW30478   2.041   1.810   5.470
 9860SOL    HW130479   2.068   1.737   5.407
 9860SOL    HW230480   2.083   1.896   5.441
 9861SOL     OW30481   2.718   1.439   3.850
 9861SOL    HW130482   2.804   1.489   3.854
 9861SOL    HW230483   2.660   1.465   3.927
 9862SOL     OW30484   2.383   4.792   1.128
 9862SOL    HW130485   2.312   4.820   1.193
 9862SOL    HW230486   2.416   4.872   1.078
 9863SOL     OW30487   2.981   5.835   1.357
 9863SOL    HW130488   3.063   5.794   1.398
 9863SOL    HW230489   2.943   5.772   1.290
 9864SOL     OW30490   3.042   6.315   5.478
 9864SOL    HW130491   3.016   6.398   5.527
 9864SOL    HW230492   3.109   6.337   5.407
 9865SOL     OW30493   0.523   0.008   5.792
 9865SOL    HW130494   0.457   0.021   5.718
 9865SOL    HW230495   0.478   0.019   5.880
 9866SOL     OW30496   6.552   4.762   4.411
 9866SOL    HW130497   6.503   4.696   4.468
 9866SOL    HW230498   6.640   4.723   4.382
 9867SOL     OW30499   5.193   1.843   2.030
 9867SOL    HW130500   5.170   1.761   1.976
 9867SOL    HW230501   5.286   1.834   2.067
 9868SOL     OW30502   1.484   4.748   3.426
 9868SOL    HW130503   1.462   4.790   3.514
 9868SOL    HW230504   1.520   4.817   3.363
 9869SOL     OW30505   0.191   2.563   1.198
 9869SOL    HW130506   0.124   2.492   1.175
 9869SOL    HW230507   0.228   2.545   1.290
 9870SOL     OW30508   3.572   1.239   1.928
 9870SOL    HW130509   3.639   1.220   1.999
 9870SOL    HW230510   3.609   1.307   1.864
 9871SOL     OW30511   7.022   3.615   5.345
 9871SOL    HW130512   6.952   3.671   5.388
 9871SOL    HW230513   0.053   3.576   5.415
 9872SOL     OW30514   2.380   5.381   5.167
 9872SOL    HW130515   2.389   5.462   5.109
 9872SOL    HW230516   2.290   5.339   5.151
 9873SOL     OW30517   2.475   1.828   6.306
 9873SOL    HW130518   2.461   1.808   6.209
 9873SOL    HW230519   2.573   1.828   6.326
 9874SOL     OW30520   0.839   2.328   4.947
 9874SOL    HW130521   0.759   2.316   4.887
 9874SOL    HW230522   0.896   2.402   4.911
 9875SOL     OW30523   6.888   6.054   0.669
 9875SOL    HW130524   6.919   6.087   0.580
 9875SOL    HW230525   6.934   6.106   0.741
 9876SOL     OW30526   2.541   6.816   3.198
 9876SOL    HW130527   2.590   6.730   3.217
 9876SOL    HW230528   2.525   6.864   3.285
 9877SOL     OW30529   0.579   4.562   4.826
 9877SOL    HW130530   0.643   4.508   4.881
 9877SOL    HW230531   0.616   4.654   4.814
 9878SOL     OW30532   1.783   3.231   6.989
 9878SOL    HW130533   1.857   3.298   6.992
 9878SOL    HW230534   1.762   3.201   0.054
 9879SOL     OW30535   1.282   4.568   6.036
 9879SOL    HW130536   1.357   4.594   5.975
 9879SOL    HW230537   1.314   4.573   6.131
 9880SOL     OW30538   2.480   1.642   0.149
 9880SOL    HW130539   2.443   1.567   0.204
 9880SOL    HW230540   2.530   1.705   0.207
 9881SOL     OW30541   5.181   0.579   4.666
 9881SOL    HW130542   5.245   0.616   4.735
 9881SOL    HW230543   5.189   0.479   4.664
 9882SOL     OW30544   3.538   2.878   4.319
 9882SOL    HW130545   3.466   2.922   4.372
 9882SOL    HW230546   3.501   2.801   4.268
 9883SOL     OW30547   2.036   6.366   1.232
 9883SOL    HW130548   2.086   6.349   1.316
 9883SOL    HW230549   2.075   6.311   1.158
 9884SOL     OW30550   1.694   3.273   6.627
 9884SOL    HW130551   1.645   3.237   6.547
 9884SOL    HW230552   1.707   3.200   6.694
 9885SOL     OW30553   6.480   3.219   3.641
 9885SOL    HW130554   6.555   3.192   3.702
 9885SOL    HW230555   6.471   3.318   3.642
 9886SOL     OW30556   5.158   6.354   1.679
 9886SOL    HW130557   5.103   6.437   1.687
 9886SOL    HW230558   5.249   6.377   1.645
 9887SOL     OW30559   3.866   6.280   0.473
 9887SOL    HW130560   3.945   6.219   0.464
 9887SOL    HW230561   3.877   6.358   0.412
 9888SOL     OW30562   5.790   5.907   2.616
 9888SOL    HW130563   5.799   5.982   2.550
 9888SOL    HW230564   5.797   5.944   2.709
 9889SOL     OW30565   0.512   4.861   3.048
 9889SOL    HW130566   0.580   4.794   3.017
 9889SOL    HW230567   0.551   4.953   3.043
 9890SOL     OW30568   6.376   3.747   1.014
 9890SOL    HW130569   6.310   3.749   0.939
 9890SOL    HW230570   6.437   3.668   1.002
 9891SOL     OW30571   5.018   5.309   0.320
 9891SOL    HW130572   5.117   5.321   0.312
 9891SOL    HW230573   4.978   5.299   0.228
 9892SOL     OW30574   1.712   5.670   3.793
 9892SOL    HW130575   1.668   5.759   3.780
 9892SOL    HW230576   1.809   5.678   3.773
 9893SOL     OW30577   5.942   5.249   2.983
 9893SOL    HW130578   5.964   5.152   2.969
 9893SOL    HW230579   6.011   5.290   3.042
 9894SOL     OW30580   3.660   2.520   5.672
 9894SOL    HW130581   3.658   2.601   5.731
 9894SOL    HW230582   3.591   2.529   5.600
 9895SOL     OW30583   5.305   2.883   6.533
 9895SOL    HW130584   5.244   2.943   6.481
 9895SOL    HW230585   5.363   2.832   6.469
 9896SOL     OW30586   3.633   3.607   0.790
 9896SOL    HW130587   3.675   3.677   0.732
 9896SOL    HW230588   3.553   3.568   0.744
 9897SOL     OW30589   5.180   1.484   2.771
 9897SOL    HW130590   5.194   1.392   2.734
 9897SOL    HW230591   5.268   1.522   2.799
 9898SOL     OW30592   0.666   5.603   5.477
 9898SOL    HW130593   0.673   5.504   5.490
 9898SOL    HW230594   0.754   5.646   5.500
 9899SOL     OW30595   4.819   4.783   2.236
 9899SOL    HW130596   4.750   4.721   2.274
 9899SOL    HW230597   4.902   4.732   2.215
 9900SOL     OW30598   1.450   2.274   4.063
 9900SOL    HW130599   1.528   2.333   4.087
 9900SOL    HW230600   1.404   2.311   3.982
 9901SOL     OW30601   2.432   2.513   6.198
 9901SOL    HW130602   2.383   2.597   6.223
 9901SOL    HW230603   2.513   2.537   6.145
 9902SOL     OW30604   3.782   3.958   0.737
 9902SOL    HW130605   3.715   3.937   0.666
 9902SOL    HW230606   3.850   3.885   0.743
 9903SOL     OW30607   4.612   2.133   2.427
 9903SOL    HW130608   4.639   2.064   2.494
 9903SOL    HW230609   4.615   2.093   2.336
 9904SOL     OW30610   6.642   2.324   0.072
 9904SOL    HW130611   6.631   2.261   7.024
 9904SOL    HW230612   6.645   2.272   0.157
 9905SOL     OW30613   1.390   6.266   6.380
 9905SOL    HW130614   1.478   6.242   6.338
 9905SOL    HW230615   1.318   6.263   6.311
 9906SOL     OW30616   2.325   3.205   6.410
 9906SOL    HW130617   2.422   3.230   6.419
 9906SOL    HW230618   2.270   3.260   6.472
 9907SOL     OW30619   1.831   6.116   3.392
 9907SOL    HW130620   1.811   6.130   3.295
 9907SOL    HW230621   1.814   6.020   3.417
 9908SOL     OW30622   0.309   3.678   6.160
 9908SOL    HW130623   0.383   3.645   6.101
 9908SOL    HW230624   0.348   3.710   6.247
 9909SOL     OW30625   3.353   1.576   2.777
 9909SOL    HW130626   3.316   1.518   2.849
 9909SOL    HW230627   3.353   1.525   2.690
 9910SOL     OW30628   6.340   4.726   0.966
 9910SOL    HW130629   6.332   4.803   0.902
 9910SOL    HW230630   6.295   4.750   1.052
 9911SOL     OW30631   4.565   4.857   3.488
 9911SOL    HW130632   4.497   4.830   3.419
 9911SOL    HW230633   4.657   4.850   3.449
 9912SOL     OW30634   5.018   0.479   1.941
 9912SOL    HW130635   5.057   0.419   1.871
 9912SOL    HW230636   4.920   0.488   1.926
 9913SOL     OW30637   5.229   2.846   2.773
 9913SOL    HW130638   5.310   2.811   2.819
 9913SOL    HW230639   5.254   2.885   2.685
 9914SOL     OW30640   1.645   6.969   5.189
 9914SOL    HW130641   1.636   6.887   5.133
 9914SOL    HW230642   1.722   7.024   5.155
 9915SOL     OW30643   4.900   3.430   4.041
 9915SOL    HW130644   4.961   3.499   4.002
 9915SOL    HW230645   4.880   3.360   3.972
 9916SOL     OW30646   2.006   2.786   2.546
 9916SOL    HW130647   1.944   2.778   2.624
 9916SOL    HW230648   1.990   2.873   2.499
 9917SOL     OW30649   2.918   4.082   5.549
 9917SOL    HW130650   2.832   4.129   5.531
 9917SOL    HW230651   2.982   4.146   5.592
 9918SOL     OW30652   1.975   1.690   6.547
 9918SOL    HW130653   1.968   1.674   6.645
 9918SOL    HW230654   1.905   1.756   6.519
 9919SOL     OW30655   1.480   5.746   2.293
 9919SOL    HW130656   1.565   5.724   2.340
 9919SOL    HW230657   1.444   5.833   2.328
 9920SOL     OW30658   3.637   6.214   1.480
 9920SOL    HW130659   3.679   6.187   1.393
 9920SOL    HW230660   3.543   6.244   1.464
 9921SOL     OW30661   6.059   0.025   3.132
 9921SOL    HW130662   6.033   0.081   3.053
 9921SOL    HW230663   6.155   0.001   3.125
 9922SOL     OW30664   4.441   4.471   0.621
 9922SOL    HW130665   4.470   4.494   0.713
 9922SOL    HW230666   4.365   4.405   0.625
 9923SOL     OW30667   6.784   2.200   6.316
 9923SOL    HW130668   6.821   2.138   6.246
 9923SOL    HW230669   6.757   2.146   6.396
 9924SOL     OW30670   6.542   1.090   2.789
 9924SOL    HW130671   6.535   1.002   2.836
 9924SOL    HW230672   6.551   1.074   2.691
 9925SOL     OW30673   2.482   3.683   5.694
 9925SOL    HW130674   2.408   3.750   5.695
 9925SOL    HW230675   2.550   3.709   5.625
 9926SOL     OW30676   1.284   1.376   1.007
 9926SOL    HW130677   1.340   1.371   0.924
 9926SOL    HW230678   1.233   1.462   1.007
 9927SOL     OW30679   0.327   1.959   2.644
 9927SOL    HW130680   0.258   2.028   2.623
 9927SOL    HW230681   0.336   1.951   2.743
 9928SOL     OW30682   0.519   3.873   1.912
 9928SOL    HW130683   0.592   3.941   1.918
 9928SOL    HW230684   0.545   3.803   1.845
 9929SOL     OW30685   3.439   4.404   6.319
 9929SOL    HW130686   3.533   4.373   6.329
 9929SOL    HW230687   3.376   4.327   6.336
 9930SOL     OW30688   6.620   0.077   6.502
 9930SOL    HW130689   6.701   0.109   6.452
 9930SOL    HW230690   6.561   0.026   6.440
 9931SOL     OW30691   1.581   6.250   5.617
 9931SOL    HW130692   1.649   6.244   5.689
 9931SOL    HW230693   1.614   6.311   5.545
 9932SOL     OW30694   2.008   1.413   0.880
 9932SOL    HW130695   1.969   1.501   0.905
 9932SOL    HW230696   1.948   1.367   0.814
 9933SOL     OW30697   2.544   1.402   3.038
 9933SOL    HW130698   2.460   1.429   2.991
 9933SOL    HW230699   2.557   1.459   3.119
 9934SOL     OW30700   5.457   1.919   6.544
 9934SOL    HW130701   5.542   1.867   6.552
 9934SOL    HW230702   5.450   1.982   6.621
 9935SOL     OW30703   3.153   2.084   0.598
 9935SOL    HW130704   3.137   1.996   0.642
 9935SOL    HW230705   3.222   2.074   0.526
 9936SOL     OW30706   5.399   5.803   5.804
 9936SOL    HW130707   5.439   5.794   5.896
 9936SOL    HW230708   5.370   5.713   5.772
 9937SOL     OW30709   0.176   0.303   2.829
 9937SOL    HW130710   0.101   0.270   2.888
 9937SOL    HW230711   0.164   0.266   2.737
 9938SOL     OW30712   6.870   0.751   4.718
 9938SOL    HW130713   6.903   0.672   4.665
 9938SOL    HW230714   6.902   0.835   4.675
 9939SOL     OW30715   2.116   3.807   0.756
 9939SOL    HW130716   2.045   3.872   0.783
 9939SOL    HW230717   2.176   3.790   0.834
 9940SOL     OW30718   0.568   0.189   2.755
 9940SOL    HW130719   0.661   0.194   2.791
 9940SOL    HW230720   0.505   0.231   2.820
 9941SOL     OW30721   4.117   4.736   5.967
 9941SOL    HW130722   4.194   4.798   5.951
 9941SOL    HW230723   4.084   4.700   5.879
 9942SOL     OW30724   4.443   4.686   3.788
 9942SOL    HW130725   4.539   4.657   3.788
 9942SOL    HW230726   4.400   4.659   3.874
 9943SOL     OW30727   2.063   4.055   0.286
 9943SOL    HW130728   2.036   4.069   0.191
 9943SOL    HW230729   2.004   4.108   0.346
 9944SOL     OW30730   1.526   4.879   0.268
 9944SOL    HW130731   1.615   4.891   0.313
 9944SOL    HW230732   1.540   4.875   0.169
 9945SOL     OW30733   6.146   3.748   0.248
 9945SOL    HW130734   6.161   3.782   0.341
 9945SOL    HW230735   6.075   3.677   0.250
 9946SOL     OW30736   5.607   1.117   2.871
 9946SOL    HW130737   5.581   1.020   2.873
 9946SOL    HW230738   5.704   1.126   2.893
 9947SOL     OW30739   1.456   1.630   4.430
 9947SOL    HW130740   1.438   1.607   4.334
 9947SOL    HW230741   1.546   1.672   4.438
 9948SOL     OW30742   6.383   0.456   4.155
 9948SOL    HW130743   6.471   0.465   4.201
 9948SOL    HW230744   6.360   0.542   4.108
 9949SOL     OW30745   6.742   3.996   4.535
 9949SOL    HW130746   6.833   3.986   4.577
 9949SOL    HW230747   6.750   3.984   4.436
 9950SOL     OW30748   6.558   5.304   5.844
 9950SOL    HW130749   6.576   5.306   5.942
 9950SOL    HW230750   6.635   5.260   5.797
 9951SOL     OW30751   0.901   2.703   2.720
 9951SOL    HW130752   0.882   2.606   2.706
 9951SOL    HW230753   0.864   2.756   2.643
 9952SOL     OW30754   0.726   4.344   1.912
 9952SOL    HW130755   0.707   4.268   1.974
 9952SOL    HW230756   0.777   4.312   1.833
 9953SOL     OW30757   5.951   2.574   3.436
 9953SOL    HW130758   5.972   2.500   3.500
 9953SOL    HW230759   5.987   2.660   3.471
 9954SOL     OW30760   2.894   1.708   5.829
 9954SOL    HW130761   2.960   1.699   5.903
 9954SOL    HW230762   2.892   1.624   5.775
 9955SOL     OW30763   5.029   3.515   1.110
 9955SOL    HW130764   5.101   3.582   1.091
 9955SOL    HW230765   4.979   3.496   1.025
 9956SOL     OW30766   1.860   4.548   3.383
 9956SOL    HW130767   1.892   4.461   3.345
 9956SOL    HW230768   1.886   4.623   3.321
 9957SOL     OW30769   5.832   6.858   1.785
 9957SOL    HW130770   5.756   6.794   1.786
 9957SOL    HW230771   5.912   6.815   1.744
 9958SOL     OW30772   3.772   4.800   5.830
 9958SOL    HW130773   3.802   4.780   5.923
 9958SOL    HW230774   3.801   4.893   5.804
 9959SOL     OW30775   4.203   4.469   1.269
 9959SOL    HW130776   4.236   4.451   1.361
 9959SOL    HW230777   4.112   4.427   1.257
 9960SOL     OW30778   6.826   6.871   0.171
 9960SOL    HW130779   6.807   6.775   0.147
 9960SOL    HW230780   6.803   6.929   0.093
 9961SOL     OW30781   2.223   4.495   1.934
 9961SOL    HW130782   2.175   4.573   1.973
 9961SOL    HW230783   2.320   4.500   1.959
 9962SOL     OW30784   3.544   5.319   2.659
 9962SOL    HW130785   3.487   5.273   2.591
 9962SOL    HW230786   3.616   5.257   2.690
 9963SOL     OW30787   1.841   1.611   0.351
 9963SOL    HW130788   1.862   1.706   0.326
 9963SOL    HW230789   1.788   1.610   0.436
 9964SOL     OW30790   4.665   4.444   5.508
 9964SOL    HW130791   4.576   4.400   5.518
 9964SOL    HW230792   4.698   4.433   5.414
 9965SOL     OW30793   2.957   5.880   5.284
 9965SOL    HW130794   3.000   5.970   5.286
 9965SOL    HW230795   2.960   5.844   5.190
 9966SOL     OW30796   3.073   4.875   2.390
 9966SOL    HW130797   3.025   4.860   2.304
 9966SOL    HW230798   3.163   4.830   2.386
 9967SOL     OW30799   6.779   6.894   2.380
 9967SOL    HW130800   6.784   6.881   2.281
 9967SOL    HW230801   6.866   6.868   2.421
 9968SOL     OW30802   4.177   6.171   0.157
 9968SOL    HW130803   4.119   6.131   0.228
 9968SOL    HW230804   4.252   6.221   0.199
 9969SOL     OW30805   1.376   4.691   4.691
 9969SOL    HW130806   1.284   4.651   4.693
 9969SOL    HW230807   1.396   4.726   4.600
 9970SOL     OW30808   5.675   4.935   2.084
 9970SOL    HW130809   5.684   4.884   1.998
 9970SOL    HW230810   5.723   5.023   2.075
 9971SOL     OW30811   1.897   3.084   2.124
 9971SOL    HW130812   1.953   3.075   2.042
 9971SOL    HW230813   1.804   3.110   2.098
 9972SOL     OW30814   3.804   4.009   0.423
 9972SOL    HW130815   3.881   3.947   0.408
 9972SOL    HW230816   3.838   4.094   0.463
 9973SOL     OW30817   3.730   1.776   4.067
 9973SOL    HW130818   3.825   1.768   4.038
 9973SOL    HW230819   3.710   1.705   4.135
 9974SOL     OW30820   0.015   2.126   3.491
 9974SOL    HW130821   0.084   2.183   3.535
 9974SOL    HW230822   0.035   2.119   3.393
 9975SOL     OW30823   1.128   5.253   6.480
 9975SOL    HW130824   1.209   5.246   6.421
 9975SOL    HW230825   1.046   5.260   6.424
 9976SOL     OW30826   2.314   4.968   5.870
 9976SOL    HW130827   2.255   5.043   5.839
 9976SOL    HW230828   2.367   4.933   5.792
 9977SOL     OW30829   5.285   5.419   4.621
 9977SOL    HW130830   5.284   5.448   4.525
 9977SOL    HW230831   5.302   5.498   4.679
 9978SOL     OW30832   0.425   2.056   6.228
 9978SOL    HW130833   0.468   2.138   6.190
 9978SOL    HW230834   0.486   2.014   6.295
 9979SOL     OW30835   4.984   3.178   5.456
 9979SOL    HW130836   4.971   3.109   5.527
 9979SOL    HW230837   5.077   3.171   5.420
 9980SOL     OW30838   1.373   0.946   0.124
 9980SOL    HW130839   1.356   0.918   0.029
 9980SOL    HW230840   1.384   1.045   0.127
 9981SOL     OW30841   0.901   2.220   1.329
 9981SOL    HW130842   0.823   2.157   1.327
 9981SOL    HW230843   0.881   2.300   1.272
 9982SOL     OW30844   2.317   1.448   5.112
 9982SOL    HW130845   2.402   1.437   5.163
 9982SOL    HW230846   2.296   1.546   5.104
 9983SOL     OW30847   6.507   2.914   2.321
 9983SOL    HW130848   6.472   2.833   2.274
 9983SOL    HW230849   6.433   2.980   2.333
 9984SOL     OW30850   0.592   6.179   1.327
 9984SOL    HW130851   0.526   6.166   1.253
 9984SOL    HW230852   0.565   6.258   1.382
 9985SOL     OW30853   3.791   5.233   0.423
 9985SOL    HW130854   3.866   5.227   0.489
 9985SOL    HW230855   3.730   5.155   0.434
 9986SOL     OW30856   4.967   4.538   0.457
 9986SOL    HW130857   4.995   4.633   0.446
 9986SOL    HW230858   4.962   4.494   0.368
 9987SOL     OW30859   5.603   3.093   1.529
 9987SOL    HW130860   5.640   3.140   1.608
 9987SOL    HW230861   5.525   3.036   1.557
 9988SOL     OW30862   5.831   5.768   4.084
 9988SOL    HW130863   5.872   5.807   4.001
 9988SOL    HW230864   5.768   5.834   4.125
 9989SOL     OW30865   6.243   4.256   1.451
 9989SOL    HW130866   6.229   4.352   1.473
 9989SOL    HW230867   6.266   4.247   1.354
 9990SOL     OW30868   0.465   6.739   3.162
 9990SOL    HW130869   0.412   6.662   3.196
 9990SOL    HW230870   0.563   6.720   3.174
 9991SOL     OW30871   1.665   3.836   3.403
 9991SOL    HW130872   1.677   3.935   3.415
 9991SOL    HW230873   1.728   3.788   3.464
 9992SOL     OW30874   3.418   4.274   0.706
 9992SOL    HW130875   3.406   4.181   0.670
 9992SOL    HW230876   3.507   4.309   0.676
 9993SOL     OW30877   3.722   6.124   3.966
 9993SOL    HW130878   3.652   6.079   3.910
 9993SOL    HW230879   3.680   6.198   4.018
 9994SOL     OW30880   0.578   4.161   4.399
 9994SOL    HW130881   0.588   4.084   4.336
 9994SOL    HW230882   0.521   4.232   4.358
 9995SOL     OW30883   2.932   0.809   4.714
 9995SOL    HW130884   3.013   0.822   4.657
 9995SOL    HW230885   2.852   0.797   4.655
 9996SOL     OW30886   2.332   4.307   0.621
 9996SOL    HW130887   2.417   4.277   0.663
 9996SOL    HW230888   2.352   4.355   0.535
 9997SOL     OW30889   5.438   1.631   3.737
 9997SOL    HW130890   5.362   1.654   3.797
 9997SOL    HW230891   5.409   1.562   3.670
 9998SOL     OW30892   4.976   3.987   2.613
 9998SOL    HW130893   5.059   3.937   2.635
 9998SOL    HW230894   4.946   3.963   2.520
 9999SOL     OW30895   0.834   0.087   3.622
 9999SOL    HW130896   0.919   0.138   3.640
 9999SOL    HW230897   0.829   0.065   3.524
10000SOL     OW30898   5.306   1.754   1.672
10000SOL    HW130899   5.209   1.758   1.648
10000SOL    HW230900   5.325   1.667   1.718
10001SOL     OW30901   3.196   6.639   2.409
10001SOL    HW130902   3.252   6.720   2.426
10001SOL    HW230903   3.161   6.641   2.315
10002SOL     OW30904   2.021   1.037   0.772
10002SOL    HW130905   1.949   0.970   0.754
10002SOL    HW230906   2.076   1.050   0.689
10003SOL     OW30907   2.632   1.347   2.428
10003SOL    HW130908   2.596   1.329   2.337
10003SOL    HW230909   2.714   1.404   2.422
10004SOL     OW30910   5.189   4.617   4.941
10004SOL    HW130911   5.178   4.693   4.878
10004SOL    HW230912   5.100   4.573   4.957
10005SOL     OW30913   2.810   5.743   3.794
10005SOL    HW130914   2.876   5.751   3.869
10005SOL    HW230915   2.856   5.706   3.713
10006SOL     OW30916   5.903   0.024   5.599
10006SOL    HW130917   5.915   7.019   5.692
10006SOL    HW230918   5.992   0.045   5.559
10007SOL     OW30919   0.571   3.910   4.802
10007SOL    HW130920   0.658   3.862   4.795
10007SOL    HW230921   0.571   3.988   4.740
10008SOL     OW30922   3.557   1.790   4.348
10008SOL    HW130923   3.598   1.739   4.273
10008SOL    HW230924   3.481   1.737   4.387
10009SOL     OW30925   1.862   3.894   1.983
10009SOL    HW130926   1.787   3.854   1.930
10009SOL    HW230927   1.943   3.835   1.976
10010SOL     OW30928   2.778   4.933   6.531
10010SOL    HW130929   2.827   5.000   6.475
10010SOL    HW230930   2.784   4.843   6.489
10011SOL     OW30931   0.153   4.470   0.777
10011SOL    HW130932   0.246   4.441   0.801
10011SOL    HW230933   0.113   4.521   0.852
10012SOL     OW30934   4.962   0.802   2.236
10012SOL    HW130935   4.887   0.792   2.301
10012SOL    HW230936   5.006   0.890   2.250
10013SOL     OW30937   1.560   4.792   5.251
10013SOL    HW130938   1.615   4.802   5.169
10013SOL    HW230939   1.595   4.717   5.307
10014SOL     OW30940   0.919   6.490   2.354
10014SOL    HW130941   0.903   6.575   2.303
10014SOL    HW230942   1.017   6.478   2.368
10015SOL     OW30943   4.079   5.105   6.609
10015SOL    HW130944   4.028   5.137   6.689
10015SOL    HW230945   4.035   5.023   6.572
10016SOL     OW30946   1.694   1.399   4.833
10016SOL    HW130947   1.768   1.388   4.766
10016SOL    HW230948   1.631   1.469   4.800
10017SOL     OW30949   2.430   1.703   2.616
10017SOL    HW130950   2.384   1.629   2.568
10017SOL    HW230951   2.403   1.791   2.577
10018SOL     OW30952   6.683   4.141   5.453
10018SOL    HW130953   6.775   4.103   5.446
10018SOL    HW230954   6.632   4.092   5.524
10019SOL     OW30955   6.883   1.702   3.349
10019SOL    HW130956   6.912   1.766   3.421
10019SOL    HW230957   6.788   1.720   3.325
10020SOL     OW30958   0.268   0.881   1.552
10020SOL    HW130959   0.197   0.821   1.588
10020SOL    HW230960   0.256   0.973   1.588
10021SOL     OW30961   1.334   3.072   1.524
10021SOL    HW130962   1.253   3.102   1.576
10021SOL    HW230963   1.417   3.098   1.574
10022SOL     OW30964   2.163   5.981   6.935
10022SOL    HW130965   2.218   6.057   6.970
10022SOL    HW230966   2.069   5.991   6.965
10023SOL     OW30967   2.586   6.354   5.918
10023SOL    HW130968   2.507   6.293   5.926
10023SOL    HW230969   2.602   6.376   5.821
10024SOL     OW30970   1.626   4.871   3.219
10024SOL    HW130971   1.617   4.879   3.120
10024SOL    HW230972   1.697   4.803   3.240
10025SOL     OW30973   1.843   3.061   1.598
10025SOL    HW130974   1.827   2.962   1.603
10025SOL    HW230975   1.873   3.085   1.506
10026SOL     OW30976   4.921   1.211   2.667
10026SOL    HW130977   4.911   1.233   2.570
10026SOL    HW230978   4.831   1.196   2.708
10027SOL     OW30979   0.886   2.728   5.304
10027SOL    HW130980   0.901   2.816   5.258
10027SOL    HW230981   0.961   2.711   5.368
10028SOL     OW30982   3.653   0.494   1.032
10028SOL    HW130983   3.605   0.560   1.090
10028SOL    HW230984   3.751   0.494   1.054
10029SOL     OW30985   0.331   2.856   4.554
10029SOL    HW130986   0.250   2.817   4.510
10029SOL    HW230987   0.340   2.952   4.528
10030SOL     OW30988   2.996   7.009   4.961
10030SOL    HW130989   3.005   6.909   4.957
10030SOL    HW230990   2.899   0.004   4.973
10031SOL     OW30991   4.664   5.212   4.553
10031SOL    HW130992   4.740   5.155   4.585
10031SOL    HW230993   4.584   5.155   4.535
10032SOL     OW30994   3.699   0.443   6.408
10032SOL    HW130995   3.703   0.529   6.458
10032SOL    HW230996   3.618   0.444   6.348
10033SOL     OW30997   4.484   1.431   4.076
10033SOL    HW130998   4.387   1.426   4.053
10033SOL    HW230999   4.538   1.430   3.992
10034SOL     OW31000   2.303   0.947   3.718
10034SOL    HW131001   2.354   0.875   3.671
10034SOL    HW231002   2.363   0.993   3.783
10035SOL     OW31003   5.940   3.783   0.494
10035SOL    HW131004   6.035   3.764   0.519
10035SOL    HW231005   5.880   3.721   0.544
10036SOL     OW31006   6.412   1.107   0.546
10036SOL    HW131007   6.422   1.060   0.634
10036SOL    HW231008   6.493   1.090   0.490
10037SOL     OW31009   6.491   6.929   6.050
10037SOL    HW131010   6.466   6.992   5.976
10037SOL    HW231011   6.433   6.847   6.045
10038SOL     OW31012   4.571   6.652   6.113
10038SOL    HW131013   4.617   6.700   6.038
10038SOL    HW231014   4.616   6.673   6.199
10039SOL     OW31015   4.996   6.202   4.893
10039SOL    HW131016   4.935   6.124   4.906
10039SOL    HW231017   5.081   6.187   4.943
10040SOL     OW31018   4.189   5.964   7.021
10040SOL    HW131019   4.194   6.050   0.042
10040SOL    HW231020   4.095   5.928   7.025
10041SOL     OW31021   6.110   5.351   5.277
10041SOL    HW131022   6.154   5.319   5.193
10041SOL    HW231023   6.020   5.310   5.286
10042SOL     OW31024   0.669   1.006   5.048
10042SOL    HW131025   0.664   0.916   5.005
10042SOL    HW231026   0.745   1.007   5.113
10043SOL     OW31027   0.294   0.466   2.986
10043SOL    HW131028   0.291   0.428   3.078
10043SOL    HW231029   0.268   0.396   2.919
10044SOL     OW31030   2.413   1.828   4.392
10044SOL    HW131031   2.442   1.919   4.421
10044SOL    HW231032   2.322   1.833   4.352
10045SOL     OW31033   4.511   0.227   4.001
10045SOL    HW131034   4.545   0.150   3.948
10045SOL    HW231035   4.415   0.213   4.023
10046SOL     OW31036   0.484   1.302   1.597
10046SOL    HW131037   0.447   1.393   1.576
10046SOL    HW231038   0.558   1.311   1.664
10047SOL     OW31039   6.259   3.164   5.066
10047SOL    HW131040   6.322   3.161   4.989
10047SOL    HW231041   6.165   3.157   5.033
10048SOL     OW31042   3.684   1.700   1.842
10048SOL    HW131043   3.601   1.668   1.888
10048SOL    HW231044   3.680   1.800   1.830
10049SOL     OW31045   0.937   1.079   6.388
10049SOL    HW131046   0.989   1.162   6.405
10049SOL    HW231047   0.969   1.007   6.450
10050SOL     OW31048   6.247   2.588   5.037
10050SOL    HW131049   6.214   2.675   5.072
10050SOL    HW231050   6.199   2.566   4.952
10051SOL     OW31051   6.714   2.637   4.683
10051SOL    HW131052   6.644   2.678   4.742
10051SOL    HW231053   6.804   2.648   4.725
10052SOL     OW31054   2.136   2.527   1.919
10052SOL    HW131055   2.091   2.616   1.930
10052SOL    HW231056   2.229   2.541   1.886
10053SOL     OW31057   3.926   5.285   1.932
10053SOL    HW131058   3.891   5.201   1.973
10053SOL    HW231059   3.855   5.326   1.875
10054SOL     OW31060   4.037   6.186   6.058
10054SOL    HW131061   4.052   6.089   6.038
10054SOL    HW231062   4.125   6.233   6.057
10055SOL     OW31063   6.173   2.512   5.307
10055SOL    HW131064   6.186   2.543   5.213
10055SOL    HW231065   6.129   2.422   5.307
10056SOL     OW31066   5.810   5.198   1.166
10056SOL    HW131067   5.721   5.163   1.137
10056SOL    HW231068   5.837   5.275   1.108
10057SOL     OW31069   3.343   0.886   4.316
10057SOL    HW131070   3.286   0.804   4.307
10057SOL    HW231071   3.387   0.886   4.406
10058SOL     OW31072   0.129   4.008   4.448
10058SOL    HW131073   0.183   3.927   4.429
10058SOL    HW231074   0.190   4.086   4.464
10059SOL     OW31075   4.763   6.880   0.636
10059SOL    HW131076   4.785   6.806   0.699
10059SOL    HW231077   4.807   6.965   0.667
10060SOL     OW31078   2.459   1.320   2.203
10060SOL    HW131079   2.530   1.299   2.136
10060SOL    HW231080   2.369   1.319   2.158
10061SOL     OW31081   5.123   1.061   4.109
10061SOL    HW131082   5.036   1.072   4.060
10061SOL    HW231083   5.132   0.967   4.139
10062SOL     OW31084   6.168   0.068   4.902
10062SOL    HW131085   6.205   7.010   4.935
10062SOL    HW231086   6.243   0.133   4.888
10063SOL     OW31087   1.826   1.674   3.393
10063SOL    HW131088   1.913   1.632   3.370
10063SOL    HW231089   1.841   1.752   3.454
10064SOL     OW31090   5.596   5.525   5.814
10064SOL    HW131091   5.625   5.498   5.906
10064SOL    HW231092   5.497   5.518   5.807
10065SOL     OW31093   1.890   0.431   1.945
10065SOL    HW131094   1.861   0.527   1.943
10065SOL    HW231095   1.940   0.410   1.861
10066SOL     OW31096   1.649   1.512   4.078
10066SOL    HW131097   1.554   1.503   4.107
10066SOL    HW231098   1.659   1.591   4.019
10067SOL     OW31099   5.255   4.179   5.907
10067SOL    HW131100   5.304   4.096   5.881
10067SOL    HW231101   5.261   4.246   5.832
10068SOL     OW31102   5.294   3.124   3.993
10068SOL    HW131103   5.382   3.170   3.986
10068SOL    HW231104   5.249   3.123   3.904
10069SOL     OW31105   1.655   6.142   3.872
10069SOL    HW131106   1.590   6.139   3.948
10069SOL    HW231107   1.744   6.109   3.903
10070SOL     OW31108   0.128   0.278   4.818
10070SOL    HW131109   0.136   0.272   4.719
10070SOL    HW231110   0.127   0.373   4.847
10071SOL     OW31111   4.922   5.576   4.018
10071SOL    HW131112   4.990   5.626   3.964
10071SOL    HW231113   4.963   5.549   4.105
10072SOL     OW31114   1.245   6.400   4.300
10072SOL    HW131115   1.278   6.460   4.227
10072SOL    HW231116   1.303   6.411   4.381
10073SOL     OW31117   6.401   3.920   4.672
10073SOL    HW131118   6.458   4.000   4.687
10073SOL    HW231119   6.319   3.946   4.622
10074SOL     OW31120   0.523   0.638   5.269
10074SOL    HW131121   0.546   0.690   5.351
10074SOL    HW231122   0.573   0.551   5.269
10075SOL     OW31123   1.317   1.979   2.734
10075SOL    HW131124   1.276   1.933   2.813
10075SOL    HW231125   1.338   2.074   2.758
10076SOL     OW31126   5.821   0.197   3.474
10076SOL    HW131127   5.735   0.236   3.440
10076SOL    HW231128   5.852   0.125   3.411
10077SOL     OW31129   3.595   2.408   6.812
10077SOL    HW131130   3.498   2.386   6.813
10077SOL    HW231131   3.608   2.499   6.773
10078SOL     OW31132   6.844   6.362   4.289
10078SOL    HW131133   6.941   6.362   4.262
10078SOL    HW231134   6.788   6.330   4.213
10079SOL     OW31135   1.253   3.004   1.981
10079SOL    HW131136   1.353   2.998   1.987
10079SOL    HW231137   1.225   3.014   1.886
10080SOL     OW31138   3.426   1.982   6.328
10080SOL    HW131139   3.386   1.897   6.362
10080SOL    HW231140   3.434   2.048   6.404
10081SOL     OW31141   7.014   0.062   6.578
10081SOL    HW131142   6.940   0.077   6.512
10081SOL    HW231143   7.005   0.128   6.653
10082SOL     OW31144   6.761   3.264   2.466
10082SOL    HW131145   6.830   3.193   2.450
10082SOL    HW231146   6.778   3.308   2.554
10083SOL     OW31147   5.091   1.178   3.238
10083SOL    HW131148   5.080   1.081   3.213
10083SOL    HW231149   5.051   1.235   3.167
10084SOL     OW31150   3.937   1.143   6.464
10084SOL    HW131151   3.894   1.063   6.423
10084SOL    HW231152   4.026   1.159   6.420
10085SOL     OW31153   0.366   5.294   2.480
10085SOL    HW131154   0.304   5.309   2.557
10085SOL    HW231155   0.345   5.360   2.407
10086SOL     OW31156   6.117   5.101   2.141
10086SOL    HW131157   6.160   5.060   2.060
10086SOL    HW231158   6.172   5.178   2.173
10087SOL     OW31159   0.602   0.213   4.003
10087SOL    HW131160   0.554   0.126   3.994
10087SOL    HW231161   0.545   0.287   3.967
10088SOL     OW31162   6.801   6.715   6.577
10088SOL    HW131163   6.896   6.706   6.546
10088SOL    HW231164   6.742   6.733   6.498
10089SOL     OW31165   2.560   2.538   3.072
10089SOL    HW131166   2.462   2.531   3.088
10089SOL    HW231167   2.582   2.628   3.034
10090SOL     OW31168   0.561   4.831   1.196
10090SOL    HW131169   0.531   4.735   1.196
10090SOL    HW231170   0.644   4.840   1.250
10091SOL     OW31171   1.138   3.272   5.067
10091SOL    HW131172   1.103   3.346   5.125
10091SOL    HW231173   1.068   3.248   5.000
10092SOL     OW31174   1.972   3.604   5.248
10092SOL    HW131175   1.961   3.622   5.150
10092SOL    HW231176   1.989   3.691   5.296
10093SOL     OW31177   1.091   3.951   4.540
10093SOL    HW131178   1.074   3.961   4.638
10093SOL    HW231179   1.175   4.000   4.515
10094SOL     OW31180   2.501   6.485   1.746
10094SOL    HW131181   2.427   6.458   1.808
10094SOL    HW231182   2.526   6.580   1.764
10095SOL     OW31183   6.327   2.177   5.389
10095SOL    HW131184   6.369   2.205   5.476
10095SOL    HW231185   6.228   2.191   5.393
10096SOL     OW31186   6.340   5.234   2.388
10096SOL    HW131187   6.340   5.289   2.305
10096SOL    HW231188   6.306   5.289   2.464
10097SOL     OW31189   0.923   0.940   0.003
10097SOL    HW131190   1.005   0.967   6.982
10097SOL    HW231191   0.926   0.980   0.095
10098SOL     OW31192   1.951   6.786   5.763
10098SOL    HW131193   1.909   6.874   5.786
10098SOL    HW231194   1.996   6.748   5.844
10099SOL     OW31195   0.104   5.373   6.535
10099SOL    HW131196   0.030   5.395   6.600
10099SOL    HW231197   0.192   5.398   6.575
10100SOL     OW31198   5.257   6.975   4.392
10100SOL    HW131199   5.250   6.982   4.292
10100SOL    HW231200   5.181   7.025   4.434
10101SOL     OW31201   5.711   4.235   1.695
10101SOL    HW131202   5.761   4.173   1.634
10101SOL    HW231203   5.714   4.328   1.658
10102SOL     OW31204   2.188   0.817   2.994
10102SOL    HW131205   2.195   0.867   2.907
10102SOL    HW231206   2.267   0.841   3.051
10103SOL     OW31207   2.739   1.204   5.158
10103SOL    HW131208   2.768   1.227   5.065
10103SOL    HW231209   2.818   1.177   5.212
10104SOL     OW31210   1.347   3.342   4.757
10104SOL    HW131211   1.419   3.335   4.688
10104SOL    HW231212   1.358   3.268   4.824
10105SOL     OW31213   1.397   1.218   0.198
10105SOL    HW131214   1.356   1.235   0.288
10105SOL    HW231215   1.471   1.284   0.183
10106SOL     OW31216   4.834   5.302   0.528
10106SOL    HW131217   4.900   5.295   0.453
10106SOL    HW231218   4.879   5.281   0.614
10107SOL     OW31219   0.264   1.737   6.959
10107SOL    HW131220   0.265   1.697   0.022
10107SOL    HW231221   0.176   1.781   6.943
10108SOL     OW31222   6.661   6.006   0.247
10108SOL    HW131223   6.628   6.088   0.294
10108SOL    HW231224   6.655   5.928   0.309
10109SOL     OW31225   3.228   6.375   2.252
10109SOL    HW131226   3.300   6.394   2.319
10109SOL    HW231227   3.204   6.460   2.205
10110SOL     OW31228   4.215   6.446   4.812
10110SOL    HW131229   4.265   6.373   4.858
10110SOL    HW231230   4.253   6.462   4.721
10111SOL     OW31231   6.363   2.855   4.532
10111SOL    HW131232   6.438   2.825   4.591
10111SOL    HW231233   6.295   2.782   4.525
10112SOL     OW31234   5.645   4.585   4.922
10112SOL    HW131235   5.658   4.513   4.854
10112SOL    HW231236   5.727   4.642   4.925
10113SOL     OW31237   3.919   1.582   6.034
10113SOL    HW131238   3.874   1.581   6.124
10113SOL    HW231239   3.881   1.509   5.978
10114SOL     OW31240   5.362   0.142   1.035
10114SOL    HW131241   5.430   0.210   1.063
10114SOL    HW231242   5.407   0.069   0.983
10115SOL     OW31243   3.329   2.044   3.546
10115SOL    HW131244   3.256   2.037   3.478
10115SOL    HW231245   3.414   2.008   3.507
10116SOL     OW31246   0.766   6.501   6.843
10116SOL    HW131247   0.822   6.432   6.796
10116SOL    HW231248   0.671   6.471   6.845
10117SOL     OW31249   6.953   0.124   4.635
10117SOL    HW131250   6.995   0.034   4.621
10117SOL    HW231251   6.870   0.113   4.689
10118SOL     OW31252   0.316   5.448   3.366
10118SOL    HW131253   0.330   5.515   3.439
10118SOL    HW231254   0.262   5.371   3.402
10119SOL     OW31255   1.601   6.580   4.639
10119SOL    HW131256   1.563   6.669   4.617
10119SOL    HW231257   1.694   6.573   4.604
10120SOL     OW31258   1.035   3.609   4.209
10120SOL    HW131259   1.002   3.640   4.120
10120SOL    HW231260   0.983   3.653   4.282
10121SOL     OW31261   6.559   5.000   5.862
10121SOL    HW131262   6.629   4.957   5.919
10121SOL    HW231263   6.601   5.072   5.807
10122SOL     OW31264   5.257   2.603   0.479
10122SOL    HW131265   5.239   2.695   0.445
10122SOL    HW231266   5.344   2.570   0.441
10123SOL     OW31267   6.612   6.290   0.298
10123SOL    HW131268   6.598   6.323   0.204
10123SOL    HW231269   6.675   6.350   0.346
10124SOL     OW31270   1.668   3.652   6.594
10124SOL    HW131271   1.768   3.646   6.589
10124SOL    HW231272   1.627   3.588   6.529
10125SOL     OW31273   1.430   1.031   2.686
10125SOL    HW131274   1.398   1.116   2.727
10125SOL    HW231275   1.428   1.039   2.586
10126SOL     OW31276   0.662   0.031   6.453
10126SOL    HW131277   0.631   0.088   6.376
10126SOL    HW231278   0.585   7.009   6.490
10127SOL     OW31279   2.827   4.827   5.875
10127SOL    HW131280   2.802   4.800   5.968
10127SOL    HW231281   2.749   4.813   5.814
10128SOL     OW31282   1.142   1.592   1.209
10128SOL    HW131283   1.234   1.620   1.183
10128SOL    HW231284   1.111   1.648   1.286
10129SOL     OW31285   5.102   2.937   4.092
10129SOL    HW131286   5.140   3.025   4.063
10129SOL    HW231287   5.098   2.933   4.192
10130SOL     OW31288   2.079   4.239   2.295
10130SOL    HW131289   2.146   4.310   2.273
10130SOL    HW231290   2.125   4.151   2.301
10131SOL     OW31291   0.437   0.973   2.969
10131SOL    HW131292   0.502   1.029   3.021
10131SOL    HW231293   0.488   0.907   2.914
10132SOL     OW31294   2.423   6.682   3.814
10132SOL    HW131295   2.386   6.600   3.858
10132SOL    HW231296   2.471   6.655   3.730
10133SOL     OW31297   4.822   6.058   1.582
10133SOL    HW131298   4.795   6.000   1.659
10133SOL    HW231299   4.813   6.154   1.609
10134SOL     OW31300   6.553   6.988   3.737
10134SOL    HW131301   6.600   0.028   3.791
10134SOL    HW231302   6.520   0.000   3.652
10135SOL     OW31303   5.372   3.245   3.407
10135SOL    HW131304   5.281   3.208   3.387
10135SOL    HW231305   5.441   3.175   3.388
10136SOL     OW31306   5.663   0.278   2.769
10136SOL    HW131307   5.699   0.262   2.677
10136SOL    HW231308   5.698   0.365   2.804
10137SOL     OW31309   6.061   4.639   3.779
10137SOL    HW131310   6.078   4.666   3.874
10137SOL    HW231311   6.141   4.662   3.723
10138SOL     OW31312   5.242   2.261   0.628
10138SOL    HW131313   5.259   2.232   0.534
10138SOL    HW231314   5.143   2.270   0.643
10139SOL     OW31315   3.761   3.442   3.294
10139SOL    HW131316   3.667   3.431   3.263
10139SOL    HW231317   3.764   3.439   3.394
10140SOL     OW31318   6.957   5.858   5.404
10140SOL    HW131319   6.989   5.855   5.499
10140SOL    HW231320   6.866   5.817   5.397
10141SOL     OW31321   2.876   1.395   4.139
10141SOL    HW131322   2.805   1.411   4.208
10141SOL    HW231323   2.833   1.372   4.052
10142SOL     OW31324   6.279   6.800   4.615
10142SOL    HW131325   6.198   6.799   4.674
10142SOL    HW231326   6.354   6.753   4.661
10143SOL     OW31327   4.511   0.830   0.637
10143SOL    HW131328   4.423   0.865   0.669
10143SOL    HW231329   4.516   0.840   0.537
10144SOL     OW31330   4.109   0.166   6.079
10144SOL    HW131331   4.063   0.114   6.006
10144SOL    HW231332   4.045   0.230   6.119
10145SOL     OW31333   3.403   5.675   6.229
10145SOL    HW131334   3.479   5.701   6.170
10145SOL    HW231335   3.396   5.576   6.233
10146SOL     OW31336   3.926   5.085   5.019
10146SOL    HW131337   3.882   5.037   4.943
10146SOL    HW231338   4.012   5.126   4.988
10147SOL     OW31339   4.943   4.657   5.190
10147SOL    HW131340   4.970   4.611   5.106
10147SOL    HW231341   4.900   4.744   5.169
10148SOL     OW31342   6.042   5.594   6.470
10148SOL    HW131343   5.953   5.639   6.479
10148SOL    HW231344   6.105   5.631   6.538
10149SOL     OW31345   5.746   1.842   1.013
10149SOL    HW131346   5.658   1.811   1.049
10149SOL    HW231347   5.766   1.933   1.050
10150SOL     OW31348   4.237   3.673   0.399
10150SOL    HW131349   4.268   3.591   0.447
10150SOL    HW231350   4.264   3.669   0.303
10151SOL     OW31351   1.043   6.665   0.002
10151SOL    HW131352   1.022   6.571   7.003
10151SOL    HW231353   1.116   6.701   6.973
10152SOL     OW31354   0.931   6.473   4.792
10152SOL    HW131355   0.992   6.537   4.746
10152SOL    HW231356   0.953   6.469   4.889
10153SOL     OW31357   4.913   6.156   3.918
10153SOL    HW131358   4.993   6.210   3.945
10153SOL    HW231359   4.926   6.122   3.825
10154SOL     OW31360   5.873   0.096   4.933
10154SOL    HW131361   5.864   0.122   5.029
10154SOL    HW231362   5.970   0.082   4.912
10155SOL     OW31363   3.533   2.095   5.764
10155SOL    HW131364   3.445   2.051   5.753
10155SOL    HW231365   3.598   2.058   5.698
10156SOL     OW31366   6.460   0.702   2.250
10156SOL    HW131367   6.385   0.656   2.298
10156SOL    HW231368   6.422   0.770   2.187
10157SOL     OW31369   6.222   3.298   6.277
10157SOL    HW131370   6.316   3.276   6.250
10157SOL    HW231371   6.224   3.377   6.339
10158SOL     OW31372   5.526   3.504   0.641
10158SOL    HW131373   5.518   3.409   0.671
10158SOL    HW231374   5.444   3.531   0.591
10159SOL     OW31375   3.225   3.272   6.049
10159SOL    HW131376   3.194   3.204   6.116
10159SOL    HW231377   3.266   3.224   5.971
10160SOL     OW31378   2.197   3.078   2.448
10160SOL    HW131379   2.192   3.039   2.540
10160SOL    HW231380   2.239   3.169   2.453
10161SOL     OW31381   3.656   3.094   6.404
10161SOL    HW131382   3.629   3.003   6.373
10161SOL    HW231383   3.665   3.095   6.503
10162SOL     OW31384   3.387   4.873   0.497
10162SOL    HW131385   3.320   4.938   0.532
10162SOL    HW231386   3.426   4.820   0.573
10163SOL     OW31387   5.578   5.228   5.930
10163SOL    HW131388   5.481   5.250   5.938
10163SOL    HW231389   5.590   5.151   5.866
10164SOL     OW31390   5.616   3.215   4.992
10164SOL    HW131391   5.527   3.261   4.995
10164SOL    HW231392   5.680   3.261   5.054
10165SOL     OW31393   0.549   1.654   3.330
10165SOL    HW131394   0.520   1.607   3.247
10165SOL    HW231395   0.525   1.751   3.324
10166SOL     OW31396   4.054   1.118   1.845
10166SOL    HW131397   3.980   1.052   1.842
10166SOL    HW231398   4.084   1.132   1.939
10167SOL     OW31399   3.174   2.380   6.238
10167SOL    HW131400   3.234   2.434   6.179
10167SOL    HW231401   3.082   2.377   6.198
10168SOL     OW31402   6.209   3.965   5.391
10168SOL    HW131403   6.109   3.958   5.394
10168SOL    HW231404   6.235   4.032   5.322
10169SOL     OW31405   6.057   4.090   3.452
10169SOL    HW131406   6.040   4.019   3.519
10169SOL    HW231407   6.028   4.179   3.488
10170SOL     OW31408   1.396   4.880   5.862
10170SOL    HW131409   1.339   4.895   5.781
10170SOL    HW231410   1.473   4.944   5.860
10171SOL     OW31411   6.445   3.226   5.541
10171SOL    HW131412   6.486   3.268   5.460
10171SOL    HW231413   6.486   3.136   5.557
10172SOL     OW31414   6.450   6.662   4.793
10172SOL    HW131415   6.544   6.638   4.769
10172SOL    HW231416   6.395   6.579   4.799
10173SOL     OW31417   0.968   2.562   0.807
10173SOL    HW131418   1.028   2.576   0.886
10173SOL    HW231419   0.918   2.647   0.788
10174SOL     OW31420   5.500   5.269   2.212
10174SOL    HW131421   5.514   5.307   2.304
10174SOL    HW231422   5.511   5.170   2.215
10175SOL     OW31423   6.209   2.346   3.794
10175SOL    HW131424   6.245   2.431   3.757
10175SOL    HW231425   6.177   2.360   3.888
10176SOL     OW31426   1.553   2.976   5.552
10176SOL    HW131427   1.534   2.977   5.454
10176SOL    HW231428   1.646   2.941   5.567
10177SOL     OW31429   2.071   0.805   0.488
10177SOL    HW131430   2.144   0.767   0.431
10177SOL    HW231431   1.987   0.753   0.474
10178SOL     OW31432   6.997   1.685   5.155
10178SOL    HW131433   6.900   1.704   5.143
10178SOL    HW231434   7.009   1.590   5.186
10179SOL     OW31435   0.918   2.065   6.180
10179SOL    HW131436   0.857   2.071   6.259
10179SOL    HW231437   1.008   2.032   6.211
10180SOL     OW31438   3.964   0.576   0.158
10180SOL    HW131439   4.050   0.627   0.166
10180SOL    HW231440   3.913   0.584   0.244
10181SOL     OW31441   5.200   3.059   2.309
10181SOL    HW131442   5.286   3.102   2.281
10181SOL    HW231443   5.181   2.980   2.251
10182SOL     OW31444   5.360   1.057   1.823
10182SOL    HW131445   5.417   1.124   1.871
10182SOL    HW231446   5.299   1.104   1.759
10183SOL     OW31447   0.342   2.487   6.227
10183SOL    HW131448   0.409   2.419   6.256
10183SOL    HW231449   0.286   2.514   6.305
10184SOL     OW31450   3.661   1.140   6.965
10184SOL    HW131451   3.704   1.163   0.023
10184SOL    HW231452   3.699   1.055   6.930
10185SOL     OW31453   5.516   5.774   1.866
10185SOL    HW131454   5.493   5.678   1.850
10185SOL    HW231455   5.571   5.808   1.790
10186SOL     OW31456   6.153   3.735   3.471
10186SOL    HW131457   6.247   3.754   3.499
10186SOL    HW231458   6.090   3.765   3.543
10187SOL     OW31459   0.863   3.158   0.846
10187SOL    HW131460   0.918   3.198   0.919
10187SOL    HW231461   0.766   3.166   0.869
10188SOL     OW31462   3.455   5.800   0.760
10188SOL    HW131463   3.498   5.880   0.717
10188SOL    HW231464   3.517   5.764   0.830
10189SOL     OW31465   1.023   0.758   6.278
10189SOL    HW131466   1.059   0.695   6.347
10189SOL    HW231467   1.048   0.852   6.301
10190SOL     OW31468   5.196   3.133   1.708
10190SOL    HW131469   5.172   3.199   1.638
10190SOL    HW231470   5.121   3.067   1.719
10191SOL     OW31471   4.996   5.056   5.357
10191SOL    HW131472   5.043   5.026   5.274
10191SOL    HW231473   4.906   5.093   5.334
10192SOL     OW31474   4.493   1.770   5.800
10192SOL    HW131475   4.488   1.787   5.899
10192SOL    HW231476   4.587   1.750   5.774
10193SOL     OW31477   4.130   3.633   2.147
10193SOL    HW131478   4.082   3.652   2.232
10193SOL    HW231479   4.229   3.631   2.163
10194SOL     OW31480   5.855   5.361   4.935
10194SOL    HW131481   5.803   5.316   4.863
10194SOL    HW231482   5.886   5.450   4.903
10195SOL     OW31483   5.990   5.397   1.041
10195SOL    HW131484   6.088   5.384   1.054
10195SOL    HW231485   5.967   5.383   0.945
10196SOL     OW31486   4.025   1.694   3.999
10196SOL    HW131487   4.060   1.659   4.086
10196SOL    HW231488   4.102   1.719   3.940
10197SOL     OW31489   6.442   2.260   5.157
10197SOL    HW131490   6.452   2.349   5.201
10197SOL    HW231491   6.386   2.201   5.215
10198SOL     OW31492   3.205   0.859   1.695
10198SOL    HW131493   3.245   0.775   1.659
10198SOL    HW231494   3.113   0.871   1.655
10199SOL     OW31495   2.678   2.584   6.841
10199SOL    HW131496   2.578   2.588   6.843
10199SOL    HW231497   2.708   2.489   6.846
10200SOL     OW31498   5.275   1.498   0.556
10200SOL    HW131499   5.291   1.553   0.638
10200SOL    HW231500   5.199   1.436   0.572
10201SOL     OW31501   1.256   4.587   0.736
10201SOL    HW131502   1.260   4.649   0.815
10201SOL    HW231503   1.320   4.620   0.666
10202SOL     OW31504   3.750   3.119   0.434
10202SOL    HW131505   3.704   3.185   0.374
10202SOL    HW231506   3.800   3.169   0.504
10203SOL     OW31507   6.191   2.805   3.742
10203SOL    HW131508   6.117   2.789   3.677
10203SOL    HW231509   6.265   2.855   3.697
10204SOL     OW31510   4.810   6.656   6.876
10204SOL    HW131511   4.852   6.746   6.887
10204SOL    HW231512   4.756   6.635   6.958
10205SOL     OW31513   2.030   0.842   1.521
10205SOL    HW131514   2.130   0.843   1.529
10205SOL    HW231515   2.003   0.886   1.436
10206SOL     OW31516   0.542   0.895   0.020
10206SOL    HW131517   0.507   0.850   0.103
10206SOL    HW231518   0.602   0.832   7.000
10207SOL     OW31519   1.573   1.943   0.028
10207SOL    HW131520   1.582   1.906   6.964
10207SOL    HW231521   1.498   2.009   0.030
10208SOL     OW31522   5.711   4.592   4.131
10208SOL    HW131523   5.673   4.563   4.219
10208SOL    HW231524   5.809   4.572   4.129
10209SOL     OW31525   6.828   0.180   6.366
10209SOL    HW131526   6.831   0.279   6.349
10209SOL    HW231527   6.798   0.133   6.283
10210SOL     OW31528   4.950   6.806   2.322
10210SOL    HW131529   4.996   6.847   2.401
10210SOL    HW231530   4.853   6.831   2.323
10211SOL     OW31531   4.083   6.315   4.343
10211SOL    HW131532   4.168   6.264   4.359
10211SOL    HW231533   4.046   6.290   4.254
10212SOL     OW31534   1.201   0.224   5.501
10212SOL    HW131535   1.205   0.212   5.402
10212SOL    HW231536   1.265   0.162   5.546
10213SOL     OW31537   4.772   2.953   1.251
10213SOL    HW131538   4.756   3.021   1.179
10213SOL    HW231539   4.833   2.882   1.216
10214SOL     OW31540   0.931   1.172   2.095
10214SOL    HW131541   0.885   1.201   2.179
10214SOL    HW231542   0.984   1.089   2.112
10215SOL     OW31543   4.029   3.149   3.383
10215SOL    HW131544   4.049   3.056   3.351
10215SOL    HW231545   4.056   3.158   3.478
10216SOL     OW31546   6.926   0.648   0.997
10216SOL    HW131547   6.984   0.636   0.916
10216SOL    HW231548   6.835   0.680   0.968
10217SOL     OW31549   2.591   1.495   3.297
10217SOL    HW131550   2.677   1.468   3.341
10217SOL    HW231551   2.564   1.586   3.329
10218SOL     OW31552   1.075   1.605   1.940
10218SOL    HW131553   1.107   1.634   1.850
10218SOL    HW231554   0.996   1.659   1.967
10219SOL     OW31555   0.172   2.360   3.132
10219SOL    HW131556   0.103   2.288   3.123
10219SOL    HW231557   0.130   2.449   3.115
10220SOL     OW31558   4.224   2.466   1.397
10220SOL    HW131559   4.296   2.448   1.330
10220SOL    HW231560   4.262   2.519   1.473
10221SOL     OW31561   0.465   5.168   3.013
10221SOL    HW131562   0.441   5.260   2.982
10221SOL    HW231563   0.483   5.170   3.111
10222SOL     OW31564   3.129   3.211   5.675
10222SOL    HW131565   3.084   3.209   5.585
10222SOL    HW231566   3.227   3.225   5.662
10223SOL     OW31567   0.753   4.577   1.419
10223SOL    HW131568   0.839   4.615   1.453
10223SOL    HW231569   0.768   4.484   1.386
10224SOL     OW31570   6.891   2.958   3.813
10224SOL    HW131571   6.801   2.929   3.845
10224SOL    HW231572   6.880   3.031   3.745
10225SOL     OW31573   1.868   4.976   5.946
10225SOL    HW131574   1.772   5.002   5.937
10225SOL    HW231575   1.907   4.961   5.855
10226SOL     OW31576   2.996   0.892   6.834
10226SOL    HW131577   3.054   0.814   6.858
10226SOL    HW231578   3.002   0.961   6.906
10227SOL     OW31579   5.157   4.200   0.138
10227SOL    HW131580   5.071   4.188   0.187
10227SOL    HW231581   5.172   4.122   0.078
10228SOL     OW31582   6.707   0.033   0.967
10228SOL    HW131583   6.651   0.013   1.048
10228SOL    HW231584   6.706   6.983   0.906
10229SOL     OW31585   1.397   2.644   4.795
10229SOL    HW131586   1.376   2.739   4.820
10229SOL    HW231587   1.492   2.637   4.765
10230SOL     OW31588   6.217   5.651   2.774
10230SOL    HW131589   6.123   5.635   2.745
10230SOL    HW231590   6.229   5.621   2.868
10231SOL     OW31591   0.814   5.657   4.956
10231SOL    HW131592   0.856   5.635   4.868
10231SOL    HW231593   0.875   5.717   5.008
10232SOL     OW31594   2.728   1.157   3.822
10232SOL    HW131595   2.739   1.129   3.726
10232SOL    HW231596   2.737   1.256   3.830
10233SOL     OW31597   3.973   3.623   4.775
10233SOL    HW131598   4.038   3.597   4.703
10233SOL    HW231599   3.964   3.723   4.777
10234SOL     OW31600   6.341   0.732   1.302
10234SOL    HW131601   6.399   0.708   1.224
10234SOL    HW231602   6.283   0.810   1.278
10235SOL     OW31603   1.960   2.125   2.073
10235SOL    HW131604   1.950   2.163   1.981
10235SOL    HW231605   1.934   2.029   2.071
10236SOL     OW31606   2.332   6.383   0.807
10236SOL    HW131607   2.298   6.466   0.851
10236SOL    HW231608   2.265   6.310   0.814
10237SOL     OW31609   6.970   3.034   0.388
10237SOL    HW131610   0.034   2.997   0.380
10237SOL    HW231611   6.945   3.077   0.302
10238SOL     OW31612   4.300   4.305   1.517
10238SOL    HW131613   4.306   4.225   1.575
10238SOL    HW231614   4.382   4.361   1.528
10239SOL     OW31615   1.341   2.798   5.152
10239SOL    HW131616   1.388   2.821   5.067
10239SOL    HW231617   1.242   2.795   5.137
10240SOL     OW31618   2.647   5.701   2.582
10240SOL    HW131619   2.657   5.653   2.669
10240SOL    HW231620   2.681   5.795   2.592
10241SOL     OW31621   5.569   0.799   2.268
10241SOL    HW131622   5.612   0.882   2.234
10241SOL    HW231623   5.565   0.803   2.368
10242SOL     OW31624   6.494   1.693   0.773
10242SOL    HW131625   6.558   1.624   0.807
10242SOL    HW231626   6.401   1.658   0.779
10243SOL     OW31627   2.608   4.396   1.443
10243SOL    HW131628   2.558   4.352   1.518
10243SOL    HW231629   2.637   4.487   1.472
10244SOL     OW31630   2.585   4.298   0.753
10244SOL    HW131631   2.659   4.290   0.687
10244SOL    HW231632   2.606   4.242   0.834
10245SOL     OW31633   3.894   4.300   1.137
10245SOL    HW131634   3.883   4.273   1.041
10245SOL    HW231635   3.935   4.225   1.188
10246SOL     OW31636   3.165   4.065   4.378
10246SOL    HW131637   3.092   4.024   4.432
10246SOL    HW231638   3.235   4.102   4.440
10247SOL     OW31639   0.102   4.080   6.227
10247SOL    HW131640   0.174   4.122   6.172
10247SOL    HW231641   0.105   3.981   6.215
10248SOL     OW31642   0.733   0.298   3.005
10248SOL    HW131643   0.738   0.277   3.103
10248SOL    HW231644   0.683   0.384   2.992
10249SOL     OW31645   2.909   5.068   6.317
10249SOL    HW131646   2.907   5.165   6.342
10249SOL    HW231647   2.963   5.056   6.234
10250SOL     OW31648   6.702   3.773   0.974
10250SOL    HW131649   6.685   3.811   1.065
10250SOL    HW231650   6.711   3.848   0.908
10251SOL     OW31651   2.080   1.293   4.208
10251SOL    HW131652   2.041   1.308   4.118
10251SOL    HW231653   2.094   1.195   4.223
10252SOL     OW31654   4.457   3.420   5.819
10252SOL    HW131655   4.387   3.425   5.890
10252SOL    HW231656   4.416   3.387   5.734
10253SOL     OW31657   2.934   6.152   0.969
10253SOL    HW131658   2.926   6.079   1.036
10253SOL    HW231659   2.990   6.120   0.892
10254SOL     OW31660   4.259   1.663   5.672
10254SOL    HW131661   4.264   1.705   5.581
10254SOL    HW231662   4.317   1.714   5.736
10255SOL     OW31663   2.515   6.819   0.719
10255SOL    HW131664   2.572   6.900   0.723
10255SOL    HW231665   2.563   6.741   0.757
10256SOL     OW31666   4.305   0.785   2.246
10256SOL    HW131667   4.376   0.836   2.198
10256SOL    HW231668   4.324   0.687   2.240
10257SOL     OW31669   1.346   5.444   4.110
10257SOL    HW131670   1.410   5.519   4.125
10257SOL    HW231671   1.299   5.423   4.195
10258SOL     OW31672   3.903   1.843   3.557
10258SOL    HW131673   3.897   1.799   3.647
10258SOL    HW231674   3.917   1.941   3.568
10259SOL     OW31675   1.281   4.256   3.660
10259SOL    HW131676   1.366   4.307   3.666
10259SOL    HW231677   1.275   4.212   3.571
10260SOL     OW31678   0.499   1.221   3.638
10260SOL    HW131679   0.500   1.274   3.553
10260SOL    HW231680   0.414   1.238   3.688
10261SOL     OW31681   6.347   4.911   0.669
10261SOL    HW131682   6.401   4.972   0.611
10261SOL    HW231683   6.323   4.829   0.617
10262SOL     OW31684   3.241   6.659   6.519
10262SOL    HW131685   3.312   6.652   6.449
10262SOL    HW231686   3.156   6.617   6.486
10263SOL     OW31687   5.911   0.362   0.477
10263SOL    HW131688   5.894   0.404   0.567
10263SOL    HW231689   5.846   0.398   0.410
10264SOL     OW31690   6.512   5.388   6.886
10264SOL    HW131691   6.455   5.306   6.890
10264SOL    HW231692   6.608   5.361   6.874
10265SOL     OW31693   3.884   2.432   6.625
10265SOL    HW131694   3.807   2.406   6.683
10265SOL    HW231695   3.875   2.388   6.535
10266SOL     OW31696   3.883   3.112   2.883
10266SOL    HW131697   3.800   3.130   2.830
10266SOL    HW231698   3.868   3.136   2.979
10267SOL     OW31699   5.160   1.007   0.862
10267SOL    HW131700   5.252   0.968   0.862
10267SOL    HW231701   5.166   1.106   0.873
10268SOL     OW31702   5.741   6.519   2.273
10268SOL    HW131703   5.768   6.468   2.192
10268SOL    HW231704   5.714   6.612   2.247
10269SOL     OW31705   1.671   2.344   6.104
10269SOL    HW131706   1.755   2.326   6.154
10269SOL    HW231707   1.596   2.290   6.143
10270SOL     OW31708   3.359   5.439   3.197
10270SOL    HW131709   3.395   5.353   3.161
10270SOL    HW231710   3.285   5.421   3.261
10271SOL     OW31711   2.857   2.733   0.025
10271SOL    HW131712   2.871   2.658   0.089
10271SOL    HW231713   2.821   2.698   6.967
10272SOL     OW31714   1.486   0.908   4.367
10272SOL    HW131715   1.405   0.859   4.397
10272SOL    HW231716   1.461   1.001   4.338
10273SOL     OW31717   3.079   5.176   4.302
10273SOL    HW131718   3.156   5.206   4.358
10273SOL    HW231719   3.084   5.218   4.212
10274SOL     OW31720   1.486   4.604   5.821
10274SOL    HW131721   1.488   4.588   5.722
10274SOL    HW231722   1.452   4.696   5.839
10275SOL     OW31723   0.277   0.600   1.938
10275SOL    HW131724   0.344   0.671   1.918
10275SOL    HW231725   0.202   0.605   1.872
10276SOL     OW31726   4.492   5.846   5.932
10276SOL    HW131727   4.538   5.757   5.926
10276SOL    HW231728   4.424   5.843   6.005
10277SOL     OW31729   1.399   6.134   4.810
10277SOL    HW131730   1.355   6.061   4.863
10277SOL    HW231731   1.408   6.216   4.866
10278SOL     OW31732   0.977   1.104   3.766
10278SOL    HW131733   0.963   1.042   3.688
10278SOL    HW231734   0.913   1.180   3.761
10279SOL     OW31735   1.919   5.084   4.168
10279SOL    HW131736   1.845   5.022   4.196
10279SOL    HW231737   1.881   5.154   4.107
10280SOL     OW31738   6.112   3.078   0.063
10280SOL    HW131739   6.068   3.020   0.133
10280SOL    HW231740   6.136   3.022   7.013
10281SOL     OW31741   6.392   2.209   3.657
10281SOL    HW131742   6.471   2.183   3.712
10281SOL    HW231743   6.329   2.263   3.712
10282SOL     OW31744   5.294   3.336   3.692
10282SOL    HW131745   5.326   3.308   3.602
10282SOL    HW231746   5.260   3.430   3.688
10283SOL     OW31747   1.242   3.245   0.723
10283SOL    HW131748   1.262   3.340   0.748
10283SOL    HW231749   1.327   3.199   0.697
10284SOL     OW31750   6.234   1.887   4.952
10284SOL    HW131751   6.208   1.790   4.954
10284SOL    HW231752   6.273   1.913   5.041
10285SOL     OW31753   4.209   6.337   2.877
10285SOL    HW131754   4.225   6.408   2.947
10285SOL    HW231755   4.283   6.270   2.881
10286SOL     OW31756   3.420   0.738   4.001
10286SOL    HW131757   3.448   0.680   4.078
10286SOL    HW231758   3.438   0.834   4.023
10287SOL     OW31759   2.425   5.482   2.070
10287SOL    HW131760   2.351   5.456   2.132
10287SOL    HW231761   2.448   5.404   2.012
10288SOL     OW31762   3.995   0.070   4.076
10288SOL    HW131763   3.930   0.039   4.145
10288SOL    HW231764   3.997   0.005   4.000
10289SOL     OW31765   3.032   6.137   0.471
10289SOL    HW131766   2.946   6.140   0.522
10289SOL    HW231767   3.042   6.048   0.427
10290SOL     OW31768   3.131   3.142   2.565
10290SOL    HW131769   3.130   3.242   2.557
10290SOL    HW231770   3.151   3.102   2.476
10291SOL     OW31771   3.753   1.818   3.308
10291SOL    HW131772   3.761   1.898   3.250
10291SOL    HW231773   3.814   1.828   3.387
10292SOL     OW31774   1.050   2.221   5.827
10292SOL    HW131775   1.035   2.287   5.753
10292SOL    HW231776   1.036   2.267   5.915
10293SOL     OW31777   1.110   3.259   3.434
10293SOL    HW131778   1.039   3.271   3.365
10293SOL    HW231779   1.168   3.181   3.410
10294SOL     OW31780   4.412   1.600   2.807
10294SOL    HW131781   4.464   1.549   2.738
10294SOL    HW231782   4.321   1.561   2.816
10295SOL     OW31783   1.113   3.119   5.478
10295SOL    HW131784   1.016   3.100   5.465
10295SOL    HW231785   1.129   3.150   5.572
10296SOL     OW31786   5.266   2.080   6.004
10296SOL    HW131787   5.322   2.163   6.009
10296SOL    HW231788   5.259   2.051   5.909
10297SOL     OW31789   2.266   1.398   6.541
10297SOL    HW131790   2.218   1.413   6.454
10297SOL    HW231791   2.289   1.486   6.582
10298SOL     OW31792   1.838   4.575   1.156
10298SOL    HW131793   1.804   4.487   1.122
10298SOL    HW231794   1.881   4.562   1.246
10299SOL     OW31795   3.928   5.213   2.927
10299SOL    HW131796   3.832   5.221   2.955
10299SOL    HW231797   3.933   5.190   2.830
10300SOL     OW31798   1.706   4.388   2.144
10300SOL    HW131799   1.728   4.307   2.089
10300SOL    HW231800   1.704   4.363   2.241
10301SOL     OW31801   4.250   1.796   5.434
10301SOL    HW131802   4.180   1.751   5.378
10301SOL    HW231803   4.218   1.887   5.460
10302SOL     OW31804   2.460   5.807   4.893
10302SOL    HW131805   2.401   5.861   4.832
10302SOL    HW231806   2.549   5.852   4.901
10303SOL     OW31807   0.994   5.655   3.493
10303SOL    HW131808   0.985   5.652   3.592
10303SOL    HW231809   1.053   5.732   3.468
10304SOL     OW31810   5.809   0.277   1.214
10304SOL    HW131811   5.899   0.316   1.198
10304SOL    HW231812   5.780   0.296   1.308
10305SOL     OW31813   1.775   4.105   5.466
10305SOL    HW131814   1.737   4.013   5.462
10305SOL    HW231815   1.814   4.130   5.377
10306SOL     OW31816   5.365   6.114   0.054
10306SOL    HW131817   5.454   6.124   0.010
10306SOL    HW231818   5.344   6.017   0.064
10307SOL     OW31819   2.981   1.456   4.851
10307SOL    HW131820   2.902   1.501   4.810
10307SOL    HW231821   3.061   1.468   4.793
10308SOL     OW31822   1.803   4.157   2.000
10308SOL    HW131823   1.862   4.227   1.959
10308SOL    HW231824   1.851   4.070   2.001
10309SOL     OW31825   6.966   1.550   0.096
10309SOL    HW131826   6.912   1.543   0.012
10309SOL    HW231827   6.910   1.589   0.169
10310SOL     OW31828   2.847   4.007   0.382
10310SOL    HW131829   2.903   3.948   0.440
10310SOL    HW231830   2.897   4.030   0.299
10311SOL     OW31831   6.446   5.577   0.168
10311SOL    HW131832   6.543   5.584   0.147
10311SOL    HW231833   6.401   5.665   0.150
10312SOL     OW31834   4.909   6.345   2.328
10312SOL    HW131835   4.932   6.408   2.402
10312SOL    HW231836   4.872   6.260   2.366
10313SOL     OW31837   3.447   5.737   1.898
10313SOL    HW131838   3.439   5.813   1.963
10313SOL    HW231839   3.532   5.687   1.915
10314SOL     OW31840   6.899   0.419   0.115
10314SOL    HW131841   6.840   0.346   0.079
10314SOL    HW231842   6.849   0.472   0.183
10315SOL     OW31843   5.786   6.219   4.407
10315SOL    HW131844   5.771   6.172   4.494
10315SOL    HW231845   5.885   6.229   4.392
10316SOL     OW31846   6.736   3.005   6.044
10316SOL    HW131847   6.793   2.923   6.046
10316SOL    HW231848   6.765   3.067   6.117
10317SOL     OW31849   3.926   6.302   6.428
10317SOL    HW131850   3.855   6.274   6.491
10317SOL    HW231851   3.960   6.223   6.377
10318SOL     OW31852   4.929   1.007   6.152
10318SOL    HW131853   4.879   0.981   6.234
10318SOL    HW231854   4.896   1.096   6.119
10319SOL     OW31855   0.752   3.641   5.526
10319SOL    HW131856   0.664   3.675   5.493
10319SOL    HW231857   0.790   3.705   5.593
10320SOL     OW31858   0.746   6.324   2.493
10320SOL    HW131859   0.722   6.397   2.557
10320SOL    HW231860   0.823   6.352   2.436
10321SOL     OW31861   5.748   1.995   1.619
10321SOL    HW131862   5.807   1.921   1.588
10321SOL    HW231863   5.800   2.059   1.675
10322SOL     OW31864   4.424   5.032   4.598
10322SOL    HW131865   4.434   4.933   4.598
10322SOL    HW231866   4.328   5.056   4.585
10323SOL     OW31867   6.044   4.728   5.495
10323SOL    HW131868   6.009   4.651   5.548
10323SOL    HW231869   6.116   4.774   5.547
10324SOL     OW31870   3.753   3.173   1.786
10324SOL    HW131871   3.805   3.127   1.858
10324SOL    HW231872   3.803   3.254   1.755
10325SOL     OW31873   6.476   4.259   2.137
10325SOL    HW131874   6.403   4.192   2.136
10325SOL    HW231875   6.438   4.351   2.130
10326SOL     OW31876   5.329   4.753   6.209
10326SOL    HW131877   5.277   4.815   6.268
10326SOL    HW231878   5.427   4.770   6.221
10327SOL     OW31879   2.188   2.762   1.172
10327SOL    HW131880   2.112   2.781   1.110
10327SOL    HW231881   2.259   2.831   1.162
10328SOL     OW31882   6.317   2.885   0.340
10328SOL    HW131883   6.273   2.965   0.299
10328SOL    HW231884   6.340   2.819   0.268
10329SOL     OW31885   2.440   0.742   3.538
10329SOL    HW131886   2.454   0.753   3.439
10329SOL    HW231887   2.390   0.658   3.555
10330SOL     OW31888   4.167   1.141   2.108
10330SOL    HW131889   4.189   1.188   2.194
10330SOL    HW231890   4.118   1.056   2.128
10331SOL     OW31891   6.687   6.407   5.850
10331SOL    HW131892   6.726   6.458   5.773
10331SOL    HW231893   6.704   6.457   5.935
10332SOL     OW31894   0.132   0.357   0.219
10332SOL    HW131895   0.044   0.351   0.172
10332SOL    HW231896   0.164   0.265   0.242
10333SOL     OW31897   1.095   4.582   5.010
10333SOL    HW131898   1.174   4.616   5.062
10333SOL    HW231899   1.116   4.492   4.972
10334SOL     OW31900   3.461   0.967   4.575
10334SOL    HW131901   3.514   0.933   4.653
10334SOL    HW231902   3.475   1.066   4.566
10335SOL     OW31903   2.184   4.343   0.290
10335SOL    HW131904   2.176   4.335   0.191
10335SOL    HW231905   2.136   4.267   0.334
10336SOL     OW31906   6.149   0.076   1.308
10336SOL    HW131907   6.067   0.020   1.317
10336SOL    HW231908   6.192   0.087   1.397
10337SOL     OW31909   0.639   6.341   6.508
10337SOL    HW131910   0.620   6.324   6.412
10337SOL    HW231911   0.703   6.418   6.517
10338SOL     OW31912   1.465   6.447   2.531
10338SOL    HW131913   1.531   6.521   2.526
10338SOL    HW231914   1.439   6.419   2.438
10339SOL     OW31915   5.419   3.402   5.675
10339SOL    HW131916   5.509   3.438   5.700
10339SOL    HW231917   5.354   3.419   5.749
10340SOL     OW31918   1.512   3.541   0.269
10340SOL    HW131919   1.506   3.494   0.181
10340SOL    HW231920   1.561   3.483   0.334
10341SOL     OW31921   1.983   3.449   2.040
10341SOL    HW131922   2.076   3.464   2.007
10341SOL    HW231923   1.972   3.494   2.129
10342SOL     OW31924   1.956   6.955   4.428
10342SOL    HW131925   1.927   6.895   4.503
10342SOL    HW231926   2.039   7.003   4.455
10343SOL     OW31927   3.170   4.741   6.615
10343SOL    HW131928   3.124   4.824   6.582
10343SOL    HW231929   3.216   4.761   6.702
10344SOL     OW31930   4.433   3.033   0.515
10344SOL    HW131931   4.354   3.087   0.487
10344SOL    HW231932   4.513   3.062   0.462
10345SOL     OW31933   1.913   1.725   6.815
10345SOL    HW131934   1.832   1.778   6.790
10345SOL    HW231935   1.937   1.744   6.910
10346SOL     OW31936   0.317   5.467   1.510
10346SOL    HW131937   0.264   5.384   1.492
10346SOL    HW231938   0.382   5.450   1.585
10347SOL     OW31939   3.748   1.195   3.319
10347SOL    HW131940   3.844   1.221   3.325
10347SOL    HW231941   3.740   1.106   3.273
10348SOL     OW31942   6.875   2.624   0.228
10348SOL    HW131943   6.792   2.589   0.271
10348SOL    HW231944   6.954   2.606   0.287
10349SOL     OW31945   1.616   0.600   0.485
10349SOL    HW131946   1.614   0.598   0.385
10349SOL    HW231947   1.541   0.657   0.519
10350SOL     OW31948   2.693   5.341   5.347
10350SOL    HW131949   2.707   5.424   5.295
10350SOL    HW231950   2.656   5.269   5.287
10351SOL     OW31951   4.429   4.811   6.907
10351SOL    HW131952   4.408   4.849   6.817
10351SOL    HW231953   4.370   4.733   6.926
10352SOL     OW31954   3.563   1.168   6.343
10352SOL    HW131955   3.634   1.102   6.368
10352SOL    HW231956   3.583   1.206   6.253
10353SOL     OW31957   6.654   3.321   4.859
10353SOL    HW131958   6.600   3.243   4.891
10353SOL    HW231959   6.742   3.322   4.906
10354SOL     OW31960   5.666   2.183   2.258
10354SOL    HW131961   5.686   2.281   2.267
10354SOL    HW231962   5.596   2.171   2.188
10355SOL     OW31963   2.354   6.795   1.360
10355SOL    HW131964   2.294   6.803   1.280
10355SOL    HW231965   2.433   6.739   1.337
10356SOL     OW31966   0.483   4.924   5.037
10356SOL    HW131967   0.440   4.998   5.088
10356SOL    HW231968   0.477   4.839   5.090
10357SOL     OW31969   1.848   2.740   6.280
10357SOL    HW131970   1.772   2.681   6.252
10357SOL    HW231971   1.821   2.791   6.362
10358SOL     OW31972   0.275   2.751   3.767
10358SOL    HW131973   0.289   2.655   3.791
10358SOL    HW231974   0.273   2.761   3.668
10359SOL     OW31975   0.689   2.007   1.276
10359SOL    HW131976   0.618   2.076   1.262
10359SOL    HW231977   0.677   1.963   1.365
10360SOL     OW31978   4.551   4.713   2.983
10360SOL    HW131979   4.579   4.769   2.905
10360SOL    HW231980   4.482   4.763   3.036
10361SOL     OW31981   2.205   6.327   3.135
10361SOL    HW131982   2.297   6.299   3.108
10361SOL    HW231983   2.210   6.406   3.196
10362SOL     OW31984   1.730   4.845   5.042
10362SOL    HW131985   1.685   4.922   4.998
10362SOL    HW231986   1.760   4.779   4.972
10363SOL     OW31987   4.760   0.750   2.416
10363SOL    HW131988   4.731   0.662   2.378
10363SOL    HW231989   4.763   0.744   2.515
10364SOL     OW31990   3.218   3.231   1.775
10364SOL    HW131991   3.312   3.206   1.755
10364SOL    HW231992   3.194   3.314   1.725
10365SOL     OW31993   3.687   4.987   6.525
10365SOL    HW131994   3.650   4.983   6.432
10365SOL    HW231995   3.650   4.911   6.579
10366SOL     OW31996   2.403   0.149   4.154
10366SOL    HW131997   2.348   0.228   4.180
10366SOL    HW231998   2.457   0.119   4.232
10367SOL     OW31999   5.711   2.468   2.349
10367SOL    HW132000   5.799   2.486   2.394
10367SOL    HW232001   5.640   2.523   2.393
10368SOL     OW32002   2.185   1.855   1.254
10368SOL    HW132003   2.167   1.949   1.227
10368SOL    HW232004   2.272   1.825   1.214
10369SOL     OW32005   4.118   1.404   6.443
10369SOL    HW132006   4.168   1.490   6.434
10369SOL    HW232007   4.027   1.413   6.401
10370SOL     OW32008   4.989   1.437   4.837
10370SOL    HW132009   4.931   1.357   4.845
10370SOL    HW232010   4.950   1.512   4.891
10371SOL     OW32011   3.774   5.534   5.022
10371SOL    HW132012   3.796   5.563   4.929
10371SOL    HW232013   3.816   5.596   5.088
10372SOL     OW32014   1.867   1.477   5.712
10372SOL    HW132015   1.929   1.554   5.707
10372SOL    HW232016   1.772   1.510   5.716
10373SOL     OW32017   2.342   6.197   4.914
10373SOL    HW132018   2.273   6.194   4.987
10373SOL    HW232019   2.430   6.226   4.952
10374SOL     OW32020   3.342   1.657   3.091
10374SOL    HW132021   3.404   1.581   3.115
10374SOL    HW232022   3.321   1.653   2.994
10375SOL     OW32023   4.367   1.977   6.999
10375SOL    HW132024   4.313   2.060   6.981
10375SOL    HW232025   4.335   1.934   0.054
10376SOL     OW32026   1.193   6.498   3.522
10376SOL    HW132027   1.164   6.583   3.565
10376SOL    HW232028   1.283   6.472   3.557
10377SOL     OW32029   6.476   0.948   4.059
10377SOL    HW132030   6.506   0.995   3.976
10377SOL    HW232031   6.533   0.976   4.136
10378SOL     OW32032   6.484   0.813   5.696
10378SOL    HW132033   6.403   0.757   5.676
10378SOL    HW232034   6.492   0.885   5.628
10379SOL     OW32035   4.433   0.314   4.956
10379SOL    HW132036   4.395   0.312   4.863
10379SOL    HW232037   4.532   0.324   4.950
10380SOL     OW32038   5.784   0.791   3.297
10380SOL    HW132039   5.834   0.872   3.327
10380SOL    HW232040   5.729   0.756   3.373
10381SOL     OW32041   5.061   5.586   5.724
10381SOL    HW132042   5.010   5.634   5.795
10381SOL    HW232043   5.055   5.636   5.638
10382SOL     OW32044   2.280   4.525   6.146
10382SOL    HW132045   2.222   4.571   6.212
10382SOL    HW232046   2.269   4.567   6.056
10383SOL     OW32047   0.621   3.372   0.695
10383SOL    HW132048   0.549   3.439   0.682
10383SOL    HW232049   0.583   3.279   0.693
10384SOL     OW32050   0.381   6.931   0.561
10384SOL    HW132051   0.416   6.848   0.517
10384SOL    HW232052   0.282   6.934   0.552
10385SOL     OW32053   5.158   0.110   6.006
10385SOL    HW132054   5.160   0.054   5.923
10385SOL    HW232055   5.164   0.206   5.982
10386SOL     OW32056   6.677   3.633   4.959
10386SOL    HW132057   6.673   3.643   5.058
10386SOL    HW232058   6.589   3.597   4.926
10387SOL     OW32059   2.931   1.827   2.472
10387SOL    HW132060   3.014   1.879   2.452
10387SOL    HW232061   2.947   1.768   2.551
10388SOL     OW32062   1.102   5.572   3.979
10388SOL    HW132063   1.172   5.530   3.921
10388SOL    HW232064   1.137   5.658   4.016
10389SOL     OW32065   0.629   5.304   2.581
10389SOL    HW132066   0.531   5.288   2.572
10389SOL    HW232067   0.657   5.377   2.520
10390SOL     OW32068   1.247   3.855   2.151
10390SOL    HW132069   1.192   3.880   2.231
10390SOL    HW232070   1.333   3.813   2.180
10391SOL     OW32071   1.418   5.975   6.694
10391SOL    HW132072   1.428   6.066   6.654
10391SOL    HW232073   1.503   5.924   6.680
10392SOL     OW32074   6.726   3.860   0.410
10392SOL    HW132075   6.741   3.763   0.432
10392SOL    HW232076   6.810   3.911   0.424
10393SOL     OW32077   0.494   1.396   3.427
10393SOL    HW132078   0.573   1.370   3.370
10393SOL    HW232079   0.488   1.495   3.432
10394SOL     OW32080   2.358   6.834   6.581
10394SOL    HW132081   2.270   6.787   6.583
10394SOL    HW232082   2.430   6.770   6.554
10395SOL     OW32083   6.784   0.835   4.340
10395SOL    HW132084   6.712   0.898   4.371
10395SOL    HW232085   6.746   0.772   4.272
10396SOL     OW32086   1.115   0.613   3.605
10396SOL    HW132087   1.048   0.630   3.678
10396SOL    HW232088   1.072   0.561   3.532
10397SOL     OW32089   3.739   0.734   3.362
10397SOL    HW132090   3.671   0.681   3.412
10397SOL    HW232091   3.754   0.692   3.272
10398SOL     OW32092   6.309   2.541   0.731
10398SOL    HW132093   6.341   2.608   0.665
10398SOL    HW232094   6.370   2.461   0.730
10399SOL     OW32095   4.265   2.073   5.507
10399SOL    HW132096   4.217   2.159   5.523
10399SOL    HW232097   4.346   2.068   5.566
10400SOL     OW32098   3.032   5.852   2.979
10400SOL    HW132099   3.018   5.951   2.967
10400SOL    HW232100   3.107   5.822   2.920
10401SOL     OW32101   6.466   6.083   2.170
10401SOL    HW132102   6.409   6.008   2.202
10401SOL    HW232103   6.516   6.122   2.248
10402SOL     OW32104   0.125   2.783   5.660
10402SOL    HW132105   0.038   2.806   5.617
10402SOL    HW232106   0.137   2.838   5.743
10403SOL     OW32107   5.159   1.674   2.461
10403SOL    HW132108   5.146   1.652   2.557
10403SOL    HW232109   5.114   1.605   2.404
10404SOL     OW32110   0.961   6.720   4.458
10404SOL    HW132111   0.974   6.818   4.444
10404SOL    HW232112   0.970   6.673   4.370
10405SOL     OW32113   1.219   5.245   4.997
10405SOL    HW132114   1.268   5.271   5.081
10405SOL    HW232115   1.136   5.300   4.989
10406SOL     OW32116   1.867   4.965   5.259
10406SOL    HW132117   1.880   4.873   5.295
10406SOL    HW232118   1.837   4.960   5.164
10407SOL     OW32119   1.547   1.299   6.221
10407SOL    HW132120   1.475   1.233   6.204
10407SOL    HW232121   1.555   1.360   6.142
10408SOL     OW32122   4.611   5.103   2.757
10408SOL    HW132123   4.568   5.157   2.684
10408SOL    HW232124   4.704   5.136   2.773
10409SOL     OW32125   0.276   4.157   1.761
10409SOL    HW132126   0.274   4.060   1.782
10409SOL    HW232127   0.283   4.170   1.662
10410SOL     OW32128   5.183   0.817   1.363
10410SOL    HW132129   5.124   0.865   1.298
10410SOL    HW232130   5.128   0.777   1.436
10411SOL     OW32131   1.930   4.903   3.462
10411SOL    HW132132   1.986   4.889   3.543
10411SOL    HW232133   1.837   4.927   3.488
10412SOL     OW32134   0.929   2.225   6.677
10412SOL    HW132135   0.831   2.237   6.661
10412SOL    HW232136   0.945   2.143   6.732
10413SOL     OW32137   0.617   2.002   0.567
10413SOL    HW132138   0.676   1.962   0.637
10413SOL    HW232139   0.534   1.947   0.558
10414SOL     OW32140   5.217   6.476   6.423
10414SOL    HW132141   5.294   6.468   6.359
10414SOL    HW232142   5.131   6.462   6.373
10415SOL     OW32143   0.838   5.389   3.233
10415SOL    HW132144   0.793   5.341   3.308
10415SOL    HW232145   0.782   5.467   3.206
10416SOL     OW32146   6.327   2.512   5.537
10416SOL    HW132147   6.259   2.506   5.463
10416SOL    HW232148   6.370   2.602   5.535
10417SOL     OW32149   4.002   5.143   2.637
10417SOL    HW132150   4.073   5.208   2.664
10417SOL    HW232151   3.968   5.166   2.546
10418SOL     OW32152   6.811   3.819   5.758
10418SOL    HW132153   6.867   3.885   5.807
10418SOL    HW232154   6.717   3.853   5.752
10419SOL     OW32155   3.137   0.795   5.409
10419SOL    HW132156   3.072   0.871   5.406
10419SOL    HW232157   3.128   0.740   5.326
10420SOL     OW32158   6.441   2.995   2.968
10420SOL    HW132159   6.450   2.988   3.067
10420SOL    HW232160   6.531   3.010   2.927
10421SOL     OW32161   1.266   4.772   3.717
10421SOL    HW132162   1.211   4.736   3.642
10421SOL    HW232163   1.216   4.761   3.803
10422SOL     OW32164   6.665   3.920   4.856
10422SOL    HW132165   6.649   3.824   4.880
10422SOL    HW232166   6.626   3.938   4.766
10423SOL     OW32167   3.811   4.860   4.309
10423SOL    HW132168   3.807   4.813   4.397
10423SOL    HW232169   3.854   4.801   4.241
10424SOL     OW32170   3.777   1.423   6.785
10424SOL    HW132171   3.715   1.348   6.811
10424SOL    HW232172   3.788   1.424   6.686
10425SOL     OW32173   1.686   0.341   0.697
10425SOL    HW132174   1.782   0.351   0.720
10425SOL    HW232175   1.633   0.415   0.738
10426SOL     OW32176   5.184   2.819   5.447
10426SOL    HW132177   5.175   2.729   5.490
10426SOL    HW232178   5.256   2.817   5.378
10427SOL     OW32179   4.637   5.951   5.108
10427SOL    HW132180   4.726   5.994   5.123
10427SOL    HW232181   4.597   5.989   5.025
10428SOL     OW32182   1.395   1.414   3.387
10428SOL    HW132183   1.487   1.434   3.351
10428SOL    HW232184   1.356   1.497   3.427
10429SOL     OW32185   1.008   3.570   2.679
10429SOL    HW132186   0.935   3.538   2.739
10429SOL    HW232187   1.081   3.501   2.678
10430SOL     OW32188   3.912   6.443   3.731
10430SOL    HW132189   3.820   6.448   3.692
10430SOL    HW232190   3.971   6.391   3.669
10431SOL     OW32191   2.509   2.190   4.116
10431SOL    HW132192   2.424   2.179   4.168
10431SOL    HW232193   2.573   2.117   4.140
10432SOL     OW32194   6.932   0.007   5.901
10432SOL    HW132195   6.936   0.058   5.815
10432SOL    HW232196   7.018   6.987   5.915
10433SOL     OW32197   2.056   6.887   1.619
10433SOL    HW132198   2.022   6.925   1.704
10433SOL    HW232199   2.121   6.813   1.639
10434SOL     OW32200   4.811   0.485   6.016
10434SOL    HW132201   4.886   0.472   6.081
10434SOL    HW232202   4.848   0.488   5.923
10435SOL     OW32203   1.163   2.306   6.511
10435SOL    HW132204   1.098   2.297   6.586
10435SOL    HW232205   1.190   2.214   6.480
10436SOL     OW32206   0.606   4.143   5.165
10436SOL    HW132207   0.530   4.113   5.107
10436SOL    HW232208   0.690   4.095   5.137
10437SOL     OW32209   5.137   4.953   5.133
10437SOL    HW132210   5.070   4.917   5.067
10437SOL    HW232211   5.185   5.030   5.092
10438SOL     OW32212   6.766   6.188   6.586
10438SOL    HW132213   6.706   6.249   6.534
10438SOL    HW232214   6.813   6.239   6.657
10439SOL     OW32215   0.104   0.306   4.544
10439SOL    HW132216   0.031   0.247   4.580
10439SOL    HW232217   0.132   0.274   4.454
10440SOL     OW32218   0.503   1.814   6.852
10440SOL    HW132219   0.424   1.783   6.907
10440SOL    HW232220   0.526   1.745   6.784
10441SOL     OW32221   3.504   1.564   0.873
10441SOL    HW132222   3.568   1.641   0.871
10441SOL    HW232223   3.413   1.597   0.900
10442SOL     OW32224   2.679   1.186   5.445
10442SOL    HW132225   2.596   1.225   5.486
10442SOL    HW232226   2.693   1.094   5.480
10443SOL     OW32227   7.014   1.373   3.572
10443SOL    HW132228   6.979   1.406   3.484
10443SOL    HW232229   7.008   1.446   3.640
10444SOL     OW32230   3.674   5.609   3.576
10444SOL    HW132231   3.649   5.539   3.643
10444SOL    HW232232   3.649   5.578   3.484
10445SOL     OW32233   1.395   4.130   2.571
10445SOL    HW132234   1.310   4.170   2.603
10445SOL    HW232235   1.436   4.075   2.644
10446SOL     OW32236   1.847   4.199   5.197
10446SOL    HW132237   1.827   4.108   5.161
10446SOL    HW232238   1.769   4.259   5.181
10447SOL     OW32239   6.537   2.396   2.997
10447SOL    HW132240   6.546   2.496   2.995
10447SOL    HW232241   6.519   2.362   2.904
10448SOL     OW32242   2.285   0.107   3.273
10448SOL    HW132243   2.325   0.117   3.364
10448SOL    HW232244   2.220   0.181   3.257
10449SOL     OW32245   3.302   5.468   6.625
10449SOL    HW132246   3.282   5.548   6.568
10449SOL    HW232247   3.219   5.436   6.669
10450SOL     OW32248   6.302   0.667   6.038
10450SOL    HW132249   6.264   0.657   5.946
10450SOL    HW232250   6.332   0.578   6.072
10451SOL     OW32251   1.904   0.681   4.188
10451SOL    HW132252   1.909   0.654   4.284
10451SOL    HW232253   1.820   0.733   4.172
10452SOL     OW32254   6.897   3.750   3.681
10452SOL    HW132255   6.903   3.765   3.582
10452SOL    HW232256   6.986   3.720   3.716
10453SOL     OW32257   4.525   6.137   3.454
10453SOL    HW132258   4.504   6.221   3.505
10453SOL    HW232259   4.452   6.070   3.468
10454SOL     OW32260   6.467   1.608   6.669
10454SOL    HW132261   6.470   1.657   6.756
10454SOL    HW232262   6.545   1.635   6.613
10455SOL     OW32263   6.486   6.332   4.320
10455SOL    HW132264   6.532   6.297   4.402
10455SOL    HW232265   6.415   6.396   4.347
10456SOL     OW32266   0.036   5.179   0.236
10456SOL    HW132267   0.013   5.276   0.229
10456SOL    HW232268   6.980   5.125   0.243
10457SOL     OW32269   3.980   2.815   0.139
10457SOL    HW132270   3.948   2.721   0.128
10457SOL    HW232271   4.003   2.854   0.050
10458SOL     OW32272   6.747   0.045   6.145
10458SOL    HW132273   6.801   0.023   6.064
10458SOL    HW232274   6.650   0.031   6.125
10459SOL     OW32275   6.843   5.405   0.238
10459SOL    HW132276   6.800   5.482   0.192
10459SOL    HW232277   6.883   5.436   0.325
10460SOL     OW32278   6.856   3.876   1.311
10460SOL    HW132279   6.922   3.808   1.277
10460SOL    HW232280   6.906   3.954   1.350
10461SOL     OW32281   6.901   4.689   5.183
10461SOL    HW132282   6.946   4.615   5.233
10461SOL    HW232283   6.905   4.773   5.236
10462SOL     OW32284   5.006   1.593   1.272
10462SOL    HW132285   4.966   1.523   1.213
10462SOL    HW232286   4.981   1.684   1.239
10463SOL     OW32287   4.701   2.697   6.167
10463SOL    HW132288   4.645   2.656   6.240
10463SOL    HW232289   4.722   2.628   6.098
10464SOL     OW32290   5.442   5.388   3.003
10464SOL    HW132291   5.345   5.396   2.979
10464SOL    HW232292   5.497   5.443   2.940
10465SOL     OW32293   5.226   3.362   2.517
10465SOL    HW132294   5.143   3.307   2.532
10465SOL    HW232295   5.265   3.338   2.428
10466SOL     OW32296   5.661   4.781   6.251
10466SOL    HW132297   5.686   4.776   6.348
10466SOL    HW232298   5.659   4.877   6.222
10467SOL     OW32299   2.113   2.861   6.807
10467SOL    HW132300   2.192   2.858   6.746
10467SOL    HW232301   2.124   2.793   6.879
10468SOL     OW32302   2.555   4.629   3.968
10468SOL    HW132303   2.470   4.678   3.988
10468SOL    HW232304   2.623   4.693   3.934
10469SOL     OW32305   5.674   2.340   5.540
10469SOL    HW132306   5.731   2.421   5.528
10469SOL    HW232307   5.701   2.293   5.624
10470SOL     OW32308   2.271   2.210   4.293
10470SOL    HW132309   2.203   2.279   4.269
10470SOL    HW232310   2.337   2.249   4.358
10471SOL     OW32311   2.473   0.887   0.152
10471SOL    HW132312   2.446   0.809   0.096
10471SOL    HW232313   2.560   0.923   0.120
10472SOL     OW32314   3.724   4.696   0.673
10472SOL    HW132315   3.742   4.716   0.576
10472SOL    HW232316   3.700   4.780   0.721
10473SOL     OW32317   5.503   5.763   6.060
10473SOL    HW132318   5.536   5.833   6.123
10473SOL    HW232319   5.468   5.685   6.112
10474SOL     OW32320   5.231   0.956   3.619
10474SOL    HW132321   5.249   0.881   3.682
10474SOL    HW232322   5.295   0.953   3.543
10475SOL     OW32323   2.198   6.257   2.117
10475SOL    HW132324   2.272   6.290   2.175
10475SOL    HW232325   2.224   6.169   2.077
10476SOL     OW32326   4.025   6.267   6.976
10476SOL    HW132327   4.087   6.230   0.016
10476SOL    HW232328   3.930   6.253   7.005
10477SOL     OW32329   0.008   6.050   3.942
10477SOL    HW132330   6.945   6.059   3.902
10477SOL    HW232331   0.005   6.079   4.037
10478SOL     OW32332   6.047   6.867   0.344
10478SOL    HW132333   6.055   6.957   0.386
10478SOL    HW232334   5.951   6.846   0.327
10479SOL     OW32335   0.109   2.769   2.642
10479SOL    HW132336   0.137   2.695   2.704
10479SOL    HW232337   0.029   2.815   2.679
10480SOL     OW32338   1.766   6.957   2.317
10480SOL    HW132339   1.786   0.024   2.341
10480SOL    HW232340   1.772   6.946   2.218
10481SOL     OW32341   0.704   0.014   3.026
10481SOL    HW132342   0.662   6.972   2.968
10481SOL    HW232343   0.789   0.046   2.984
10482SOL     OW32344   6.222   4.399   4.252
10482SOL    HW132345   6.276   4.367   4.175
10482SOL    HW232346   6.200   4.322   4.312
10483SOL     OW32347   5.658   5.764   6.803
10483SOL    HW132348   5.646   5.664   6.802
10483SOL    HW232349   5.603   5.804   6.729
10484SOL     OW32350   5.729   1.391   1.100
10484SOL    HW132351   5.663   1.405   1.174
10484SOL    HW232352   5.809   1.344   1.136
10485SOL     OW32353   4.058   4.393   6.331
10485SOL    HW132354   4.043   4.316   6.394
10485SOL    HW232355   4.073   4.358   6.239
10486SOL     OW32356   6.421   2.732   0.575
10486SOL    HW132357   6.387   2.779   0.493
10486SOL    HW232358   6.501   2.781   0.611
10487SOL     OW32359   5.932   6.498   1.725
10487SOL    HW132360   5.899   6.517   1.632
10487SOL    HW232361   5.948   6.400   1.736
10488SOL     OW32362   2.939   3.075   6.378
10488SOL    HW132363   2.963   3.099   6.472
10488SOL    HW232364   3.004   3.008   6.342
10489SOL     OW32365   0.694   6.517   6.181
10489SOL    HW132366   0.685   6.607   6.224
10489SOL    HW232367   0.786   6.506   6.146
10490SOL     OW32368   6.126   1.342   3.135
10490SOL    HW132369   6.034   1.357   3.172
10490SOL    HW232370   6.143   1.407   3.061
10491SOL     OW32371   1.563   3.452   6.461
10491SOL    HW132372   1.610   3.410   6.538
10491SOL    HW232373   1.544   3.383   6.391
10492SOL     OW32374   4.746   3.720   5.310
10492SOL    HW132375   4.795   3.790   5.257
10492SOL    HW232376   4.727   3.642   5.251
10493SOL     OW32377   3.392   0.622   1.378
10493SOL    HW132378   3.316   0.578   1.329
10493SOL    HW232379   3.378   0.612   1.476
10494SOL     OW32380   5.527   2.182   4.866
10494SOL    HW132381   5.534   2.266   4.812
10494SOL    HW232382   5.600   2.180   4.934
10495SOL     OW32383   1.713   6.672   0.985
10495SOL    HW132384   1.743   6.611   1.059
10495SOL    HW232385   1.753   6.641   0.898
10496SOL     OW32386   0.368   6.734   0.289
10496SOL    HW132387   0.405   6.681   0.213
10496SOL    HW232388   0.324   6.672   0.355
10497SOL     OW32389   1.745   0.534   0.965
10497SOL    HW132390   1.699   0.573   1.044
10497SOL    HW232391   1.757   0.605   0.895
10498SOL     OW32392   2.573   6.741   0.166
10498SOL    HW132393   2.519   6.671   0.212
10498SOL    HW232394   2.667   6.711   0.156
10499SOL     OW32395   2.499   6.296   3.078
10499SOL    HW132396   2.537   6.386   3.057
10499SOL    HW232397   2.547   6.226   3.025
10500SOL     OW32398   0.227   1.314   5.618
10500SOL    HW132399   0.160   1.280   5.684
10500SOL    HW232400   0.304   1.355   5.668
10501SOL     OW32401   2.051   5.213   3.123
10501SOL    HW132402   2.017   5.206   3.217
10501SOL    HW232403   2.149   5.234   3.124
10502SOL     OW32404   3.354   6.818   1.165
10502SOL    HW132405   3.311   6.871   1.239
10502SOL    HW232406   3.347   6.720   1.186
10503SOL     OW32407   4.458   2.766   0.398
10503SOL    HW132408   4.460   2.860   0.432
10503SOL    HW232409   4.394   2.759   0.321
10504SOL     OW32410   1.715   2.726   0.354
10504SOL    HW132411   1.795   2.757   0.405
10504SOL    HW232412   1.644   2.797   0.359
10505SOL     OW32413   5.911   6.011   0.886
10505SOL    HW132414   5.955   5.922   0.882
10505SOL    HW232415   5.978   6.083   0.867
10506SOL     OW32416   0.549   4.475   6.620
10506SOL    HW132417   0.450   4.459   6.620
10506SOL    HW232418   0.595   4.395   6.660
10507SOL     OW32419   2.166   6.859   0.239
10507SOL    HW132420   2.190   6.835   0.145
10507SOL    HW232421   2.208   6.947   0.263
10508SOL     OW32422   5.708   5.706   3.748
10508SOL    HW132423   5.720   5.607   3.750
10508SOL    HW232424   5.794   5.750   3.777
10509SOL     OW32425   1.192   6.657   6.405
10509SOL    HW132426   1.136   6.707   6.471
10509SOL    HW232427   1.271   6.616   6.452
10510SOL     OW32428   5.988   4.842   6.088
10510SOL    HW132429   5.968   4.744   6.091
10510SOL    HW232430   6.071   4.858   6.034
10511SOL     OW32431   4.618   3.210   0.750
10511SOL    HW132432   4.535   3.158   0.731
10511SOL    HW232433   4.684   3.152   0.797
10512SOL     OW32434   3.763   1.375   6.527
10512SOL    HW132435   3.754   1.428   6.442
10512SOL    HW232436   3.834   1.305   6.515
10513SOL     OW32437   6.828   2.426   6.152
10513SOL    HW132438   6.899   2.394   6.090
10513SOL    HW232439   6.803   2.352   6.216
10514SOL     OW32440   6.500   4.013   0.516
10514SOL    HW132441   6.434   3.998   0.443
10514SOL    HW232442   6.591   3.986   0.485
10515SOL     OW32443   6.147   2.465   3.087
10515SOL    HW132444   6.215   2.394   3.105
10515SOL    HW232445   6.065   2.424   3.047
10516SOL     OW32446   4.781   0.913   6.371
10516SOL    HW132447   4.703   0.872   6.419
10516SOL    HW232448   4.840   0.959   6.438
10517SOL     OW32449   0.369   2.445   2.139
10517SOL    HW132450   0.280   2.463   2.181
10517SOL    HW232451   0.414   2.532   2.120
10518SOL     OW32452   0.859   4.954   0.013
10518SOL    HW132453   0.822   5.028   6.985
10518SOL    HW232454   0.796   4.876   0.010
10519SOL     OW32455   3.194   2.810   5.580
10519SOL    HW132456   3.168   2.749   5.654
10519SOL    HW232457   3.207   2.756   5.496
10520SOL     OW32458   2.641   2.896   7.011
10520SOL    HW132459   2.674   2.964   6.946
10520SOL    HW232460   2.714   2.832   0.005
10521SOL     OW32461   6.439   6.040   1.053
10521SOL    HW132462   6.525   6.087   1.070
10521SOL    HW232463   6.402   6.006   1.140
10522SOL     OW32464   6.524   0.346   0.228
10522SOL    HW132465   6.431   0.382   0.215
10522SOL    HW232466   6.589   0.422   0.222
10523SOL     OW32467   0.222   6.192   4.401
10523SOL    HW132468   0.292   6.262   4.410
10523SOL    HW232469   0.196   6.159   4.491
10524SOL     OW32470   2.036   0.469   5.110
10524SOL    HW132471   2.002   0.437   5.022
10524SOL    HW232472   1.997   0.559   5.130
10525SOL     OW32473   2.906   6.516   5.570
10525SOL    HW132474   2.829   6.568   5.533
10525SOL    HW232475   2.962   6.575   5.627
10526SOL     OW32476   0.356   0.485   2.699
10526SOL    HW132477   0.316   0.396   2.679
10526SOL    HW232478   0.287   0.545   2.737
10527SOL     OW32479   1.388   2.938   4.017
10527SOL    HW132480   1.400   2.978   3.926
10527SOL    HW232481   1.455   2.865   4.031
10528SOL     OW32482   1.346   3.812   5.199
10528SOL    HW132483   1.407   3.891   5.200
10528SOL    HW232484   1.390   3.735   5.244
10529SOL     OW32485   1.014   5.750   2.506
10529SOL    HW132486   0.945   5.707   2.564
10529SOL    HW232487   0.980   5.837   2.472
10530SOL     OW32488   2.232   1.679   6.427
10530SOL    HW132489   2.137   1.691   6.459
10530SOL    HW232490   2.295   1.714   6.496
10531SOL     OW32491   2.173   3.562   4.461
10531SOL    HW132492   2.229   3.544   4.542
10531SOL    HW232493   2.203   3.504   4.386
10532SOL     OW32494   2.405   3.131   0.553
10532SOL    HW132495   2.407   3.179   0.641
10532SOL    HW232496   2.329   3.067   0.551
10533SOL     OW32497   2.761   1.493   4.359
10533SOL    HW132498   2.729   1.586   4.338
10533SOL    HW232499   2.800   1.491   4.451
10534SOL     OW32500   0.198   5.800   0.761
10534SOL    HW132501   0.244   5.718   0.729
10534SOL    HW232502   0.265   5.864   0.798
10535SOL     OW32503   0.276   2.433   2.641
10535SOL    HW132504   0.326   2.347   2.630
10535SOL    HW232505   0.341   2.507   2.658
10536SOL     OW32506   3.838   0.196   2.599
10536SOL    HW132507   3.742   0.166   2.599
10536SOL    HW232508   3.859   0.242   2.685
10537SOL     OW32509   3.570   5.355   3.446
10537SOL    HW132510   3.548   5.286   3.515
10537SOL    HW232511   3.485   5.395   3.412
10538SOL     OW32512   4.511   3.127   6.676
10538SOL    HW132513   4.496   3.032   6.648
10538SOL    HW232514   4.471   3.189   6.607
10539SOL     OW32515   0.301   4.431   6.354
10539SOL    HW132516   0.390   4.474   6.338
10539SOL    HW232517   0.265   4.462   6.442
10540SOL     OW32518   1.460   0.956   6.070
10540SOL    HW132519   1.433   0.877   6.016
10540SOL    HW232520   1.535   1.003   6.024
10541SOL     OW32521   3.413   3.716   1.524
10541SOL    HW132522   3.467   3.729   1.441
10541SOL    HW232523   3.473   3.723   1.604
10542SOL     OW32524   6.945   1.365   0.674
10542SOL    HW132525   6.847   1.348   0.681
10542SOL    HW232526   6.961   1.440   0.609
10543SOL     OW32527   6.742   1.291   5.323
10543SOL    HW132528   6.805   1.221   5.357
10543SOL    HW232529   6.742   1.291   5.223
10544SOL     OW32530   2.286   1.508   2.949
10544SOL    HW132531   2.221   1.554   2.889
10544SOL    HW232532   2.300   1.415   2.918
10545SOL     OW32533   6.861   6.504   2.350
10545SOL    HW132534   6.872   6.413   2.391
10545SOL    HW232535   6.775   6.544   2.383
10546SOL     OW32536   1.434   0.519   5.288
10546SOL    HW132537   1.475   0.555   5.204
10546SOL    HW232538   1.390   0.593   5.338
10547SOL     OW32539   4.769   1.340   2.423
10547SOL    HW132540   4.743   1.428   2.463
10547SOL    HW232541   4.694   1.275   2.434
10548SOL     OW32542   5.182   3.944   4.859
10548SOL    HW132543   5.237   4.021   4.829
10548SOL    HW232544   5.103   3.934   4.798
10549SOL     OW32545   6.537   0.456   2.487
10549SOL    HW132546   6.605   0.530   2.494
10549SOL    HW232547   6.446   0.493   2.502
10550SOL     OW32548   4.340   6.619   4.348
10550SOL    HW132549   4.401   6.679   4.296
10550SOL    HW232550   4.251   6.664   4.360
10551SOL     OW32551   1.559   2.323   4.970
10551SOL    HW132552   1.478   2.321   4.911
10551SOL    HW232553   1.552   2.251   5.039
10552SOL     OW32554   3.683   2.010   5.010
10552SOL    HW132555   3.632   2.036   4.928
10552SOL    HW232556   3.629   1.944   5.063
10553SOL     OW32557   0.985   5.042   1.662
10553SOL    HW132558   0.922   5.064   1.587
10553SOL    HW232559   1.027   4.953   1.645
10554SOL     OW32560   5.644   4.866   0.022
10554SOL    HW132561   5.554   4.900   7.023
10554SOL    HW232562   5.687   4.932   0.084
10555SOL     OW32563   2.923   2.146   1.584
10555SOL    HW132564   2.965   2.215   1.525
10555SOL    HW232565   2.974   2.060   1.575
10556SOL     OW32566   1.924   3.037   4.892
10556SOL    HW132567   1.854   2.983   4.939
10556SOL    HW232568   1.961   3.105   4.955
10557SOL     OW32569   0.649   2.302   3.525
10557SOL    HW132570   0.668   2.206   3.505
10557SOL    HW232571   0.709   2.333   3.599
10558SOL     OW32572   4.043   0.285   4.841
10558SOL    HW132573   4.004   0.301   4.750
10558SOL    HW232574   4.022   0.191   4.870
10559SOL     OW32575   4.224   1.478   1.442
10559SOL    HW132576   4.270   1.391   1.428
10559SOL    HW232577   4.184   1.510   1.356
10560SOL     OW32578   2.073   5.645   4.909
10560SOL    HW132579   2.020   5.561   4.896
10560SOL    HW232580   2.098   5.683   4.820
10561SOL     OW32581   2.186   5.130   0.198
10561SOL    HW132582   2.228   5.206   0.149
10561SOL    HW232583   2.121   5.083   0.138
10562SOL     OW32584   4.949   0.369   0.582
10562SOL    HW132585   4.942   0.275   0.550
10562SOL    HW232586   5.033   0.381   0.634
10563SOL     OW32587   1.799   1.171   4.461
10563SOL    HW132588   1.888   1.217   4.456
10563SOL    HW232589   1.813   1.072   4.472
10564SOL     OW32590   6.013   6.926   1.448
10564SOL    HW132591   5.929   6.980   1.440
10564SOL    HW232592   6.010   6.851   1.382
10565SOL     OW32593   0.813   0.798   5.426
10565SOL    HW132594   0.776   0.889   5.447
10565SOL    HW232595   0.910   0.806   5.403
10566SOL     OW32596   3.891   3.532   6.595
10566SOL    HW132597   3.954   3.457   6.573
10566SOL    HW232598   3.827   3.545   6.519
10567SOL     OW32599   2.071   3.466   4.043
10567SOL    HW132600   1.972   3.449   4.045
10567SOL    HW232601   2.091   3.540   3.979
10568SOL     OW32602   5.801   1.195   2.085
10568SOL    HW132603   5.859   1.277   2.082
10568SOL    HW232604   5.769   1.180   2.178
10569SOL     OW32605   6.510   3.305   2.346
10569SOL    HW132606   6.458   3.354   2.275
10569SOL    HW232607   6.607   3.305   2.322
10570SOL     OW32608   1.212   4.442   2.847
10570SOL    HW132609   1.290   4.476   2.900
10570SOL    HW232610   1.128   4.482   2.883
10571SOL     OW32611   7.002   5.720   3.663
10571SOL    HW132612   6.916   5.670   3.649
10571SOL    HW232613   6.997   5.808   3.618
10572SOL     OW32614   5.981   4.000   3.209
10572SOL    HW132615   6.020   4.031   3.295
10572SOL    HW232616   5.882   3.990   3.219
10573SOL     OW32617   6.015   6.582   2.798
10573SOL    HW132618   6.065   6.619   2.876
10573SOL    HW232619   5.974   6.657   2.746
10574SOL     OW32620   1.350   1.927   3.800
10574SOL    HW132621   1.409   1.939   3.880
10574SOL    HW232622   1.406   1.913   3.719
10575SOL     OW32623   0.399   0.577   4.163
10575SOL    HW132624   0.328   0.647   4.156
10575SOL    HW232625   0.483   0.617   4.200
10576SOL     OW32626   0.859   6.850   4.708
10576SOL    HW132627   0.838   6.799   4.791
10576SOL    HW232628   0.840   6.793   4.628
10577SOL     OW32629   1.026   3.185   6.670
10577SOL    HW132630   1.022   3.136   6.757
10577SOL    HW232631   1.105   3.246   6.670
10578SOL     OW32632   6.358   0.846   4.809
10578SOL    HW132633   6.300   0.866   4.730
10578SOL    HW232634   6.454   0.840   4.781
10579SOL     OW32635   4.424   1.355   0.835
10579SOL    HW132636   4.406   1.294   0.757
10579SOL    HW232637   4.503   1.412   0.815
10580SOL     OW32638   6.836   6.434   6.718
10580SOL    HW132639   6.796   6.524   6.702
10580SOL    HW232640   6.831   6.412   6.816
10581SOL     OW32641   6.049   0.060   2.477
10581SOL    HW132642   6.076   7.002   2.435
10581SOL    HW232643   6.038   0.048   2.575
10582SOL     OW32644   3.950   4.666   6.314
10582SOL    HW132645   4.025   4.730   6.297
10582SOL    HW232646   3.987   4.574   6.327
10583SOL     OW32647   4.052   1.113   6.928
10583SOL    HW132648   4.037   1.040   6.994
10583SOL    HW232649   3.975   1.116   6.864
10584SOL     OW32650   5.240   6.371   1.337
10584SOL    HW132651   5.333   6.336   1.344
10584SOL    HW232652   5.241   6.457   1.287
10585SOL     OW32653   1.821   2.915   5.580
10585SOL    HW132654   1.897   2.929   5.517
10585SOL    HW232655   1.856   2.890   5.670
10586SOL     OW32656   2.014   6.118   5.868
10586SOL    HW132657   1.919   6.148   5.879
10586SOL    HW232658   2.025   6.027   5.907
10587SOL     OW32659   5.564   2.959   0.414
10587SOL    HW132660   5.513   2.943   0.498
10587SOL    HW232661   5.626   3.037   0.426
10588SOL     OW32662   1.176   4.187   1.976
10588SOL    HW132663   1.152   4.236   1.893
10588SOL    HW232664   1.098   4.185   2.038
10589SOL     OW32665   5.643   1.666   4.204
10589SOL    HW132666   5.629   1.568   4.185
10589SOL    HW232667   5.571   1.697   4.267
10590SOL     OW32668   1.201   6.784   2.173
10590SOL    HW132669   1.158   6.728   2.102
10590SOL    HW232670   1.220   6.876   2.136
10591SOL     OW32671   1.508   1.794   5.975
10591SOL    HW132672   1.576   1.742   6.027
10591SOL    HW232673   1.416   1.768   6.005
10592SOL     OW32674   5.088   2.202   6.952
10592SOL    HW132675   5.095   2.162   6.861
10592SOL    HW232676   4.992   2.220   6.973
10593SOL     OW32677   2.555   5.660   0.961
10593SOL    HW132678   2.629   5.641   1.025
10593SOL    HW232679   2.592   5.701   0.878
10594SOL     OW32680   6.028   2.084   3.776
10594SOL    HW132681   6.096   2.129   3.834
10594SOL    HW232682   6.030   2.124   3.685
10595SOL     OW32683   3.405   6.928   5.896
10595SOL    HW132684   3.372   6.851   5.840
10595SOL    HW232685   3.425   6.896   5.988
10596SOL     OW32686   4.015   6.884   1.809
10596SOL    HW132687   4.028   6.874   1.907
10596SOL    HW232688   3.944   6.952   1.791
10597SOL     OW32689   2.686   1.161   4.265
10597SOL    HW132690   2.722   1.232   4.325
10597SOL    HW232691   2.596   1.189   4.230
10598SOL     OW32692   2.635   2.194   6.749
10598SOL    HW132693   2.632   2.223   6.845
10598SOL    HW232694   2.601   2.100   6.743
10599SOL     OW32695   5.407   1.261   0.089
10599SOL    HW132696   5.442   1.282   7.026
10599SOL    HW232697   5.360   1.173   0.087
10600SOL     OW32698   2.092   3.175   6.852
10600SOL    HW132699   2.066   3.080   6.839
10600SOL    HW232700   2.080   3.201   6.948
10601SOL     OW32701   2.611   5.115   6.199
10601SOL    HW132702   2.556   5.062   6.135
10601SOL    HW232703   2.690   5.155   6.151
10602SOL     OW32704   5.452   1.498   2.138
10602SOL    HW132705   5.414   1.501   2.231
10602SOL    HW232706   5.465   1.591   2.104
10603SOL     OW32707   1.425   6.268   3.427
10603SOL    HW132708   1.397   6.175   3.402
10603SOL    HW232709   1.502   6.264   3.491
10604SOL     OW32710   5.929   4.584   4.558
10604SOL    HW132711   5.988   4.560   4.635
10604SOL    HW232712   5.882   4.502   4.526
10605SOL     OW32713   0.607   5.271   6.974
10605SOL    HW132714   0.658   5.235   6.896
10605SOL    HW232715   0.588   5.196   0.009
10606SOL     OW32716   6.631   0.595   1.631
10606SOL    HW132717   6.609   0.498   1.623
10606SOL    HW232718   6.557   0.643   1.678
10607SOL     OW32719   3.530   4.376   5.891
10607SOL    HW132720   3.445   4.408   5.932
10607SOL    HW232721   3.588   4.334   5.961
10608SOL     OW32722   5.972   1.955   4.882
10608SOL    HW132723   6.064   1.927   4.912
10608SOL    HW232724   5.973   1.970   4.784
10609SOL     OW32725   3.626   5.919   1.341
10609SOL    HW132726   3.726   5.918   1.351
10609SOL    HW232727   3.603   5.952   1.249
10610SOL     OW32728   0.902   3.975   6.907
10610SOL    HW132729   0.956   3.914   6.849
10610SOL    HW232730   0.940   4.067   6.902
10611SOL     OW32731   5.647   3.172   6.933
10611SOL    HW132732   5.637   3.266   6.965
10611SOL    HW232733   5.686   3.173   6.840
10612SOL     OW32734   2.301   6.867   6.240
10612SOL    HW132735   2.332   6.924   6.164
10612SOL    HW232736   2.249   6.922   6.305
10613SOL     OW32737   6.792   0.280   5.938
10613SOL    HW132738   6.819   0.226   5.858
10613SOL    HW232739   6.872   0.302   5.993
10614SOL     OW32740   6.939   0.844   3.952
10614SOL    HW132741   6.953   0.909   4.026
10614SOL    HW232742   6.858   0.871   3.898
10615SOL     OW32743   4.006   5.871   5.381
10615SOL    HW132744   4.093   5.838   5.344
10615SOL    HW232745   3.935   5.864   5.311
10616SOL     OW32746   3.170   6.326   0.339
10616SOL    HW132747   3.111   6.245   0.345
10616SOL    HW232748   3.164   6.366   0.248
10617SOL     OW32749   2.184   2.387   0.764
10617SOL    HW132750   2.221   2.338   0.685
10617SOL    HW232751   2.126   2.325   0.817
10618SOL     OW32752   6.577   2.574   0.393
10618SOL    HW132753   6.537   2.630   0.466
10618SOL    HW232754   6.507   2.513   0.356
10619SOL     OW32755   0.746   3.855   2.673
10619SOL    HW132756   0.705   3.846   2.764
10619SOL    HW232757   0.834   3.903   2.681
10620SOL     OW32758   1.114   5.635   5.504
10620SOL    HW132759   1.045   5.673   5.566
10620SOL    HW232760   1.144   5.546   5.537
10621SOL     OW32761   1.706   5.343   0.224
10621SOL    HW132762   1.753   5.285   0.158
10621SOL    HW232763   1.769   5.367   0.298
10622SOL     OW32764   4.508   0.977   2.051
10622SOL    HW132765   4.495   0.964   1.953
10622SOL    HW232766   4.489   1.072   2.075
10623SOL     OW32767   5.751   2.912   3.619
10623SOL    HW132768   5.683   2.839   3.607
10623SOL    HW232769   5.707   2.990   3.664
10624SOL     OW32770   1.013   1.351   5.479
10624SOL    HW132771   1.020   1.406   5.396
10624SOL    HW232772   1.022   1.410   5.559
10625SOL     OW32773   0.588   4.547   6.932
10625SOL    HW132774   0.622   4.528   6.841
10625SOL    HW232775   0.647   4.503   7.000
10626SOL     OW32776   1.492   2.507   1.688
10626SOL    HW132777   1.438   2.468   1.763
10626SOL    HW232778   1.430   2.533   1.614
10627SOL     OW32779   6.640   6.160   2.361
10627SOL    HW132780   6.723   6.152   2.415
10627SOL    HW232781   6.563   6.183   2.421
10628SOL     OW32782   5.964   5.147   5.772
10628SOL    HW132783   5.915   5.225   5.732
10628SOL    HW232784   5.935   5.063   5.727
10629SOL     OW32785   1.984   4.484   5.956
10629SOL    HW132786   1.898   4.534   5.947
10629SOL    HW232787   1.998   4.460   6.052
10630SOL     OW32788   6.056   0.406   3.801
10630SOL    HW132789   5.974   0.371   3.846
10630SOL    HW232790   6.082   0.343   3.728
10631SOL     OW32791   1.282   6.715   4.269
10631SOL    HW132792   1.311   6.770   4.190
10631SOL    HW232793   1.184   6.696   4.260
10632SOL     OW32794   5.939   2.187   4.490
10632SOL    HW132795   5.976   2.149   4.406
10632SOL    HW232796   5.919   2.113   4.554
10633SOL     OW32797   2.626   4.667   1.071
10633SOL    HW132798   2.650   4.569   1.074
10633SOL    HW232799   2.530   4.678   1.098
10634SOL     OW32800   2.787   5.675   0.393
10634SOL    HW132801   2.804   5.765   0.432
10634SOL    HW232802   2.841   5.607   0.440
10635SOL     OW32803   3.335   0.944   1.357
10635SOL    HW132804   3.374   1.010   1.292
10635SOL    HW232805   3.260   0.895   1.314
10636SOL     OW32806   0.673   1.866   1.500
10636SOL    HW132807   0.686   1.773   1.535
10636SOL    HW232808   0.737   1.928   1.544
10637SOL     OW32809   3.123   3.907   5.509
10637SOL    HW132810   3.055   3.977   5.530
10637SOL    HW232811   3.200   3.914   5.572
10638SOL     OW32812   0.466   6.587   3.859
10638SOL    HW132813   0.511   6.546   3.939
10638SOL    HW232814   0.369   6.601   3.879
10639SOL     OW32815   0.696   1.503   4.001
10639SOL    HW132816   0.774   1.458   4.044
10639SOL    HW232817   0.682   1.592   4.043
10640SOL     OW32818   4.372   0.177   6.937
10640SOL    HW132819   4.470   0.192   6.949
10640SOL    HW232820   4.353   0.146   6.844
10641SOL     OW32821   4.845   1.818   6.874
10641SOL    HW132822   4.791   1.901   6.891
10641SOL    HW232823   4.918   1.838   6.808
10642SOL     OW32824   0.362   2.237   1.424
10642SOL    HW132825   0.266   2.207   1.424
10642SOL    HW232826   0.367   2.334   1.446
10643SOL     OW32827   2.236   3.858   5.684
10643SOL    HW132828   2.180   3.929   5.642
10643SOL    HW232829   2.218   3.771   5.639
10644SOL     OW32830   4.626   1.855   3.906
10644SOL    HW132831   4.545   1.881   3.957
10644SOL    HW232832   4.706   1.858   3.967
10645SOL     OW32833   0.882   0.756   4.600
10645SOL    HW132834   0.793   0.711   4.591
10645SOL    HW232835   0.941   0.699   4.658
10646SOL     OW32836   0.792   2.649   6.141
10646SOL    HW132837   0.696   2.677   6.137
10646SOL    HW232838   0.848   2.725   6.173
10647SOL     OW32839   6.105   5.358   6.651
10647SOL    HW132840   6.049   5.429   6.608
10647SOL    HW232841   6.181   5.334   6.590
10648SOL     OW32842   5.186   3.690   6.977
10648SOL    HW132843   5.273   3.682   6.929
10648SOL    HW232844   5.112   3.704   6.911
10649SOL     OW32845   0.188   4.545   4.563
10649SOL    HW132846   0.108   4.579   4.613
10649SOL    HW232847   0.239   4.622   4.525
10650SOL     OW32848   1.746   6.426   4.022
10650SOL    HW132849   1.788   6.369   3.951
10650SOL    HW232850   1.792   6.515   4.024
10651SOL     OW32851   4.506   6.977   5.581
10651SOL    HW132852   4.468   6.961   5.490
10651SOL    HW232853   4.433   7.007   5.642
10652SOL     OW32854   3.472   0.376   6.250
10652SOL    HW132855   3.456   0.367   6.152
10652SOL    HW232856   3.419   0.307   6.299
10653SOL     OW32857   4.938   4.527   4.923
10653SOL    HW132858   4.904   4.434   4.942
10653SOL    HW232859   4.860   4.587   4.906
10654SOL     OW32860   3.045   0.366   1.526
10654SOL    HW132861   2.955   0.331   1.555
10654SOL    HW232862   3.116   0.324   1.582
10655SOL     OW32863   2.994   5.395   2.076
10655SOL    HW132864   2.911   5.376   2.128
10655SOL    HW232865   2.978   5.473   2.015
10656SOL     OW32866   6.396   2.470   6.753
10656SOL    HW132867   6.414   2.548   6.693
10656SOL    HW232868   6.429   2.491   6.845
10657SOL     OW32869   6.095   6.717   0.906
10657SOL    HW132870   6.192   6.724   0.926
10657SOL    HW232871   6.066   6.622   0.910
10658SOL     OW32872   1.107   4.269   4.899
10658SOL    HW132873   1.177   4.219   4.847
10658SOL    HW232874   1.018   4.227   4.883
10659SOL     OW32875   5.856   0.038   0.802
10659SOL    HW132876   5.878   0.060   0.707
10659SOL    HW232877   5.763   0.071   0.823
10660SOL     OW32878   4.865   3.693   5.879
10660SOL    HW132879   4.849   3.780   5.833
10660SOL    HW232880   4.813   3.621   5.832
10661SOL     OW32881   0.129   6.624   1.900
10661SOL    HW132882   0.155   6.528   1.897
10661SOL    HW232883   0.037   6.635   1.862
10662SOL     OW32884   6.706   1.148   0.694
10662SOL    HW132885   6.675   1.061   0.731
10662SOL    HW232886   6.787   1.134   0.638
10663SOL     OW32887   0.589   0.412   1.674
10663SOL    HW132888   0.547   0.451   1.592
10663SOL    HW232889   0.643   0.332   1.649
10664SOL     OW32890   2.036   4.081   0.001
10664SOL    HW132891   1.953   4.134   7.012
10664SOL    HW232892   2.116   4.139   7.018
10665SOL     OW32893   0.587   1.705   0.271
10665SOL    HW132894   0.588   1.651   0.355
10665SOL    HW232895   0.671   1.687   0.220
10666SOL     OW32896   3.412   5.218   6.959
10666SOL    HW132897   3.414   5.122   6.988
10666SOL    HW232898   3.489   5.236   6.898
10667SOL     OW32899   3.636   2.097   5.349
10667SOL    HW132900   3.603   2.058   5.263
10667SOL    HW232901   3.611   2.193   5.354
10668SOL     OW32902   1.591   1.891   6.497
10668SOL    HW132903   1.583   1.819   6.428
10668SOL    HW232904   1.518   1.958   6.485
10669SOL     OW32905   0.622   0.042   0.841
10669SOL    HW132906   0.715   0.027   0.808
10669SOL    HW232907   0.566   6.989   0.825
10670SOL     OW32908   5.483   4.750   5.745
10670SOL    HW132909   5.579   4.724   5.735
10670SOL    HW232910   5.433   4.676   5.790
10671SOL     OW32911   2.225   2.452   2.861
10671SOL    HW132912   2.289   2.496   2.798
10671SOL    HW232913   2.179   2.376   2.815
10672SOL     OW32914   0.428   2.550   0.565
10672SOL    HW132915   0.362   2.588   0.630
10672SOL    HW232916   0.495   2.620   0.539
10673SOL     OW32917   2.780   3.036   5.642
10673SOL    HW132918   2.836   2.954   5.640
10673SOL    HW232919   2.727   3.043   5.557
10674SOL     OW32920   4.006   3.790   0.673
10674SOL    HW132921   4.084   3.790   0.736
10674SOL    HW232922   4.033   3.830   0.586
10675SOL     OW32923   0.247   0.641   5.774
10675SOL    HW132924   0.184   0.564   5.761
10675SOL    HW232925   0.335   0.607   5.807
10676SOL     OW32926   6.033   0.568   6.441
10676SOL    HW132927   6.127   0.594   6.418
10676SOL    HW232928   6.017   0.473   6.412
10677SOL     OW32929   0.460   0.924   2.509
10677SOL    HW132930   0.473   0.830   2.542
10677SOL    HW232931   0.525   0.944   2.436
10678SOL     OW32932   3.137   5.387   2.795
10678SOL    HW132933   3.211   5.450   2.821
10678SOL    HW232934   3.171   5.293   2.798
10679SOL     OW32935   6.111   5.425   4.639
10679SOL    HW132936   6.064   5.454   4.555
10679SOL    HW232937   6.132   5.506   4.695
10680SOL     OW32938   1.643   3.139   2.230
10680SOL    HW132939   1.710   3.205   2.265
10680SOL    HW232940   1.660   3.049   2.269
10681SOL     OW32941   6.274   4.060   6.474
10681SOL    HW132942   6.194   4.058   6.414
10681SOL    HW232943   6.247   4.037   6.567
10682SOL     OW32944   1.134   1.669   2.858
10682SOL    HW132945   1.052   1.693   2.911
10682SOL    HW232946   1.108   1.610   2.782
10683SOL     OW32947   1.807   2.276   4.343
10683SOL    HW132948   1.854   2.279   4.255
10683SOL    HW232949   1.801   2.369   4.380
10684SOL     OW32950   5.855   4.031   0.511
10684SOL    HW132951   5.891   3.939   0.494
10684SOL    HW232952   5.849   4.047   0.610
10685SOL     OW32953   1.128   3.927   3.160
10685SOL    HW132954   1.207   3.984   3.136
10685SOL    HW232955   1.157   3.854   3.223
10686SOL     OW32956   3.254   6.042   0.014
10686SOL    HW132957   3.181   5.982   7.011
10686SOL    HW232958   3.303   6.080   6.964
10687SOL     OW32959   6.913   4.948   2.514
10687SOL    HW132960   6.865   4.979   2.432
10687SOL    HW232961   7.008   4.980   2.510
10688SOL     OW32962   7.000   4.538   2.342
10688SOL    HW132963   7.014   4.447   2.380
10688SOL    HW232964   0.031   4.551   2.262
10689SOL     OW32965   6.945   0.397   2.734
10689SOL    HW132966   6.848   0.386   2.711
10689SOL    HW232967   6.998   0.327   2.687
10690SOL     OW32968   3.947   5.294   2.375
10690SOL    HW132969   3.867   5.280   2.317
10690SOL    HW232970   3.985   5.385   2.359
10691SOL     OW32971   0.062   1.157   1.511
10691SOL    HW132972   0.156   1.177   1.482
10691SOL    HW232973   0.016   1.241   1.538
10692SOL     OW32974   3.412   6.131   3.659
10692SOL    HW132975   3.456   6.112   3.571
10692SOL    HW232976   3.459   6.079   3.731
10693SOL     OW32977   0.543   1.715   1.042
10693SOL    HW132978   0.453   1.752   1.018
10693SOL    HW232979   0.542   1.684   1.137
10694SOL     OW32980   3.902   5.903   1.331
10694SOL    HW132981   3.952   5.816   1.333
10694SOL    HW232982   3.926   5.952   1.247
10695SOL     OW32983   0.509   2.714   4.421
10695SOL    HW132984   0.446   2.758   4.485
10695SOL    HW232985   0.458   2.681   4.342
10696SOL     OW32986   0.042   6.039   1.380
10696SOL    HW132987   0.087   6.127   1.398
10696SOL    HW232988   0.110   5.966   1.386
10697SOL     OW32989   0.646   6.321   3.569
10697SOL    HW132990   0.608   6.240   3.613
10697SOL    HW232991   0.732   6.346   3.614
10698SOL     OW32992   2.806   0.139   3.214
10698SOL    HW132993   2.863   0.178   3.142
10698SOL    HW232994   2.717   0.112   3.175
10699SOL     OW32995   4.224   1.866   2.828
10699SOL    HW132996   4.250   1.840   2.735
10699SOL    HW232997   4.136   1.826   2.851
10700SOL     OW32998   6.889   6.363   0.893
10700SOL    HW132999   6.919   6.410   0.976
10700SOL    HW233000   6.905   6.422   0.814
10701SOL     OW33001   3.685   5.861   6.947
10701SOL    HW133002   3.666   5.918   7.026
10701SOL    HW233003   3.601   5.815   6.918
10702SOL     OW33004   5.794   2.561   0.002
10702SOL    HW133005   5.757   2.536   0.091
10702SOL    HW233006   5.783   2.660   7.016
10703SOL     OW33007   3.949   3.944   3.333
10703SOL    HW133008   3.926   3.890   3.252
10703SOL    HW233009   4.020   3.898   3.385
10704SOL     OW33010   4.952   0.108   2.300
10704SOL    HW133011   5.038   0.086   2.253
10704SOL    HW233012   4.916   0.193   2.263
10705SOL     OW33013   1.183   3.524   6.631
10705SOL    HW133014   1.191   3.438   6.681
10705SOL    HW233015   1.269   3.544   6.584
10706SOL     OW33016   4.259   0.783   1.810
10706SOL    HW133017   4.212   0.820   1.890
10706SOL    HW233018   4.205   0.801   1.728
10707SOL     OW33019   6.222   0.319   5.888
10707SOL    HW133020   6.189   0.367   5.970
10707SOL    HW233021   6.309   0.274   5.910
10708SOL     OW33022   5.106   0.840   1.104
10708SOL    HW133023   5.120   0.920   1.046
10708SOL    HW233024   5.069   0.765   1.049
10709SOL     OW33025   6.051   7.015   5.323
10709SOL    HW133026   5.959   6.993   5.290
10709SOL    HW233027   6.106   6.931   5.325
10710SOL     OW33028   6.164   5.449   3.827
10710SOL    HW133029   6.252   5.406   3.806
10710SOL    HW233030   6.179   5.544   3.855
10711SOL     OW33031   1.645   0.260   4.273
10711SOL    HW133032   1.579   0.275   4.346
10711SOL    HW233033   1.603   0.281   4.184
10712SOL     OW33034   3.807   1.400   4.935
10712SOL    HW133035   3.796   1.338   4.857
10712SOL    HW233036   3.820   1.493   4.902
10713SOL     OW33037   2.360   6.089   1.689
10713SOL    HW133038   2.285   6.148   1.720
10713SOL    HW233039   2.414   6.060   1.769
10714SOL     OW33040   0.660   5.065   4.871
10714SOL    HW133041   0.746   5.046   4.919
10714SOL    HW233042   0.583   5.035   4.927
10715SOL     OW33043   4.868   1.905   4.025
10715SOL    HW133044   4.915   1.817   4.028
10715SOL    HW233045   4.936   1.979   4.015
10716SOL     OW33046   6.582   1.059   4.322
10716SOL    HW133047   6.654   1.121   4.353
10716SOL    HW233048   6.496   1.110   4.313
10717SOL     OW33049   6.740   1.013   1.887
10717SOL    HW133050   6.766   1.107   1.907
10717SOL    HW233051   6.798   0.976   1.815
10718SOL     OW33052   6.494   5.107   6.774
10718SOL    HW133053   6.509   5.036   6.705
10718SOL    HW233054   6.579   5.158   6.787
10719SOL     OW33055   5.620   0.911   1.606
10719SOL    HW133056   5.624   0.951   1.698
10719SOL    HW233057   5.712   0.907   1.567
10720SOL     OW33058   0.264   4.016   6.713
10720SOL    HW133059   0.231   4.095   6.662
10720SOL    HW233060   0.342   3.976   6.664
10721SOL     OW33061   5.901   2.449   4.140
10721SOL    HW133062   5.864   2.505   4.215
10721SOL    HW233063   5.851   2.363   4.136
10722SOL     OW33064   6.722   3.477   0.546
10722SOL    HW133065   6.645   3.503   0.487
10722SOL    HW233066   6.770   3.399   0.506
10723SOL     OW33067   5.317   4.246   6.760
10723SOL    HW133068   5.253   4.211   6.691
10723SOL    HW233069   5.410   4.243   6.723
10724SOL     OW33070   4.147   6.475   6.231
10724SOL    HW133071   4.184   6.470   6.138
10724SOL    HW233072   4.204   6.422   6.293
10725SOL     OW33073   0.473   6.321   4.431
10725SOL    HW133074   0.542   6.266   4.384
10725SOL    HW233075   0.459   6.407   4.382
10726SOL     OW33076   5.763   0.496   4.656
10726SOL    HW133077   5.745   0.503   4.558
10726SOL    HW233078   5.773   0.400   4.682
10727SOL     OW33079   2.230   5.696   5.667
10727SOL    HW133080   2.230   5.602   5.701
10727SOL    HW233081   2.231   5.759   5.745
10728SOL     OW33082   4.852   6.534   2.920
10728SOL    HW133083   4.932   6.473   2.916
10728SOL    HW233084   4.845   6.585   2.834
10729SOL     OW33085   6.100   2.676   2.881
10729SOL    HW133086   6.002   2.671   2.902
10729SOL    HW233087   6.149   2.609   2.937
10730SOL     OW33088   1.642   6.942   2.830
10730SOL    HW133089   1.717   6.980   2.776
10730SOL    HW233090   1.566   6.918   2.770
10731SOL     OW33091   3.616   6.057   0.154
10731SOL    HW133092   3.521   6.084   0.162
10731SOL    HW233093   3.654   6.038   0.244
10732SOL     OW33094   5.978   5.948   2.864
10732SOL    HW133095   5.955   5.866   2.916
10732SOL    HW233096   5.966   6.029   2.922
10733SOL     OW33097   6.528   1.789   6.345
10733SOL    HW133098   6.451   1.726   6.355
10733SOL    HW233099   6.551   1.798   6.248
10734SOL     OW33100   1.522   0.954   6.360
10734SOL    HW133101   1.543   1.052   6.358
10734SOL    HW233102   1.530   0.916   6.268
10735SOL     OW33103   1.020   4.586   2.019
10735SOL    HW133104   0.988   4.584   2.114
10735SOL    HW233105   0.973   4.659   1.969
10736SOL     OW33106   0.029   0.365   3.629
10736SOL    HW133107   0.073   0.451   3.604
10736SOL    HW233108   0.096   0.291   3.620
10737SOL     OW33109   0.184   1.612   1.275
10737SOL    HW133110   0.087   1.601   1.253
10737SOL    HW233111   0.229   1.667   1.205
10738SOL     OW33112   2.667   0.444   2.764
10738SOL    HW133113   2.576   0.481   2.747
10738SOL    HW233114   2.730   0.519   2.786
10739SOL     OW33115   6.066   1.559   2.214
10739SOL    HW133116   6.150   1.556   2.269
10739SOL    HW233117   6.074   1.496   2.137
10740SOL     OW33118   1.573   6.852   5.788
10740SOL    HW133119   1.578   6.942   5.745
10740SOL    HW233120   1.584   6.862   5.887
10741SOL     OW33121   1.785   2.462   3.140
10741SOL    HW133122   1.806   2.474   3.044
10741SOL    HW233123   1.753   2.549   3.179
10742SOL     OW33124   6.206   5.582   2.447
10742SOL    HW133125   6.220   5.498   2.499
10742SOL    HW233126   6.108   5.593   2.428
10743SOL     OW33127   3.288   1.243   5.518
10743SOL    HW133128   3.331   1.171   5.463
10743SOL    HW233129   3.217   1.288   5.464
10744SOL     OW33130   2.949   0.358   0.931
10744SOL    HW133131   2.862   0.309   0.921
10744SOL    HW233132   2.943   0.446   0.884
10745SOL     OW33133   2.142   4.351   1.265
10745SOL    HW133134   2.182   4.441   1.247
10745SOL    HW233135   2.153   4.293   1.185
10746SOL     OW33136   2.007   6.406   0.066
10746SOL    HW133137   1.931   6.470   0.080
10746SOL    HW233138   2.077   6.422   0.135
10747SOL     OW33139   6.710   1.972   4.192
10747SOL    HW133140   6.754   1.927   4.269
10747SOL    HW233141   6.774   2.037   4.151
10748SOL     OW33142   4.131   5.136   1.277
10748SOL    HW133143   4.227   5.133   1.306
10748SOL    HW233144   4.073   5.156   1.356
10749SOL     OW33145   6.345   5.129   2.934
10749SOL    HW133146   6.320   5.107   2.840
10749SOL    HW233147   6.352   5.044   2.987
10750SOL     OW33148   4.879   2.897   3.969
10750SOL    HW133149   4.862   2.799   3.970
10750SOL    HW233150   4.970   2.915   4.007
10751SOL     OW33151   1.327   3.557   4.926
10751SOL    HW133152   1.328   3.472   4.874
10751SOL    HW233153   1.363   3.540   5.018
10752SOL     OW33154   5.684   6.111   0.364
10752SOL    HW133155   5.588   6.087   0.350
10752SOL    HW233156   5.702   6.200   0.323
10753SOL     OW33157   5.084   6.368   3.957
10753SOL    HW133158   5.071   6.461   3.922
10753SOL    HW233159   5.071   6.369   4.057
10754SOL     OW33160   1.541   3.092   1.681
10754SOL    HW133161   1.623   3.050   1.643
10754SOL    HW233162   1.530   3.064   1.777
10755SOL     OW33163   6.546   2.826   1.191
10755SOL    HW133164   6.557   2.727   1.187
10755SOL    HW233165   6.485   2.857   1.118
10756SOL     OW33166   6.925   2.906   0.638
10756SOL    HW133167   6.839   2.875   0.679
10756SOL    HW233168   6.906   2.945   0.548
10757SOL     OW33169   6.242   4.361   0.599
10757SOL    HW133170   6.296   4.421   0.539
10757SOL    HW233171   6.304   4.301   0.650
10758SOL     OW33172   0.490   6.696   6.701
10758SOL    HW133173   0.458   6.749   6.780
10758SOL    HW233174   0.544   6.618   6.733
10759SOL     OW33175   2.212   1.848   6.709
10759SOL    HW133176   2.113   1.835   6.705
10759SOL    HW233177   2.240   1.904   6.631
10760SOL     OW33178   0.544   5.943   0.050
10760SOL    HW133179   0.505   5.925   0.140
10760SOL    HW233180   0.636   5.983   0.061
10761SOL     OW33181   0.718   1.688   6.512
10761SOL    HW133182   0.636   1.668   6.565
10761SOL    HW233183   0.786   1.731   6.572
10762SOL     OW33184   4.053   0.606   5.778
10762SOL    HW133185   4.027   0.535   5.844
10762SOL    HW233186   4.056   0.695   5.824
10763SOL     OW33187   5.778   0.338   3.166
10763SOL    HW133188   5.858   0.284   3.141
10763SOL    HW233189   5.806   0.414   3.224
10764SOL     OW33190   4.230   1.324   5.054
10764SOL    HW133191   4.281   1.283   4.978
10764SOL    HW233192   4.246   1.272   5.138
10765SOL     OW33193   6.342   2.431   2.237
10765SOL    HW133194   6.257   2.387   2.206
10765SOL    HW233195   6.419   2.373   2.212
10766SOL     OW33196   1.205   4.643   6.833
10766SOL    HW133197   1.155   4.587   6.767
10766SOL    HW233198   1.164   4.634   6.923
10767SOL     OW33199   1.668   5.704   0.683
10767SOL    HW133200   1.614   5.742   0.758
10767SOL    HW233201   1.730   5.634   0.719
10768SOL     OW33202   5.684   5.894   0.052
10768SOL    HW133203   5.675   5.986   0.012
10768SOL    HW233204   5.631   5.829   7.027
10769SOL     OW33205   3.022   3.600   5.130
10769SOL    HW133206   3.056   3.511   5.103
10769SOL    HW233207   3.090   3.648   5.185
10770SOL     OW33208   5.510   7.009   4.485
10770SOL    HW133209   5.495   6.988   4.582
10770SOL    HW233210   5.423   6.998   4.436
10771SOL     OW33211   5.588   6.847   5.778
10771SOL    HW133212   5.549   6.756   5.791
10771SOL    HW233213   5.619   6.883   5.866
10772SOL     OW33214   5.579   5.745   3.268
10772SOL    HW133215   5.484   5.719   3.248
10772SOL    HW233216   5.611   5.809   3.199
10773SOL     OW33217   6.898   4.577   1.078
10773SOL    HW133218   6.879   4.671   1.048
10773SOL    HW233219   6.996   4.562   1.079
10774SOL     OW33220   1.186   2.352   0.908
10774SOL    HW133221   1.160   2.443   0.942
10774SOL    HW233222   1.127   2.283   0.949
10775SOL     OW33223   1.598   4.647   0.850
10775SOL    HW133224   1.553   4.577   0.905
10775SOL    HW233225   1.682   4.609   0.810
10776SOL     OW33226   6.860   1.068   3.013
10776SOL    HW133227   6.958   1.071   3.033
10776SOL    HW233228   6.840   1.131   2.938
10777SOL     OW33229   2.968   1.169   3.415
10777SOL    HW133230   3.059   1.157   3.456
10777SOL    HW233231   2.953   1.098   3.347
10778SOL     OW33232   6.317   6.599   3.949
10778SOL    HW133233   6.410   6.575   3.975
10778SOL    HW233234   6.299   6.695   3.974
10779SOL     OW33235   6.103   3.974   4.155
10779SOL    HW133236   6.013   4.015   4.143
10779SOL    HW233237   6.095   3.895   4.216
10780SOL     OW33238   0.688   5.770   4.541
10780SOL    HW133239   0.595   5.806   4.540
10780SOL    HW233240   0.740   5.810   4.466
10781SOL     OW33241   5.966   2.495   4.819
10781SOL    HW133242   5.945   2.447   4.905
10781SOL    HW233243   6.055   2.465   4.786
10782SOL     OW33244   0.806   3.301   5.604
10782SOL    HW133245   0.832   3.241   5.529
10782SOL    HW233246   0.708   3.295   5.620
10783SOL     OW33247   1.095   2.366   2.704
10783SOL    HW133248   1.161   2.363   2.778
10783SOL    HW233249   1.143   2.363   2.616
10784SOL     OW33250   2.824   5.975   2.602
10784SOL    HW133251   2.878   5.892   2.610
10784SOL    HW233252   2.833   6.030   2.686
10785SOL     OW33253   1.757   5.728   2.103
10785SOL    HW133254   1.723   5.758   2.192
10785SOL    HW233255   1.719   5.638   2.081
10786SOL     OW33256   4.878   1.787   2.176
10786SOL    HW133257   4.977   1.802   2.182
10786SOL    HW233258   4.861   1.694   2.143
10787SOL     OW33259   3.471   0.891   3.704
10787SOL    HW133260   3.534   0.969   3.703
10787SOL    HW233261   3.445   0.868   3.610
10788SOL     OW33262   0.624   4.406   0.327
10788SOL    HW133263   0.601   4.498   0.359
10788SOL    HW233264   0.545   4.346   0.338
10789SOL     OW33265   5.903   1.597   0.134
10789SOL    HW133266   5.908   1.651   0.050
10789SOL    HW233267   5.836   1.524   0.123
10790SOL     OW33268   0.334   2.256   4.680
10790SOL    HW133269   0.356   2.158   4.672
10790SOL    HW233270   0.401   2.300   4.739
10791SOL     OW33271   1.917   1.382   2.647
10791SOL    HW133272   1.957   1.436   2.721
10791SOL    HW233273   1.827   1.349   2.675
10792SOL     OW33274   4.016   2.110   1.501
10792SOL    HW133275   3.997   2.181   1.434
10792SOL    HW233276   3.931   2.083   1.546
10793SOL     OW33277   4.659   1.798   4.974
10793SOL    HW133278   4.692   1.879   4.926
10793SOL    HW233279   4.559   1.802   4.982
10794SOL     OW33280   4.319   3.167   1.778
10794SOL    HW133281   4.403   3.129   1.818
10794SOL    HW233282   4.334   3.262   1.753
10795SOL     OW33283   0.113   3.808   3.181
10795SOL    HW133284   0.054   3.879   3.144
10795SOL    HW233285   0.121   3.734   3.114
10796SOL     OW33286   6.499   6.376   6.821
10796SOL    HW133287   6.514   6.433   6.740
10796SOL    HW233288   6.431   6.305   6.800
10797SOL     OW33289   4.271   3.489   0.790
10797SOL    HW133290   4.318   3.436   0.860
10797SOL    HW233291   4.312   3.580   0.785
10798SOL     OW33292   2.942   6.926   6.430
10798SOL    HW133293   2.937   7.021   6.462
10798SOL    HW233294   2.860   6.905   6.376
10799SOL     OW33295   3.228   1.402   2.957
10799SOL    HW133296   3.238   1.379   3.054
10799SOL    HW233297   3.137   1.376   2.926
10800SOL     OW33298   1.259   0.353   6.592
10800SOL    HW133299   1.267   0.430   6.529
10800SOL    HW233300   1.176   0.301   6.570
10801SOL     OW33301   1.940   5.796   6.466
10801SOL    HW133302   1.918   5.892   6.448
10801SOL    HW233303   2.034   5.777   6.437
10802SOL     OW33304   1.233   3.447   4.136
10802SOL    HW133305   1.160   3.511   4.160
10802SOL    HW233306   1.243   3.380   4.210
10803SOL     OW33307   6.253   4.782   5.646
10803SOL    HW133308   6.310   4.705   5.616
10803SOL    HW233309   6.312   4.862   5.660
10804SOL     OW33310   5.737   4.506   1.956
10804SOL    HW133311   5.727   4.545   2.047
10804SOL    HW233312   5.803   4.431   1.960
10805SOL     OW33313   4.384   6.731   0.653
10805SOL    HW133314   4.365   6.801   0.722
10805SOL    HW233315   4.302   6.715   0.599
10806SOL     OW33316   5.535   3.733   0.402
10806SOL    HW133317   5.606   3.693   0.461
10806SOL    HW233318   5.537   3.833   0.410
10807SOL     OW33319   3.758   6.020   3.155
10807SOL    HW133320   3.665   5.994   3.180
10807SOL    HW233321   3.815   6.025   3.238
10808SOL     OW33322   0.409   2.897   6.021
10808SOL    HW133323   0.466   2.959   5.967
10808SOL    HW233324   0.419   2.919   6.118
10809SOL     OW33325   2.726   0.420   3.223
10809SOL    HW133326   2.725   0.323   3.247
10809SOL    HW233327   2.647   0.441   3.165
10810SOL     OW33328   0.037   1.429   5.181
10810SOL    HW133329   0.017   1.339   5.142
10810SOL    HW233330   0.128   1.429   5.221
10811SOL     OW33331   4.640   4.929   5.271
10811SOL    HW133332   4.574   4.973   5.331
10811SOL    HW233333   4.597   4.850   5.226
10812SOL     OW33334   6.339   2.680   2.616
10812SOL    HW133335   6.268   2.715   2.677
10812SOL    HW233336   6.326   2.717   2.524
10813SOL     OW33337   2.831   5.797   2.037
10813SOL    HW133338   2.829   5.875   1.974
10813SOL    HW233339   2.765   5.728   2.006
10814SOL     OW33340   2.007   6.903   5.164
10814SOL    HW133341   1.926   6.844   5.153
10814SOL    HW233342   1.979   6.999   5.161
10815SOL     OW33343   5.467   4.172   2.665
10815SOL    HW133344   5.564   4.193   2.674
10815SOL    HW233345   5.414   4.257   2.665
10816SOL     OW33346   1.575   0.933   2.023
10816SOL    HW133347   1.556   0.837   2.044
10816SOL    HW233348   1.516   0.963   1.948
10817SOL     OW33349   4.877   0.100   2.609
10817SOL    HW133350   4.915   0.114   2.518
10817SOL    HW233351   4.793   0.152   2.619
10818SOL     OW33352   4.949   3.055   6.710
10818SOL    HW133353   4.884   3.081   6.639
10818SOL    HW233354   4.986   3.136   6.754
10819SOL     OW33355   0.191   4.697   6.792
10819SOL    HW133356   0.228   4.648   6.871
10819SOL    HW233357   0.097   4.725   6.810
10820SOL     OW33358   0.224   6.508   3.963
10820SOL    HW133359   0.218   6.605   3.988
10820SOL    HW233360   0.302   6.466   4.010
10821SOL     OW33361   6.692   0.384   1.367
10821SOL    HW133362   6.659   0.446   1.438
10821SOL    HW233363   6.628   0.383   1.291
10822SOL     OW33364   0.779   3.976   2.347
10822SOL    HW133365   0.680   3.972   2.357
10822SOL    HW233366   0.817   3.884   2.361
10823SOL     OW33367   2.384   6.186   1.237
10823SOL    HW133368   2.483   6.187   1.250
10823SOL    HW233369   2.340   6.153   1.320
10824SOL     OW33370   5.096   0.640   2.788
10824SOL    HW133371   5.082   0.662   2.691
10824SOL    HW233372   5.180   0.585   2.797
10825SOL     OW33373   3.359   0.762   0.970
10825SOL    HW133374   3.424   0.740   1.043
10825SOL    HW233375   3.366   0.859   0.947
10826SOL     OW33376   0.178   3.581   2.628
10826SOL    HW133377   0.213   3.520   2.699
10826SOL    HW233378   0.183   3.536   2.539
10827SOL     OW33379   6.993   3.278   4.331
10827SOL    HW133380   0.017   3.269   4.415
10827SOL    HW233381   6.897   3.254   4.349
10828SOL     OW33382   1.533   5.645   0.446
10828SOL    HW133383   1.509   5.552   0.471
10828SOL    HW233384   1.563   5.695   0.528
10829SOL     OW33385   3.203   3.865   2.059
10829SOL    HW133386   3.118   3.858   2.006
10829SOL    HW233387   3.206   3.954   2.105
10830SOL     OW33388   5.326   2.853   4.700
10830SOL    HW133389   5.407   2.912   4.705
10830SOL    HW233390   5.263   2.875   4.774
10831SOL     OW33391   5.299   1.207   2.878
10831SOL    HW133392   5.394   1.229   2.857
10831SOL    HW233393   5.260   1.280   2.934
10832SOL     OW33394   0.780   2.258   0.581
10832SOL    HW133395   0.838   2.269   0.501
10832SOL    HW233396   0.726   2.174   0.573
10833SOL     OW33397   2.375   0.616   4.333
10833SOL    HW133398   2.456   0.595   4.387
10833SOL    HW233399   2.388   0.703   4.286
10834SOL     OW33400   0.554   1.922   5.687
10834SOL    HW133401   0.500   1.840   5.670
10834SOL    HW233402   0.651   1.898   5.692
10835SOL     OW33403   5.673   1.670   2.477
10835SOL    HW133404   5.718   1.753   2.511
10835SOL    HW233405   5.582   1.693   2.443
10836SOL     OW33406   1.660   1.786   6.731
10836SOL    HW133407   1.618   1.807   6.643
10836SOL    HW233408   1.619   1.703   6.769
10837SOL     OW33409   6.760   4.780   0.949
10837SOL    HW133410   6.675   4.823   0.977
10837SOL    HW233411   6.744   4.722   0.869
10838SOL     OW33412   5.870   6.896   6.660
10838SOL    HW133413   5.943   6.911   6.594
10838SOL    HW233414   5.806   6.827   6.625
10839SOL     OW33415   1.744   2.125   0.310
10839SOL    HW133416   1.702   2.041   0.343
10839SOL    HW233417   1.811   2.158   0.377
10840SOL     OW33418   3.672   5.064   1.996
10840SOL    HW133419   3.586   5.104   2.026
10840SOL    HW233420   3.660   4.967   1.977
10841SOL     OW33421   3.850   5.317   6.099
10841SOL    HW133422   3.846   5.316   6.198
10841SOL    HW233423   3.937   5.358   6.069
10842SOL     OW33424   6.087   3.444   1.162
10842SOL    HW133425   6.105   3.455   1.260
10842SOL    HW233426   6.171   3.458   1.110
10843SOL     OW33427   0.661   1.703   2.154
10843SOL    HW133428   0.579   1.701   2.211
10843SOL    HW233429   0.693   1.609   2.138
10844SOL     OW33430   5.220   0.496   3.296
10844SOL    HW133431   5.130   0.503   3.253
10844SOL    HW233432   5.284   0.454   3.232
10845SOL     OW33433   1.104   0.990   1.596
10845SOL    HW133434   1.031   0.960   1.535
10845SOL    HW233435   1.071   1.066   1.653
10846SOL     OW33436   4.058   1.865   1.409
10846SOL    HW133437   4.124   1.864   1.334
10846SOL    HW233438   4.046   1.958   1.443
10847SOL     OW33439   4.001   2.691   6.090
10847SOL    HW133440   4.036   2.768   6.037
10847SOL    HW233441   4.039   2.605   6.054
10848SOL     OW33442   1.268   0.803   0.301
10848SOL    HW133443   1.238   0.855   0.381
10848SOL    HW233444   1.322   0.862   0.241
10849SOL     OW33445   3.280   4.993   4.653
10849SOL    HW133446   3.227   4.959   4.731
10849SOL    HW233447   3.218   5.030   4.584
10850SOL     OW33448   5.223   6.732   0.195
10850SOL    HW133449   5.256   6.788   0.118
10850SOL    HW233450   5.232   6.784   0.280
10851SOL     OW33451   3.332   2.316   6.905
10851SOL    HW133452   3.256   2.378   6.888
10851SOL    HW233453   3.304   2.222   6.884
10852SOL     OW33454   0.183   0.941   6.509
10852SOL    HW133455   0.177   0.875   6.585
10852SOL    HW233456   0.216   1.029   6.544
10853SOL     OW33457   2.812   1.235   4.605
10853SOL    HW133458   2.908   1.245   4.582
10853SOL    HW233459   2.765   1.322   4.592
10854SOL     OW33460   6.475   6.540   6.599
10854SOL    HW133461   6.542   6.549   6.526
10854SOL    HW233462   6.455   6.631   6.637
10855SOL     OW33463   1.535   6.361   1.604
10855SOL    HW133464   1.486   6.285   1.560
10855SOL    HW233465   1.633   6.351   1.588
10856SOL     OW33466   6.060   6.929   0.022
10856SOL    HW133467   6.030   6.891   0.110
10856SOL    HW233468   6.154   6.900   0.003
10857SOL     OW33469   5.804   1.298   3.627
10857SOL    HW133470   5.763   1.367   3.688
10857SOL    HW233471   5.770   1.312   3.534
10858SOL     OW33472   1.539   3.430   7.027
10858SOL    HW133473   1.599   3.371   6.974
10858SOL    HW233474   1.479   3.481   6.966
10859SOL     OW33475   0.936   4.389   3.421
10859SOL    HW133476   0.899   4.356   3.507
10859SOL    HW233477   0.885   4.469   3.391
10860SOL     OW33478   6.203   1.763   0.140
10860SOL    HW133479   6.142   1.796   0.212
10860SOL    HW233480   6.149   1.732   0.062
10861SOL     OW33481   3.100   2.847   1.596
10861SOL    HW133482   3.046   2.916   1.645
10861SOL    HW233483   3.175   2.892   1.547
10862SOL     OW33484   3.631   2.716   5.391
10862SOL    HW133485   3.721   2.735   5.351
10862SOL    HW233486   3.617   2.774   5.471
10863SOL     OW33487   2.442   1.156   3.222
10863SOL    HW133488   2.490   1.235   3.184
10863SOL    HW233489   2.457   1.152   3.321
10864SOL     OW33490   2.495   4.526   1.994
10864SOL    HW133491   2.546   4.543   2.079
10864SOL    HW233492   2.560   4.519   1.918
10865SOL     OW33493   4.460   2.218   3.271
10865SOL    HW133494   4.374   2.176   3.300
10865SOL    HW233495   4.525   2.218   3.347
10866SOL     OW33496   0.126   4.053   2.598
10866SOL    HW133497   0.045   4.043   2.656
10866SOL    HW233498   0.164   4.145   2.609
10867SOL     OW33499   3.776   2.642   0.503
10867SOL    HW133500   3.802   2.705   0.576
10867SOL    HW233501   3.788   2.687   0.415
10868SOL     OW33502   1.110   1.993   3.898
10868SOL    HW133503   1.075   1.904   3.928
10868SOL    HW233504   1.203   1.981   3.862
10869NA      NA33505   0.300   2.043   6.014
10870NA      NA33506   4.269   4.733   5.161
10871NA      NA33507   1.273   5.376   2.564
10872NA      NA33508   5.339   4.193   3.439
10873NA      NA33509   4.372   2.358   5.169
10874NA      NA33510   2.474   5.236   1.005
10875NA      NA33511   1.178   5.361   6.684
10876NA      NA33512   3.392   4.330   0.949
10877NA      NA33513   4.598   5.130   0.891
10878NA      NA33514   3.416   1.326   6.445
10879NA      NA33515   5.581   5.795   2.091
10880NA      NA33516   1.504   6.619   5.436
10881NA      NA33517   4.476   5.018   1.728
10882NA      NA33518   3.278   2.989   6.929
   7.02882   7.02882   7.02882
