Generated by trjconv : CNT in water t=  56.00000
33518
    1C        C    1   2.838   2.763   4.748
    1C        C    2   2.900   2.718   4.866
    1C        C    3   2.849   2.775   4.984
    1C        C    4   2.850   2.772   4.258
    1C        C    5   2.900   2.723   4.381
    1C        C    6   2.846   2.769   4.503
    1C        C    7   3.014   2.643   4.625
    1C        C    8   2.898   2.722   4.627
    1C        C    9   3.077   2.604   4.745
    1C        C   10   3.009   2.628   4.866
    1C        C   11   3.185   2.495   4.980
    1C        C   12   3.063   2.563   4.978
    1C        C   13   2.852   2.770   3.768
    1C        C   14   2.902   2.725   3.892
    1C        C   15   2.850   2.774   4.014
    1C        C   16   3.014   2.640   4.138
    1C        C   17   2.899   2.722   4.135
    1C        C   18   3.078   2.610   4.261
    1C        C   19   3.016   2.643   4.383
    1C        C   20   3.207   2.547   4.501
    1C        C   21   3.079   2.607   4.505
    1C        C   22   3.275   2.522   4.622
    1C        C   23   3.208   2.548   4.743
    1C        C   24   3.410   2.481   4.863
    1C        C   25   3.268   2.503   4.864
    1C        C   26   3.488   2.472   4.979
    1C        C   27   2.854   2.771   3.280
    1C        C   28   2.907   2.722   3.401
    1C        C   29   2.853   2.768   3.523
    1C        C   30   3.012   2.630   3.648
    1C        C   31   2.907   2.724   3.646
    1C        C   32   3.074   2.598   3.771
    1C        C   33   3.016   2.640   3.892
    1C        C   34   3.205   2.549   4.015
    1C        C   35   3.075   2.606   4.015
    1C        C   36   3.274   2.531   4.137
    1C        C   37   3.211   2.563   4.260
    1C        C   38   3.416   2.503   4.379
    1C        C   39   3.278   2.530   4.380
    1C        C   40   3.485   2.493   4.501
    1C        C   41   3.414   2.497   4.624
    1C        C   42   3.629   2.480   4.744
    1C        C   43   3.486   2.479   4.744
    1C        C   44   3.704   2.487   4.863
    1C        C   45   3.627   2.479   4.980
    1C        C   46   2.839   2.748   2.793
    1C        C   47   2.898   2.707   2.915
    1C        C   48   2.846   2.760   3.035
    1C        C   49   3.019   2.638   3.161
    1C        C   50   2.904   2.721   3.157
    1C        C   51   3.077   2.594   3.282
    1C        C   52   3.021   2.639   3.404
    1C        C   53   3.206   2.537   3.527
    1C        C   54   3.079   2.600   3.527
    1C        C   55   3.274   2.519   3.649
    1C        C   56   3.204   2.541   3.770
    1C        C   57   3.411   2.506   3.891
    1C        C   58   3.271   2.523   3.893
    1C        C   59   3.483   2.502   4.012
    1C        C   60   3.413   2.509   4.135
    1C        C   61   3.626   2.489   4.257
    1C        C   62   3.485   2.493   4.256
    1C        C   63   3.697   2.500   4.379
    1C        C   64   3.626   2.500   4.501
    1C        C   65   3.833   2.542   4.616
    1C        C   66   3.698   2.501   4.623
    1C        C   67   3.901   2.562   4.739
    1C        C   68   3.840   2.525   4.861
    1C        C   69   4.052   2.582   4.972
    1C        C   70   3.922   2.531   4.974
    1C        C   71   2.824   2.731   2.305
    1C        C   72   2.883   2.690   2.427
    1C        C   73   2.827   2.738   2.548
    1C        C   74   3.005   2.622   2.671
    1C        C   75   2.888   2.700   2.670
    1C        C   76   3.069   2.586   2.792
    1C        C   77   3.016   2.629   2.916
    1C        C   78   3.207   2.542   3.035
    1C        C   79   3.080   2.602   3.039
    1C        C   80   3.273   2.517   3.158
    1C        C   81   3.206   2.536   3.281
    1C        C   82   3.412   2.498   3.401
    1C        C   83   3.272   2.516   3.404
    1C        C   84   3.483   2.493   3.523
    1C        C   85   3.414   2.498   3.646
    1C        C   86   3.624   2.496   3.768
    1C        C   87   3.483   2.497   3.769
    1C        C   88   3.695   2.508   3.889
    1C        C   89   3.624   2.499   4.011
    1C        C   90   3.828   2.548   4.133
    1C        C   91   3.693   2.506   4.134
    1C        C   92   3.896   2.577   4.254
    1C        C   93   3.830   2.550   4.375
    1C        C   94   4.028   2.630   4.495
    1C        C   95   3.902   2.568   4.495
    1C        C   96   4.088   2.668   4.617
    1C        C   97   4.027   2.627   4.737
    1C        C   98   4.187   2.766   4.859
    1C        C   99   4.099   2.653   4.857
    1C        C  100   4.209   2.845   4.973
    1C        C  101   2.822   2.729   2.070
    1C        C  102   2.988   2.584   2.188
    1C        C  103   2.873   2.670   2.186
    1C        C  104   3.062   2.573   2.309
    1C        C  105   3.001   2.612   2.431
    1C        C  106   3.200   2.531   2.548
    1C        C  107   3.070   2.586   2.551
    1C        C  108   3.269   2.514   2.670
    1C        C  109   3.199   2.531   2.791
    1C        C  110   3.410   2.488   2.913
    1C        C  111   3.271   2.516   2.912
    1C        C  112   3.483   2.480   3.033
    1C        C  113   3.412   2.491   3.155
    1C        C  114   3.623   2.494   3.280
    1C        C  115   3.482   2.489   3.278
    1C        C  116   3.694   2.508   3.401
    1C        C  117   3.624   2.500   3.524
    1C        C  118   3.832   2.541   3.645
    1C        C  119   3.695   2.505   3.646
    1C        C  120   3.897   2.566   3.768
    1C        C  121   3.831   2.546   3.891
    1C        C  122   4.023   2.638   4.009
    1C        C  123   3.898   2.572   4.013
    1C        C  124   4.082   2.677   4.131
    1C        C  125   4.023   2.640   4.254
    1C        C  126   4.192   2.769   4.375
    1C        C  127   4.090   2.672   4.374
    1C        C  128   4.243   2.818   4.498
    1C        C  129   4.196   2.760   4.618
    1C        C  130   4.328   2.930   4.738
    1C        C  131   4.241   2.818   4.738
    1C        C  132   4.360   2.998   4.857
    1C        C  133   4.282   2.963   4.968
    1C        C  134   3.173   2.461   2.081
    1C        C  135   3.040   2.506   2.080
    1C        C  136   3.259   2.473   2.190
    1C        C  137   3.191   2.515   2.307
    1C        C  138   3.403   2.476   2.424
    1C        C  139   3.263   2.494   2.427
    1C        C  140   3.476   2.476   2.544
    1C        C  141   3.408   2.488   2.668
    1C        C  142   3.620   2.491   2.790
    1C        C  143   3.479   2.486   2.790
    1C        C  144   3.693   2.501   2.911
    1C        C  145   3.624   2.485   3.033
    1C        C  146   3.827   2.538   3.153
    1C        C  147   3.692   2.498   3.157
    1C        C  148   3.894   2.564   3.275
    1C        C  149   3.830   2.545   3.399
    1C        C  150   4.025   2.626   3.520
    1C        C  151   3.897   2.567   3.522
    1C        C  152   4.082   2.670   3.642
    1C        C  153   4.021   2.634   3.764
    1C        C  154   4.190   2.766   3.885
    1C        C  155   4.079   2.678   3.885
    1C        C  156   4.243   2.811   4.008
    1C        C  157   4.195   2.761   4.131
    1C        C  158   4.338   2.920   4.250
    1C        C  159   4.247   2.812   4.252
    1C        C  160   4.371   2.984   4.371
    1C        C  161   4.331   2.928   4.495
    1C        C  162   4.435   3.114   4.615
    1C        C  163   4.369   2.989   4.616
    1C        C  164   4.464   3.184   4.734
    1C        C  165   4.435   3.118   4.855
    1C        C  166   4.511   3.319   4.969
    1C        C  167   4.480   3.183   4.970
    1C        C  168   3.473   2.436   2.068
    1C        C  169   3.399   2.458   2.186
    1C        C  170   3.618   2.469   2.302
    1C        C  171   3.476   2.461   2.304
    1C        C  172   3.690   2.483   2.423
    1C        C  173   3.617   2.482   2.545
    1C        C  174   3.825   2.532   2.663
    1C        C  175   3.689   2.494   2.666
    1C        C  176   3.891   2.559   2.784
    1C        C  177   3.828   2.539   2.909
    1C        C  178   4.018   2.631   3.030
    1C        C  179   3.895   2.562   3.032
    1C        C  180   4.079   2.667   3.153
    1C        C  181   4.021   2.625   3.275
    1C        C  182   4.191   2.753   3.395
    1C        C  183   4.081   2.665   3.396
    1C        C  184   4.241   2.808   3.516
    1C        C  185   4.191   2.760   3.639
    1C        C  186   4.333   2.917   3.762
    1C        C  187   4.242   2.809   3.761
    1C        C  188   4.374   2.974   3.884
    1C        C  189   4.335   2.919   4.008
    1C        C  190   4.443   3.105   4.125
    1C        C  191   4.379   2.979   4.128
    1C        C  192   4.470   3.170   4.248
    1C        C  193   4.439   3.108   4.371
    1C        C  194   4.506   3.312   4.488
    1C        C  195   4.465   3.177   4.492
    1C        C  196   4.521   3.387   4.606
    1C        C  197   4.507   3.320   4.730
    1C        C  198   4.554   3.532   4.850
    1C        C  199   4.534   3.390   4.851
    1C        C  200   4.579   3.615   4.963
    1C        C  201   3.612   2.419   2.071
    1C        C  202   3.828   2.508   2.180
    1C        C  203   3.692   2.463   2.181
    1C        C  204   3.898   2.534   2.301
    1C        C  205   3.827   2.516   2.422
    1C        C  206   4.016   2.624   2.541
    1C        C  207   3.892   2.555   2.541
    1C        C  208   4.079   2.655   2.663
    1C        C  209   4.017   2.624   2.786
    1C        C  210   4.188   2.753   2.905
    1C        C  211   4.077   2.666   2.907
    1C        C  212   4.239   2.805   3.026
    1C        C  213   4.191   2.753   3.148
    1C        C  214   4.328   2.911   3.270
    1C        C  215   4.243   2.798   3.272
    1C        C  216   4.368   2.971   3.391
    1C        C  217   4.332   2.915   3.516
    1C        C  218   4.438   3.099   3.636
    1C        C  219   4.371   2.974   3.638
    1C        C  220   4.469   3.164   3.757
    1C        C  221   4.440   3.099   3.879
    1C        C  222   4.499   3.304   4.000
    1C        C  223   4.468   3.166   4.000
    1C        C  224   4.512   3.375   4.121
    1C        C  225   4.504   3.307   4.244
    1C        C  226   4.516   3.522   4.365
    1C        C  227   4.511   3.381   4.364
    1C        C  228   4.522   3.597   4.485
    1C        C  229   4.531   3.528   4.608
    1C        C  230   4.504   3.739   4.725
    1C        C  231   4.544   3.603   4.727
    1C        C  232   4.497   3.817   4.843
    1C        C  233   4.550   3.752   4.955
    1C        C  234   4.022   2.603   2.061
    1C        C  235   3.898   2.540   2.063
    1C        C  236   4.084   2.646   2.179
    1C        C  237   4.021   2.604   2.298
    1C        C  238   4.196   2.732   2.417
    1C        C  239   4.082   2.648   2.418
    1C        C  240   4.248   2.782   2.539
    1C        C  241   4.193   2.739   2.662
    1C        C  242   4.335   2.902   2.783
    1C        C  243   4.245   2.793   2.781
    1C        C  244   4.382   2.959   2.903
    1C        C  245   4.337   2.907   3.027
    1C        C  246   4.436   3.094   3.145
    1C        C  247   4.375   2.967   3.149
    1C        C  248   4.459   3.160   3.268
    1C        C  249   4.433   3.097   3.392
    1C        C  250   4.495   3.301   3.512
    1C        C  251   4.461   3.164   3.513
    1C        C  252   4.506   3.370   3.635
    1C        C  253   4.502   3.301   3.758
    1C        C  254   4.521   3.516   3.877
    1C        C  255   4.513   3.375   3.878
    1C        C  256   4.513   3.587   3.998
    1C        C  257   4.513   3.517   4.121
    1C        C  258   4.487   3.730   4.241
    1C        C  259   4.508   3.590   4.241
    1C        C  260   4.470   3.801   4.361
    1C        C  261   4.491   3.735   4.484
    1C        C  262   4.426   3.939   4.602
    1C        C  263   4.478   3.807   4.604
    1C        C  264   4.398   4.008   4.721
    1C        C  265   4.436   3.944   4.841
    1C        C  266   4.327   4.132   4.959
    1C        C  267   4.395   4.011   4.958
    1C        C  268   4.266   2.771   2.060
    1C        C  269   4.196   2.732   2.175
    1C        C  270   4.346   2.885   2.296
    1C        C  271   4.251   2.780   2.296
    1C        C  272   4.387   2.946   2.417
    1C        C  273   4.340   2.890   2.537
    1C        C  274   4.439   3.080   2.658
    1C        C  275   4.376   2.953   2.658
    1C        C  276   4.468   3.150   2.777
    1C        C  277   4.450   3.082   2.900
    1C        C  278   4.511   3.287   3.021
    1C        C  279   4.471   3.152   3.021
    1C        C  280   4.515   3.360   3.143
    1C        C  281   4.499   3.296   3.267
    1C        C  282   4.512   3.509   3.385
    1C        C  283   4.511   3.368   3.388
    1C        C  284   4.514   3.580   3.507
    1C        C  285   4.514   3.511   3.630
    1C        C  286   4.488   3.721   3.750
    1C        C  287   4.513   3.582   3.752
    1C        C  288   4.472   3.790   3.873
    1C        C  289   4.492   3.727   3.998
    1C        C  290   4.422   3.930   4.114
    1C        C  291   4.474   3.799   4.118
    1C        C  292   4.396   3.999   4.235
    1C        C  293   4.426   3.935   4.357
    1C        C  294   4.324   4.123   4.476
    1C        C  295   4.392   3.999   4.478
    1C        C  296   4.281   4.186   4.595
    1C        C  297   4.324   4.129   4.717
    1C        C  298   4.203   4.308   4.835
    1C        C  299   4.284   4.191   4.839
    1C        C  300   4.171   4.399   4.941
    1C        C  301   4.347   2.884   2.058
    1C        C  302   4.466   3.068   2.172
    1C        C  303   4.392   2.945   2.176
    1C        C  304   4.476   3.139   2.294
    1C        C  305   4.447   3.074   2.416
    1C        C  306   4.509   3.280   2.532
    1C        C  307   4.469   3.145   2.537
    1C        C  308   4.520   3.354   2.652
    1C        C  309   4.502   3.287   2.775
    1C        C  310   4.523   3.496   2.896
    1C        C  311   4.521   3.355   2.898
    1C        C  312   4.515   3.569   3.017
    1C        C  313   4.512   3.501   3.140
    1C        C  314   4.490   3.716   3.257
    1C        C  315   4.506   3.575   3.260
    1C        C  316   4.475   3.786   3.379
    1C        C  317   4.489   3.719   3.502
    1C        C  318   4.424   3.919   3.624
    1C        C  319   4.470   3.785   3.626
    1C        C  320   4.393   3.984   3.745
    1C        C  321   4.421   3.922   3.869
    1C        C  322   4.316   4.108   3.987
    1C        C  323   4.392   3.989   3.989
    1C        C  324   4.273   4.166   4.108
    1C        C  325   4.319   4.117   4.233
    1C        C  326   4.176   4.273   4.349
    1C        C  327   4.282   4.179   4.354
    1C        C  328   4.130   4.331   4.470
    1C        C  329   4.187   4.291   4.593
    1C        C  330   4.023   4.428   4.707
    1C        C  331   4.137   4.343   4.714
    1C        C  332   3.966   4.480   4.825
    1C        C  333   4.047   4.466   4.938
    1C        C  334   4.554   3.267   2.060
    1C        C  335   4.533   3.128   2.061
    1C        C  336   4.537   3.350   2.172
    1C        C  337   4.507   3.278   2.290
    1C        C  338   4.522   3.492   2.408
    1C        C  339   4.520   3.351   2.410
    1C        C  340   4.512   3.565   2.528
    1C        C  341   4.516   3.495   2.651
    1C        C  342   4.487   3.704   2.769
    1C        C  343   4.510   3.565   2.773
    1C        C  344   4.472   3.776   2.890
    1C        C  345   4.493   3.709   3.012
    1C        C  346   4.423   3.912   3.134
    1C        C  347   4.473   3.780   3.132
    1C        C  348   4.394   3.980   3.255
    1C        C  349   4.429   3.919   3.378
    1C        C  350   4.313   4.096   3.499
    1C        C  351   4.395   3.981   3.500
    1C        C  352   4.270   4.155   3.620
    1C        C  353   4.316   4.102   3.743
    1C        C  354   4.175   4.262   3.862
    1C        C  355   4.276   4.164   3.863
    1C        C  356   4.118   4.309   3.983
    1C        C  357   4.173   4.266   4.106
    1C        C  358   4.004   4.397   4.229
    1C        C  359   4.119   4.315   4.227
    1C        C  360   3.947   4.446   4.348
    1C        C  361   4.014   4.411   4.468
    1C        C  362   3.827   4.518   4.590
    1C        C  363   3.954   4.456   4.587
    1C        C  364   3.757   4.543   4.710
    1C        C  365   3.837   4.538   4.827
    1C        C  366   3.628   4.586   4.949
    1C        C  367   3.766   4.571   4.943
    1C        C  368   4.507   3.563   2.046
    1C        C  369   4.523   3.490   2.165
    1C        C  370   4.500   3.703   2.285
    1C        C  371   4.521   3.563   2.286
    1C        C  372   4.485   3.776   2.405
    1C        C  373   4.499   3.706   2.526
    1C        C  374   4.427   3.907   2.646
    1C        C  375   4.477   3.775   2.647
    1C        C  376   4.388   3.968   2.767
    1C        C  377   4.419   3.907   2.891
    1C        C  378   4.314   4.093   3.008
    1C        C  379   4.391   3.975   3.012
    1C        C  380   4.268   4.148   3.130
    1C        C  381   4.314   4.096   3.253
    1C        C  382   4.175   4.254   3.375
    1C        C  383   4.272   4.151   3.376
    1C        C  384   4.120   4.303   3.496
    1C        C  385   4.172   4.257   3.619
    1C        C  386   4.001   4.383   3.739
    1C        C  387   4.120   4.307   3.740
    1C        C  388   3.940   4.420   3.861
    1C        C  389   4.001   4.388   3.984
    1C        C  390   3.812   4.485   4.102
    1C        C  391   3.940   4.425   4.106
    1C        C  392   3.748   4.516   4.225
    1C        C  393   3.819   4.504   4.346
    1C        C  394   3.615   4.548   4.471
    1C        C  395   3.756   4.533   4.469
    1C        C  396   3.542   4.555   4.592
    1C        C  397   3.617   4.558   4.712
    1C        C  398   3.409   4.550   4.842
    1C        C  399   3.549   4.570   4.835
    1C        C  400   3.339   4.516   4.958
    1C        C  401   4.497   3.702   2.048
    1C        C  402   4.451   3.914   2.163
    1C        C  403   4.488   3.777   2.166
    1C        C  404   4.406   3.972   2.283
    1C        C  405   4.436   3.908   2.405
    1C        C  406   4.321   4.091   2.522
    1C        C  407   4.400   3.974   2.525
    1C        C  408   4.272   4.145   2.642
    1C        C  409   4.315   4.089   2.765
    1C        C  410   4.173   4.250   2.887
    1C        C  411   4.271   4.148   2.885
    1C        C  412   4.121   4.298   3.009
    1C        C  413   4.167   4.247   3.133
    1C        C  414   3.997   4.372   3.250
    1C        C  415   4.118   4.299   3.254
    1C        C  416   3.936   4.408   3.372
    1C        C  417   4.000   4.378   3.495
    1C        C  418   3.809   4.473   3.617
    1C        C  419   3.938   4.416   3.616
    1C        C  420   3.741   4.499   3.738
    1C        C  421   3.813   4.480   3.859
    1C        C  422   3.606   4.534   3.982
    1C        C  423   3.744   4.504   3.980
    1C        C  424   3.539   4.541   4.106
    1C        C  425   3.608   4.539   4.229
    1C        C  426   3.399   4.547   4.356
    1C        C  427   3.540   4.551   4.352
    1C        C  428   3.328   4.537   4.478
    1C        C  429   3.401   4.544   4.598
    1C        C  430   3.195   4.511   4.720
    1C        C  431   3.334   4.542   4.723
    1C        C  432   3.124   4.491   4.841
    1C        C  433   3.202   4.494   4.957
    1C        C  434   4.380   4.118   2.047
    1C        C  435   4.445   3.994   2.048
    1C        C  436   4.298   4.156   2.158
    1C        C  437   4.326   4.090   2.280
    1C        C  438   4.177   4.247   2.399
    1C        C  439   4.278   4.148   2.400
    1C        C  440   4.119   4.293   2.520
    1C        C  441   4.170   4.244   2.642
    1C        C  442   4.002   4.373   2.764
    1C        C  443   4.118   4.292   2.764
    1C        C  444   3.939   4.409   2.886
    1C        C  445   4.004   4.377   3.007
    1C        C  446   3.805   4.459   3.127
    1C        C  447   3.936   4.408   3.127
    1C        C  448   3.739   4.484   3.250
    1C        C  449   3.808   4.466   3.372
    1C        C  450   3.606   4.526   3.493
    1C        C  451   3.744   4.498   3.494
    1C        C  452   3.535   4.534   3.615
    1C        C  453   3.603   4.528   3.738
    1C        C  454   3.393   4.546   3.862
    1C        C  455   3.534   4.544   3.861
    1C        C  456   3.329   4.536   3.987
    1C        C  457   3.398   4.540   4.111
    1C        C  458   3.192   4.500   4.233
    1C        C  459   3.328   4.537   4.234
    1C        C  460   3.124   4.482   4.356
    1C        C  461   3.190   4.505   4.478
    1C        C  462   2.993   4.433   4.601
    1C        C  463   3.122   4.489   4.601
    1C        C  464   2.933   4.392   4.722
    1C        C  465   2.991   4.438   4.843
    1C        C  466   2.792   4.339   4.957
    1C        C  467   2.902   4.426   4.955
    1C        C  468   4.120   4.286   2.039
    1C        C  469   4.183   4.242   2.156
    1C        C  470   4.004   4.366   2.277
    1C        C  471   4.124   4.290   2.276
    1C        C  472   3.938   4.401   2.397
    1C        C  473   4.002   4.372   2.520
    1C        C  474   3.811   4.463   2.640
    1C        C  475   3.940   4.407   2.642
    1C        C  476   3.741   4.483   2.761
    1C        C  477   3.809   4.463   2.884
    1C        C  478   3.601   4.517   3.006
    1C        C  479   3.739   4.484   3.004
    1C        C  480   3.531   4.529   3.128
    1C        C  481   3.602   4.518   3.249
    1C        C  482   3.393   4.537   3.374
    1C        C  483   3.534   4.536   3.371
    1C        C  484   3.323   4.531   3.497
    1C        C  485   3.394   4.543   3.618
    1C        C  486   3.186   4.502   3.744
    1C        C  487   3.322   4.539   3.740
    1C        C  488   3.125   4.475   3.869
    1C        C  489   3.193   4.498   3.990
    1C        C  490   3.001   4.406   4.113
    1C        C  491   3.124   4.475   4.112
    1C        C  492   2.940   4.378   4.237
    1C        C  493   2.996   4.421   4.359
    1C        C  494   2.825   4.297   4.481
    1C        C  495   2.932   4.390   4.481
    1C        C  496   2.773   4.251   4.604
    1C        C  497   2.817   4.310   4.724
    1C        C  498   2.658   4.163   4.841
    1C        C  499   2.749   4.271   4.842
    1C        C  500   2.599   4.109   4.955
    1C        C  501   3.999   4.354   2.038
    1C        C  502   3.811   4.461   2.154
    1C        C  503   3.939   4.400   2.156
    1C        C  504   3.739   4.476   2.274
    1C        C  505   3.806   4.450   2.396
    1C        C  506   3.601   4.500   2.518
    1C        C  507   3.740   4.474   2.518
    1C        C  508   3.531   4.509   2.641
    1C        C  509   3.602   4.507   2.763
    1C        C  510   3.389   4.528   2.884
    1C        C  511   3.530   4.523   2.884
    1C        C  512   3.319   4.521   3.007
    1C        C  513   3.389   4.529   3.129
    1C        C  514   3.184   4.492   3.254
    1C        C  515   3.321   4.525   3.253
    1C        C  516   3.119   4.469   3.377
    1C        C  517   3.188   4.492   3.499
    1C        C  518   2.996   4.407   3.623
    1C        C  519   3.121   4.474   3.622
    1C        C  520   2.939   4.372   3.747
    1C        C  521   2.999   4.411   3.868
    1C        C  522   2.833   4.278   3.994
    1C        C  523   2.940   4.370   3.990
    1C        C  524   2.784   4.230   4.117
    1C        C  525   2.834   4.285   4.237
    1C        C  526   2.694   4.128   4.363
    1C        C  527   2.779   4.241   4.359
    1C        C  528   2.647   4.073   4.484
    1C        C  529   2.681   4.143   4.602
    1C        C  530   2.574   3.960   4.730
    1C        C  531   2.630   4.091   4.723
    1C        C  532   2.532   3.898   4.850
    1C        C  533   2.521   3.993   4.957
    1C        C  534   3.618   4.560   2.040
    1C        C  535   3.750   4.513   2.039
    1C        C  536   3.533   4.537   2.153
    1C        C  537   3.601   4.512   2.275
    1C        C  538   3.389   4.519   2.396
    1C        C  539   3.530   4.509   2.397
    1C        C  540   3.318   4.510   2.518
    1C        C  541   3.390   4.511   2.640
    1C        C  542   3.181   4.487   2.763
    1C        C  543   3.319   4.517   2.762
    1C        C  544   3.118   4.460   2.886
    1C        C  545   3.182   4.489   3.009
    1C        C  546   2.989   4.404   3.131
    1C        C  547   3.116   4.467   3.132
    1C        C  548   2.930   4.369   3.255
    1C        C  549   2.994   4.403   3.376
    1C        C  550   2.829   4.278   3.502
    1C        C  551   2.936   4.370   3.500
    1C        C  552   2.780   4.228   3.625
    1C        C  553   2.830   4.281   3.747
    1C        C  554   2.702   4.115   3.872
    1C        C  555   2.788   4.227   3.870
    1C        C  556   2.661   4.058   3.994
    1C        C  557   2.697   4.118   4.117
    1C        C  558   2.596   3.938   4.243
    1C        C  559   2.658   4.065   4.242
    1C        C  560   2.567   3.876   4.366
    1C        C  561   2.580   3.949   4.486
    1C        C  562   2.532   3.747   4.612
    1C        C  563   2.558   3.886   4.611
    1C        C  564   2.511   3.679   4.734
    1C        C  565   2.519   3.755   4.854
    1C        C  566   2.522   3.544   4.972
    1C        C  567   2.519   3.683   4.974
    1C        C  568   3.326   4.470   2.039
    1C        C  569   3.394   4.508   2.155
    1C        C  570   3.179   4.478   2.277
    1C        C  571   3.318   4.512   2.274
    1C        C  572   3.112   4.456   2.399
    1C        C  573   3.179   4.484   2.520
    1C        C  574   2.986   4.399   2.645
    1C        C  575   3.111   4.465   2.642
    1C        C  576   2.929   4.357   2.767
    1C        C  577   2.994   4.393   2.888
    1C        C  578   2.820   4.274   3.012
    1C        C  579   2.931   4.360   3.010
    1C        C  580   2.772   4.226   3.136
    1C        C  581   2.826   4.274   3.258
    1C        C  582   2.696   4.110   3.383
    1C        C  583   2.781   4.222   3.381
    1C        C  584   2.661   4.052   3.507
    1C        C  585   2.697   4.114   3.629
    1C        C  586   2.588   3.933   3.750
    1C        C  587   2.654   4.058   3.751
    1C        C  588   2.564   3.868   3.873
    1C        C  589   2.593   3.934   3.995
    1C        C  590   2.536   3.736   4.124
    1C        C  591   2.569   3.873   4.120
    1C        C  592   2.519   3.668   4.246
    1C        C  593   2.528   3.740   4.367
    1C        C  594   2.508   3.534   4.492
    1C        C  595   2.519   3.674   4.492
    1C        C  596   2.513   3.463   4.615
    1C        C  597   2.507   3.537   4.735
    1C        C  598   2.521   3.324   4.858
    1C        C  599   2.520   3.465   4.856
    1C        C  600   2.527   3.245   4.973
    1C        C  601   3.195   4.426   2.044
    1C        C  602   2.978   4.391   2.156
    1C        C  603   3.114   4.437   2.157
    1C        C  604   2.922   4.353   2.281
    1C        C  605   2.986   4.392   2.400
    1C        C  606   2.815   4.271   2.524
    1C        C  607   2.926   4.357   2.524
    1C        C  608   2.767   4.218   2.647
    1C        C  609   2.819   4.268   2.768
    1C        C  610   2.684   4.108   2.893
    1C        C  611   2.767   4.222   2.892
    1C        C  612   2.650   4.052   3.018
    1C        C  613   2.690   4.111   3.140
    1C        C  614   2.588   3.924   3.262
    1C        C  615   2.653   4.050   3.262
    1C        C  616   2.564   3.863   3.387
    1C        C  617   2.591   3.929   3.509
    1C        C  618   2.527   3.727   3.633
    1C        C  619   2.561   3.864   3.630
    1C        C  620   2.513   3.661   3.758
    1C        C  621   2.526   3.732   3.879
    1C        C  622   2.505   3.524   4.004
    1C        C  623   2.518   3.665   4.003
    1C        C  624   2.508   3.454   4.127
    1C        C  625   2.505   3.527   4.248
    1C        C  626   2.535   3.320   4.376
    1C        C  627   2.510   3.459   4.372
    1C        C  628   2.554   3.251   4.498
    1C        C  629   2.537   3.324   4.617
    1C        C  630   2.595   3.118   4.741
    1C        C  631   2.546   3.252   4.739
    1C        C  632   2.615   3.049   4.863
    1C        C  633   2.554   3.108   4.979
    1C        C  634   2.774   4.304   2.050
    1C        C  635   2.891   4.381   2.043
    1C        C  636   2.744   4.229   2.164
    1C        C  637   2.807   4.270   2.284
    1C        C  638   2.670   4.110   2.407
    1C        C  639   2.754   4.224   2.406
    1C        C  640   2.635   4.048   2.529
    1C        C  641   2.681   4.107   2.650
    1C        C  642   2.578   3.922   2.775
    1C        C  643   2.645   4.046   2.772
    1C        C  644   2.556   3.856   2.899
    1C        C  645   2.586   3.926   3.018
    1C        C  646   2.527   3.722   3.145
    1C        C  647   2.562   3.859   3.140
    1C        C  648   2.508   3.655   3.268
    1C        C  649   2.527   3.726   3.389
    1C        C  650   2.507   3.516   3.513
    1C        C  651   2.514   3.657   3.511
    1C        C  652   2.515   3.448   3.637
    1C        C  653   2.508   3.520   3.759
    1C        C  654   2.532   3.313   3.889
    1C        C  655   2.506   3.452   3.883
    1C        C  656   2.550   3.246   4.012
    1C        C  657   2.535   3.315   4.134
    1C        C  658   2.608   3.117   4.258
    1C        C  659   2.555   3.248   4.257
    1C        C  660   2.636   3.053   4.381
    1C        C  661   2.601   3.117   4.502
    1C        C  662   2.709   2.932   4.623
    1C        C  663   2.634   3.052   4.622
    1C        C  664   2.746   2.872   4.745
    1C        C  665   2.690   2.927   4.864
    1C        C  666   2.747   2.869   4.978
    1C        C  667   2.670   4.024   2.053
    1C        C  668   2.676   4.105   2.168
    1C        C  669   2.588   3.908   2.292
    1C        C  670   2.636   4.042   2.288
    1C        C  671   2.560   3.844   2.414
    1C        C  672   2.582   3.918   2.533
    1C        C  673   2.518   3.716   2.658
    1C        C  674   2.552   3.853   2.655
    1C        C  675   2.508   3.646   2.781
    1C        C  676   2.523   3.719   2.901
    1C        C  677   2.506   3.509   3.030
    1C        C  678   2.518   3.650   3.024
    1C        C  679   2.502   3.436   3.150
    1C        C  680   2.501   3.514   3.268
    1C        C  681   2.533   3.305   3.398
    1C        C  682   2.510   3.445   3.391
    1C        C  683   2.555   3.239   3.521
    1C        C  684   2.534   3.309   3.642
    1C        C  685   2.604   3.113   3.768
    1C        C  686   2.548   3.243   3.767
    1C        C  687   2.635   3.052   3.892
    1C        C  688   2.604   3.115   4.014
    1C        C  689   2.713   2.933   4.138
    1C        C  690   2.638   3.053   4.136
    1C        C  691   2.752   2.874   4.260
    1C        C  692   2.710   2.932   4.382
    1C        C  693   2.748   2.870   4.502
    1C        C  694   2.624   3.892   2.055
    1C        C  695   2.526   3.701   2.175
    1C        C  696   2.577   3.833   2.173
    1C        C  697   2.505   3.633   2.296
    1C        C  698   2.517   3.709   2.415
    1C        C  699   2.485   3.503   2.543
    1C        C  700   2.500   3.643   2.539
    1C        C  701   2.495   3.432   2.664
    1C        C  702   2.498   3.505   2.785
    1C        C  703   2.534   3.298   2.908
    1C        C  704   2.507   3.437   2.908
    1C        C  705   2.548   3.229   3.031
    1C        C  706   2.530   3.298   3.153
    1C        C  707   2.596   3.101   3.276
    1C        C  708   2.547   3.233   3.277
    1C        C  709   2.629   3.042   3.400
    1C        C  710   2.603   3.106   3.523
    1C        C  711   2.716   2.931   3.647
    1C        C  712   2.640   3.050   3.647
    1C        C  713   2.758   2.875   3.770
    1C        C  714   2.715   2.935   3.891
    1C        C  715   2.760   2.883   4.014
    1C        C  716   2.444   3.499   2.063
    1C        C  717   2.487   3.632   2.059
    1C        C  718   2.464   3.420   2.180
    1C        C  719   2.480   3.493   2.302
    1C        C  720   2.510   3.288   2.422
    1C        C  721   2.478   3.425   2.425
    1C        C  722   2.533   3.219   2.543
    1C        C  723   2.520   3.292   2.663
    1C        C  724   2.592   3.095   2.788
    1C        C  725   2.542   3.227   2.786
    1C        C  726   2.629   3.033   2.909
    1C        C  727   2.599   3.097   3.032
    1C        C  728   2.708   2.919   3.157
    1C        C  729   2.625   3.033   3.155
    1C        C  730   2.760   2.876   3.282
    1C        C  731   2.712   2.928   3.404
    1C        C  732   2.756   2.871   3.526
    1C        C  733   2.485   3.195   2.072
    1C        C  734   2.488   3.279   2.184
    1C        C  735   2.579   3.080   2.305
    1C        C  736   2.528   3.213   2.304
    1C        C  737   2.611   3.016   2.426
    1C        C  738   2.588   3.088   2.546
    1C        C  739   2.695   2.905   2.668
    1C        C  740   2.621   3.025   2.668
    1C        C  741   2.741   2.850   2.790
    1C        C  742   2.704   2.913   2.910
    1C        C  743   2.747   2.861   3.034
    1C        C  744   2.540   3.067   2.073
    1C        C  745   2.681   2.892   2.184
    1C        C  746   2.605   3.012   2.184
    1C        C  747   2.726   2.834   2.305
    1C        C  748   2.687   2.897   2.425
    1C        C  749   2.736   2.845   2.547
    1C        C  750   2.729   2.832   2.067
    1C        C  751   3.660   2.305   1.989
    1C        O  752   3.653   2.184   2.021
    1C        O  753   3.655   2.323   1.850
    1C        C  754   4.629   3.054   1.976
    1C        O  755   4.601   3.037   1.854
    1C        O  756   4.720   2.957   2.020
    1C        C  757   4.445   4.211   1.952
    1C        O  758   4.513   4.310   1.991
    1C        O  759   4.415   4.202   1.816
    1C        C  760   3.594   4.673   1.948
    1C        O  761   3.650   4.784   1.971
    1C        O  762   3.611   4.642   1.812
    1C        C  763   2.885   4.482   1.935
    1C        O  764   2.948   4.487   1.826
    1C        O  765   2.777   4.568   1.909
    1C        C  766   2.331   3.469   1.972
    1C        O  767   2.356   3.470   1.848
    1C        O  768   2.209   3.529   2.003
    1C        C  769   4.674   3.582   5.071
    1C        O  770   4.641   3.606   5.191
    1C        O  771   4.810   3.566   5.040
    1C        C  772   4.274   4.487   5.002
    1C        O  773   4.289   4.495   5.127
    1C        O  774   4.371   4.565   4.938
    1C        C  775   4.141   2.519   5.072
    1C        O  776   4.155   2.394   5.084
    1C        O  777   4.183   2.584   5.188
    1C        C  778   2.863   4.544   5.037
    1C        O  779   2.763   4.618   5.018
    1C        O  780   2.925   4.564   5.160
    1C        C  781   2.470   3.033   5.075
    1C        O  782   2.403   2.929   5.050
    1C        O  783   2.482   3.036   5.214
    1C        C  784   2.405   3.999   5.049
    1C        O  785   2.305   4.070   5.019
    1C        O  786   2.413   3.948   5.179
    1C        C  787   2.956   2.422   1.992
    1C        O  788   2.991   2.400   1.874
    1C        O  789   2.868   2.323   2.037
    1C        C  790   3.172   2.373   5.064
    1C        O  791   3.162   2.254   5.024
    1C        O  792   3.189   2.393   5.201
    1C        H  793   4.265   3.041   5.039
    1C        H  794   4.152   2.824   5.061
    1C        H  795   4.534   3.120   5.037
    1C        H  796   4.544   3.363   5.061
    1C        H  797   4.621   3.811   5.009
    1C        H  798   4.459   3.992   5.041
    1C        H  799   4.269   4.159   5.045
    1C        H  800   4.014   4.505   5.032
    1C        H  801   3.816   4.593   5.035
    1C        H  802   3.592   4.648   5.030
    1C        H  803   3.406   4.506   5.041
    1C        H  804   3.152   4.498   5.052
    1C        H  805   3.890   2.471   5.058
    1C        H  806   3.667   2.447   5.073
    1C        H  807   3.057   2.621   5.068
    1C        H  808   3.443   2.426   5.065
    1C        H  809   2.899   2.766   5.078
    1C        H  810   2.680   2.871   5.062
    1C        H  811   2.488   3.292   5.062
    1C        H  812   2.527   3.492   5.065
    1C        H  813   2.494   3.731   5.066
    1C        H  814   2.602   4.164   5.047
    1C        H  815   2.733   4.336   5.046
    1C        H  816   2.726   2.879   1.971
    1C        H  817   2.874   2.711   1.978
    1C        H  818   3.196   2.383   2.012
    1C        H  819   3.425   2.417   1.975
    1C        H  820   3.839   2.551   1.974
    1C        H  821   4.052   2.649   1.969
    1C        H  822   4.274   2.701   1.980
    1C        H  823   4.362   2.935   1.966
    1C        H  824   4.593   3.305   1.969
    1C        H  825   4.455   3.523   1.962
    1C        H  826   4.559   3.746   1.972
    1C        H  827   3.787   4.488   1.942
    1C        H  828   3.930   4.335   1.958
    1C        H  829   4.137   4.231   1.949
    1C        H  830   4.511   3.972   1.967
    1C        H  831   2.659   3.827   1.978
    1C        H  832   2.736   4.045   1.972
    1C        H  833   2.691   4.318   1.983
    1C        H  834   3.358   4.511   1.945
    1C        H  835   3.158   4.369   1.961
    1C        H  836   2.512   3.010   1.987
    1C        H  837   2.399   3.215   2.012
    1C        H  838   2.522   3.672   1.966
    2V3OU   H29  839   2.807   3.554   1.077
    2V3OU   C27  840   2.780   3.503   1.173
    2V3OU   H27  841   2.725   3.569   1.244
    2V3OU   H28  842   2.726   3.406   1.160
    2V3OU   O11  843   2.903   3.472   1.240
    2V3OU   C15  844   2.916   3.395   1.354
    2V3OU   C13  845   3.049   3.371   1.396
    2V3OU   C14  846   3.071   3.260   1.477
    2V3OU   C16  847   2.968   3.177   1.519
    2V3OU    H6  848   2.986   3.101   1.597
    2V3OU   C12  849   3.212   3.228   1.509
    2V3OU    O2  850   3.238   3.134   1.587
    2V3OU   C10  851   3.324   3.302   1.450
    2V3OU    C8  852   3.457   3.263   1.463
    2V3OU   O10  853   3.484   3.148   1.532
    2V3OU   H26  854   3.399   3.108   1.559
    2V3OU    C6  855   3.563   3.345   1.414
    2V3OU    C5  856   3.536   3.466   1.351
    2V3OU    C4  857   3.702   3.292   1.418
    2V3OU    H4  858   3.727   3.231   1.509
    2V3OU    H5  859   3.705   3.224   1.329
    2V3OU    C2  860   3.812   3.398   1.408
    2V3OU    O6  861   3.810   3.473   1.530
    2V3OU   H21  862   3.761   3.551   1.500
    2V3OU    C3  863   3.782   3.493   1.292
    2V3OU    H2  864   3.864   3.570   1.286
    2V3OU    H3  865   3.786   3.433   1.198
    2V3OU   C25  866   3.944   3.322   1.393
    2V3OU    O7  867   3.990   3.302   1.280
    2V3OU   C26  868   4.027   3.286   1.515
    2V3OU   H22  869   4.066   3.379   1.563
    2V3OU   H23  870   4.114   3.223   1.484
    2V3OU    O8  871   3.962   3.212   1.615
    2V3OU   H24  872   3.922   3.264   1.687
    2V3OU    C1  873   3.644   3.557   1.301
    2V3OU    H1  874   3.623   3.613   1.205
    2V3OU    O3  875   3.664   3.652   1.406
    2V3OU   C19  876   3.618   3.786   1.387
    2V3OU    H9  877   3.527   3.795   1.320
    2V3OU    O4  878   3.712   3.841   1.298
    2V3OU   C20  879   3.844   3.864   1.348
    2V3OU   H10  880   3.899   3.769   1.373
    2V3OU   C24  881   3.607   3.851   1.525
    2V3OU   H16  882   3.536   3.789   1.586
    2V3OU   H17  883   3.560   3.951   1.504
    2V3OU   C23  884   3.750   3.869   1.578
    2V3OU   H15  885   3.792   3.767   1.606
    2V3OU    N1  886   3.734   3.954   1.695
    2V3OU   H19  887   3.808   3.921   1.754
    2V3OU   H20  888   3.647   3.929   1.739
    2V3OU   C21  889   3.846   3.943   1.480
    2V3OU   H11  890   3.948   3.925   1.523
    2V3OU    O5  891   3.819   4.082   1.481
    2V3OU   H18  892   3.774   4.094   1.566
    2V3OU   C22  893   3.914   3.942   1.238
    2V3OU   H12  894   3.862   4.040   1.224
    2V3OU   H13  895   3.907   3.883   1.143
    2V3OU   H14  896   4.023   3.952   1.263
    2V3OU   C11  897   3.154   3.471   1.369
    2V3OU    O1  898   3.132   3.588   1.331
    2V3OU    C9  899   3.294   3.425   1.386
    2V3OU    C7  900   3.398   3.504   1.340
    2V3OU    O9  901   3.383   3.615   1.260
    2V3OU   H25  902   3.290   3.627   1.233
    2V3OU   C17  903   2.810   3.313   1.397
    2V3OU    H7  904   2.710   3.337   1.361
    2V3OU   C18  905   2.838   3.206   1.481
    2V3OU    H8  906   2.756   3.148   1.527
    3SOL     OW  907   0.803   3.349   0.824
    3SOL    HW1  908   0.776   3.306   0.739
    3SOL    HW2  909   0.879   3.298   0.865
    4SOL     OW  910   5.939   0.812   2.102
    4SOL    HW1  911   5.950   0.912   2.097
    4SOL    HW2  912   5.843   0.789   2.081
    5SOL     OW  913   3.451   3.250   1.096
    5SOL    HW1  914   3.545   3.240   1.064
    5SOL    HW2  915   3.428   3.174   1.156
    6SOL     OW  916   2.707   2.254   0.861
    6SOL    HW1  917   2.741   2.293   0.947
    6SOL    HW2  918   2.720   2.321   0.788
    7SOL     OW  919   6.078   0.703   1.846
    7SOL    HW1  920   6.093   0.768   1.920
    7SOL    HW2  921   6.165   0.660   1.821
    8SOL     OW  922   2.756   1.500   3.976
    8SOL    HW1  923   2.834   1.515   4.037
    8SOL    HW2  924   2.745   1.402   3.960
    9SOL     OW  925   1.055   3.929   5.680
    9SOL    HW1  926   1.093   3.837   5.691
    9SOL    HW2  927   1.024   3.940   5.585
   10SOL     OW  928   0.423   4.117   0.051
   10SOL    HW1  929   0.500   4.179   0.037
   10SOL    HW2  930   0.445   4.051   0.122
   11SOL     OW  931   3.840   6.605   6.732
   11SOL    HW1  932   3.764   6.643   6.785
   11SOL    HW2  933   3.805   6.572   6.644
   12SOL     OW  934   5.586   6.031   2.509
   12SOL    HW1  935   5.594   5.958   2.442
   12SOL    HW2  936   5.652   6.103   2.487
   13SOL     OW  937   2.007   7.009   3.316
   13SOL    HW1  938   2.058   0.077   3.316
   13SOL    HW2  939   1.914   0.006   3.350
   14SOL     OW  940   2.972   6.895   2.169
   14SOL    HW1  941   2.957   6.797   2.184
   14SOL    HW2  942   2.885   6.938   2.144
   15SOL     OW  943   1.874   6.470   6.291
   15SOL    HW1  944   1.843   6.530   6.365
   15SOL    HW2  945   1.865   6.518   6.203
   16SOL     OW  946   6.379   1.430   6.229
   16SOL    HW1  947   6.333   1.349   6.194
   16SOL    HW2  948   6.316   1.482   6.286
   17SOL     OW  949   4.770   5.818   3.782
   17SOL    HW1  950   4.867   5.804   3.760
   17SOL    HW2  951   4.716   5.747   3.737
   18SOL     OW  952   1.594   1.349   6.958
   18SOL    HW1  953   1.567   1.440   6.926
   18SOL    HW2  954   1.670   1.315   6.902
   19SOL     OW  955   0.732   6.966   1.562
   19SOL    HW1  956   0.731   0.029   1.504
   19SOL    HW2  957   0.825   6.930   1.567
   20SOL     OW  958   3.282   1.268   4.371
   20SOL    HW1  959   3.221   1.200   4.333
   20SOL    HW2  960   3.244   1.303   4.457
   21SOL     OW  961   3.246   2.672   0.941
   21SOL    HW1  962   3.162   2.618   0.931
   21SOL    HW2  963   3.324   2.610   0.953
   22SOL     OW  964   1.087   1.011   5.359
   22SOL    HW1  965   1.122   1.055   5.276
   22SOL    HW2  966   1.009   0.953   5.337
   23SOL     OW  967   4.203   6.164   4.284
   23SOL    HW1  968   4.253   6.251   4.282
   23SOL    HW2  969   4.140   6.160   4.206
   24SOL     OW  970   4.102   1.417   4.682
   24SOL    HW1  971   4.200   1.435   4.674
   24SOL    HW2  972   4.057   1.497   4.723
   25SOL     OW  973   3.184   4.552   1.125
   25SOL    HW1  974   3.109   4.541   1.060
   25SOL    HW2  975   3.220   4.462   1.149
   26SOL     OW  976   6.045   1.457   2.776
   26SOL    HW1  977   6.057   1.538   2.719
   26SOL    HW2  978   6.036   1.376   2.717
   27SOL     OW  979   6.171   6.131   2.067
   27SOL    HW1  980   6.134   6.053   2.117
   27SOL    HW2  981   6.201   6.101   1.976
   28SOL     OW  982   3.117   0.739   0.666
   28SOL    HW1  983   3.063   0.821   0.685
   28SOL    HW2  984   3.207   0.748   0.709
   29SOL     OW  985   4.369   2.297   1.585
   29SOL    HW1  986   4.402   2.325   1.495
   29SOL    HW2  987   4.272   2.273   1.579
   30SOL     OW  988   3.847   1.068   4.868
   30SOL    HW1  989   3.845   0.969   4.850
   30SOL    HW2  990   3.874   1.116   4.785
   31SOL     OW  991   0.368   0.728   4.950
   31SOL    HW1  992   0.422   0.645   4.965
   31SOL    HW2  993   0.272   0.709   4.969
   32SOL     OW  994   0.096   2.337   1.546
   32SOL    HW1  995   0.082   2.303   1.639
   32SOL    HW2  996   0.148   2.269   1.493
   33SOL     OW  997   1.647   2.149   5.096
   33SOL    HW1  998   1.580   2.093   5.146
   33SOL    HW2  999   1.616   2.163   5.002
   34SOL     OW 1000   1.165   0.628   4.666
   34SOL    HW1 1001   1.258   0.609   4.636
   34SOL    HW2 1002   1.101   0.610   4.591
   35SOL     OW 1003   4.232   1.569   6.634
   35SOL    HW1 1004   4.255   1.666   6.641
   35SOL    HW2 1005   4.316   1.515   6.635
   36SOL     OW 1006   1.803   1.240   5.651
   36SOL    HW1 1007   1.778   1.295   5.731
   36SOL    HW2 1008   1.805   1.298   5.570
   37SOL     OW 1009   2.483   6.775   0.814
   37SOL    HW1 1010   2.517   6.681   0.804
   37SOL    HW2 1011   2.399   6.775   0.868
   38SOL     OW 1012   0.313   6.206   2.165
   38SOL    HW1 1013   0.249   6.259   2.222
   38SOL    HW2 1014   0.349   6.264   2.092
   39SOL     OW 1015   6.825   2.948   5.773
   39SOL    HW1 1016   6.733   2.956   5.811
   39SOL    HW2 1017   6.827   2.990   5.682
   40SOL     OW 1018   6.672   0.983   1.672
   40SOL    HW1 1019   6.597   0.952   1.731
   40SOL    HW2 1020   6.758   0.941   1.702
   41SOL     OW 1021   1.431   0.074   5.186
   41SOL    HW1 1022   1.432   0.021   5.271
   41SOL    HW2 1023   1.340   0.113   5.173
   42SOL     OW 1024   3.735   0.790   0.744
   42SOL    HW1 1025   3.707   0.804   0.839
   42SOL    HW2 1026   3.717   0.873   0.691
   43SOL     OW 1027   5.392   5.467   5.406
   43SOL    HW1 1028   5.392   5.368   5.398
   43SOL    HW2 1029   5.484   5.500   5.425
   44SOL     OW 1030   0.663   3.142   6.552
   44SOL    HW1 1031   0.728   3.148   6.477
   44SOL    HW2 1032   0.610   3.227   6.557
   45SOL     OW 1033   2.753   0.627   1.504
   45SOL    HW1 1034   2.728   0.535   1.534
   45SOL    HW2 1035   2.774   0.626   1.406
   46SOL     OW 1036   0.998   4.772   3.781
   46SOL    HW1 1037   1.037   4.739   3.867
   46SOL    HW2 1038   1.050   4.850   3.749
   47SOL     OW 1039   6.069   4.446   3.000
   47SOL    HW1 1040   6.011   4.386   3.056
   47SOL    HW2 1041   6.122   4.390   2.936
   48SOL     OW 1042   0.964   1.900   5.450
   48SOL    HW1 1043   0.938   1.804   5.460
   48SOL    HW2 1044   0.956   1.927   5.354
   49SOL     OW 1045   5.484   2.434   0.650
   49SOL    HW1 1046   5.474   2.472   0.742
   49SOL    HW2 1047   5.463   2.504   0.582
   50SOL     OW 1048   6.741   3.787   4.692
   50SOL    HW1 1049   6.712   3.883   4.688
   50SOL    HW2 1050   6.728   3.745   4.602
   51SOL     OW 1051   3.041   5.544   2.598
   51SOL    HW1 1052   2.991   5.458   2.594
   51SOL    HW2 1053   2.987   5.616   2.553
   52SOL     OW 1054   1.112   2.257   1.522
   52SOL    HW1 1055   1.053   2.251   1.602
   52SOL    HW2 1056   1.186   2.189   1.529
   53SOL     OW 1057   4.849   6.687   4.017
   53SOL    HW1 1058   4.759   6.644   4.028
   53SOL    HW2 1059   4.920   6.617   4.030
   54SOL     OW 1060   4.171   5.689   6.016
   54SOL    HW1 1061   4.260   5.730   6.035
   54SOL    HW2 1062   4.184   5.606   5.962
   55SOL     OW 1063   3.910   2.531   0.303
   55SOL    HW1 1064   3.907   2.498   0.398
   55SOL    HW2 1065   3.943   2.625   0.302
   56SOL     OW 1066   0.604   6.802   1.724
   56SOL    HW1 1067   0.659   6.719   1.730
   56SOL    HW2 1068   0.643   6.863   1.655
   57SOL     OW 1069   5.625   0.547   0.658
   57SOL    HW1 1070   5.649   0.566   0.753
   57SOL    HW2 1071   5.708   0.539   0.603
   58SOL     OW 1072   0.141   6.405   0.122
   58SOL    HW1 1073   0.063   6.407   0.184
   58SOL    HW2 1074   0.145   6.490   0.070
   59SOL     OW 1075   0.996   0.070   4.666
   59SOL    HW1 1076   1.016   7.006   4.718
   59SOL    HW2 1077   0.943   0.046   4.584
   60SOL     OW 1078   4.698   6.586   5.191
   60SOL    HW1 1079   4.707   6.554   5.285
   60SOL    HW2 1080   4.789   6.591   5.149
   61SOL     OW 1081   3.868   0.286   4.989
   61SOL    HW1 1082   3.833   0.379   4.979
   61SOL    HW2 1083   3.914   0.258   4.904
   62SOL     OW 1084   2.784   1.577   4.692
   62SOL    HW1 1085   2.722   1.499   4.687
   62SOL    HW2 1086   2.774   1.623   4.780
   63SOL     OW 1087   6.671   3.499   3.072
   63SOL    HW1 1088   6.675   3.402   3.098
   63SOL    HW2 1089   6.687   3.507   2.973
   64SOL     OW 1090   6.866   2.439   5.603
   64SOL    HW1 1091   6.921   2.401   5.676
   64SOL    HW2 1092   6.808   2.368   5.563
   65SOL     OW 1093   6.969   4.219   6.039
   65SOL    HW1 1094   0.028   4.166   6.005
   65SOL    HW2 1095   6.962   4.210   6.138
   66SOL     OW 1096   2.489   1.325   1.019
   66SOL    HW1 1097   2.559   1.275   0.968
   66SOL    HW2 1098   2.502   1.424   1.005
   67SOL     OW 1099   4.915   5.887   4.197
   67SOL    HW1 1100   5.007   5.926   4.201
   67SOL    HW2 1101   4.848   5.957   4.223
   68SOL     OW 1102   5.344   2.591   6.041
   68SOL    HW1 1103   5.297   2.518   5.992
   68SOL    HW2 1104   5.440   2.594   6.012
   69SOL     OW 1105   2.407   3.170   5.921
   69SOL    HW1 1106   2.463   3.225   5.983
   69SOL    HW2 1107   2.433   3.190   5.826
   70SOL     OW 1108   6.871   5.080   2.005
   70SOL    HW1 1109   6.968   5.088   2.025
   70SOL    HW2 1110   6.857   5.072   1.906
   71SOL     OW 1111   1.989   2.600   2.865
   71SOL    HW1 1112   2.023   2.659   2.938
   71SOL    HW2 1113   1.894   2.624   2.844
   72SOL     OW 1114   2.974   5.673   4.254
   72SOL    HW1 1115   3.023   5.586   4.264
   72SOL    HW2 1116   2.935   5.678   4.162
   73SOL     OW 1117   4.465   2.639   6.866
   73SOL    HW1 1118   4.534   2.602   6.928
   73SOL    HW2 1119   4.386   2.670   6.919
   74SOL     OW 1120   4.883   5.687   6.026
   74SOL    HW1 1121   4.924   5.604   5.988
   74SOL    HW2 1122   4.802   5.662   6.079
   75SOL     OW 1123   3.820   5.002   5.363
   75SOL    HW1 1124   3.898   5.050   5.401
   75SOL    HW2 1125   3.851   4.939   5.291
   76SOL     OW 1126   2.266   2.961   1.188
   76SOL    HW1 1127   2.222   2.965   1.099
   76SOL    HW2 1128   2.202   2.924   1.256
   77SOL     OW 1129   5.584   4.577   6.296
   77SOL    HW1 1130   5.607   4.522   6.377
   77SOL    HW2 1131   5.558   4.669   6.325
   78SOL     OW 1132   6.309   6.795   6.224
   78SOL    HW1 1133   6.352   6.884   6.241
   78SOL    HW2 1134   6.279   6.756   6.311
   79SOL     OW 1135   3.245   0.338   6.981
   79SOL    HW1 1136   3.314   0.304   0.026
   79SOL    HW2 1137   3.288   0.363   6.894
   80SOL     OW 1138   0.417   1.251   4.288
   80SOL    HW1 1139   0.358   1.171   4.303
   80SOL    HW2 1140   0.462   1.275   4.373
   81SOL     OW 1141   1.334   0.273   3.720
   81SOL    HW1 1142   1.297   0.240   3.807
   81SOL    HW2 1143   1.322   0.202   3.650
   82SOL     OW 1144   0.170   4.605   5.492
   82SOL    HW1 1145   0.157   4.656   5.577
   82SOL    HW2 1146   0.268   4.597   5.472
   83SOL     OW 1147   6.764   6.853   7.015
   83SOL    HW1 1148   6.835   6.786   6.994
   83SOL    HW2 1149   6.674   6.813   6.994
   84SOL     OW 1150   6.189   3.730   1.700
   84SOL    HW1 1151   6.105   3.779   1.677
   84SOL    HW2 1152   6.244   3.716   1.617
   85SOL     OW 1153   0.324   2.499   5.555
   85SOL    HW1 1154   0.267   2.566   5.508
   85SOL    HW2 1155   0.279   2.409   5.551
   86SOL     OW 1156   0.979   1.225   4.960
   86SOL    HW1 1157   1.019   1.218   5.051
   86SOL    HW2 1158   0.953   1.133   4.928
   87SOL     OW 1159   4.152   0.620   1.777
   87SOL    HW1 1160   4.062   0.577   1.771
   87SOL    HW2 1161   4.194   0.623   1.686
   88SOL     OW 1162   5.142   0.450   0.814
   88SOL    HW1 1163   5.139   0.352   0.791
   88SOL    HW2 1164   5.073   0.469   0.884
   89SOL     OW 1165   1.981   2.180   5.942
   89SOL    HW1 1166   2.003   2.248   6.012
   89SOL    HW2 1167   2.063   2.161   5.888
   90SOL     OW 1168   6.454   6.139   3.580
   90SOL    HW1 1169   6.473   6.041   3.574
   90SOL    HW2 1170   6.537   6.191   3.561
   91SOL     OW 1171   4.943   4.915   4.808
   91SOL    HW1 1172   4.887   4.940   4.729
   91SOL    HW2 1173   4.907   4.832   4.850
   92SOL     OW 1174   3.015   6.537   1.154
   92SOL    HW1 1175   2.948   6.496   1.093
   92SOL    HW2 1176   2.975   6.550   1.245
   93SOL     OW 1177   3.326   5.274   5.778
   93SOL    HW1 1178   3.346   5.186   5.735
   93SOL    HW2 1179   3.368   5.348   5.725
   94SOL     OW 1180   2.138   5.946   0.485
   94SOL    HW1 1181   2.214   5.881   0.483
   94SOL    HW2 1182   2.064   5.914   0.426
   95SOL     OW 1183   6.384   0.398   4.895
   95SOL    HW1 1184   6.314   0.451   4.848
   95SOL    HW2 1185   6.396   0.433   4.988
   96SOL     OW 1186   1.483   6.955   4.927
   96SOL    HW1 1187   1.451   6.863   4.903
   96SOL    HW2 1188   1.419   6.997   4.992
   97SOL     OW 1189   6.068   2.823   5.463
   97SOL    HW1 1190   5.999   2.804   5.533
   97SOL    HW2 1191   6.043   2.774   5.379
   98SOL     OW 1192   5.555   2.676   6.229
   98SOL    HW1 1193   5.582   2.648   6.136
   98SOL    HW2 1194   5.628   2.730   6.270
   99SOL     OW 1195   4.308   2.195   1.232
   99SOL    HW1 1196   4.367   2.141   1.291
   99SOL    HW2 1197   4.223   2.144   1.214
  100SOL     OW 1198   6.147   5.040   6.522
  100SOL    HW1 1199   6.192   5.044   6.433
  100SOL    HW2 1200   6.168   5.123   6.573
  101SOL     OW 1201   0.964   6.328   3.755
  101SOL    HW1 1202   1.061   6.352   3.749
  101SOL    HW2 1203   0.943   6.256   3.689
  102SOL     OW 1204   5.092   0.147   3.290
  102SOL    HW1 1205   4.999   0.134   3.326
  102SOL    HW2 1206   5.150   0.072   3.319
  103SOL     OW 1207   3.845   1.974   1.568
  103SOL    HW1 1208   3.941   1.991   1.592
  103SOL    HW2 1209   3.821   2.028   1.487
  104SOL     OW 1210   0.016   5.890   1.727
  104SOL    HW1 1211   0.010   5.935   1.816
  104SOL    HW2 1212   0.092   5.930   1.675
  105SOL     OW 1213   5.249   1.286   5.121
  105SOL    HW1 1214   5.160   1.241   5.126
  105SOL    HW2 1215   5.244   1.373   5.171
  106SOL     OW 1216   3.318   6.382   0.246
  106SOL    HW1 1217   3.259   6.310   0.282
  106SOL    HW2 1218   3.414   6.354   0.253
  107SOL     OW 1219   2.422   3.455   1.286
  107SOL    HW1 1220   2.336   3.436   1.333
  107SOL    HW2 1221   2.438   3.554   1.286
  108SOL     OW 1222   5.246   4.415   5.546
  108SOL    HW1 1223   5.193   4.366   5.615
  108SOL    HW2 1224   5.223   4.380   5.455
  109SOL     OW 1225   6.570   1.056   1.186
  109SOL    HW1 1226   6.593   1.004   1.268
  109SOL    HW2 1227   6.586   1.153   1.203
  110SOL     OW 1228   3.745   5.669   5.152
  110SOL    HW1 1229   3.660   5.686   5.202
  110SOL    HW2 1230   3.796   5.595   5.197
  111SOL     OW 1231   3.684   1.027   3.060
  111SOL    HW1 1232   3.606   0.968   3.083
  111SOL    HW2 1233   3.697   1.094   3.133
  112SOL     OW 1234   0.165   0.587   5.934
  112SOL    HW1 1235   0.193   0.666   5.879
  112SOL    HW2 1236   0.244   0.530   5.954
  113SOL     OW 1237   0.365   5.516   3.771
  113SOL    HW1 1238   0.336   5.535   3.864
  113SOL    HW2 1239   0.415   5.594   3.734
  114SOL     OW 1240   0.518   6.636   6.946
  114SOL    HW1 1241   0.582   6.646   0.004
  114SOL    HW2 1242   0.543   6.701   6.873
  115SOL     OW 1243   5.356   1.132   4.908
  115SOL    HW1 1244   5.318   1.192   4.978
  115SOL    HW2 1245   5.436   1.085   4.945
  116SOL     OW 1246   6.390   4.593   2.571
  116SOL    HW1 1247   6.465   4.595   2.637
  116SOL    HW2 1248   6.347   4.683   2.566
  117SOL     OW 1249   1.106   6.800   6.365
  117SOL    HW1 1250   1.204   6.821   6.359
  117SOL    HW2 1251   1.093   6.724   6.430
  118SOL     OW 1252   1.584   0.566   2.145
  118SOL    HW1 1253   1.643   0.643   2.119
  118SOL    HW2 1254   1.491   0.582   2.110
  119SOL     OW 1255   6.624   2.675   6.660
  119SOL    HW1 1256   6.702   2.737   6.655
  119SOL    HW2 1257   6.565   2.690   6.580
  120SOL     OW 1258   5.689   6.426   1.412
  120SOL    HW1 1259   5.683   6.382   1.322
  120SOL    HW2 1260   5.779   6.408   1.452
  121SOL     OW 1261   2.775   3.506   5.765
  121SOL    HW1 1262   2.865   3.535   5.798
  121SOL    HW2 1263   2.708   3.514   5.839
  122SOL     OW 1264   0.450   3.353   4.459
  122SOL    HW1 1265   0.371   3.372   4.400
  122SOL    HW2 1266   0.455   3.421   4.532
  123SOL     OW 1267   1.108   1.844   1.609
  123SOL    HW1 1268   1.054   1.863   1.527
  123SOL    HW2 1269   1.066   1.769   1.660
  124SOL     OW 1270   4.998   2.792   0.888
  124SOL    HW1 1271   5.047   2.846   0.957
  124SOL    HW2 1272   4.914   2.756   0.928
  125SOL     OW 1273   2.009   3.558   1.765
  125SOL    HW1 1274   2.067   3.635   1.739
  125SOL    HW2 1275   2.065   3.487   1.807
  126SOL     OW 1276   3.199   4.576   1.508
  126SOL    HW1 1277   3.201   4.482   1.475
  126SOL    HW2 1278   3.286   4.598   1.552
  127SOL     OW 1279   0.740   5.774   6.026
  127SOL    HW1 1280   0.722   5.777   5.928
  127SOL    HW2 1281   0.653   5.779   6.076
  128SOL     OW 1282   4.733   2.426   1.670
  128SOL    HW1 1283   4.795   2.454   1.744
  128SOL    HW2 1284   4.646   2.396   1.709
  129SOL     OW 1285   2.698   3.658   6.413
  129SOL    HW1 1286   2.619   3.673   6.472
  129SOL    HW2 1287   2.762   3.596   6.458
  130SOL     OW 1288   1.387   2.176   4.589
  130SOL    HW1 1289   1.297   2.217   4.599
  130SOL    HW2 1290   1.398   2.142   4.495
  131SOL     OW 1291   5.354   1.866   2.586
  131SOL    HW1 1292   5.323   1.791   2.527
  131SOL    HW2 1293   5.441   1.901   2.552
  132SOL     OW 1294   0.311   2.427   0.830
  132SOL    HW1 1295   0.219   2.416   0.792
  132SOL    HW2 1296   0.314   2.511   0.884
  133SOL     OW 1297   6.325   5.226   2.245
  133SOL    HW1 1298   6.246   5.236   2.184
  133SOL    HW2 1299   6.295   5.199   2.336
  134SOL     OW 1300   0.444   3.592   2.946
  134SOL    HW1 1301   0.372   3.579   2.877
  134SOL    HW2 1302   0.404   3.582   3.038
  135SOL     OW 1303   4.871   1.612   4.241
  135SOL    HW1 1304   4.949   1.579   4.188
  135SOL    HW2 1305   4.805   1.538   4.253
  136SOL     OW 1306   5.693   4.650   5.665
  136SOL    HW1 1307   5.653   4.677   5.578
  136SOL    HW2 1308   5.662   4.713   5.737
  137SOL     OW 1309   4.018   0.343   5.970
  137SOL    HW1 1310   4.097   0.401   5.946
  137SOL    HW2 1311   3.978   0.307   5.886
  138SOL     OW 1312   6.880   4.970   4.882
  138SOL    HW1 1313   6.955   4.922   4.929
  138SOL    HW2 1314   6.798   4.913   4.884
  139SOL     OW 1315   3.812   5.435   5.294
  139SOL    HW1 1316   3.795   5.367   5.223
  139SOL    HW2 1317   3.770   5.404   5.380
  140SOL     OW 1318   6.029   3.842   4.848
  140SOL    HW1 1319   5.964   3.792   4.905
  140SOL    HW2 1320   6.041   3.934   4.886
  141SOL     OW 1321   1.234   2.011   3.672
  141SOL    HW1 1322   1.228   2.041   3.577
  141SOL    HW2 1323   1.177   1.930   3.685
  142SOL     OW 1324   1.593   5.691   1.386
  142SOL    HW1 1325   1.647   5.725   1.462
  142SOL    HW2 1326   1.600   5.755   1.309
  143SOL     OW 1327   5.710   3.922   1.789
  143SOL    HW1 1328   5.627   3.974   1.769
  143SOL    HW2 1329   5.687   3.825   1.800
  144SOL     OW 1330   2.849   6.702   0.609
  144SOL    HW1 1331   2.938   6.698   0.563
  144SOL    HW2 1332   2.794   6.623   0.582
  145SOL     OW 1333   6.908   5.864   0.512
  145SOL    HW1 1334   6.829   5.927   0.510
  145SOL    HW2 1335   6.992   5.917   0.520
  146SOL     OW 1336   6.396   4.804   0.728
  146SOL    HW1 1337   6.383   4.848   0.638
  146SOL    HW2 1338   6.307   4.772   0.762
  147SOL     OW 1339   6.046   2.274   1.071
  147SOL    HW1 1340   5.950   2.280   1.100
  147SOL    HW2 1341   6.068   2.178   1.054
  148SOL     OW 1342   1.355   5.046   5.743
  148SOL    HW1 1343   1.441   5.033   5.792
  148SOL    HW2 1344   1.279   5.043   5.808
  149SOL     OW 1345   3.083   1.152   5.996
  149SOL    HW1 1346   3.080   1.160   6.095
  149SOL    HW2 1347   3.027   1.074   5.967
  150SOL     OW 1348   0.091   5.607   6.013
  150SOL    HW1 1349   0.097   5.638   6.108
  150SOL    HW2 1350   0.116   5.510   6.008
  151SOL     OW 1351   4.241   1.611   1.707
  151SOL    HW1 1352   4.308   1.602   1.780
  151SOL    HW2 1353   4.156   1.649   1.744
  152SOL     OW 1354   3.661   1.104   4.226
  152SOL    HW1 1355   3.654   1.192   4.180
  152SOL    HW2 1356   3.607   1.105   4.310
  153SOL     OW 1357   1.922   0.753   3.094
  153SOL    HW1 1358   1.980   0.708   3.162
  153SOL    HW2 1359   1.839   0.787   3.139
  154SOL     OW 1360   6.903   2.070   2.718
  154SOL    HW1 1361   6.995   2.044   2.688
  154SOL    HW2 1362   6.884   2.027   2.806
  155SOL     OW 1363   0.385   0.687   2.986
  155SOL    HW1 1364   0.394   0.751   3.062
  155SOL    HW2 1365   0.340   0.604   3.017
  156SOL     OW 1366   6.567   2.065   0.948
  156SOL    HW1 1367   6.575   2.161   0.921
  156SOL    HW2 1368   6.526   2.060   1.039
  157SOL     OW 1369   5.592   3.628   2.405
  157SOL    HW1 1370   5.582   3.592   2.312
  157SOL    HW2 1371   5.503   3.656   2.440
  158SOL     OW 1372   1.335   1.729   3.395
  158SOL    HW1 1373   1.340   1.715   3.494
  158SOL    HW2 1374   1.345   1.640   3.349
  159SOL     OW 1375   4.911   4.021   1.942
  159SOL    HW1 1376   4.846   4.094   1.965
  159SOL    HW2 1377   5.002   4.061   1.929
  160SOL     OW 1378   6.763   4.141   5.844
  160SOL    HW1 1379   6.801   4.115   5.755
  160SOL    HW2 1380   6.839   4.160   5.907
  161SOL     OW 1381   3.234   4.963   5.221
  161SOL    HW1 1382   3.136   4.980   5.215
  161SOL    HW2 1383   3.283   5.050   5.209
  162SOL     OW 1384   4.460   6.197   1.760
  162SOL    HW1 1385   4.397   6.122   1.781
  162SOL    HW2 1386   4.410   6.283   1.755
  163SOL     OW 1387   4.748   0.853   2.258
  163SOL    HW1 1388   4.806   0.835   2.338
  163SOL    HW2 1389   4.676   0.785   2.254
  164SOL     OW 1390   6.372   3.394   1.218
  164SOL    HW1 1391   6.341   3.410   1.311
  164SOL    HW2 1392   6.342   3.470   1.159
  165SOL     OW 1393   5.343   4.235   6.906
  165SOL    HW1 1394   5.392   4.180   6.973
  165SOL    HW2 1395   5.259   4.270   6.946
  166SOL     OW 1396   1.224   0.830   1.644
  166SOL    HW1 1397   1.254   0.818   1.549
  166SOL    HW2 1398   1.145   0.771   1.662
  167SOL     OW 1399   6.940   3.229   0.283
  167SOL    HW1 1400   6.927   3.215   0.185
  167SOL    HW2 1401   6.874   3.296   0.316
  168SOL     OW 1402   2.049   5.634   1.123
  168SOL    HW1 1403   1.977   5.578   1.164
  168SOL    HW2 1404   2.042   5.628   1.023
  169SOL     OW 1405   1.033   0.141   1.423
  169SOL    HW1 1406   1.004   0.066   1.483
  169SOL    HW2 1407   1.070   0.215   1.477
  170SOL     OW 1408   0.246   1.485   3.216
  170SOL    HW1 1409   0.251   1.527   3.125
  170SOL    HW2 1410   0.150   1.480   3.245
  171SOL     OW 1411   3.466   3.375   6.974
  171SOL    HW1 1412   3.528   3.388   6.897
  171SOL    HW2 1413   3.435   3.280   6.976
  172SOL     OW 1414   0.292   2.779   6.881
  172SOL    HW1 1415   0.255   2.700   6.930
  172SOL    HW2 1416   0.248   2.787   6.791
  173SOL     OW 1417   0.468   6.093   5.468
  173SOL    HW1 1418   0.405   6.112   5.544
  173SOL    HW2 1419   0.529   6.018   5.493
  174SOL     OW 1420   2.936   5.575   3.534
  174SOL    HW1 1421   3.020   5.603   3.581
  174SOL    HW2 1422   2.932   5.619   3.444
  175SOL     OW 1423   0.971   5.699   2.914
  175SOL    HW1 1424   0.974   5.730   3.009
  175SOL    HW2 1425   0.941   5.604   2.910
  176SOL     OW 1426   2.755   5.340   1.188
  176SOL    HW1 1427   2.768   5.438   1.171
  176SOL    HW2 1428   2.697   5.302   1.116
  177SOL     OW 1429   4.656   1.905   2.325
  177SOL    HW1 1430   4.641   1.971   2.399
  177SOL    HW2 1431   4.754   1.885   2.317
  178SOL     OW 1432   5.892   4.352   6.502
  178SOL    HW1 1433   5.967   4.418   6.510
  178SOL    HW2 1434   5.853   4.356   6.410
  179SOL     OW 1435   3.167   0.170   1.050
  179SOL    HW1 1436   3.126   0.131   0.967
  179SOL    HW2 1437   3.104   0.237   1.089
  180SOL     OW 1438   1.122   2.408   6.550
  180SOL    HW1 1439   1.160   2.491   6.510
  180SOL    HW2 1440   1.190   2.364   6.608
  181SOL     OW 1441   3.488   2.945   5.127
  181SOL    HW1 1442   3.396   2.920   5.097
  181SOL    HW2 1443   3.546   2.960   5.047
  182SOL     OW 1444   4.711   2.864   4.896
  182SOL    HW1 1445   4.679   2.904   4.982
  182SOL    HW2 1446   4.633   2.836   4.841
  183SOL     OW 1447   5.458   1.475   2.119
  183SOL    HW1 1448   5.414   1.499   2.206
  183SOL    HW2 1449   5.443   1.378   2.100
  184SOL     OW 1450   0.257   4.751   2.951
  184SOL    HW1 1451   0.184   4.685   2.935
  184SOL    HW2 1452   0.311   4.723   3.030
  185SOL     OW 1453   2.733   3.458   6.664
  185SOL    HW1 1454   2.794   3.383   6.636
  185SOL    HW2 1455   2.644   3.420   6.690
  186SOL     OW 1456   5.861   6.596   3.370
  186SOL    HW1 1457   5.839   6.693   3.363
  186SOL    HW2 1458   5.953   6.580   3.333
  187SOL     OW 1459   5.600   0.983   3.937
  187SOL    HW1 1460   5.658   0.990   3.856
  187SOL    HW2 1461   5.577   1.075   3.970
  188SOL     OW 1462   6.306   2.260   3.593
  188SOL    HW1 1463   6.306   2.331   3.522
  188SOL    HW2 1464   6.240   2.284   3.664
  189SOL     OW 1465   2.262   4.267   2.814
  189SOL    HW1 1466   2.299   4.323   2.741
  189SOL    HW2 1467   2.162   4.263   2.805
  190SOL     OW 1468   3.185   1.038   6.370
  190SOL    HW1 1469   3.160   0.968   6.438
  190SOL    HW2 1470   3.262   1.091   6.404
  191SOL     OW 1471   4.655   5.833   5.720
  191SOL    HW1 1472   4.609   5.876   5.642
  191SOL    HW2 1473   4.671   5.737   5.700
  192SOL     OW 1474   6.864   0.312   1.365
  192SOL    HW1 1475   6.857   0.375   1.288
  192SOL    HW2 1476   6.837   0.359   1.449
  193SOL     OW 1477   5.652   4.441   6.526
  193SOL    HW1 1478   5.735   4.389   6.545
  193SOL    HW2 1479   5.627   4.494   6.607
  194SOL     OW 1480   3.887   0.382   4.106
  194SOL    HW1 1481   3.806   0.426   4.145
  194SOL    HW2 1482   3.965   0.444   4.111
  195SOL     OW 1483   0.199   5.686   3.398
  195SOL    HW1 1484   0.286   5.663   3.354
  195SOL    HW2 1485   0.216   5.714   3.492
  196SOL     OW 1486   0.852   1.332   0.936
  196SOL    HW1 1487   0.901   1.310   1.019
  196SOL    HW2 1488   0.875   1.267   0.864
  197SOL     OW 1489   1.829   1.040   0.827
  197SOL    HW1 1490   1.731   1.040   0.848
  197SOL    HW2 1491   1.881   1.026   0.911
  198SOL     OW 1492   2.826   1.510   3.630
  198SOL    HW1 1493   2.784   1.427   3.666
  198SOL    HW2 1494   2.925   1.500   3.631
  199SOL     OW 1495   0.848   1.930   4.278
  199SOL    HW1 1496   0.876   1.867   4.205
  199SOL    HW2 1497   0.839   2.022   4.242
  200SOL     OW 1498   6.990   2.848   0.309
  200SOL    HW1 1499   0.067   2.876   0.315
  200SOL    HW2 1500   6.949   2.850   0.400
  201SOL     OW 1501   0.792   0.808   6.340
  201SOL    HW1 1502   0.884   0.772   6.357
  201SOL    HW2 1503   0.798   0.894   6.291
  202SOL     OW 1504   4.383   6.616   0.507
  202SOL    HW1 1505   4.289   6.644   0.525
  202SOL    HW2 1506   4.425   6.679   0.441
  203SOL     OW 1507   6.056   3.102   6.635
  203SOL    HW1 1508   6.020   3.028   6.692
  203SOL    HW2 1509   6.154   3.112   6.651
  204SOL     OW 1510   6.234   1.159   5.148
  204SOL    HW1 1511   6.332   1.172   5.130
  204SOL    HW2 1512   6.218   1.065   5.176
  205SOL     OW 1513   1.739   3.264   2.942
  205SOL    HW1 1514   1.685   3.293   3.022
  205SOL    HW2 1515   1.805   3.335   2.919
  206SOL     OW 1516   0.501   3.477   0.185
  206SOL    HW1 1517   0.443   3.546   0.228
  206SOL    HW2 1518   0.474   3.467   0.089
  207SOL     OW 1519   5.869   2.478   4.595
  207SOL    HW1 1520   5.829   2.442   4.510
  207SOL    HW2 1521   5.800   2.478   4.667
  208SOL     OW 1522   1.336   3.923   4.709
  208SOL    HW1 1523   1.347   4.008   4.759
  208SOL    HW2 1524   1.302   3.852   4.770
  209SOL     OW 1525   6.527   4.400   2.783
  209SOL    HW1 1526   6.561   4.349   2.861
  209SOL    HW2 1527   6.449   4.456   2.811
  210SOL     OW 1528   4.439   2.894   0.439
  210SOL    HW1 1529   4.488   2.976   0.467
  210SOL    HW2 1530   4.484   2.854   0.360
  211SOL     OW 1531   0.481   1.329   2.883
  211SOL    HW1 1532   0.430   1.245   2.864
  211SOL    HW2 1533   0.462   1.396   2.811
  212SOL     OW 1534   2.153   3.940   2.379
  212SOL    HW1 1535   2.201   3.967   2.295
  212SOL    HW2 1536   2.084   3.871   2.356
  213SOL     OW 1537   0.757   4.871   1.504
  213SOL    HW1 1538   0.758   4.897   1.600
  213SOL    HW2 1539   0.850   4.857   1.472
  214SOL     OW 1540   5.109   5.788   1.365
  214SOL    HW1 1541   5.039   5.774   1.294
  214SOL    HW2 1542   5.107   5.711   1.429
  215SOL     OW 1543   3.063   5.489   3.250
  215SOL    HW1 1544   3.091   5.395   3.268
  215SOL    HW2 1545   2.990   5.490   3.182
  216SOL     OW 1546   0.880   6.710   2.576
  216SOL    HW1 1547   0.970   6.697   2.534
  216SOL    HW2 1548   0.847   6.802   2.557
  217SOL     OW 1549   1.213   4.710   5.748
  217SOL    HW1 1550   1.189   4.668   5.661
  217SOL    HW2 1551   1.288   4.776   5.733
  218SOL     OW 1552   1.754   1.783   4.992
  218SOL    HW1 1553   1.790   1.851   5.056
  218SOL    HW2 1554   1.830   1.729   4.955
  219SOL     OW 1555   4.205   1.782   1.123
  219SOL    HW1 1556   4.203   1.769   1.222
  219SOL    HW2 1557   4.149   1.862   1.098
  220SOL     OW 1558   3.031   6.784   1.033
  220SOL    HW1 1559   3.123   6.811   1.061
  220SOL    HW2 1560   3.008   6.696   1.074
  221SOL     OW 1561   5.545   4.998   1.951
  221SOL    HW1 1562   5.507   4.958   1.868
  221SOL    HW2 1563   5.624   4.945   1.981
  222SOL     OW 1564   2.296   4.919   6.544
  222SOL    HW1 1565   2.228   4.979   6.502
  222SOL    HW2 1566   2.301   4.938   6.642
  223SOL     OW 1567   6.103   2.601   5.674
  223SOL    HW1 1568   6.009   2.629   5.655
  223SOL    HW2 1569   6.120   2.513   5.629
  224SOL     OW 1570   2.162   1.286   6.368
  224SOL    HW1 1571   2.203   1.239   6.445
  224SOL    HW2 1572   2.161   1.226   6.288
  225SOL     OW 1573   4.260   6.268   6.094
  225SOL    HW1 1574   4.235   6.173   6.079
  225SOL    HW2 1575   4.244   6.321   6.010
  226SOL     OW 1576   1.427   2.473   6.808
  226SOL    HW1 1577   1.415   2.381   6.771
  226SOL    HW2 1578   1.361   2.488   6.882
  227SOL     OW 1579   1.719   3.893   1.273
  227SOL    HW1 1580   1.675   3.970   1.228
  227SOL    HW2 1581   1.796   3.926   1.329
  228SOL     OW 1582   1.294   0.179   2.268
  228SOL    HW1 1583   1.381   0.166   2.316
  228SOL    HW2 1584   1.306   0.245   2.194
  229SOL     OW 1585   3.966   6.364   6.053
  229SOL    HW1 1586   3.905   6.342   5.976
  229SOL    HW2 1587   4.043   6.418   6.020
  230SOL     OW 1588   5.689   5.563   5.370
  230SOL    HW1 1589   5.658   5.528   5.281
  230SOL    HW2 1590   5.627   5.634   5.401
  231SOL     OW 1591   5.316   2.072   6.553
  231SOL    HW1 1592   5.290   1.979   6.529
  231SOL    HW2 1593   5.265   2.102   6.634
  232SOL     OW 1594   1.357   1.794   5.697
  232SOL    HW1 1595   1.313   1.871   5.650
  232SOL    HW2 1596   1.412   1.829   5.773
  233SOL     OW 1597   3.409   1.741   3.271
  233SOL    HW1 1598   3.491   1.792   3.246
  233SOL    HW2 1599   3.340   1.751   3.199
  234SOL     OW 1600   4.487   0.771   0.008
  234SOL    HW1 1601   4.515   0.866   0.006
  234SOL    HW2 1602   4.536   0.723   0.081
  235SOL     OW 1603   4.801   3.014   3.234
  235SOL    HW1 1604   4.883   3.051   3.277
  235SOL    HW2 1605   4.787   2.919   3.264
  236SOL     OW 1606   3.947   4.965   6.013
  236SOL    HW1 1607   3.969   4.999   5.922
  236SOL    HW2 1608   4.031   4.929   6.056
  237SOL     OW 1609   6.026   3.414   3.090
  237SOL    HW1 1610   6.072   3.499   3.062
  237SOL    HW2 1611   6.045   3.343   3.023
  238SOL     OW 1612   6.541   1.711   0.566
  238SOL    HW1 1613   6.456   1.750   0.602
  238SOL    HW2 1614   6.532   1.697   0.467
  239SOL     OW 1615   1.032   3.367   0.425
  239SOL    HW1 1616   1.117   3.325   0.396
  239SOL    HW2 1617   1.042   3.400   0.519
  240SOL     OW 1618   5.402   3.237   3.289
  240SOL    HW1 1619   5.428   3.207   3.381
  240SOL    HW2 1620   5.404   3.337   3.285
  241SOL     OW 1621   2.981   2.098   4.050
  241SOL    HW1 1622   3.034   2.027   4.004
  241SOL    HW2 1623   3.037   2.142   4.120
  242SOL     OW 1624   3.490   3.656   2.701
  242SOL    HW1 1625   3.510   3.697   2.790
  242SOL    HW2 1626   3.450   3.566   2.714
  243SOL     OW 1627   4.329   2.779   5.935
  243SOL    HW1 1628   4.270   2.787   6.015
  243SOL    HW2 1629   4.385   2.696   5.943
  244SOL     OW 1630   4.754   3.568   5.425
  244SOL    HW1 1631   4.726   3.662   5.445
  244SOL    HW2 1632   4.720   3.542   5.334
  245SOL     OW 1633   4.025   1.327   3.005
  245SOL    HW1 1634   4.069   1.317   3.094
  245SOL    HW2 1635   4.081   1.386   2.946
  246SOL     OW 1636   6.255   1.424   2.070
  246SOL    HW1 1637   6.258   1.473   1.983
  246SOL    HW2 1638   6.343   1.380   2.087
  247SOL     OW 1639   1.534   1.183   1.579
  247SOL    HW1 1640   1.556   1.213   1.486
  247SOL    HW2 1641   1.573   1.246   1.645
  248SOL     OW 1642   1.826   2.315   2.003
  248SOL    HW1 1643   1.754   2.322   2.073
  248SOL    HW2 1644   1.906   2.269   2.042
  249SOL     OW 1645   4.948   6.043   5.191
  249SOL    HW1 1646   4.995   6.087   5.267
  249SOL    HW2 1647   4.971   6.090   5.106
  250SOL     OW 1648   4.025   2.559   0.782
  250SOL    HW1 1649   4.115   2.520   0.804
  250SOL    HW2 1650   3.961   2.537   0.856
  251SOL     OW 1651   3.867   3.952   5.459
  251SOL    HW1 1652   3.923   3.871   5.442
  251SOL    HW2 1653   3.790   3.928   5.518
  252SOL     OW 1654   6.116   6.352   5.207
  252SOL    HW1 1655   6.091   6.335   5.303
  252SOL    HW2 1656   6.210   6.323   5.192
  253SOL     OW 1657   3.870   6.283   6.294
  253SOL    HW1 1658   3.849   6.374   6.332
  253SOL    HW2 1659   3.915   6.294   6.206
  254SOL     OW 1660   5.529   2.762   5.181
  254SOL    HW1 1661   5.492   2.848   5.216
  254SOL    HW2 1662   5.566   2.776   5.089
  255SOL     OW 1663   1.697   4.403   6.077
  255SOL    HW1 1664   1.759   4.340   6.031
  255SOL    HW2 1665   1.721   4.497   6.052
  256SOL     OW 1666   5.100   2.208   5.621
  256SOL    HW1 1667   5.061   2.299   5.621
  256SOL    HW2 1668   5.031   2.141   5.595
  257SOL     OW 1669   5.040   6.994   2.615
  257SOL    HW1 1670   4.960   0.000   2.670
  257SOL    HW2 1671   5.076   6.906   2.646
  258SOL     OW 1672   1.411   3.124   5.298
  258SOL    HW1 1673   1.495   3.091   5.255
  258SOL    HW2 1674   1.333   3.104   5.238
  259SOL     OW 1675   3.777   6.898   3.898
  259SOL    HW1 1676   3.845   6.930   3.832
  259SOL    HW2 1677   3.815   6.905   3.990
  260SOL     OW 1678   3.900   5.544   3.675
  260SOL    HW1 1679   3.904   5.446   3.695
  260SOL    HW2 1680   3.907   5.558   3.576
  261SOL     OW 1681   4.360   4.975   0.348
  261SOL    HW1 1682   4.275   5.018   0.378
  261SOL    HW2 1683   4.404   5.033   0.279
  262SOL     OW 1684   1.701   4.200   6.274
  262SOL    HW1 1685   1.691   4.284   6.221
  262SOL    HW2 1686   1.791   4.198   6.318
  263SOL     OW 1687   0.738   6.410   3.914
  263SOL    HW1 1688   0.819   6.381   3.863
  263SOL    HW2 1689   0.741   6.509   3.929
  264SOL     OW 1690   6.532   3.326   6.691
  264SOL    HW1 1691   6.566   3.388   6.620
  264SOL    HW2 1692   6.524   3.376   6.777
  265SOL     OW 1693   6.425   0.165   4.258
  265SOL    HW1 1694   6.480   0.173   4.175
  265SOL    HW2 1695   6.385   0.073   4.262
  266SOL     OW 1696   3.619   1.028   5.977
  266SOL    HW1 1697   3.572   1.097   6.031
  266SOL    HW2 1698   3.716   1.028   6.000
  267SOL     OW 1699   1.746   1.066   4.025
  267SOL    HW1 1700   1.739   1.164   4.046
  267SOL    HW2 1701   1.817   1.052   3.955
  268SOL     OW 1702   3.390   2.039   1.181
  268SOL    HW1 1703   3.295   2.043   1.151
  268SOL    HW2 1704   3.394   2.018   1.278
  269SOL     OW 1705   4.491   1.875   0.468
  269SOL    HW1 1706   4.559   1.857   0.396
  269SOL    HW2 1707   4.402   1.841   0.438
  270SOL     OW 1708   5.478   0.403   0.061
  270SOL    HW1 1709   5.406   0.467   0.089
  270SOL    HW2 1710   5.506   0.349   0.140
  271SOL     OW 1711   1.257   3.530   6.503
  271SOL    HW1 1712   1.222   3.438   6.487
  271SOL    HW2 1713   1.324   3.553   6.431
  272SOL     OW 1714   3.352   6.443   3.805
  272SOL    HW1 1715   3.275   6.480   3.857
  272SOL    HW2 1716   3.324   6.426   3.710
  273SOL     OW 1717   1.707   4.948   6.292
  273SOL    HW1 1718   1.743   4.893   6.367
  273SOL    HW2 1719   1.612   4.922   6.275
  274SOL     OW 1720   4.872   2.214   3.939
  274SOL    HW1 1721   4.786   2.204   3.889
  274SOL    HW2 1722   4.945   2.241   3.876
  275SOL     OW 1723   6.529   6.487   1.772
  275SOL    HW1 1724   6.594   6.533   1.712
  275SOL    HW2 1725   6.566   6.482   1.864
  276SOL     OW 1726   0.830   1.376   4.803
  276SOL    HW1 1727   0.891   1.334   4.870
  276SOL    HW2 1728   0.869   1.463   4.772
  277SOL     OW 1729   2.064   4.165   1.390
  277SOL    HW1 1730   2.054   4.111   1.306
  277SOL    HW2 1731   2.157   4.201   1.395
  278SOL     OW 1732   0.695   2.896   1.811
  278SOL    HW1 1733   0.690   2.843   1.726
  278SOL    HW2 1734   0.640   2.979   1.801
  279SOL     OW 1735   5.949   1.617   3.603
  279SOL    HW1 1736   6.047   1.632   3.608
  279SOL    HW2 1737   5.930   1.521   3.580
  280SOL     OW 1738   1.815   4.978   2.189
  280SOL    HW1 1739   1.854   5.067   2.213
  280SOL    HW2 1740   1.881   4.906   2.210
  281SOL     OW 1741   2.330   4.803   1.246
  281SOL    HW1 1742   2.273   4.807   1.164
  281SOL    HW2 1743   2.274   4.773   1.324
  282SOL     OW 1744   2.806   2.216   6.229
  282SOL    HW1 1745   2.784   2.266   6.145
  282SOL    HW2 1746   2.810   2.280   6.306
  283SOL     OW 1747   4.062   2.421   6.143
  283SOL    HW1 1748   4.005   2.403   6.064
  283SOL    HW2 1749   4.028   2.501   6.192
  284SOL     OW 1750   1.395   4.121   3.936
  284SOL    HW1 1751   1.330   4.158   4.002
  284SOL    HW2 1752   1.346   4.074   3.862
  285SOL     OW 1753   5.749   4.856   4.583
  285SOL    HW1 1754   5.849   4.861   4.581
  285SOL    HW2 1755   5.720   4.789   4.652
  286SOL     OW 1756   3.218   3.782   6.785
  286SOL    HW1 1757   3.217   3.801   6.883
  286SOL    HW2 1758   3.158   3.705   6.765
  287SOL     OW 1759   1.660   3.751   0.010
  287SOL    HW1 1760   1.739   3.782   0.062
  287SOL    HW2 1761   1.633   3.660   0.042
  288SOL     OW 1762   4.874   3.331   0.838
  288SOL    HW1 1763   4.904   3.284   0.921
  288SOL    HW2 1764   4.904   3.426   0.841
  289SOL     OW 1765   3.098   4.952   6.414
  289SOL    HW1 1766   3.086   4.868   6.362
  289SOL    HW2 1767   3.090   4.932   6.512
  290SOL     OW 1768   1.149   1.441   4.970
  290SOL    HW1 1769   1.100   1.527   4.980
  290SOL    HW2 1770   1.097   1.368   5.015
  291SOL     OW 1771   0.278   1.817   2.782
  291SOL    HW1 1772   0.284   1.898   2.841
  291SOL    HW2 1773   0.366   1.802   2.737
  292SOL     OW 1774   2.781   6.758   4.061
  292SOL    HW1 1775   2.804   6.690   4.130
  292SOL    HW2 1776   2.741   6.838   4.105
  293SOL     OW 1777   3.554   4.893   3.223
  293SOL    HW1 1778   3.634   4.896   3.163
  293SOL    HW2 1779   3.473   4.873   3.168
  294SOL     OW 1780   4.796   0.341   6.779
  294SOL    HW1 1781   4.829   0.332   6.685
  294SOL    HW2 1782   4.757   0.432   6.792
  295SOL     OW 1783   5.229   6.942   3.389
  295SOL    HW1 1784   5.233   6.861   3.331
  295SOL    HW2 1785   5.194   6.916   3.479
  296SOL     OW 1786   2.725   2.091   3.422
  296SOL    HW1 1787   2.715   2.015   3.486
  296SOL    HW2 1788   2.674   2.170   3.456
  297SOL     OW 1789   1.636   4.768   3.079
  297SOL    HW1 1790   1.707   4.833   3.104
  297SOL    HW2 1791   1.627   4.766   2.979
  298SOL     OW 1792   6.329   5.317   0.568
  298SOL    HW1 1793   6.391   5.354   0.499
  298SOL    HW2 1794   6.284   5.392   0.616
  299SOL     OW 1795   6.248   2.517   4.575
  299SOL    HW1 1796   6.164   2.570   4.567
  299SOL    HW2 1797   6.326   2.580   4.586
  300SOL     OW 1798   6.444   6.842   2.443
  300SOL    HW1 1799   6.432   6.877   2.536
  300SOL    HW2 1800   6.498   6.907   2.389
  301SOL     OW 1801   4.966   3.145   6.408
  301SOL    HW1 1802   4.992   3.064   6.461
  301SOL    HW2 1803   5.011   3.143   6.319
  302SOL     OW 1804   1.196   6.848   3.469
  302SOL    HW1 1805   1.109   6.810   3.439
  302SOL    HW2 1806   1.263   6.775   3.481
  303SOL     OW 1807   6.038   6.442   2.930
  303SOL    HW1 1808   5.988   6.424   2.845
  303SOL    HW2 1809   6.047   6.357   2.982
  304SOL     OW 1810   3.417   6.537   3.507
  304SOL    HW1 1811   3.482   6.494   3.569
  304SOL    HW2 1812   3.415   6.486   3.421
  305SOL     OW 1813   1.362   3.857   1.835
  305SOL    HW1 1814   1.419   3.918   1.890
  305SOL    HW2 1815   1.419   3.805   1.772
  306SOL     OW 1816   2.550   0.651   3.174
  306SOL    HW1 1817   2.610   0.686   3.246
  306SOL    HW2 1818   2.457   0.682   3.190
  307SOL     OW 1819   3.372   0.209   1.640
  307SOL    HW1 1820   3.382   0.110   1.640
  307SOL    HW2 1821   3.406   0.247   1.726
  308SOL     OW 1822   1.050   5.140   4.409
  308SOL    HW1 1823   0.988   5.128   4.486
  308SOL    HW2 1824   1.038   5.064   4.345
  309SOL     OW 1825   3.876   4.826   5.162
  309SOL    HW1 1826   3.799   4.882   5.131
  309SOL    HW2 1827   3.936   4.805   5.084
  310SOL     OW 1828   1.011   6.215   6.044
  310SOL    HW1 1829   1.038   6.238   6.137
  310SOL    HW2 1830   0.953   6.133   6.046
  311SOL     OW 1831   0.534   0.428   1.447
  311SOL    HW1 1832   0.582   0.512   1.471
  311SOL    HW2 1833   0.439   0.449   1.424
  312SOL     OW 1834   3.908   1.841   4.561
  312SOL    HW1 1835   3.845   1.918   4.546
  312SOL    HW2 1836   4.002   1.873   4.552
  313SOL     OW 1837   6.970   4.760   0.762
  313SOL    HW1 1838   7.009   4.852   0.762
  313SOL    HW2 1839   6.976   4.721   0.853
  314SOL     OW 1840   3.152   6.302   1.352
  314SOL    HW1 1841   3.241   6.259   1.338
  314SOL    HW2 1842   3.144   6.382   1.291
  315SOL     OW 1843   1.112   3.117   2.589
  315SOL    HW1 1844   1.051   3.117   2.510
  315SOL    HW2 1845   1.131   3.023   2.616
  316SOL     OW 1846   2.209   3.864   4.061
  316SOL    HW1 1847   2.132   3.916   4.025
  316SOL    HW2 1848   2.276   3.927   4.101
  317SOL     OW 1849   6.855   1.504   0.116
  317SOL    HW1 1850   6.770   1.557   0.107
  317SOL    HW2 1851   6.876   1.461   0.029
  318SOL     OW 1852   2.032   4.838   0.698
  318SOL    HW1 1853   2.005   4.906   0.766
  318SOL    HW2 1854   2.129   4.847   0.678
  319SOL     OW 1855   1.394   0.184   6.821
  319SOL    HW1 1856   1.319   0.230   6.870
  319SOL    HW2 1857   1.463   0.251   6.795
  320SOL     OW 1858   5.004   3.204   1.045
  320SOL    HW1 1859   5.000   3.232   1.141
  320SOL    HW2 1860   5.056   3.119   1.038
  321SOL     OW 1861   1.987   1.327   1.843
  321SOL    HW1 1862   2.081   1.342   1.872
  321SOL    HW2 1863   1.967   1.384   1.763
  322SOL     OW 1864   3.145   2.865   5.305
  322SOL    HW1 1865   3.130   2.767   5.313
  322SOL    HW2 1866   3.136   2.893   5.209
  323SOL     OW 1867   0.451   3.845   2.016
  323SOL    HW1 1868   0.392   3.807   1.946
  323SOL    HW2 1869   0.444   3.789   2.099
  324SOL     OW 1870   0.731   3.335   4.245
  324SOL    HW1 1871   0.759   3.312   4.338
  324SOL    HW2 1872   0.788   3.409   4.210
  325SOL     OW 1873   2.247   2.612   2.680
  325SOL    HW1 1874   2.151   2.594   2.702
  325SOL    HW2 1875   2.275   2.699   2.722
  326SOL     OW 1876   2.422   4.687   5.617
  326SOL    HW1 1877   2.450   4.715   5.525
  326SOL    HW2 1878   2.475   4.739   5.685
  327SOL     OW 1879   6.244   5.101   6.276
  327SOL    HW1 1880   6.225   5.198   6.292
  327SOL    HW2 1881   6.307   5.091   6.199
  328SOL     OW 1882   3.185   5.857   1.772
  328SOL    HW1 1883   3.171   5.956   1.767
  328SOL    HW2 1884   3.260   5.831   1.710
  329SOL     OW 1885   3.173   3.609   2.554
  329SOL    HW1 1886   3.239   3.536   2.572
  329SOL    HW2 1887   3.081   3.578   2.579
  330SOL     OW 1888   3.375   1.649   1.736
  330SOL    HW1 1889   3.429   1.564   1.740
  330SOL    HW2 1890   3.393   1.703   1.818
  331SOL     OW 1891   5.932   4.509   5.798
  331SOL    HW1 1892   6.010   4.532   5.739
  331SOL    HW2 1893   5.859   4.576   5.784
  332SOL     OW 1894   4.669   2.123   3.802
  332SOL    HW1 1895   4.679   2.058   3.726
  332SOL    HW2 1896   4.608   2.085   3.871
  333SOL     OW 1897   3.804   6.279   0.150
  333SOL    HW1 1898   3.725   6.324   0.108
  333SOL    HW2 1899   3.812   6.186   0.114
  334SOL     OW 1900   4.539   6.747   3.067
  334SOL    HW1 1901   4.568   6.700   2.984
  334SOL    HW2 1902   4.514   6.679   3.136
  335SOL     OW 1903   3.557   6.774   3.067
  335SOL    HW1 1904   3.558   6.869   3.036
  335SOL    HW2 1905   3.593   6.768   3.160
  336SOL     OW 1906   3.313   0.647   4.866
  336SOL    HW1 1907   3.348   0.682   4.779
  336SOL    HW2 1908   3.361   0.691   4.941
  337SOL     OW 1909   0.478   4.378   1.296
  337SOL    HW1 1910   0.526   4.307   1.243
  337SOL    HW2 1911   0.408   4.420   1.238
  338SOL     OW 1912   2.440   2.625   1.675
  338SOL    HW1 1913   2.540   2.628   1.681
  338SOL    HW2 1914   2.401   2.705   1.720
  339SOL     OW 1915   4.046   0.608   2.875
  339SOL    HW1 1916   3.975   0.538   2.871
  339SOL    HW2 1917   4.105   0.590   2.954
  340SOL     OW 1918   4.909   3.622   4.598
  340SOL    HW1 1919   5.001   3.635   4.560
  340SOL    HW2 1920   4.857   3.706   4.588
  341SOL     OW 1921   5.431   4.982   5.574
  341SOL    HW1 1922   5.400   5.065   5.620
  341SOL    HW2 1923   5.494   4.933   5.635
  342SOL     OW 1924   5.623   3.690   0.503
  342SOL    HW1 1925   5.679   3.677   0.584
  342SOL    HW2 1926   5.669   3.751   0.439
  343SOL     OW 1927   2.351   0.895   2.689
  343SOL    HW1 1928   2.362   0.908   2.788
  343SOL    HW2 1929   2.431   0.930   2.641
  344SOL     OW 1930   3.517   5.493   6.650
  344SOL    HW1 1931   3.430   5.490   6.601
  344SOL    HW2 1932   3.505   5.458   6.742
  345SOL     OW 1933   1.561   0.313   5.939
  345SOL    HW1 1934   1.493   0.246   5.970
  345SOL    HW2 1935   1.541   0.338   5.844
  346SOL     OW 1936   3.420   0.567   4.204
  346SOL    HW1 1937   3.458   0.656   4.229
  346SOL    HW2 1938   3.375   0.526   4.283
  347SOL     OW 1939   4.798   6.385   5.951
  347SOL    HW1 1940   4.808   6.369   5.852
  347SOL    HW2 1941   4.821   6.302   6.001
  348SOL     OW 1942   2.785   6.272   2.801
  348SOL    HW1 1943   2.839   6.225   2.871
  348SOL    HW2 1944   2.723   6.337   2.845
  349SOL     OW 1945   2.284   4.774   1.672
  349SOL    HW1 1946   2.234   4.748   1.589
  349SOL    HW2 1947   2.231   4.748   1.752
  350SOL     OW 1948   4.513   2.977   0.778
  350SOL    HW1 1949   4.582   3.005   0.845
  350SOL    HW2 1950   4.524   3.030   0.695
  351SOL     OW 1951   3.089   1.908   0.566
  351SOL    HW1 1952   3.001   1.876   0.602
  351SOL    HW2 1953   3.089   2.008   0.561
  352SOL     OW 1954   3.537   1.565   6.238
  352SOL    HW1 1955   3.623   1.514   6.234
  352SOL    HW2 1956   3.480   1.539   6.160
  353SOL     OW 1957   2.284   0.549   1.224
  353SOL    HW1 1958   2.295   0.634   1.173
  353SOL    HW2 1959   2.375   0.514   1.249
  354SOL     OW 1960   5.225   1.318   2.341
  354SOL    HW1 1961   5.155   1.318   2.270
  354SOL    HW2 1962   5.290   1.243   2.324
  355SOL     OW 1963   1.379   1.686   1.824
  355SOL    HW1 1964   1.448   1.757   1.815
  355SOL    HW2 1965   1.358   1.673   1.921
  356SOL     OW 1966   4.001   6.097   2.741
  356SOL    HW1 1967   3.920   6.106   2.683
  356SOL    HW2 1968   4.080   6.073   2.684
  357SOL     OW 1969   1.781   4.643   5.987
  357SOL    HW1 1970   1.810   4.675   5.896
  357SOL    HW2 1971   1.699   4.693   6.015
  358SOL     OW 1972   5.418   1.068   2.299
  358SOL    HW1 1973   5.490   1.000   2.289
  358SOL    HW2 1974   5.391   1.073   2.396
  359SOL     OW 1975   1.154   2.124   0.778
  359SOL    HW1 1976   1.147   2.056   0.705
  359SOL    HW2 1977   1.129   2.081   0.865
  360SOL     OW 1978   4.283   6.461   0.884
  360SOL    HW1 1979   4.383   6.468   0.888
  360SOL    HW2 1980   4.258   6.373   0.842
  361SOL     OW 1981   3.722   0.747   3.491
  361SOL    HW1 1982   3.655   0.691   3.443
  361SOL    HW2 1983   3.723   0.723   3.588
  362SOL     OW 1984   2.971   3.879   0.880
  362SOL    HW1 1985   2.943   3.785   0.860
  362SOL    HW2 1986   2.943   3.939   0.805
  363SOL     OW 1987   4.221   4.653   3.912
  363SOL    HW1 1988   4.307   4.603   3.906
  363SOL    HW2 1989   4.168   4.617   3.989
  364SOL     OW 1990   1.519   6.087   5.628
  364SOL    HW1 1991   1.552   6.086   5.533
  364SOL    HW2 1992   1.425   6.122   5.630
  365SOL     OW 1993   4.582   6.623   2.827
  365SOL    HW1 1994   4.618   6.688   2.760
  365SOL    HW2 1995   4.483   6.613   2.813
  366SOL     OW 1996   4.923   0.366   0.491
  366SOL    HW1 1997   4.873   0.327   0.569
  366SOL    HW2 1998   5.022   0.354   0.505
  367SOL     OW 1999   4.764   2.005   1.543
  367SOL    HW1 2000   4.752   2.067   1.466
  367SOL    HW2 2001   4.683   2.008   1.601
  368SOL     OW 2002   1.716   4.939   5.652
  368SOL    HW1 2003   1.812   4.917   5.669
  368SOL    HW2 2004   1.663   4.922   5.735
  369SOL     OW 2005   0.422   3.383   1.521
  369SOL    HW1 2006   0.354   3.314   1.496
  369SOL    HW2 2007   0.422   3.457   1.454
  370SOL     OW 2008   3.296   1.587   0.029
  370SOL    HW1 2009   3.317   1.520   6.976
  370SOL    HW2 2010   3.360   1.664   0.023
  371SOL     OW 2011   4.080   3.166   5.988
  371SOL    HW1 2012   4.032   3.078   5.995
  371SOL    HW2 2013   4.160   3.155   5.930
  372SOL     OW 2014   1.599   5.218   6.883
  372SOL    HW1 2015   1.642   5.195   6.970
  372SOL    HW2 2016   1.500   5.207   6.890
  373SOL     OW 2017   6.673   6.670   0.298
  373SOL    HW1 2018   6.588   6.720   0.313
  373SOL    HW2 2019   6.746   6.733   0.272
  374SOL     OW 2020   4.326   0.842   1.008
  374SOL    HW1 2021   4.273   0.860   1.092
  374SOL    HW2 2022   4.369   0.926   0.977
  375SOL     OW 2023   6.987   4.443   1.301
  375SOL    HW1 2024   0.029   4.415   1.226
  375SOL    HW2 2025   6.921   4.370   1.320
  376SOL     OW 2026   2.117   3.675   4.566
  376SOL    HW1 2027   2.153   3.620   4.641
  376SOL    HW2 2028   2.155   3.768   4.572
  377SOL     OW 2029   4.567   2.174   4.646
  377SOL    HW1 2030   4.573   2.106   4.572
  377SOL    HW2 2031   4.635   2.245   4.631
  378SOL     OW 2032   5.024   2.755   4.473
  378SOL    HW1 2033   5.017   2.659   4.447
  378SOL    HW2 2034   5.069   2.762   4.563
  379SOL     OW 2035   0.061   2.660   1.193
  379SOL    HW1 2036   0.022   2.569   1.207
  379SOL    HW2 2037   0.120   2.659   1.112
  380SOL     OW 2038   1.288   1.908   0.288
  380SOL    HW1 2039   1.363   1.867   0.340
  380SOL    HW2 2040   1.325   1.974   0.223
  381SOL     OW 2041   3.555   4.849   0.425
  381SOL    HW1 2042   3.620   4.776   0.404
  381SOL    HW2 2043   3.506   4.875   0.342
  382SOL     OW 2044   2.253   4.871   0.491
  382SOL    HW1 2045   2.329   4.849   0.430
  382SOL    HW2 2046   2.289   4.913   0.574
  383SOL     OW 2047   6.520   2.081   0.182
  383SOL    HW1 2048   6.598   2.118   0.233
  383SOL    HW2 2049   6.458   2.155   0.158
  384SOL     OW 2050   2.121   5.399   4.871
  384SOL    HW1 2051   2.036   5.443   4.842
  384SOL    HW2 2052   2.195   5.424   4.809
  385SOL     OW 2053   4.664   5.476   1.471
  385SOL    HW1 2054   4.738   5.410   1.458
  385SOL    HW2 2055   4.580   5.442   1.428
  386SOL     OW 2056   2.677   6.614   4.663
  386SOL    HW1 2057   2.645   6.620   4.568
  386SOL    HW2 2058   2.662   6.522   4.697
  387SOL     OW 2059   6.540   0.171   6.112
  387SOL    HW1 2060   6.620   0.197   6.167
  387SOL    HW2 2061   6.536   0.228   6.030
  388SOL     OW 2062   0.206   2.112   4.555
  388SOL    HW1 2063   0.154   2.162   4.485
  388SOL    HW2 2064   0.270   2.049   4.510
  389SOL     OW 2065   4.944   4.560   1.796
  389SOL    HW1 2066   4.933   4.657   1.777
  389SOL    HW2 2067   4.942   4.544   1.895
  390SOL     OW 2068   4.193   2.667   6.981
  390SOL    HW1 2069   4.134   2.739   7.016
  390SOL    HW2 2070   4.242   2.623   0.038
  391SOL     OW 2071   3.999   3.921   3.666
  391SOL    HW1 2072   3.973   3.895   3.760
  391SOL    HW2 2073   4.089   3.963   3.667
  392SOL     OW 2074   1.673   4.233   1.793
  392SOL    HW1 2075   1.645   4.211   1.700
  392SOL    HW2 2076   1.773   4.225   1.801
  393SOL     OW 2077   1.175   5.411   1.655
  393SOL    HW1 2078   1.218   5.330   1.696
  393SOL    HW2 2079   1.221   5.433   1.570
  394SOL     OW 2080   6.015   0.995   6.433
  394SOL    HW1 2081   6.005   0.949   6.345
  394SOL    HW2 2082   6.025   0.927   6.506
  395SOL     OW 2083   5.715   4.466   0.153
  395SOL    HW1 2084   5.724   4.563   0.178
  395SOL    HW2 2085   5.796   4.437   0.102
  396SOL     OW 2086   1.346   0.759   1.385
  396SOL    HW1 2087   1.441   0.730   1.393
  396SOL    HW2 2088   1.334   0.812   1.301
  397SOL     OW 2089   4.364   2.361   4.703
  397SOL    HW1 2090   4.286   2.330   4.756
  397SOL    HW2 2091   4.430   2.286   4.693
  398SOL     OW 2092   0.239   0.811   3.462
  398SOL    HW1 2093   0.188   0.736   3.504
  398SOL    HW2 2094   0.244   0.797   3.363
  399SOL     OW 2095   5.688   5.810   3.915
  399SOL    HW1 2096   5.715   5.834   4.008
  399SOL    HW2 2097   5.735   5.869   3.849
  400SOL     OW 2098   6.929   6.895   3.305
  400SOL    HW1 2099   6.896   6.868   3.395
  400SOL    HW2 2100   7.008   6.839   3.280
  401SOL     OW 2101   1.070   5.435   4.636
  401SOL    HW1 2102   0.991   5.387   4.675
  401SOL    HW2 2103   1.059   5.442   4.537
  402SOL     OW 2104   5.988   1.534   4.366
  402SOL    HW1 2105   5.966   1.437   4.352
  402SOL    HW2 2106   5.916   1.577   4.421
  403SOL     OW 2107   2.962   1.877   5.175
  403SOL    HW1 2108   3.048   1.835   5.203
  403SOL    HW2 2109   2.893   1.806   5.159
  404SOL     OW 2110   3.277   5.547   3.543
  404SOL    HW1 2111   3.219   5.469   3.565
  404SOL    HW2 2112   3.311   5.538   3.449
  405SOL     OW 2113   2.428   4.858   4.248
  405SOL    HW1 2114   2.481   4.919   4.307
  405SOL    HW2 2115   2.364   4.912   4.193
  406SOL     OW 2116   0.185   0.124   6.145
  406SOL    HW1 2117   0.282   0.146   6.143
  406SOL    HW2 2118   0.143   0.163   6.227
  407SOL     OW 2119   1.887   3.446   4.080
  407SOL    HW1 2120   1.946   3.510   4.030
  407SOL    HW2 2121   1.910   3.352   4.054
  408SOL     OW 2122   2.199   2.205   2.592
  408SOL    HW1 2123   2.266   2.238   2.525
  408SOL    HW2 2124   2.247   2.154   2.664
  409SOL     OW 2125   0.480   2.680   2.831
  409SOL    HW1 2126   0.420   2.720   2.900
  409SOL    HW2 2127   0.482   2.580   2.841
  410SOL     OW 2128   1.893   2.880   1.214
  410SOL    HW1 2129   1.947   2.957   1.250
  410SOL    HW2 2130   1.867   2.820   1.290
  411SOL     OW 2131   6.705   2.170   0.361
  411SOL    HW1 2132   6.800   2.142   0.370
  411SOL    HW2 2133   6.700   2.269   0.349
  412SOL     OW 2134   1.811   5.407   2.618
  412SOL    HW1 2135   1.727   5.384   2.667
  412SOL    HW2 2136   1.791   5.475   2.548
  413SOL     OW 2137   6.371   4.724   1.871
  413SOL    HW1 2138   6.359   4.760   1.779
  413SOL    HW2 2139   6.453   4.764   1.912
  414SOL     OW 2140   2.225   6.825   3.378
  414SOL    HW1 2141   2.172   6.748   3.413
  414SOL    HW2 2142   2.163   6.897   3.348
  415SOL     OW 2143   5.327   1.317   6.536
  415SOL    HW1 2144   5.364   1.305   6.628
  415SOL    HW2 2145   5.401   1.343   6.473
  416SOL     OW 2146   5.720   3.024   6.092
  416SOL    HW1 2147   5.680   2.996   6.179
  416SOL    HW2 2148   5.767   2.946   6.050
  417SOL     OW 2149   2.255   2.439   5.731
  417SOL    HW1 2150   2.339   2.468   5.684
  417SOL    HW2 2151   2.225   2.351   5.695
  418SOL     OW 2152   3.475   0.099   5.491
  418SOL    HW1 2153   3.462   0.104   5.590
  418SOL    HW2 2154   3.544   0.167   5.464
  419SOL     OW 2155   5.843   0.351   0.345
  419SOL    HW1 2156   5.842   0.448   0.370
  419SOL    HW2 2157   5.927   0.309   0.380
  420SOL     OW 2158   3.726   6.870   0.994
  420SOL    HW1 2159   3.753   6.957   1.036
  420SOL    HW2 2160   3.645   6.834   1.040
  421SOL     OW 2161   4.789   4.243   2.341
  421SOL    HW1 2162   4.865   4.301   2.313
  421SOL    HW2 2163   4.724   4.298   2.396
  422SOL     OW 2164   4.566   2.025   1.758
  422SOL    HW1 2165   4.472   2.003   1.784
  422SOL    HW2 2166   4.598   2.102   1.812
  423SOL     OW 2167   2.971   0.791   6.211
  423SOL    HW1 2168   2.968   0.819   6.116
  423SOL    HW2 2169   3.067   0.779   6.239
  424SOL     OW 2170   1.940   3.860   4.271
  424SOL    HW1 2171   1.928   3.888   4.176
  424SOL    HW2 2172   1.978   3.768   4.274
  425SOL     OW 2173   3.620   1.312   6.803
  425SOL    HW1 2174   3.642   1.312   6.901
  425SOL    HW2 2175   3.683   1.251   6.755
  426SOL     OW 2176   2.430   1.919   4.452
  426SOL    HW1 2177   2.437   1.968   4.539
  426SOL    HW2 2178   2.471   1.828   4.462
  427SOL     OW 2179   4.912   1.674   3.852
  427SOL    HW1 2180   4.818   1.702   3.833
  427SOL    HW2 2181   4.967   1.755   3.875
  428SOL     OW 2182   2.598   2.022   6.264
  428SOL    HW1 2183   2.653   2.104   6.248
  428SOL    HW2 2184   2.550   2.030   6.351
  429SOL     OW 2185   0.435   5.878   3.773
  429SOL    HW1 2186   0.530   5.888   3.805
  429SOL    HW2 2187   0.373   5.874   3.851
  430SOL     OW 2188   2.052   6.964   3.926
  430SOL    HW1 2189   2.071   0.040   3.900
  430SOL    HW2 2190   2.107   6.902   3.870
  431SOL     OW 2191   2.721   1.401   1.182
  431SOL    HW1 2192   2.689   1.458   1.258
  431SOL    HW2 2193   2.642   1.367   1.130
  432SOL     OW 2194   4.953   1.600   1.464
  432SOL    HW1 2195   4.962   1.688   1.510
  432SOL    HW2 2196   4.881   1.604   1.396
  433SOL     OW 2197   1.901   4.396   0.731
  433SOL    HW1 2198   1.831   4.327   0.750
  433SOL    HW2 2199   1.872   4.484   0.768
  434SOL     OW 2200   4.474   5.335   2.785
  434SOL    HW1 2201   4.452   5.289   2.699
  434SOL    HW2 2202   4.548   5.286   2.831
  435SOL     OW 2203   3.844   2.814   6.007
  435SOL    HW1 2204   3.781   2.829   6.083
  435SOL    HW2 2205   3.814   2.867   5.928
  436SOL     OW 2206   5.435   5.938   1.857
  436SOL    HW1 2207   5.497   5.950   1.934
  436SOL    HW2 2208   5.425   6.024   1.808
  437SOL     OW 2209   6.891   1.194   4.942
  437SOL    HW1 2210   6.904   1.272   4.881
  437SOL    HW2 2211   6.970   1.133   4.937
  438SOL     OW 2212   0.952   4.275   2.504
  438SOL    HW1 2213   0.892   4.222   2.564
  438SOL    HW2 2214   0.897   4.324   2.437
  439SOL     OW 2215   0.466   0.473   5.551
  439SOL    HW1 2216   0.544   0.411   5.549
  439SOL    HW2 2217   0.384   0.422   5.577
  440SOL     OW 2218   4.566   2.114   0.850
  440SOL    HW1 2219   4.578   2.127   0.751
  440SOL    HW2 2220   4.507   2.036   0.867
  441SOL     OW 2221   0.183   4.621   2.229
  441SOL    HW1 2222   0.227   4.593   2.314
  441SOL    HW2 2223   0.240   4.594   2.151
  442SOL     OW 2224   3.942   3.334   5.160
  442SOL    HW1 2225   3.931   3.336   5.060
  442SOL    HW2 2226   3.886   3.260   5.198
  443SOL     OW 2227   4.763   2.767   3.297
  443SOL    HW1 2228   4.852   2.726   3.317
  443SOL    HW2 2229   4.690   2.706   3.330
  444SOL     OW 2230   4.178   2.071   1.510
  444SOL    HW1 2231   4.161   2.013   1.590
  444SOL    HW2 2232   4.172   2.015   1.427
  445SOL     OW 2233   2.915   5.270   2.623
  445SOL    HW1 2234   2.924   5.244   2.719
  445SOL    HW2 2235   2.822   5.302   2.605
  446SOL     OW 2236   6.261   0.348   1.691
  446SOL    HW1 2237   6.335   0.290   1.725
  446SOL    HW2 2238   6.280   0.372   1.596
  447SOL     OW 2239   5.722   4.002   0.496
  447SOL    HW1 2240   5.746   4.095   0.466
  447SOL    HW2 2241   5.670   4.007   0.581
  448SOL     OW 2242   3.794   6.396   3.902
  448SOL    HW1 2243   3.809   6.482   3.855
  448SOL    HW2 2244   3.857   6.326   3.866
  449SOL     OW 2245   0.962   3.922   4.875
  449SOL    HW1 2246   0.999   3.884   4.960
  449SOL    HW2 2247   0.925   4.013   4.892
  450SOL     OW 2248   6.755   4.034   3.369
  450SOL    HW1 2249   6.782   4.130   3.379
  450SOL    HW2 2250   6.837   3.978   3.360
  451SOL     OW 2251   1.176   2.097   0.489
  451SOL    HW1 2252   1.268   2.122   0.517
  451SOL    HW2 2253   1.180   2.019   0.425
  452SOL     OW 2254   4.285   5.615   1.884
  452SOL    HW1 2255   4.202   5.654   1.923
  452SOL    HW2 2256   4.359   5.682   1.888
  453SOL     OW 2257   3.884   1.169   0.104
  453SOL    HW1 2258   3.961   1.144   0.161
  453SOL    HW2 2259   3.820   1.093   0.098
  454SOL     OW 2260   0.184   3.360   4.366
  454SOL    HW1 2261   0.175   3.447   4.318
  454SOL    HW2 2262   0.117   3.356   4.440
  455SOL     OW 2263   5.476   5.219   6.402
  455SOL    HW1 2264   5.397   5.175   6.444
  455SOL    HW2 2265   5.555   5.157   6.406
  456SOL     OW 2266   2.143   0.839   2.895
  456SOL    HW1 2267   2.138   0.827   2.796
  456SOL    HW2 2268   2.082   0.774   2.940
  457SOL     OW 2269   2.692   6.051   0.141
  457SOL    HW1 2270   2.771   6.002   0.103
  457SOL    HW2 2271   2.608   6.008   0.110
  458SOL     OW 2272   3.837   1.495   3.186
  458SOL    HW1 2273   3.869   1.584   3.155
  458SOL    HW2 2274   3.915   1.441   3.219
  459SOL     OW 2275   3.081   1.083   3.017
  459SOL    HW1 2276   3.173   1.082   2.978
  459SOL    HW2 2277   3.082   1.129   3.106
  460SOL     OW 2278   0.583   1.686   6.223
  460SOL    HW1 2279   0.675   1.668   6.256
  460SOL    HW2 2280   0.588   1.744   6.141
  461SOL     OW 2281   1.456   6.425   5.414
  461SOL    HW1 2282   1.546   6.440   5.455
  461SOL    HW2 2283   1.390   6.486   5.457
  462SOL     OW 2284   3.609   4.183   4.436
  462SOL    HW1 2285   3.701   4.144   4.440
  462SOL    HW2 2286   3.588   4.230   4.522
  463SOL     OW 2287   5.485   5.952   3.258
  463SOL    HW1 2288   5.395   5.995   3.247
  463SOL    HW2 2289   5.548   5.988   3.188
  464SOL     OW 2290   4.228   5.378   5.097
  464SOL    HW1 2291   4.163   5.440   5.054
  464SOL    HW2 2292   4.320   5.400   5.066
  465SOL     OW 2293   0.277   4.531   6.894
  465SOL    HW1 2294   0.310   4.517   6.800
  465SOL    HW2 2295   0.191   4.582   6.892
  466SOL     OW 2296   3.912   4.904   4.353
  466SOL    HW1 2297   3.947   4.857   4.272
  466SOL    HW2 2298   3.826   4.948   4.330
  467SOL     OW 2299   6.712   0.167   2.149
  467SOL    HW1 2300   6.764   0.162   2.235
  467SOL    HW2 2301   6.720   0.258   2.110
  468SOL     OW 2302   2.452   6.117   6.374
  468SOL    HW1 2303   2.486   6.027   6.345
  468SOL    HW2 2304   2.377   6.145   6.315
  469SOL     OW 2305   3.141   4.669   5.282
  469SOL    HW1 2306   3.070   4.636   5.221
  469SOL    HW2 2307   3.201   4.732   5.233
  470SOL     OW 2308   2.169   4.881   2.920
  470SOL    HW1 2309   2.123   4.950   2.864
  470SOL    HW2 2310   2.265   4.906   2.932
  471SOL     OW 2311   1.556   2.045   4.025
  471SOL    HW1 2312   1.584   1.953   4.000
  471SOL    HW2 2313   1.526   2.094   3.943
  472SOL     OW 2314   5.456   4.207   6.651
  472SOL    HW1 2315   5.417   4.208   6.743
  472SOL    HW2 2316   5.544   4.255   6.651
  473SOL     OW 2317   5.323   3.651   2.462
  473SOL    HW1 2318   5.246   3.701   2.421
  473SOL    HW2 2319   5.302   3.554   2.463
  474SOL     OW 2320   5.072   5.462   3.752
  474SOL    HW1 2321   5.080   5.383   3.692
  474SOL    HW2 2322   5.154   5.517   3.746
  475SOL     OW 2323   5.665   1.668   0.224
  475SOL    HW1 2324   5.634   1.628   0.311
  475SOL    HW2 2325   5.638   1.764   0.220
  476SOL     OW 2326   1.340   3.754   0.185
  476SOL    HW1 2327   1.412   3.689   0.210
  476SOL    HW2 2328   1.313   3.738   0.090
  477SOL     OW 2329   6.977   5.300   3.362
  477SOL    HW1 2330   7.009   5.286   3.455
  477SOL    HW2 2331   0.010   5.374   3.319
  478SOL     OW 2332   6.056   5.350   2.806
  478SOL    HW1 2333   5.983   5.361   2.739
  478SOL    HW2 2334   6.144   5.361   2.761
  479SOL     OW 2335   2.982   3.836   2.895
  479SOL    HW1 2336   2.967   3.835   2.796
  479SOL    HW2 2337   3.039   3.914   2.919
  480SOL     OW 2338   0.867   0.993   1.829
  480SOL    HW1 2339   0.936   1.064   1.843
  480SOL    HW2 2340   0.842   0.990   1.732
  481SOL     OW 2341   5.824   6.780   1.277
  481SOL    HW1 2342   5.876   6.857   1.239
  481SOL    HW2 2343   5.839   6.699   1.219
  482SOL     OW 2344   3.782   5.053   2.656
  482SOL    HW1 2345   3.759   4.979   2.594
  482SOL    HW2 2346   3.725   5.047   2.738
  483SOL     OW 2347   5.768   1.023   3.738
  483SOL    HW1 2348   5.827   0.949   3.706
  483SOL    HW2 2349   5.814   1.111   3.724
  484SOL     OW 2350   1.851   5.107   3.263
  484SOL    HW1 2351   1.861   5.190   3.209
  484SOL    HW2 2352   1.879   5.028   3.208
  485SOL     OW 2353   4.941   1.882   0.432
  485SOL    HW1 2354   4.851   1.902   0.471
  485SOL    HW2 2355   4.936   1.801   0.374
  486SOL     OW 2356   6.068   6.804   5.734
  486SOL    HW1 2357   6.003   6.731   5.756
  486SOL    HW2 2358   6.094   6.799   5.638
  487SOL     OW 2359   0.320   0.921   6.630
  487SOL    HW1 2360   0.286   0.897   6.721
  487SOL    HW2 2361   0.322   0.839   6.573
  488SOL     OW 2362   2.021   5.809   3.238
  488SOL    HW1 2363   2.027   5.805   3.138
  488SOL    HW2 2364   1.937   5.856   3.265
  489SOL     OW 2365   2.957   5.096   5.274
  489SOL    HW1 2366   2.949   5.092   5.374
  489SOL    HW2 2367   2.958   5.004   5.237
  490SOL     OW 2368   1.374   3.576   4.621
  490SOL    HW1 2369   1.317   3.501   4.655
  490SOL    HW2 2370   1.451   3.539   4.570
  491SOL     OW 2371   6.418   2.766   1.163
  491SOL    HW1 2372   6.411   2.861   1.135
  491SOL    HW2 2373   6.399   2.706   1.085
  492SOL     OW 2374   1.779   2.275   5.772
  492SOL    HW1 2375   1.838   2.226   5.836
  492SOL    HW2 2376   1.832   2.346   5.726
  493SOL     OW 2377   2.109   5.586   3.940
  493SOL    HW1 2378   2.017   5.554   3.918
  493SOL    HW2 2379   2.106   5.642   4.022
  494SOL     OW 2380   2.997   0.677   4.240
  494SOL    HW1 2381   3.072   0.717   4.187
  494SOL    HW2 2382   2.926   0.644   4.179
  495SOL     OW 2383   3.722   4.418   6.666
  495SOL    HW1 2384   3.669   4.343   6.705
  495SOL    HW2 2385   3.700   4.429   6.569
  496SOL     OW 2386   4.989   1.209   2.855
  496SOL    HW1 2387   5.088   1.218   2.844
  496SOL    HW2 2388   4.944   1.291   2.819
  497SOL     OW 2389   4.276   2.468   0.810
  497SOL    HW1 2390   4.321   2.558   0.816
  497SOL    HW2 2391   4.321   2.405   0.873
  498SOL     OW 2392   0.283   0.118   1.134
  498SOL    HW1 2393   0.325   0.125   1.224
  498SOL    HW2 2394   0.186   0.144   1.140
  499SOL     OW 2395   2.929   6.049   0.508
  499SOL    HW1 2396   2.948   5.952   0.523
  499SOL    HW2 2397   2.960   6.101   0.587
  500SOL     OW 2398   5.642   1.975   6.234
  500SOL    HW1 2399   5.678   2.009   6.147
  500SOL    HW2 2400   5.576   2.041   6.271
  501SOL     OW 2401   1.875   1.587   4.272
  501SOL    HW1 2402   1.881   1.686   4.261
  501SOL    HW2 2403   1.963   1.545   4.248
  502SOL     OW 2404   2.611   4.243   6.798
  502SOL    HW1 2405   2.687   4.255   6.862
  502SOL    HW2 2406   2.617   4.153   6.756
  503SOL     OW 2407   3.438   5.562   1.150
  503SOL    HW1 2408   3.476   5.597   1.064
  503SOL    HW2 2409   3.495   5.487   1.183
  504SOL     OW 2410   6.219   6.820   0.634
  504SOL    HW1 2411   6.221   6.897   0.697
  504SOL    HW2 2412   6.126   6.803   0.603
  505SOL     OW 2413   6.126   4.144   5.565
  505SOL    HW1 2414   6.045   4.111   5.613
  505SOL    HW2 2415   6.167   4.219   5.616
  506SOL     OW 2416   3.178   5.309   3.055
  506SOL    HW1 2417   3.174   5.408   3.074
  506SOL    HW2 2418   3.120   5.260   3.121
  507SOL     OW 2419   3.454   0.151   2.671
  507SOL    HW1 2420   3.505   0.216   2.728
  507SOL    HW2 2421   3.358   0.178   2.666
  508SOL     OW 2422   0.333   4.817   3.478
  508SOL    HW1 2423   0.350   4.793   3.382
  508SOL    HW2 2424   0.403   4.881   3.509
  509SOL     OW 2425   4.317   0.093   6.567
  509SOL    HW1 2426   4.319   0.179   6.517
  509SOL    HW2 2427   4.379   0.099   6.646
  510SOL     OW 2428   6.338   4.195   6.936
  510SOL    HW1 2429   6.346   4.287   6.975
  510SOL    HW2 2430   6.341   4.201   6.836
  511SOL     OW 2431   0.821   1.342   0.084
  511SOL    HW1 2432   0.911   1.329   0.125
  511SOL    HW2 2433   0.755   1.366   0.155
  512SOL     OW 2434   0.290   2.414   4.132
  512SOL    HW1 2435   0.316   2.419   4.228
  512SOL    HW2 2436   0.191   2.421   4.123
  513SOL     OW 2437   5.655   6.606   2.961
  513SOL    HW1 2438   5.754   6.606   2.965
  513SOL    HW2 2439   5.618   6.573   3.048
  514SOL     OW 2440   5.037   1.524   4.918
  514SOL    HW1 2441   4.972   1.493   4.988
  514SOL    HW2 2442   4.995   1.514   4.828
  515SOL     OW 2443   3.179   1.052   0.011
  515SOL    HW1 2444   3.107   1.038   6.960
  515SOL    HW2 2445   3.172   1.144   0.048
  516SOL     OW 2446   1.429   6.158   1.870
  516SOL    HW1 2447   1.486   6.237   1.896
  516SOL    HW2 2448   1.342   6.191   1.834
  517SOL     OW 2449   3.054   5.240   1.446
  517SOL    HW1 2450   3.056   5.250   1.347
  517SOL    HW2 2451   2.996   5.162   1.470
  518SOL     OW 2452   2.378   6.131   4.212
  518SOL    HW1 2453   2.399   6.060   4.144
  518SOL    HW2 2454   2.430   6.214   4.191
  519SOL     OW 2455   6.615   0.082   2.486
  519SOL    HW1 2456   6.628   0.108   2.582
  519SOL    HW2 2457   6.533   0.128   2.451
  520SOL     OW 2458   2.328   4.987   0.723
  520SOL    HW1 2459   2.362   5.077   0.696
  520SOL    HW2 2460   2.394   4.945   0.785
  521SOL     OW 2461   6.251   5.859   5.560
  521SOL    HW1 2462   6.303   5.801   5.498
  521SOL    HW2 2463   6.209   5.803   5.631
  522SOL     OW 2464   3.721   4.471   0.008
  522SOL    HW1 2465   3.795   4.498   6.965
  522SOL    HW2 2466   3.755   4.402   0.072
  523SOL     OW 2467   1.840   6.898   6.023
  523SOL    HW1 2468   1.911   6.920   5.957
  523SOL    HW2 2469   1.781   6.978   6.036
  524SOL     OW 2470   0.138   0.945   1.034
  524SOL    HW1 2471   0.040   0.931   1.047
  524SOL    HW2 2472   0.161   1.041   1.051
  525SOL     OW 2473   0.500   2.880   3.109
  525SOL    HW1 2474   0.446   2.962   3.124
  525SOL    HW2 2475   0.597   2.904   3.101
  526SOL     OW 2476   4.206   7.001   4.730
  526SOL    HW1 2477   4.256   6.951   4.802
  526SOL    HW2 2478   4.171   6.936   4.663
  527SOL     OW 2479   0.297   1.004   1.364
  527SOL    HW1 2480   0.240   1.028   1.285
  527SOL    HW2 2481   0.348   1.085   1.394
  528SOL     OW 2482   0.069   2.720   4.425
  528SOL    HW1 2483   6.995   2.685   4.406
  528SOL    HW2 2484   0.062   2.808   4.471
  529SOL     OW 2485   1.682   0.529   6.053
  529SOL    HW1 2486   1.671   0.600   5.983
  529SOL    HW2 2487   1.647   0.442   6.018
  530SOL     OW 2488   2.740   4.789   1.482
  530SOL    HW1 2489   2.671   4.812   1.550
  530SOL    HW2 2490   2.823   4.755   1.527
  531SOL     OW 2491   1.082   0.996   6.482
  531SOL    HW1 2492   1.027   0.985   6.566
  531SOL    HW2 2493   1.178   0.982   6.504
  532SOL     OW 2494   2.740   0.788   6.353
  532SOL    HW1 2495   2.830   0.785   6.309
  532SOL    HW2 2496   2.747   0.748   6.445
  533SOL     OW 2497   4.261   0.261   4.365
  533SOL    HW1 2498   4.163   0.249   4.381
  533SOL    HW2 2499   4.281   0.249   4.268
  534SOL     OW 2500   1.772   4.388   2.015
  534SOL    HW1 2501   1.783   4.394   1.915
  534SOL    HW2 2502   1.677   4.367   2.036
  535SOL     OW 2503   4.845   3.917   4.547
  535SOL    HW1 2504   4.814   3.970   4.468
  535SOL    HW2 2505   4.806   3.956   4.631
  536SOL     OW 2506   6.811   6.328   1.581
  536SOL    HW1 2507   6.798   6.421   1.614
  536SOL    HW2 2508   6.892   6.288   1.626
  537SOL     OW 2509   2.617   1.983   1.947
  537SOL    HW1 2510   2.674   2.059   1.916
  537SOL    HW2 2511   2.586   2.001   2.040
  538SOL     OW 2512   4.202   4.740   5.200
  538SOL    HW1 2513   4.177   4.725   5.295
  538SOL    HW2 2514   4.244   4.658   5.162
  539SOL     OW 2515   2.258   0.110   6.825
  539SOL    HW1 2516   2.356   0.122   6.840
  539SOL    HW2 2517   2.225   0.181   6.762
  540SOL     OW 2518   1.937   1.249   5.319
  540SOL    HW1 2519   1.924   1.269   5.222
  540SOL    HW2 2520   1.895   1.322   5.374
  541SOL     OW 2521   5.090   6.384   3.710
  541SOL    HW1 2522   5.075   6.453   3.640
  541SOL    HW2 2523   5.073   6.293   3.672
  542SOL     OW 2524   3.411   6.709   6.228
  542SOL    HW1 2525   3.364   6.700   6.141
  542SOL    HW2 2526   3.472   6.631   6.242
  543SOL     OW 2527   5.870   2.628   3.977
  543SOL    HW1 2528   5.823   2.542   3.996
  543SOL    HW2 2529   5.839   2.664   3.889
  544SOL     OW 2530   1.456   3.343   1.123
  544SOL    HW1 2531   1.482   3.251   1.093
  544SOL    HW2 2532   1.398   3.336   1.204
  545SOL     OW 2533   6.886   5.441   0.649
  545SOL    HW1 2534   6.865   5.527   0.696
  545SOL    HW2 2535   6.800   5.398   0.619
  546SOL     OW 2536   6.932   4.417   2.014
  546SOL    HW1 2537   6.874   4.486   1.972
  546SOL    HW2 2538   6.934   4.430   2.114
  547SOL     OW 2539   4.098   7.008   6.899
  547SOL    HW1 2540   4.091   0.032   6.809
  547SOL    HW2 2541   4.098   6.908   6.888
  548SOL     OW 2542   4.275   3.064   0.274
  548SOL    HW1 2543   4.289   2.997   0.347
  548SOL    HW2 2544   4.318   3.031   0.190
  549SOL     OW 2545   5.361   1.999   3.308
  549SOL    HW1 2546   5.451   2.005   3.264
  549SOL    HW2 2547   5.369   1.948   3.393
  550SOL     OW 2548   6.809   5.877   3.669
  550SOL    HW1 2549   6.728   5.829   3.703
  550SOL    HW2 2550   6.852   5.822   3.597
  551SOL     OW 2551   5.595   0.289   0.288
  551SOL    HW1 2552   5.690   0.317   0.303
  551SOL    HW2 2553   5.543   0.298   0.373
  552SOL     OW 2554   0.663   0.117   4.861
  552SOL    HW1 2555   0.739   0.100   4.924
  552SOL    HW2 2556   0.577   0.116   4.911
  553SOL     OW 2557   3.533   2.552   5.931
  553SOL    HW1 2558   3.438   2.572   5.955
  553SOL    HW2 2559   3.539   2.537   5.832
  554SOL     OW 2560   6.660   5.995   0.501
  554SOL    HW1 2561   6.664   6.007   0.402
  554SOL    HW2 2562   6.568   6.016   0.533
  555SOL     OW 2563   3.045   4.030   5.771
  555SOL    HW1 2564   2.956   4.039   5.816
  555SOL    HW2 2565   3.058   3.936   5.741
  556SOL     OW 2566   6.165   5.971   3.094
  556SOL    HW1 2567   6.213   5.941   3.177
  556SOL    HW2 2568   6.212   5.936   3.013
  557SOL     OW 2569   5.437   4.147   6.347
  557SOL    HW1 2570   5.426   4.049   6.330
  557SOL    HW2 2571   5.422   4.166   6.444
  558SOL     OW 2572   3.682   3.558   2.092
  558SOL    HW1 2573   3.746   3.486   2.121
  558SOL    HW2 2574   3.711   3.646   2.131
  559SOL     OW 2575   6.658   1.053   6.073
  559SOL    HW1 2576   6.642   1.134   6.130
  559SOL    HW2 2577   6.581   0.990   6.083
  560SOL     OW 2578   0.009   2.502   3.795
  560SOL    HW1 2579   6.943   2.459   3.827
  560SOL    HW2 2580   0.004   2.515   3.696
  561SOL     OW 2581   0.706   4.248   0.099
  561SOL    HW1 2582   0.762   4.231   0.180
  561SOL    HW2 2583   0.764   4.250   0.018
  562SOL     OW 2584   4.616   6.285   3.666
  562SOL    HW1 2585   4.527   6.243   3.684
  562SOL    HW2 2586   4.683   6.213   3.646
  563SOL     OW 2587   1.436   1.214   3.874
  563SOL    HW1 2588   1.522   1.232   3.826
  563SOL    HW2 2589   1.417   1.290   3.937
  564SOL     OW 2590   6.047   1.582   5.932
  564SOL    HW1 2591   6.081   1.622   5.846
  564SOL    HW2 2592   6.089   1.630   6.009
  565SOL     OW 2593   3.165   3.089   3.314
  565SOL    HW1 2594   3.119   3.001   3.327
  565SOL    HW2 2595   3.125   3.137   3.236
  566SOL     OW 2596   2.394   1.816   3.697
  566SOL    HW1 2597   2.407   1.881   3.773
  566SOL    HW2 2598   2.455   1.738   3.709
  567SOL     OW 2599   1.924   3.225   5.230
  567SOL    HW1 2600   2.022   3.238   5.244
  567SOL    HW2 2601   1.874   3.298   5.277
  568SOL     OW 2602   0.895   6.889   0.086
  568SOL    HW1 2603   0.821   6.956   0.100
  568SOL    HW2 2604   0.890   6.819   0.157
  569SOL     OW 2605   5.218   3.523   6.284
  569SOL    HW1 2606   5.254   3.558   6.370
  569SOL    HW2 2607   5.184   3.599   6.228
  570SOL     OW 2608   3.762   0.457   6.036
  570SOL    HW1 2609   3.862   0.461   6.045
  570SOL    HW2 2610   3.724   0.402   6.110
  571SOL     OW 2611   2.389   4.402   1.604
  571SOL    HW1 2612   2.437   4.327   1.560
  571SOL    HW2 2613   2.450   4.450   1.667
  572SOL     OW 2614   3.189   1.043   4.721
  572SOL    HW1 2615   3.216   1.040   4.818
  572SOL    HW2 2616   3.243   0.977   4.670
  573SOL     OW 2617   0.497   0.817   5.276
  573SOL    HW1 2618   0.575   0.754   5.280
  573SOL    HW2 2619   0.528   0.909   5.297
  574SOL     OW 2620   2.171   1.147   6.129
  574SOL    HW1 2621   2.268   1.142   6.153
  574SOL    HW2 2622   2.160   1.131   6.031
  575SOL     OW 2623   4.004   4.026   0.064
  575SOL    HW1 2624   3.935   4.073   0.009
  575SOL    HW2 2625   3.959   3.979   0.140
  576SOL     OW 2626   1.213   1.166   2.570
  576SOL    HW1 2627   1.273   1.196   2.496
  576SOL    HW2 2628   1.261   1.097   2.626
  577SOL     OW 2629   0.403   0.613   1.972
  577SOL    HW1 2630   0.388   0.704   2.011
  577SOL    HW2 2631   0.352   0.545   2.025
  578SOL     OW 2632   3.624   6.685   6.866
  578SOL    HW1 2633   3.657   6.763   6.813
  578SOL    HW2 2634   3.653   6.694   6.961
  579SOL     OW 2635   1.102   3.654   2.020
  579SOL    HW1 2636   1.004   3.636   2.024
  579SOL    HW2 2637   1.128   3.670   1.925
  580SOL     OW 2638   4.793   5.023   4.591
  580SOL    HW1 2639   4.853   5.093   4.551
  580SOL    HW2 2640   4.762   4.961   4.519
  581SOL     OW 2641   2.097   2.312   4.044
  581SOL    HW1 2642   2.191   2.338   4.066
  581SOL    HW2 2643   2.048   2.290   4.129
  582SOL     OW 2644   5.672   4.198   5.644
  582SOL    HW1 2645   5.626   4.280   5.609
  582SOL    HW2 2646   5.603   4.136   5.682
  583SOL     OW 2647   3.519   6.491   5.818
  583SOL    HW1 2648   3.574   6.530   5.744
  583SOL    HW2 2649   3.540   6.394   5.827
  584SOL     OW 2650   3.996   0.698   5.284
  584SOL    HW1 2651   4.050   0.758   5.343
  584SOL    HW2 2652   4.055   0.624   5.249
  585SOL     OW 2653   3.318   6.646   1.585
  585SOL    HW1 2654   3.357   6.554   1.596
  585SOL    HW2 2655   3.299   6.684   1.675
  586SOL     OW 2656   3.317   0.172   0.607
  586SOL    HW1 2657   3.311   0.240   0.534
  586SOL    HW2 2658   3.242   0.106   0.598
  587SOL     OW 2659   4.709   1.521   2.297
  587SOL    HW1 2660   4.693   1.565   2.209
  587SOL    HW2 2661   4.677   1.426   2.294
  588SOL     OW 2662   1.878   4.759   2.615
  588SOL    HW1 2663   1.812   4.700   2.568
  588SOL    HW2 2664   1.948   4.701   2.659
  589SOL     OW 2665   3.289   5.242   0.741
  589SOL    HW1 2666   3.306   5.256   0.643
  589SOL    HW2 2667   3.375   5.250   0.791
  590SOL     OW 2668   3.123   2.226   6.442
  590SOL    HW1 2669   3.149   2.310   6.490
  590SOL    HW2 2670   3.128   2.242   6.343
  591SOL     OW 2671   2.808   6.839   3.610
  591SOL    HW1 2672   2.901   6.838   3.573
  591SOL    HW2 2673   2.752   6.899   3.553
  592SOL     OW 2674   5.296   2.308   4.264
  592SOL    HW1 2675   5.335   2.219   4.286
  592SOL    HW2 2676   5.234   2.336   4.338
  593SOL     OW 2677   1.818   1.224   6.835
  593SOL    HW1 2678   1.851   1.220   6.741
  593SOL    HW2 2679   1.876   1.287   6.888
  594SOL     OW 2680   4.154   0.716   3.289
  594SOL    HW1 2681   4.073   0.725   3.232
  594SOL    HW2 2682   4.194   0.625   3.277
  595SOL     OW 2683   5.996   4.397   2.538
  595SOL    HW1 2684   6.084   4.409   2.584
  595SOL    HW2 2685   5.988   4.463   2.464
  596SOL     OW 2686   6.426   4.832   4.470
  596SOL    HW1 2687   6.360   4.829   4.544
  596SOL    HW2 2688   6.432   4.742   4.427
  597SOL     OW 2689   3.274   1.685   6.624
  597SOL    HW1 2690   3.235   1.606   6.670
  597SOL    HW2 2691   3.201   1.743   6.588
  598SOL     OW 2692   3.284   3.383   2.953
  598SOL    HW1 2693   3.264   3.478   2.976
  598SOL    HW2 2694   3.210   3.346   2.897
  599SOL     OW 2695   1.563   4.750   1.661
  599SOL    HW1 2696   1.608   4.828   1.617
  599SOL    HW2 2697   1.497   4.783   1.729
  600SOL     OW 2698   0.229   3.534   5.486
  600SOL    HW1 2699   0.259   3.439   5.476
  600SOL    HW2 2700   0.180   3.563   5.404
  601SOL     OW 2701   0.494   6.650   5.908
  601SOL    HW1 2702   0.427   6.724   5.896
  601SOL    HW2 2703   0.517   6.610   5.820
  602SOL     OW 2704   1.776   1.088   3.368
  602SOL    HW1 2705   1.690   1.042   3.344
  602SOL    HW2 2706   1.820   1.122   3.285
  603SOL     OW 2707   2.052   1.848   3.835
  603SOL    HW1 2708   2.094   1.931   3.797
  603SOL    HW2 2709   2.018   1.868   3.927
  604SOL     OW 2710   5.808   2.578   0.881
  604SOL    HW1 2711   5.882   2.610   0.941
  604SOL    HW2 2712   5.838   2.583   0.786
  605SOL     OW 2713   6.275   6.237   1.147
  605SOL    HW1 2714   6.247   6.315   1.203
  605SOL    HW2 2715   6.311   6.271   1.060
  606SOL     OW 2716   3.273   6.849   5.102
  606SOL    HW1 2717   3.340   6.917   5.132
  606SOL    HW2 2718   3.225   6.883   5.021
  607SOL     OW 2719   1.659   2.603   6.304
  607SOL    HW1 2720   1.591   2.535   6.330
  607SOL    HW2 2721   1.657   2.617   6.205
  608SOL     OW 2722   3.433   0.978   6.782
  608SOL    HW1 2723   3.494   0.917   6.832
  608SOL    HW2 2724   3.409   1.056   6.841
  609SOL     OW 2725   3.559   2.882   2.156
  609SOL    HW1 2726   3.553   2.966   2.102
  609SOL    HW2 2727   3.604   2.811   2.102
  610SOL     OW 2728   4.746   3.594   1.682
  610SOL    HW1 2729   4.650   3.586   1.709
  610SOL    HW2 2730   4.772   3.515   1.626
  611SOL     OW 2731   4.236   1.248   2.629
  611SOL    HW1 2732   4.188   1.161   2.643
  611SOL    HW2 2733   4.305   1.260   2.700
  612SOL     OW 2734   5.023   4.600   4.080
  612SOL    HW1 2735   5.058   4.690   4.107
  612SOL    HW2 2736   5.075   4.567   4.001
  613SOL     OW 2737   3.800   4.612   6.141
  613SOL    HW1 2738   3.704   4.635   6.129
  613SOL    HW2 2739   3.853   4.644   6.062
  614SOL     OW 2740   2.539   6.562   6.586
  614SOL    HW1 2741   2.481   6.483   6.573
  614SOL    HW2 2742   2.564   6.601   6.497
  615SOL     OW 2743   0.054   4.551   2.939
  615SOL    HW1 2744   7.006   4.552   3.014
  615SOL    HW2 2745   0.006   4.565   2.852
  616SOL     OW 2746   6.344   3.277   3.623
  616SOL    HW1 2747   6.336   3.186   3.663
  616SOL    HW2 2748   6.263   3.331   3.646
  617SOL     OW 2749   3.316   6.696   5.984
  617SOL    HW1 2750   3.241   6.750   5.947
  617SOL    HW2 2751   3.382   6.676   5.912
  618SOL     OW 2752   1.812   0.912   3.616
  618SOL    HW1 2753   1.842   0.951   3.529
  618SOL    HW2 2754   1.717   0.939   3.634
  619SOL     OW 2755   1.075   2.029   6.363
  619SOL    HW1 2756   1.037   1.976   6.287
  619SOL    HW2 2757   1.048   2.125   6.354
  620SOL     OW 2758   4.598   3.224   0.733
  620SOL    HW1 2759   4.656   3.288   0.682
  620SOL    HW2 2760   4.650   3.183   0.807
  621SOL     OW 2761   0.108   6.015   0.531
  621SOL    HW1 2762   0.099   6.103   0.579
  621SOL    HW2 2763   0.204   6.000   0.507
  622SOL     OW 2764   0.317   0.634   6.725
  622SOL    HW1 2765   0.382   0.700   6.762
  622SOL    HW2 2766   0.346   0.542   6.749
  623SOL     OW 2767   0.462   4.591   4.771
  623SOL    HW1 2768   0.514   4.654   4.713
  623SOL    HW2 2769   0.461   4.500   4.729
  624SOL     OW 2770   0.963   1.670   1.798
  624SOL    HW1 2771   1.001   1.609   1.867
  624SOL    HW2 2772   0.916   1.746   1.844
  625SOL     OW 2773   1.339   1.351   3.037
  625SOL    HW1 2774   1.243   1.348   3.066
  625SOL    HW2 2775   1.343   1.367   2.938
  626SOL     OW 2776   2.792   5.898   4.692
  626SOL    HW1 2777   2.875   5.933   4.648
  626SOL    HW2 2778   2.763   5.815   4.645
  627SOL     OW 2779   5.402   6.729   0.212
  627SOL    HW1 2780   5.391   6.787   0.132
  627SOL    HW2 2781   5.333   6.755   0.281
  628SOL     OW 2782   5.262   4.320   3.095
  628SOL    HW1 2783   5.183   4.329   3.035
  628SOL    HW2 2784   5.334   4.269   3.048
  629SOL     OW 2785   1.396   7.006   1.108
  629SOL    HW1 2786   1.407   0.069   1.164
  629SOL    HW2 2787   1.318   7.017   1.047
  630SOL     OW 2788   2.760   1.777   1.119
  630SOL    HW1 2789   2.805   1.808   1.203
  630SOL    HW2 2790   2.753   1.854   1.056
  631SOL     OW 2791   2.711   0.516   4.307
  631SOL    HW1 2792   2.744   0.595   4.360
  631SOL    HW2 2793   2.611   0.517   4.304
  632SOL     OW 2794   3.080   0.328   1.327
  632SOL    HW1 2795   3.019   0.252   1.304
  632SOL    HW2 2796   3.097   0.328   1.425
  633SOL     OW 2797   2.343   6.883   5.308
  633SOL    HW1 2798   2.268   6.947   5.292
  633SOL    HW2 2799   2.306   6.792   5.328
  634SOL     OW 2800   2.625   5.457   1.936
  634SOL    HW1 2801   2.597   5.389   1.869
  634SOL    HW2 2802   2.674   5.531   1.889
  635SOL     OW 2803   2.731   0.101   3.279
  635SOL    HW1 2804   2.776   0.174   3.330
  635SOL    HW2 2805   2.687   0.139   3.197
  636SOL     OW 2806   4.446   5.347   6.670
  636SOL    HW1 2807   4.504   5.421   6.702
  636SOL    HW2 2808   4.474   5.320   6.578
  637SOL     OW 2809   5.931   4.438   6.973
  637SOL    HW1 2810   5.931   4.340   6.993
  637SOL    HW2 2811   6.005   4.459   6.909
  638SOL     OW 2812   5.296   1.449   2.871
  638SOL    HW1 2813   5.273   1.464   2.968
  638SOL    HW2 2814   5.340   1.531   2.835
  639SOL     OW 2815   4.936   3.764   1.795
  639SOL    HW1 2816   4.859   3.723   1.746
  639SOL    HW2 2817   4.901   3.817   1.872
  640SOL     OW 2818   2.068   3.093   5.517
  640SOL    HW1 2819   2.081   3.192   5.511
  640SOL    HW2 2820   1.971   3.071   5.503
  641SOL     OW 2821   6.912   5.573   5.115
  641SOL    HW1 2822   6.831   5.518   5.135
  641SOL    HW2 2823   6.994   5.516   5.124
  642SOL     OW 2824   2.029   4.632   6.132
  642SOL    HW1 2825   1.934   4.636   6.102
  642SOL    HW2 2826   2.039   4.683   6.218
  643SOL     OW 2827   6.021   5.965   4.893
  643SOL    HW1 2828   5.941   5.967   4.833
  643SOL    HW2 2829   6.039   6.057   4.927
  644SOL     OW 2830   2.400   6.340   1.785
  644SOL    HW1 2831   2.377   6.343   1.883
  644SOL    HW2 2832   2.474   6.404   1.766
  645SOL     OW 2833   6.867   2.357   2.987
  645SOL    HW1 2834   6.856   2.325   3.082
  645SOL    HW2 2835   6.958   2.334   2.955
  646SOL     OW 2836   0.992   2.751   4.349
  646SOL    HW1 2837   0.946   2.697   4.420
  646SOL    HW2 2838   0.926   2.814   4.307
  647SOL     OW 2839   4.843   3.196   0.590
  647SOL    HW1 2840   4.863   3.099   0.600
  647SOL    HW2 2841   4.849   3.240   0.680
  648SOL     OW 2842   4.564   2.569   4.509
  648SOL    HW1 2843   4.540   2.499   4.442
  648SOL    HW2 2844   4.588   2.654   4.461
  649SOL     OW 2845   4.282   4.648   1.985
  649SOL    HW1 2846   4.196   4.621   1.943
  649SOL    HW2 2847   4.358   4.601   1.939
  650SOL     OW 2848   4.899   4.022   0.794
  650SOL    HW1 2849   4.911   4.104   0.852
  650SOL    HW2 2850   4.830   3.963   0.835
  651SOL     OW 2851   0.946   5.940   6.128
  651SOL    HW1 2852   0.879   5.872   6.096
  651SOL    HW2 2853   0.948   5.940   6.228
  652SOL     OW 2854   4.938   1.851   2.705
  652SOL    HW1 2855   4.985   1.910   2.639
  652SOL    HW2 2856   4.988   1.765   2.714
  653SOL     OW 2857   3.689   4.878   2.468
  653SOL    HW1 2858   3.691   4.899   2.370
  653SOL    HW2 2859   3.594   4.873   2.499
  654SOL     OW 2860   6.677   5.882   6.549
  654SOL    HW1 2861   6.596   5.928   6.586
  654SOL    HW2 2862   6.649   5.804   6.494
  655SOL     OW 2863   0.698   1.627   6.827
  655SOL    HW1 2864   0.634   1.660   6.757
  655SOL    HW2 2865   0.725   1.703   6.886
  656SOL     OW 2866   2.511   6.438   1.181
  656SOL    HW1 2867   2.590   6.410   1.126
  656SOL    HW2 2868   2.450   6.360   1.194
  657SOL     OW 2869   4.014   1.468   0.183
  657SOL    HW1 2870   4.088   1.403   0.170
  657SOL    HW2 2871   3.941   1.449   0.117
  658SOL     OW 2872   3.690   5.648   6.248
  658SOL    HW1 2873   3.765   5.712   6.233
  658SOL    HW2 2874   3.671   5.598   6.163
  659SOL     OW 2875   3.685   0.837   5.765
  659SOL    HW1 2876   3.615   0.775   5.729
  659SOL    HW2 2877   3.641   0.908   5.820
  660SOL     OW 2878   3.755   5.874   2.950
  660SOL    HW1 2879   3.854   5.863   2.946
  660SOL    HW2 2880   3.725   5.879   3.046
  661SOL     OW 2881   5.682   5.075   2.648
  661SOL    HW1 2882   5.781   5.066   2.652
  661SOL    HW2 2883   5.650   5.063   2.554
  662SOL     OW 2884   4.032   1.853   0.616
  662SOL    HW1 2885   4.119   1.806   0.632
  662SOL    HW2 2886   4.050   1.940   0.570
  663SOL     OW 2887   1.636   4.615   4.690
  663SOL    HW1 2888   1.611   4.682   4.760
  663SOL    HW2 2889   1.734   4.594   4.697
  664SOL     OW 2890   5.826   0.059   6.512
  664SOL    HW1 2891   5.844   0.039   6.416
  664SOL    HW2 2892   5.913   0.066   6.561
  665SOL     OW 2893   0.772   4.642   1.896
  665SOL    HW1 2894   0.682   4.601   1.881
  665SOL    HW2 2895   0.827   4.633   1.812
  666SOL     OW 2896   4.269   1.425   1.494
  666SOL    HW1 2897   4.253   1.473   1.580
  666SOL    HW2 2898   4.297   1.491   1.424
  667SOL     OW 2899   1.136   0.401   2.390
  667SOL    HW1 2900   1.127   0.425   2.294
  667SOL    HW2 2901   1.184   0.314   2.399
  668SOL     OW 2902   5.909   2.960   0.491
  668SOL    HW1 2903   5.809   2.961   0.499
  668SOL    HW2 2904   5.944   3.053   0.504
  669SOL     OW 2905   5.221   1.449   3.148
  669SOL    HW1 2906   5.163   1.395   3.208
  669SOL    HW2 2907   5.266   1.521   3.201
  670SOL     OW 2908   3.530   1.826   2.718
  670SOL    HW1 2909   3.516   1.728   2.734
  670SOL    HW2 2910   3.607   1.858   2.773
  671SOL     OW 2911   2.081   6.424   2.139
  671SOL    HW1 2912   2.047   6.489   2.207
  671SOL    HW2 2913   2.175   6.448   2.114
  672SOL     OW 2914   0.676   0.344   2.227
  672SOL    HW1 2915   0.662   0.441   2.245
  672SOL    HW2 2916   0.759   0.313   2.274
  673SOL     OW 2917   6.116   6.910   6.771
  673SOL    HW1 2918   6.127   7.000   6.813
  673SOL    HW2 2919   6.057   6.854   6.829
  674SOL     OW 2920   5.378   0.485   4.025
  674SOL    HW1 2921   5.290   0.476   3.978
  674SOL    HW2 2922   5.426   0.566   3.991
  675SOL     OW 2923   0.588   3.732   2.723
  675SOL    HW1 2924   0.556   3.691   2.808
  675SOL    HW2 2925   0.644   3.666   2.673
  676SOL     OW 2926   2.211   6.038   6.153
  676SOL    HW1 2927   2.140   6.108   6.158
  676SOL    HW2 2928   2.194   5.979   6.074
  677SOL     OW 2929   6.164   1.755   1.249
  677SOL    HW1 2930   6.085   1.713   1.203
  677SOL    HW2 2931   6.235   1.686   1.262
  678SOL     OW 2932   0.899   5.182   3.706
  678SOL    HW1 2933   0.936   5.171   3.613
  678SOL    HW2 2934   0.841   5.264   3.710
  679SOL     OW 2935   4.901   2.207   4.955
  679SOL    HW1 2936   4.978   2.181   5.013
  679SOL    HW2 2937   4.879   2.304   4.969
  680SOL     OW 2938   6.644   6.338   3.680
  680SOL    HW1 2939   6.682   6.363   3.769
  680SOL    HW2 2940   6.547   6.362   3.678
  681SOL     OW 2941   4.540   4.789   2.905
  681SOL    HW1 2942   4.615   4.785   2.971
  681SOL    HW2 2943   4.522   4.884   2.881
  682SOL     OW 2944   6.989   1.494   3.202
  682SOL    HW1 2945   6.904   1.524   3.245
  682SOL    HW2 2946   6.994   1.529   3.108
  683SOL     OW 2947   3.533   3.817   1.073
  683SOL    HW1 2948   3.448   3.861   1.101
  683SOL    HW2 2949   3.598   3.818   1.149
  684SOL     OW 2950   6.353   1.235   5.465
  684SOL    HW1 2951   6.324   1.151   5.510
  684SOL    HW2 2952   6.355   1.221   5.366
  685SOL     OW 2953   2.968   6.838   2.992
  685SOL    HW1 2954   3.005   6.921   2.953
  685SOL    HW2 2955   2.956   6.850   3.091
  686SOL     OW 2956   4.304   0.861   5.201
  686SOL    HW1 2957   4.321   0.822   5.292
  686SOL    HW2 2958   4.228   0.925   5.206
  687SOL     OW 2959   6.775   1.109   3.910
  687SOL    HW1 2960   6.730   1.025   3.881
  687SOL    HW2 2961   6.774   1.175   3.834
  688SOL     OW 2962   5.770   1.664   6.851
  688SOL    HW1 2963   5.772   1.674   6.752
  688SOL    HW2 2964   5.725   1.578   6.875
  689SOL     OW 2965   1.847   5.383   0.030
  689SOL    HW1 2966   1.851   5.399   0.129
  689SOL    HW2 2967   1.865   5.287   0.011
  690SOL     OW 2968   5.632   3.946   3.289
  690SOL    HW1 2969   5.617   3.859   3.243
  690SOL    HW2 2970   5.712   3.939   3.349
  691SOL     OW 2971   5.970   1.290   1.255
  691SOL    HW1 2972   5.959   1.200   1.296
  691SOL    HW2 2973   5.893   1.349   1.279
  692SOL     OW 2974   1.795   1.369   4.482
  692SOL    HW1 2975   1.842   1.296   4.432
  692SOL    HW2 2976   1.813   1.457   4.438
  693SOL     OW 2977   5.927   4.969   3.442
  693SOL    HW1 2978   5.873   5.048   3.473
  693SOL    HW2 2979   5.915   4.894   3.507
  694SOL     OW 2980   4.445   5.941   4.563
  694SOL    HW1 2981   4.414   6.033   4.589
  694SOL    HW2 2982   4.366   5.879   4.559
  695SOL     OW 2983   4.730   6.815   3.801
  695SOL    HW1 2984   4.779   6.773   3.878
  695SOL    HW2 2985   4.717   6.748   3.729
  696SOL     OW 2986   5.544   4.307   2.379
  696SOL    HW1 2987   5.549   4.352   2.290
  696SOL    HW2 2988   5.568   4.210   2.368
  697SOL     OW 2989   1.021   6.795   2.030
  697SOL    HW1 2990   0.957   6.733   2.076
  697SOL    HW2 2991   1.082   6.837   2.098
  698SOL     OW 2992   5.626   5.983   6.297
  698SOL    HW1 2993   5.715   5.939   6.307
  698SOL    HW2 2994   5.638   6.081   6.281
  699SOL     OW 2995   4.006   3.774   0.701
  699SOL    HW1 2996   3.992   3.846   0.769
  699SOL    HW2 2997   4.104   3.759   0.687
  700SOL     OW 2998   3.820   6.751   5.234
  700SOL    HW1 2999   3.732   6.790   5.262
  700SOL    HW2 3000   3.807   6.698   5.150
  701SOL     OW 3001   4.476   4.940   1.210
  701SOL    HW1 3002   4.491   4.871   1.139
  701SOL    HW2 3003   4.379   4.960   1.217
  702SOL     OW 3004   4.491   0.689   4.738
  702SOL    HW1 3005   4.401   0.661   4.705
  702SOL    HW2 3006   4.547   0.720   4.661
  703SOL     OW 3007   2.855   2.891   0.045
  703SOL    HW1 3008   2.955   2.887   0.051
  703SOL    HW2 3009   2.818   2.922   0.133
  704SOL     OW 3010   3.443   1.256   6.099
  704SOL    HW1 3011   3.507   1.308   6.043
  704SOL    HW2 3012   3.350   1.287   6.079
  705SOL     OW 3013   0.298   6.177   5.709
  705SOL    HW1 3014   0.320   6.252   5.771
  705SOL    HW2 3015   0.257   6.102   5.761
  706SOL     OW 3016   3.823   0.839   5.142
  706SOL    HW1 3017   3.904   0.790   5.174
  706SOL    HW2 3018   3.830   0.935   5.169
  707SOL     OW 3019   2.491   5.529   4.015
  707SOL    HW1 3020   2.486   5.607   4.078
  707SOL    HW2 3021   2.532   5.451   4.063
  708SOL     OW 3022   4.485   6.272   3.957
  708SOL    HW1 3023   4.398   6.225   3.971
  708SOL    HW2 3024   4.559   6.204   3.951
  709SOL     OW 3025   2.657   0.381   1.588
  709SOL    HW1 3026   2.686   0.286   1.583
  709SOL    HW2 3027   2.580   0.389   1.651
  710SOL     OW 3028   5.214   3.667   2.136
  710SOL    HW1 3029   5.125   3.700   2.168
  710SOL    HW2 3030   5.206   3.571   2.108
  711SOL     OW 3031   0.532   1.875   0.145
  711SOL    HW1 3032   0.544   1.965   0.188
  711SOL    HW2 3033   0.441   1.871   0.104
  712SOL     OW 3034   5.342   3.951   0.007
  712SOL    HW1 3035   5.379   3.858   0.009
  712SOL    HW2 3036   5.242   3.947   0.011
  713SOL     OW 3037   4.389   3.525   5.462
  713SOL    HW1 3038   4.369   3.570   5.549
  713SOL    HW2 3039   4.458   3.578   5.412
  714SOL     OW 3040   5.358   6.229   3.096
  714SOL    HW1 3041   5.445   6.179   3.101
  714SOL    HW2 3042   5.285   6.173   3.136
  715SOL     OW 3043   6.151   4.841   5.494
  715SOL    HW1 3044   6.073   4.834   5.556
  715SOL    HW2 3045   6.179   4.937   5.487
  716SOL     OW 3046   3.128   1.952   3.294
  716SOL    HW1 3047   3.161   2.037   3.255
  716SOL    HW2 3048   3.116   1.962   3.393
  717SOL     OW 3049   5.290   4.959   3.935
  717SOL    HW1 3050   5.260   4.917   3.850
  717SOL    HW2 3051   5.374   4.914   3.966
  718SOL     OW 3052   6.186   2.181   5.278
  718SOL    HW1 3053   6.232   2.263   5.246
  718SOL    HW2 3054   6.217   2.102   5.225
  719SOL     OW 3055   4.953   6.418   3.468
  719SOL    HW1 3056   5.004   6.454   3.390
  719SOL    HW2 3057   4.859   6.453   3.466
  720SOL     OW 3058   2.835   1.202   1.375
  720SOL    HW1 3059   2.804   1.295   1.355
  720SOL    HW2 3060   2.778   1.136   1.326
  721SOL     OW 3061   6.323   2.994   2.008
  721SOL    HW1 3062   6.258   3.066   1.984
  721SOL    HW2 3063   6.317   2.921   1.940
  722SOL     OW 3064   4.615   6.198   1.009
  722SOL    HW1 3065   4.643   6.235   0.920
  722SOL    HW2 3066   4.554   6.262   1.054
  723SOL     OW 3067   1.982   0.522   4.695
  723SOL    HW1 3068   1.928   0.588   4.642
  723SOL    HW2 3069   2.025   0.569   4.772
  724SOL     OW 3070   1.090   1.584   4.701
  724SOL    HW1 3071   1.171   1.573   4.643
  724SOL    HW2 3072   1.108   1.652   4.772
  725SOL     OW 3073   2.117   4.701   3.117
  725SOL    HW1 3074   2.122   4.772   3.047
  725SOL    HW2 3075   2.039   4.641   3.098
  726SOL     OW 3076   2.044   4.001   1.091
  726SOL    HW1 3077   2.058   3.918   1.037
  726SOL    HW2 3078   2.016   4.076   1.030
  727SOL     OW 3079   3.548   5.044   4.833
  727SOL    HW1 3080   3.532   4.995   4.747
  727SOL    HW2 3081   3.470   5.103   4.854
  728SOL     OW 3082   6.643   3.274   3.652
  728SOL    HW1 3083   6.565   3.212   3.659
  728SOL    HW2 3084   6.666   3.310   3.743
  729SOL     OW 3085   1.023   3.752   0.859
  729SOL    HW1 3086   1.052   3.827   0.799
  729SOL    HW2 3087   0.994   3.789   0.947
  730SOL     OW 3088   4.495   1.346   3.162
  730SOL    HW1 3089   4.575   1.287   3.165
  730SOL    HW2 3090   4.511   1.421   3.098
  731SOL     OW 3091   4.616   4.371   4.686
  731SOL    HW1 3092   4.533   4.422   4.663
  731SOL    HW2 3093   4.653   4.406   4.773
  732SOL     OW 3094   3.691   0.950   4.599
  732SOL    HW1 3095   3.655   1.002   4.522
  732SOL    HW2 3096   3.663   0.992   4.685
  733SOL     OW 3097   6.329   5.209   3.805
  733SOL    HW1 3098   6.345   5.306   3.785
  733SOL    HW2 3099   6.268   5.201   3.884
  734SOL     OW 3100   6.492   6.367   2.821
  734SOL    HW1 3101   6.565   6.378   2.754
  734SOL    HW2 3102   6.410   6.331   2.776
  735SOL     OW 3103   4.053   6.934   2.562
  735SOL    HW1 3104   3.966   6.942   2.513
  735SOL    HW2 3105   4.047   6.982   2.649
  736SOL     OW 3106   1.670   2.111   3.679
  736SOL    HW1 3107   1.637   2.042   3.616
  736SOL    HW2 3108   1.637   2.201   3.650
  737SOL     OW 3109   3.755   1.436   6.309
  737SOL    HW1 3110   3.806   1.449   6.394
  737SOL    HW2 3111   3.818   1.409   6.236
  738SOL     OW 3112   2.023   4.731   0.400
  738SOL    HW1 3113   2.092   4.790   0.443
  738SOL    HW2 3114   2.023   4.641   0.443
  739SOL     OW 3115   1.980   6.884   3.664
  739SOL    HW1 3116   1.942   6.975   3.646
  739SOL    HW2 3117   1.960   6.858   3.759
  740SOL     OW 3118   5.243   3.493   3.203
  740SOL    HW1 3119   5.292   3.535   3.279
  740SOL    HW2 3120   5.181   3.422   3.238
  741SOL     OW 3121   2.926   1.299   2.828
  741SOL    HW1 3122   2.913   1.242   2.909
  741SOL    HW2 3123   3.023   1.318   2.816
  742SOL     OW 3124   1.586   6.682   1.851
  742SOL    HW1 3125   1.552   6.769   1.817
  742SOL    HW2 3126   1.684   6.690   1.871
  743SOL     OW 3127   0.531   6.191   2.747
  743SOL    HW1 3128   0.591   6.125   2.794
  743SOL    HW2 3129   0.538   6.178   2.649
  744SOL     OW 3130   5.171   1.355   0.332
  744SOL    HW1 3131   5.160   1.264   0.373
  744SOL    HW2 3132   5.082   1.390   0.303
  745SOL     OW 3133   2.424   6.407   4.838
  745SOL    HW1 3134   2.375   6.354   4.769
  745SOL    HW2 3135   2.522   6.387   4.832
  746SOL     OW 3136   0.112   4.664   4.392
  746SOL    HW1 3137   0.145   4.737   4.451
  746SOL    HW2 3138   0.132   4.686   4.297
  747SOL     OW 3139   4.744   5.310   2.668
  747SOL    HW1 3140   4.782   5.386   2.721
  747SOL    HW2 3141   4.689   5.346   2.593
  748SOL     OW 3142   5.510   4.922   1.285
  748SOL    HW1 3143   5.453   4.969   1.217
  748SOL    HW2 3144   5.596   4.894   1.242
  749SOL     OW 3145   5.083   4.845   5.147
  749SOL    HW1 3146   5.181   4.826   5.139
  749SOL    HW2 3147   5.067   4.943   5.145
  750SOL     OW 3148   2.386   2.114   3.267
  750SOL    HW1 3149   2.466   2.130   3.210
  750SOL    HW2 3150   2.303   2.123   3.211
  751SOL     OW 3151   3.394   1.043   0.621
  751SOL    HW1 3152   3.403   0.964   0.560
  751SOL    HW2 3153   3.336   1.112   0.579
  752SOL     OW 3154   3.775   2.901   5.019
  752SOL    HW1 3155   3.722   2.858   4.946
  752SOL    HW2 3156   3.833   2.973   4.981
  753SOL     OW 3157   3.531   4.064   3.790
  753SOL    HW1 3158   3.530   4.011   3.705
  753SOL    HW2 3159   3.438   4.093   3.812
  754SOL     OW 3160   4.846   0.481   0.010
  754SOL    HW1 3161   4.900   0.459   6.947
  754SOL    HW2 3162   4.834   0.581   0.016
  755SOL     OW 3163   4.540   4.612   5.255
  755SOL    HW1 3164   4.533   4.593   5.353
  755SOL    HW2 3165   4.455   4.584   5.210
  756SOL     OW 3166   2.654   5.070   6.437
  756SOL    HW1 3167   2.705   5.080   6.352
  756SOL    HW2 3168   2.621   4.976   6.445
  757SOL     OW 3169   1.797   6.452   1.737
  757SOL    HW1 3170   1.733   6.400   1.793
  757SOL    HW2 3171   1.846   6.518   1.795
  758SOL     OW 3172   4.683   1.206   4.353
  758SOL    HW1 3173   4.604   1.149   4.372
  758SOL    HW2 3174   4.746   1.203   4.431
  759SOL     OW 3175   0.261   3.817   4.097
  759SOL    HW1 3176   0.223   3.864   4.018
  759SOL    HW2 3177   0.339   3.760   4.068
  760SOL     OW 3178   6.679   5.203   3.445
  760SOL    HW1 3179   6.769   5.197   3.402
  760SOL    HW2 3180   6.654   5.299   3.458
  761SOL     OW 3181   4.993   5.082   6.374
  761SOL    HW1 3182   5.091   5.064   6.368
  761SOL    HW2 3183   4.959   5.105   6.283
  762SOL     OW 3184   4.293   5.603   3.787
  762SOL    HW1 3185   4.337   5.555   3.863
  762SOL    HW2 3186   4.335   5.693   3.776
  763SOL     OW 3187   5.190   0.426   0.484
  763SOL    HW1 3188   5.279   0.415   0.440
  763SOL    HW2 3189   5.195   0.393   0.578
  764SOL     OW 3190   5.280   6.152   4.993
  764SOL    HW1 3191   5.230   6.065   4.993
  764SOL    HW2 3192   5.323   6.165   5.082
  765SOL     OW 3193   6.100   6.497   0.729
  765SOL    HW1 3194   6.110   6.500   0.829
  765SOL    HW2 3195   6.181   6.536   0.686
  766SOL     OW 3196   2.657   1.745   4.533
  766SOL    HW1 3197   2.728   1.703   4.590
  766SOL    HW2 3198   2.679   1.841   4.518
  767SOL     OW 3199   6.844   6.033   3.886
  767SOL    HW1 3200   6.840   5.974   3.805
  767SOL    HW2 3201   6.756   6.031   3.933
  768SOL     OW 3202   2.381   5.620   2.806
  768SOL    HW1 3203   2.391   5.713   2.842
  768SOL    HW2 3204   2.309   5.573   2.857
  769SOL     OW 3205   3.050   2.023   5.461
  769SOL    HW1 3206   3.086   2.107   5.500
  769SOL    HW2 3207   3.091   2.006   5.372
  770SOL     OW 3208   1.525   4.679   5.421
  770SOL    HW1 3209   1.543   4.601   5.482
  770SOL    HW2 3210   1.442   4.726   5.451
  771SOL     OW 3211   1.843   4.912   2.867
  771SOL    HW1 3212   1.862   4.860   2.783
  771SOL    HW2 3213   1.761   4.967   2.855
  772SOL     OW 3214   5.289   4.509   0.393
  772SOL    HW1 3215   5.324   4.482   0.483
  772SOL    HW2 3216   5.350   4.473   0.322
  773SOL     OW 3217   2.269   4.291   3.795
  773SOL    HW1 3218   2.250   4.320   3.889
  773SOL    HW2 3219   2.263   4.371   3.735
  774SOL     OW 3220   2.340   1.318   3.812
  774SOL    HW1 3221   2.265   1.332   3.747
  774SOL    HW2 3222   2.307   1.268   3.892
  775SOL     OW 3223   1.579   4.673   2.822
  775SOL    HW1 3224   1.514   4.631   2.885
  775SOL    HW2 3225   1.579   4.622   2.736
  776SOL     OW 3226   2.208   5.513   6.210
  776SOL    HW1 3227   2.131   5.576   6.205
  776SOL    HW2 3228   2.175   5.419   6.218
  777SOL     OW 3229   2.159   3.688   6.331
  777SOL    HW1 3230   2.225   3.628   6.286
  777SOL    HW2 3231   2.156   3.667   6.429
  778SOL     OW 3232   3.240   5.776   6.755
  778SOL    HW1 3233   3.232   5.737   6.847
  778SOL    HW2 3234   3.171   5.734   6.696
  779SOL     OW 3235   6.182   2.144   2.775
  779SOL    HW1 3236   6.145   2.235   2.792
  779SOL    HW2 3237   6.250   2.148   2.702
  780SOL     OW 3238   0.025   2.429   4.104
  780SOL    HW1 3239   0.001   2.525   4.087
  780SOL    HW2 3240   6.959   2.375   4.110
  781SOL     OW 3241   0.622   4.314   6.750
  781SOL    HW1 3242   0.629   4.350   6.657
  781SOL    HW2 3243   0.709   4.330   6.798
  782SOL     OW 3244   2.069   3.943   5.401
  782SOL    HW1 3245   2.131   3.938   5.479
  782SOL    HW2 3246   2.111   3.899   5.322
  783SOL     OW 3247   6.465   5.024   6.854
  783SOL    HW1 3248   6.524   4.998   6.931
  783SOL    HW2 3249   6.385   4.963   6.852
  784SOL     OW 3250   1.994   5.996   0.779
  784SOL    HW1 3251   1.994   6.072   0.713
  784SOL    HW2 3252   2.086   5.956   0.782
  785SOL     OW 3253   0.229   0.785   4.325
  785SOL    HW1 3254   0.175   0.703   4.306
  785SOL    HW2 3255   0.280   0.772   4.410
  786SOL     OW 3256   5.987   0.834   4.198
  786SOL    HW1 3257   5.913   0.771   4.221
  786SOL    HW2 3258   6.059   0.827   4.267
  787SOL     OW 3259   1.814   6.496   1.205
  787SOL    HW1 3260   1.817   6.459   1.298
  787SOL    HW2 3261   1.722   6.484   1.167
  788SOL     OW 3262   2.120   2.937   2.159
  788SOL    HW1 3263   2.182   2.914   2.234
  788SOL    HW2 3264   2.152   2.893   2.075
  789SOL     OW 3265   4.083   4.809   2.789
  789SOL    HW1 3266   4.113   4.769   2.876
  789SOL    HW2 3267   4.103   4.747   2.714
  790SOL     OW 3268   0.586   2.984   2.398
  790SOL    HW1 3269   0.589   2.940   2.488
  790SOL    HW2 3270   0.513   3.052   2.396
  791SOL     OW 3271   3.202   0.231   3.881
  791SOL    HW1 3272   3.131   0.300   3.865
  791SOL    HW2 3273   3.277   0.272   3.932
  792SOL     OW 3274   2.547   0.461   0.743
  792SOL    HW1 3275   2.546   0.385   0.677
  792SOL    HW2 3276   2.480   0.530   0.715
  793SOL     OW 3277   2.291   6.260   4.653
  793SOL    HW1 3278   2.323   6.166   4.658
  793SOL    HW2 3279   2.200   6.262   4.612
  794SOL     OW 3280   2.920   3.537   2.620
  794SOL    HW1 3281   2.895   3.440   2.625
  794SOL    HW2 3282   2.859   3.590   2.679
  795SOL     OW 3283   5.045   1.087   5.198
  795SOL    HW1 3284   5.114   1.063   5.266
  795SOL    HW2 3285   5.060   1.034   5.115
  796SOL     OW 3286   0.755   1.825   6.988
  796SOL    HW1 3287   0.800   1.914   6.986
  796SOL    HW2 3288   0.689   1.823   0.044
  797SOL     OW 3289   3.495   6.496   1.268
  797SOL    HW1 3290   3.421   6.561   1.289
  797SOL    HW2 3291   3.456   6.409   1.238
  798SOL     OW 3292   5.177   4.391   1.407
  798SOL    HW1 3293   5.103   4.412   1.471
  798SOL    HW2 3294   5.225   4.475   1.384
  799SOL     OW 3295   2.920   2.750   5.746
  799SOL    HW1 3296   2.984   2.789   5.679
  799SOL    HW2 3297   2.870   2.824   5.791
  800SOL     OW 3298   5.767   3.122   3.553
  800SOL    HW1 3299   5.736   3.049   3.613
  800SOL    HW2 3300   5.858   3.152   3.580
  801SOL     OW 3301   1.826   6.058   6.497
  801SOL    HW1 3302   1.737   6.015   6.512
  801SOL    HW2 3303   1.896   5.987   6.489
  802SOL     OW 3304   4.270   2.573   6.532
  802SOL    HW1 3305   4.359   2.557   6.574
  802SOL    HW2 3306   4.225   2.485   6.513
  803SOL     OW 3307   2.390   2.038   3.899
  803SOL    HW1 3308   2.360   2.068   3.989
  803SOL    HW2 3309   2.313   2.041   3.835
  804SOL     OW 3310   5.002   0.132   2.912
  804SOL    HW1 3311   4.961   0.202   2.970
  804SOL    HW2 3312   5.083   0.170   2.867
  805SOL     OW 3313   3.486   0.820   3.873
  805SOL    HW1 3314   3.518   0.900   3.823
  805SOL    HW2 3315   3.488   0.739   3.813
  806SOL     OW 3316   3.161   6.549   5.444
  806SOL    HW1 3317   3.096   6.559   5.368
  806SOL    HW2 3318   3.247   6.593   5.421
  807SOL     OW 3319   0.987   5.880   5.845
  807SOL    HW1 3320   0.985   5.942   5.923
  807SOL    HW2 3321   0.908   5.818   5.850
  808SOL     OW 3322   5.197   2.756   6.230
  808SOL    HW1 3323   5.107   2.745   6.188
  808SOL    HW2 3324   5.265   2.708   6.175
  809SOL     OW 3325   3.036   5.775   6.566
  809SOL    HW1 3326   2.948   5.729   6.578
  809SOL    HW2 3327   3.021   5.871   6.544
  810SOL     OW 3328   3.208   3.954   0.241
  810SOL    HW1 3329   3.272   4.014   0.194
  810SOL    HW2 3330   3.257   3.901   0.310
  811SOL     OW 3331   5.872   5.653   4.417
  811SOL    HW1 3332   5.914   5.716   4.483
  811SOL    HW2 3333   5.788   5.693   4.381
  812SOL     OW 3334   1.024   3.222   1.425
  812SOL    HW1 3335   0.963   3.262   1.356
  812SOL    HW2 3336   1.110   3.273   1.428
  813SOL     OW 3337   1.850   1.327   4.761
  813SOL    HW1 3338   1.899   1.240   4.773
  813SOL    HW2 3339   1.828   1.340   4.665
  814SOL     OW 3340   0.762   4.222   2.072
  814SOL    HW1 3341   0.718   4.137   2.102
  814SOL    HW2 3342   0.699   4.274   2.015
  815SOL     OW 3343   4.900   3.024   4.764
  815SOL    HW1 3344   4.827   2.993   4.825
  815SOL    HW2 3345   4.976   2.960   4.768
  816SOL     OW 3346   4.917   3.782   6.658
  816SOL    HW1 3347   4.916   3.762   6.560
  816SOL    HW2 3348   4.910   3.881   6.672
  817SOL     OW 3349   0.032   4.754   6.340
  817SOL    HW1 3350   7.004   4.764   6.428
  817SOL    HW2 3351   0.003   4.668   6.297
  818SOL     OW 3352   0.203   1.443   5.127
  818SOL    HW1 3353   0.163   1.371   5.070
  818SOL    HW2 3354   0.299   1.455   5.103
  819SOL     OW 3355   5.109   2.940   1.604
  819SOL    HW1 3356   5.010   2.943   1.618
  819SOL    HW2 3357   5.150   2.882   1.674
  820SOL     OW 3358   2.547   1.916   5.130
  820SOL    HW1 3359   2.551   1.930   5.031
  820SOL    HW2 3360   2.569   2.001   5.177
  821SOL     OW 3361   5.063   3.879   6.987
  821SOL    HW1 3362   5.041   3.782   6.983
  821SOL    HW2 3363   4.987   3.928   0.012
  822SOL     OW 3364   6.968   4.868   3.511
  822SOL    HW1 3365   6.977   4.908   3.420
  822SOL    HW2 3366   0.021   4.905   3.571
  823SOL     OW 3367   1.882   2.612   4.607
  823SOL    HW1 3368   1.896   2.666   4.525
  823SOL    HW2 3369   1.953   2.633   4.674
  824SOL     OW 3370   4.963   0.133   6.781
  824SOL    HW1 3371   4.986   0.216   6.831
  824SOL    HW2 3372   4.866   0.132   6.760
  825SOL     OW 3373   6.092   5.858   0.501
  825SOL    HW1 3374   6.038   5.878   0.583
  825SOL    HW2 3375   6.081   5.932   0.435
  826SOL     OW 3376   3.927   1.667   0.355
  826SOL    HW1 3377   3.962   1.586   0.309
  826SOL    HW2 3378   3.949   1.749   0.302
  827SOL     OW 3379   3.223   3.626   4.666
  827SOL    HW1 3380   3.314   3.614   4.628
  827SOL    HW2 3381   3.227   3.690   4.743
  828SOL     OW 3382   6.885   6.656   6.441
  828SOL    HW1 3383   6.899   6.638   6.344
  828SOL    HW2 3384   6.804   6.714   6.453
  829SOL     OW 3385   3.877   3.346   1.842
  829SOL    HW1 3386   3.903   3.266   1.896
  829SOL    HW2 3387   3.785   3.334   1.807
  830SOL     OW 3388   6.980   4.509   6.215
  830SOL    HW1 3389   0.026   4.441   6.180
  830SOL    HW2 3390   6.969   4.497   6.314
  831SOL     OW 3391   5.796   1.021   2.439
  831SOL    HW1 3392   5.770   1.107   2.484
  831SOL    HW2 3393   5.719   0.987   2.385
  832SOL     OW 3394   2.825   1.929   4.362
  832SOL    HW1 3395   2.871   1.895   4.280
  832SOL    HW2 3396   2.852   2.025   4.377
  833SOL     OW 3397   3.773   3.154   6.928
  833SOL    HW1 3398   3.762   3.151   6.828
  833SOL    HW2 3399   3.810   3.243   6.955
  834SOL     OW 3400   5.644   2.936   0.396
  834SOL    HW1 3401   5.555   2.915   0.355
  834SOL    HW2 3402   5.681   3.019   0.355
  835SOL     OW 3403   6.995   0.341   4.621
  835SOL    HW1 3404   6.980   0.276   4.695
  835SOL    HW2 3405   6.910   0.389   4.599
  836SOL     OW 3406   5.332   0.580   4.731
  836SOL    HW1 3407   5.304   0.644   4.803
  836SOL    HW2 3408   5.350   0.631   4.646
  837SOL     OW 3409   1.564   0.382   6.760
  837SOL    HW1 3410   1.530   0.475   6.774
  837SOL    HW2 3411   1.647   0.368   6.813
  838SOL     OW 3412   1.777   6.237   2.799
  838SOL    HW1 3413   1.801   6.254   2.895
  838SOL    HW2 3414   1.800   6.143   2.775
  839SOL     OW 3415   1.203   2.374   0.702
  839SOL    HW1 3416   1.296   2.390   0.669
  839SOL    HW2 3417   1.188   2.275   0.713
  840SOL     OW 3418   4.354   4.881   0.742
  840SOL    HW1 3419   4.331   4.978   0.755
  840SOL    HW2 3420   4.453   4.872   0.730
  841SOL     OW 3421   2.201   5.533   6.489
  841SOL    HW1 3422   2.224   5.520   6.392
  841SOL    HW2 3423   2.237   5.456   6.542
  842SOL     OW 3424   3.949   5.938   1.018
  842SOL    HW1 3425   4.028   5.886   0.987
  842SOL    HW2 3426   3.968   6.036   1.011
  843SOL     OW 3427   1.398   0.412   1.773
  843SOL    HW1 3428   1.369   0.484   1.837
  843SOL    HW2 3429   1.484   0.372   1.805
  844SOL     OW 3430   6.952   0.211   1.633
  844SOL    HW1 3431   6.978   0.243   1.542
  844SOL    HW2 3432   6.930   0.290   1.691
  845SOL     OW 3433   3.493   1.547   2.689
  845SOL    HW1 3434   3.430   1.563   2.765
  845SOL    HW2 3435   3.441   1.520   2.608
  846SOL     OW 3436   2.349   2.176   0.445
  846SOL    HW1 3437   2.438   2.189   0.402
  846SOL    HW2 3438   2.338   2.080   0.471
  847SOL     OW 3439   2.664   3.545   1.562
  847SOL    HW1 3440   2.627   3.615   1.501
  847SOL    HW2 3441   2.761   3.563   1.579
  848SOL     OW 3442   6.432   6.196   0.202
  848SOL    HW1 3443   6.450   6.283   0.248
  848SOL    HW2 3444   6.407   6.127   0.270
  849SOL     OW 3445   5.732   3.121   6.942
  849SOL    HW1 3446   5.670   3.043   6.942
  849SOL    HW2 3447   5.739   3.159   6.849
  850SOL     OW 3448   1.667   1.120   4.367
  850SOL    HW1 3449   1.752   1.113   4.314
  850SOL    HW2 3450   1.686   1.107   4.464
  851SOL     OW 3451   5.103   2.800   6.474
  851SOL    HW1 3452   5.137   2.789   6.381
  851SOL    HW2 3453   5.165   2.754   6.538
  852SOL     OW 3454   6.903   4.440   1.640
  852SOL    HW1 3455   6.926   4.371   1.708
  852SOL    HW2 3456   6.807   4.468   1.651
  853SOL     OW 3457   2.785   3.217   0.745
  853SOL    HW1 3458   2.832   3.130   0.728
  853SOL    HW2 3459   2.708   3.202   0.807
  854SOL     OW 3460   6.670   6.996   5.302
  854SOL    HW1 3461   6.610   7.002   5.223
  854SOL    HW2 3462   6.619   0.003   5.385
  855SOL     OW 3463   5.358   1.864   0.551
  855SOL    HW1 3464   5.360   1.788   0.487
  855SOL    HW2 3465   5.451   1.895   0.570
  856SOL     OW 3466   2.055   5.224   1.677
  856SOL    HW1 3467   1.971   5.171   1.669
  856SOL    HW2 3468   2.134   5.164   1.668
  857SOL     OW 3469   7.008   5.191   5.024
  857SOL    HW1 3470   6.977   5.211   5.117
  857SOL    HW2 3471   6.987   5.095   5.002
  858SOL     OW 3472   4.304   4.062   0.187
  858SOL    HW1 3473   4.206   4.048   0.184
  858SOL    HW2 3474   4.349   3.976   0.213
  859SOL     OW 3475   4.908   5.357   5.420
  859SOL    HW1 3476   4.814   5.392   5.423
  859SOL    HW2 3477   4.970   5.424   5.461
  860SOL     OW 3478   4.561   3.152   6.342
  860SOL    HW1 3479   4.465   3.175   6.359
  860SOL    HW2 3480   4.619   3.217   6.391
  861SOL     OW 3481   1.905   5.245   2.090
  861SOL    HW1 3482   1.918   5.302   2.171
  861SOL    HW2 3483   1.979   5.262   2.025
  862SOL     OW 3484   0.714   3.866   3.787
  862SOL    HW1 3485   0.795   3.830   3.833
  862SOL    HW2 3486   0.689   3.806   3.711
  863SOL     OW 3487   6.367   0.691   1.576
  863SOL    HW1 3488   6.357   0.634   1.657
  863SOL    HW2 3489   6.288   0.752   1.568
  864SOL     OW 3490   6.055   5.836   2.804
  864SOL    HW1 3491   6.034   5.784   2.887
  864SOL    HW2 3492   6.144   5.882   2.814
  865SOL     OW 3493   1.779   5.936   5.166
  865SOL    HW1 3494   1.867   5.897   5.191
  865SOL    HW2 3495   1.710   5.864   5.160
  866SOL     OW 3496   3.211   0.529   1.913
  866SOL    HW1 3497   3.256   0.439   1.916
  866SOL    HW2 3498   3.144   0.535   1.988
  867SOL     OW 3499   5.844   2.837   5.901
  867SOL    HW1 3500   5.880   2.785   5.979
  867SOL    HW2 3501   5.750   2.808   5.882
  868SOL     OW 3502   0.632   2.539   1.702
  868SOL    HW1 3503   0.667   2.621   1.658
  868SOL    HW2 3504   0.702   2.468   1.701
  869SOL     OW 3505   6.912   3.855   2.921
  869SOL    HW1 3506   6.915   3.850   3.021
  869SOL    HW2 3507   6.877   3.944   2.893
  870SOL     OW 3508   3.474   5.217   2.216
  870SOL    HW1 3509   3.462   5.118   2.214
  870SOL    HW2 3510   3.524   5.247   2.135
  871SOL     OW 3511   5.160   1.778   3.503
  871SOL    HW1 3512   5.215   1.708   3.549
  871SOL    HW2 3513   5.153   1.859   3.561
  872SOL     OW 3514   1.277   1.957   4.777
  872SOL    HW1 3515   1.366   1.919   4.801
  872SOL    HW2 3516   1.285   2.056   4.765
  873SOL     OW 3517   4.356   0.348   6.458
  873SOL    HW1 3518   4.291   0.378   6.388
  873SOL    HW2 3519   4.351   0.410   6.536
  874SOL     OW 3520   5.664   3.654   1.817
  874SOL    HW1 3521   5.607   3.608   1.749
  874SOL    HW2 3522   5.738   3.593   1.845
  875SOL     OW 3523   4.951   5.596   1.792
  875SOL    HW1 3524   4.932   5.684   1.836
  875SOL    HW2 3525   5.040   5.600   1.746
  876SOL     OW 3526   6.104   0.232   0.382
  876SOL    HW1 3527   6.071   0.195   0.295
  876SOL    HW2 3528   6.181   0.177   0.414
  877SOL     OW 3529   1.500   3.976   0.027
  877SOL    HW1 3530   1.451   3.933   0.103
  877SOL    HW2 3531   1.553   3.906   6.997
  878SOL     OW 3532   4.111   6.328   4.601
  878SOL    HW1 3533   4.135   6.389   4.677
  878SOL    HW2 3534   4.047   6.374   4.540
  879SOL     OW 3535   5.818   6.491   6.742
  879SOL    HW1 3536   5.859   6.571   6.697
  879SOL    HW2 3537   5.742   6.520   6.800
  880SOL     OW 3538   2.871   3.564   2.911
  880SOL    HW1 3539   2.909   3.656   2.904
  880SOL    HW2 3540   2.824   3.554   2.998
  881SOL     OW 3541   4.625   1.513   0.483
  881SOL    HW1 3542   4.723   1.524   0.498
  881SOL    HW2 3543   4.606   1.520   0.385
  882SOL     OW 3544   1.584   2.689   3.180
  882SOL    HW1 3545   1.573   2.768   3.120
  882SOL    HW2 3546   1.667   2.699   3.234
  883SOL     OW 3547   2.609   0.009   3.505
  883SOL    HW1 3548   2.603   0.091   3.562
  883SOL    HW2 3549   2.660   0.030   3.422
  884SOL     OW 3550   3.809   3.632   5.900
  884SOL    HW1 3551   3.709   3.622   5.893
  884SOL    HW2 3552   3.852   3.543   5.886
  885SOL     OW 3553   4.389   2.676   6.318
  885SOL    HW1 3554   4.481   2.698   6.350
  885SOL    HW2 3555   4.335   2.640   6.395
  886SOL     OW 3556   3.407   1.827   6.821
  886SOL    HW1 3557   3.409   1.911   6.766
  886SOL    HW2 3558   3.370   1.753   6.766
  887SOL     OW 3559   5.202   1.003   5.416
  887SOL    HW1 3560   5.184   1.076   5.482
  887SOL    HW2 3561   5.297   0.973   5.425
  888SOL     OW 3562   6.946   6.007   2.230
  888SOL    HW1 3563   6.886   5.952   2.288
  888SOL    HW2 3564   0.012   6.026   2.281
  889SOL     OW 3565   1.013   3.896   6.945
  889SOL    HW1 3566   0.956   3.847   6.878
  889SOL    HW2 3567   1.002   3.855   0.017
  890SOL     OW 3568   2.698   6.340   4.720
  890SOL    HW1 3569   2.728   6.253   4.758
  890SOL    HW2 3570   2.759   6.367   4.646
  891SOL     OW 3571   5.066   5.216   2.149
  891SOL    HW1 3572   5.125   5.297   2.147
  891SOL    HW2 3573   4.973   5.244   2.173
  892SOL     OW 3574   2.485   4.516   0.573
  892SOL    HW1 3575   2.528   4.602   0.544
  892SOL    HW2 3576   2.471   4.519   0.672
  893SOL     OW 3577   1.778   6.082   2.376
  893SOL    HW1 3578   1.804   6.141   2.299
  893SOL    HW2 3579   1.860   6.041   2.416
  894SOL     OW 3580   1.031   3.742   1.146
  894SOL    HW1 3581   1.091   3.665   1.168
  894SOL    HW2 3582   1.068   3.826   1.187
  895SOL     OW 3583   0.250   5.696   4.356
  895SOL    HW1 3584   0.235   5.794   4.349
  895SOL    HW2 3585   0.167   5.652   4.391
  896SOL     OW 3586   0.600   0.992   6.566
  896SOL    HW1 3587   0.511   0.948   6.574
  896SOL    HW2 3588   0.648   0.956   6.486
  897SOL     OW 3589   4.808   0.881   0.308
  897SOL    HW1 3590   4.839   0.790   0.333
  897SOL    HW2 3591   4.872   0.949   0.344
  898SOL     OW 3592   3.992   0.114   3.285
  898SOL    HW1 3593   3.958   0.133   3.377
  898SOL    HW2 3594   3.982   0.017   3.265
  899SOL     OW 3595   6.842   5.815   0.141
  899SOL    HW1 3596   6.908   5.745   0.112
  899SOL    HW2 3597   6.882   5.868   0.216
  900SOL     OW 3598   5.330   5.591   0.955
  900SOL    HW1 3599   5.396   5.660   0.925
  900SOL    HW2 3600   5.264   5.573   0.882
  901SOL     OW 3601   1.131   0.543   3.035
  901SOL    HW1 3602   1.057   0.536   2.968
  901SOL    HW2 3603   1.121   0.471   3.104
  902SOL     OW 3604   6.156   2.888   1.778
  902SOL    HW1 3605   6.123   2.900   1.684
  902SOL    HW2 3606   6.197   2.797   1.787
  903SOL     OW 3607   0.196   1.723   1.144
  903SOL    HW1 3608   0.170   1.628   1.127
  903SOL    HW2 3609   0.242   1.729   1.233
  904SOL     OW 3610   2.794   1.259   2.289
  904SOL    HW1 3611   2.824   1.214   2.373
  904SOL    HW2 3612   2.785   1.190   2.217
  905SOL     OW 3613   5.641   2.431   6.661
  905SOL    HW1 3614   5.619   2.333   6.657
  905SOL    HW2 3615   5.736   2.445   6.632
  906SOL     OW 3616   5.219   2.808   6.940
  906SOL    HW1 3617   5.132   2.776   6.903
  906SOL    HW2 3618   5.226   2.907   6.928
  907SOL     OW 3619   5.234   4.465   6.785
  907SOL    HW1 3620   5.228   4.491   6.689
  907SOL    HW2 3621   5.305   4.395   6.796
  908SOL     OW 3622   1.388   4.550   3.009
  908SOL    HW1 3623   1.459   4.599   3.060
  908SOL    HW2 3624   1.381   4.457   3.043
  909SOL     OW 3625   5.377   5.315   6.160
  909SOL    HW1 3626   5.406   5.263   6.240
  909SOL    HW2 3627   5.418   5.406   6.162
  910SOL     OW 3628   2.846   5.226   0.816
  910SOL    HW1 3629   2.936   5.247   0.855
  910SOL    HW2 3630   2.810   5.144   0.859
  911SOL     OW 3631   1.168   4.732   6.007
  911SOL    HW1 3632   1.175   4.701   5.913
  911SOL    HW2 3633   1.230   4.679   6.065
  912SOL     OW 3634   5.211   2.027   4.615
  912SOL    HW1 3635   5.210   2.039   4.516
  912SOL    HW2 3636   5.256   2.105   4.658
  913SOL     OW 3637   5.596   6.799   2.752
  913SOL    HW1 3638   5.581   6.732   2.680
  913SOL    HW2 3639   5.597   6.753   2.841
  914SOL     OW 3640   2.891   6.543   6.932
  914SOL    HW1 3641   2.794   6.552   6.913
  914SOL    HW2 3642   2.909   6.454   6.974
  915SOL     OW 3643   5.415   5.936   0.916
  915SOL    HW1 3644   5.396   5.924   1.014
  915SOL    HW2 3645   5.329   5.945   0.867
  916SOL     OW 3646   1.626   3.353   2.684
  916SOL    HW1 3647   1.632   3.453   2.683
  916SOL    HW2 3648   1.670   3.318   2.767
  917SOL     OW 3649   0.219   6.817   0.506
  917SOL    HW1 3650   0.296   6.832   0.443
  917SOL    HW2 3651   0.244   6.747   0.573
  918SOL     OW 3652   3.029   6.025   0.068
  918SOL    HW1 3653   2.992   6.097   0.127
  918SOL    HW2 3654   3.010   6.047   6.991
  919SOL     OW 3655   5.369   1.406   5.902
  919SOL    HW1 3656   5.387   1.497   5.940
  919SOL    HW2 3657   5.395   1.405   5.806
  920SOL     OW 3658   2.765   4.837   2.204
  920SOL    HW1 3659   2.714   4.880   2.278
  920SOL    HW2 3660   2.717   4.754   2.174
  921SOL     OW 3661   5.047   5.440   4.863
  921SOL    HW1 3662   4.987   5.499   4.916
  921SOL    HW2 3663   5.009   5.428   4.771
  922SOL     OW 3664   3.173   3.021   4.119
  922SOL    HW1 3665   3.246   2.957   4.139
  922SOL    HW2 3666   3.113   3.030   4.199
  923SOL     OW 3667   2.207   3.397   5.462
  923SOL    HW1 3668   2.109   3.415   5.470
  923SOL    HW2 3669   2.251   3.470   5.410
  924SOL     OW 3670   6.907   2.937   1.800
  924SOL    HW1 3671   6.869   3.004   1.864
  924SOL    HW2 3672   6.834   2.897   1.746
  925SOL     OW 3673   0.920   1.596   0.301
  925SOL    HW1 3674   0.955   1.665   0.237
  925SOL    HW2 3675   0.832   1.625   0.337
  926SOL     OW 3676   1.740   1.932   1.891
  926SOL    HW1 3677   1.710   1.860   1.828
  926SOL    HW2 3678   1.838   1.946   1.882
  927SOL     OW 3679   6.748   3.428   4.735
  927SOL    HW1 3680   6.783   3.514   4.699
  927SOL    HW2 3681   6.749   3.432   4.835
  928SOL     OW 3682   3.163   4.390   5.939
  928SOL    HW1 3683   3.191   4.333   6.017
  928SOL    HW2 3684   3.078   4.437   5.961
  929SOL     OW 3685   0.074   1.478   4.475
  929SOL    HW1 3686   0.097   1.570   4.442
  929SOL    HW2 3687   0.154   1.438   4.519
  930SOL     OW 3688   4.918   5.516   5.097
  930SOL    HW1 3689   4.956   5.474   5.180
  930SOL    HW2 3690   4.835   5.467   5.070
  931SOL     OW 3691   6.264   0.758   3.045
  931SOL    HW1 3692   6.172   0.722   3.032
  931SOL    HW2 3693   6.321   0.688   3.089
  932SOL     OW 3694   3.763   0.705   3.749
  932SOL    HW1 3695   3.700   0.643   3.797
  932SOL    HW2 3696   3.767   0.792   3.798
  933SOL     OW 3697   1.808   5.962   2.027
  933SOL    HW1 3698   1.791   5.873   2.069
  933SOL    HW2 3699   1.817   6.031   2.098
  934SOL     OW 3700   1.802   3.099   0.516
  934SOL    HW1 3701   1.897   3.120   0.491
  934SOL    HW2 3702   1.773   3.015   0.471
  935SOL     OW 3703   5.681   2.578   5.309
  935SOL    HW1 3704   5.638   2.656   5.263
  935SOL    HW2 3705   5.613   2.505   5.320
  936SOL     OW 3706   1.779   0.263   5.712
  936SOL    HW1 3707   1.711   0.190   5.714
  936SOL    HW2 3708   1.855   0.240   5.772
  937SOL     OW 3709   3.353   1.848   5.613
  937SOL    HW1 3710   3.255   1.843   5.632
  937SOL    HW2 3711   3.397   1.913   5.675
  938SOL     OW 3712   5.437   6.099   4.336
  938SOL    HW1 3713   5.433   6.176   4.400
  938SOL    HW2 3714   5.348   6.054   4.332
  939SOL     OW 3715   1.020   6.607   5.693
  939SOL    HW1 3716   1.028   6.705   5.672
  939SOL    HW2 3717   0.923   6.585   5.709
  940SOL     OW 3718   1.673   5.205   0.317
  940SOL    HW1 3719   1.730   5.206   0.399
  940SOL    HW2 3720   1.725   5.168   0.240
  941SOL     OW 3721   3.392   0.292   0.195
  941SOL    HW1 3722   3.314   0.335   0.240
  941SOL    HW2 3723   3.397   0.195   0.220
  942SOL     OW 3724   6.545   4.798   0.261
  942SOL    HW1 3725   6.537   4.698   0.259
  942SOL    HW2 3726   6.455   4.838   0.278
  943SOL     OW 3727   3.469   5.687   1.444
  943SOL    HW1 3728   3.563   5.683   1.411
  943SOL    HW2 3729   3.412   5.624   1.392
  944SOL     OW 3730   6.980   6.473   3.248
  944SOL    HW1 3731   6.910   6.505   3.184
  944SOL    HW2 3732   6.947   6.390   3.294
  945SOL     OW 3733   0.635   5.048   5.983
  945SOL    HW1 3734   0.548   5.016   5.945
  945SOL    HW2 3735   0.619   5.090   6.073
  946SOL     OW 3736   5.908   1.915   4.412
  946SOL    HW1 3737   5.981   1.966   4.367
  946SOL    HW2 3738   5.948   1.843   4.469
  947SOL     OW 3739   3.685   3.807   3.847
  947SOL    HW1 3740   3.702   3.874   3.919
  947SOL    HW2 3741   3.596   3.826   3.804
  948SOL     OW 3742   3.357   0.908   3.593
  948SOL    HW1 3743   3.366   0.808   3.596
  948SOL    HW2 3744   3.442   0.950   3.625
  949SOL     OW 3745   3.423   0.410   5.598
  949SOL    HW1 3746   3.431   0.399   5.697
  949SOL    HW2 3747   3.340   0.366   5.566
  950SOL     OW 3748   0.058   0.522   2.480
  950SOL    HW1 3749   0.084   0.523   2.576
  950SOL    HW2 3750   0.127   0.569   2.426
  951SOL     OW 3751   1.877   6.744   3.044
  951SOL    HW1 3752   1.925   6.832   3.050
  951SOL    HW2 3753   1.811   6.736   3.118
  952SOL     OW 3754   3.654   1.562   3.351
  952SOL    HW1 3755   3.726   1.526   3.291
  952SOL    HW2 3756   3.624   1.651   3.318
  953SOL     OW 3757   0.251   4.534   5.961
  953SOL    HW1 3758   0.307   4.612   5.931
  953SOL    HW2 3759   0.163   4.536   5.914
  954SOL     OW 3760   4.785   6.385   2.613
  954SOL    HW1 3761   4.784   6.441   2.531
  954SOL    HW2 3762   4.826   6.437   2.688
  955SOL     OW 3763   2.045   5.063   0.896
  955SOL    HW1 3764   1.996   5.136   0.848
  955SOL    HW2 3765   2.142   5.065   0.871
  956SOL     OW 3766   4.466   0.720   1.326
  956SOL    HW1 3767   4.546   0.761   1.282
  956SOL    HW2 3768   4.470   0.621   1.315
  957SOL     OW 3769   6.129   0.511   3.010
  957SOL    HW1 3770   6.185   0.443   3.057
  957SOL    HW2 3771   6.103   0.476   2.920
  958SOL     OW 3772   5.037   6.442   1.152
  958SOL    HW1 3773   4.978   6.362   1.141
  958SOL    HW2 3774   4.986   6.525   1.127
  959SOL     OW 3775   4.842   6.516   2.867
  959SOL    HW1 3776   4.853   6.611   2.838
  959SOL    HW2 3777   4.750   6.502   2.904
  960SOL     OW 3778   1.410   6.632   6.655
  960SOL    HW1 3779   1.463   6.704   6.700
  960SOL    HW2 3780   1.386   6.561   6.721
  961SOL     OW 3781   3.722   1.233   3.210
  961SOL    HW1 3782   3.700   1.191   3.298
  961SOL    HW2 3783   3.772   1.318   3.226
  962SOL     OW 3784   0.406   0.358   4.855
  962SOL    HW1 3785   0.307   0.371   4.865
  962SOL    HW2 3786   0.446   0.440   4.814
  963SOL     OW 3787   5.958   2.904   1.105
  963SOL    HW1 3788   5.861   2.899   1.131
  963SOL    HW2 3789   5.964   2.917   1.006
  964SOL     OW 3790   3.904   6.074   4.809
  964SOL    HW1 3791   3.905   6.029   4.898
  964SOL    HW2 3792   3.897   6.005   4.736
  965SOL     OW 3793   5.915   2.083   3.406
  965SOL    HW1 3794   5.816   2.081   3.387
  965SOL    HW2 3795   5.964   2.046   3.327
  966SOL     OW 3796   4.947   0.924   4.253
  966SOL    HW1 3797   5.005   1.005   4.243
  966SOL    HW2 3798   4.999   0.842   4.230
  967SOL     OW 3799   4.267   4.836   6.336
  967SOL    HW1 3800   4.255   4.750   6.386
  967SOL    HW2 3801   4.357   4.837   6.294
  968SOL     OW 3802   3.488   0.564   1.591
  968SOL    HW1 3803   3.461   0.476   1.630
  968SOL    HW2 3804   3.575   0.554   1.544
  969SOL     OW 3805   2.929   3.911   6.340
  969SOL    HW1 3806   2.936   3.829   6.283
  969SOL    HW2 3807   2.841   3.956   6.322
  970SOL     OW 3808   5.134   6.436   5.946
  970SOL    HW1 3809   5.111   6.531   5.969
  970SOL    HW2 3810   5.149   6.384   6.030
  971SOL     OW 3811   5.484   3.496   3.342
  971SOL    HW1 3812   5.554   3.501   3.272
  971SOL    HW2 3813   5.500   3.567   3.411
  972SOL     OW 3814   0.449   2.839   0.730
  972SOL    HW1 3815   0.411   2.765   0.675
  972SOL    HW2 3816   0.466   2.807   0.823
  973SOL     OW 3817   0.379   2.754   5.352
  973SOL    HW1 3818   0.352   2.714   5.265
  973SOL    HW2 3819   0.479   2.753   5.359
  974SOL     OW 3820   0.846   4.406   2.259
  974SOL    HW1 3821   0.884   4.482   2.206
  974SOL    HW2 3822   0.818   4.332   2.198
  975SOL     OW 3823   2.878   0.515   2.669
  975SOL    HW1 3824   2.879   0.601   2.720
  975SOL    HW2 3825   2.801   0.459   2.699
  976SOL     OW 3826   6.742   3.030   3.539
  976SOL    HW1 3827   6.739   3.128   3.561
  976SOL    HW2 3828   6.821   3.011   3.481
  977SOL     OW 3829   6.318   1.529   1.822
  977SOL    HW1 3830   6.394   1.465   1.818
  977SOL    HW2 3831   6.282   1.544   1.730
  978SOL     OW 3832   5.377   2.941   1.229
  978SOL    HW1 3833   5.445   3.015   1.229
  978SOL    HW2 3834   5.401   2.874   1.299
  979SOL     OW 3835   0.362   4.427   6.618
  979SOL    HW1 3836   0.290   4.367   6.655
  979SOL    HW2 3837   0.448   4.376   6.612
  980SOL     OW 3838   4.327   1.161   4.694
  980SOL    HW1 3839   4.348   1.258   4.697
  980SOL    HW2 3840   4.408   1.108   4.717
  981SOL     OW 3841   0.750   6.429   5.294
  981SOL    HW1 3842   0.830   6.444   5.352
  981SOL    HW2 3843   0.729   6.514   5.245
  982SOL     OW 3844   6.604   1.289   6.176
  982SOL    HW1 3845   6.674   1.331   6.119
  982SOL    HW2 3846   6.544   1.360   6.212
  983SOL     OW 3847   0.820   4.451   3.087
  983SOL    HW1 3848   0.805   4.363   3.042
  983SOL    HW2 3849   0.895   4.499   3.041
  984SOL     OW 3850   0.517   3.626   3.794
  984SOL    HW1 3851   0.453   3.550   3.778
  984SOL    HW2 3852   0.593   3.620   3.730
  985SOL     OW 3853   6.239   5.467   5.020
  985SOL    HW1 3854   6.179   5.415   4.960
  985SOL    HW2 3855   6.321   5.495   4.970
  986SOL     OW 3856   4.464   5.388   1.324
  986SOL    HW1 3857   4.465   5.401   1.225
  986SOL    HW2 3858   4.369   5.380   1.355
  987SOL     OW 3859   4.918   4.663   4.931
  987SOL    HW1 3860   4.970   4.715   4.999
  987SOL    HW2 3861   4.979   4.602   4.881
  988SOL     OW 3862   2.625   4.617   2.140
  988SOL    HW1 3863   2.637   4.545   2.210
  988SOL    HW2 3864   2.670   4.588   2.055
  989SOL     OW 3865   1.090   2.375   1.078
  989SOL    HW1 3866   1.163   2.432   1.041
  989SOL    HW2 3867   1.048   2.322   1.005
  990SOL     OW 3868   3.842   6.754   4.503
  990SOL    HW1 3869   3.775   6.775   4.432
  990SOL    HW2 3870   3.804   6.777   4.593
  991SOL     OW 3871   0.855   5.665   4.036
  991SOL    HW1 3872   0.760   5.685   4.011
  991SOL    HW2 3873   0.903   5.750   4.057
  992SOL     OW 3874   6.986   2.498   6.803
  992SOL    HW1 3875   6.993   2.411   6.851
  992SOL    HW2 3876   6.918   2.556   6.848
  993SOL     OW 3877   1.488   4.959   0.022
  993SOL    HW1 3878   1.443   5.048   0.033
  993SOL    HW2 3879   1.421   4.886   0.035
  994SOL     OW 3880   3.395   6.578   0.427
  994SOL    HW1 3881   3.361   6.600   0.519
  994SOL    HW2 3882   3.338   6.504   0.388
  995SOL     OW 3883   6.203   3.725   5.789
  995SOL    HW1 3884   6.282   3.783   5.810
  995SOL    HW2 3885   6.119   3.773   5.815
  996SOL     OW 3886   4.351   6.612   4.589
  996SOL    HW1 3887   4.438   6.594   4.634
  996SOL    HW2 3888   4.276   6.579   4.647
  997SOL     OW 3889   1.347   6.580   3.330
  997SOL    HW1 3890   1.356   6.480   3.332
  997SOL    HW2 3891   1.370   6.617   3.420
  998SOL     OW 3892   4.627   0.290   6.498
  998SOL    HW1 3893   4.530   0.306   6.481
  998SOL    HW2 3894   4.645   0.192   6.505
  999SOL     OW 3895   5.300   3.114   2.904
  999SOL    HW1 3896   5.384   3.091   2.952
  999SOL    HW2 3897   5.277   3.210   2.921
 1000SOL     OW 3898   5.336   1.773   1.769
 1000SOL    HW1 3899   5.265   1.837   1.799
 1000SOL    HW2 3900   5.338   1.771   1.669
 1001SOL     OW 3901   2.885   6.809   2.512
 1001SOL    HW1 3902   2.815   6.866   2.470
 1001SOL    HW2 3903   2.853   6.775   2.600
 1002SOL     OW 3904   4.212   2.757   1.121
 1002SOL    HW1 3905   4.161   2.840   1.100
 1002SOL    HW2 3906   4.148   2.682   1.140
 1003SOL     OW 3907   1.334   0.296   2.876
 1003SOL    HW1 3908   1.417   0.346   2.850
 1003SOL    HW2 3909   1.348   0.254   2.966
 1004SOL     OW 3910   4.915   1.232   4.567
 1004SOL    HW1 3911   4.884   1.166   4.635
 1004SOL    HW2 3912   4.987   1.191   4.511
 1005SOL     OW 3913   0.823   5.321   2.157
 1005SOL    HW1 3914   0.763   5.249   2.193
 1005SOL    HW2 3915   0.773   5.376   2.090
 1006SOL     OW 3916   2.225   4.067   1.710
 1006SOL    HW1 3917   2.293   4.034   1.644
 1006SOL    HW2 3918   2.178   3.989   1.751
 1007SOL     OW 3919   4.774   0.446   6.089
 1007SOL    HW1 3920   4.716   0.475   6.013
 1007SOL    HW2 3921   4.868   0.476   6.072
 1008SOL     OW 3922   0.581   5.237   4.938
 1008SOL    HW1 3923   0.575   5.261   4.841
 1008SOL    HW2 3924   0.528   5.154   4.955
 1009SOL     OW 3925   6.527   5.874   6.144
 1009SOL    HW1 3926   6.624   5.896   6.128
 1009SOL    HW2 3927   6.471   5.954   6.121
 1010SOL     OW 3928   3.175   3.783   0.561
 1010SOL    HW1 3929   3.196   3.714   0.630
 1010SOL    HW2 3930   3.122   3.741   0.487
 1011SOL     OW 3931   6.731   4.860   3.012
 1011SOL    HW1 3932   6.734   4.762   2.992
 1011SOL    HW2 3933   6.713   4.873   3.110
 1012SOL     OW 3934   5.586   6.421   2.764
 1012SOL    HW1 3935   5.632   6.489   2.821
 1012SOL    HW2 3936   5.541   6.353   2.823
 1013SOL     OW 3937   0.066   6.750   6.026
 1013SOL    HW1 3938   0.148   6.791   6.066
 1013SOL    HW2 3939   0.048   6.662   6.070
 1014SOL     OW 3940   1.011   4.830   4.817
 1014SOL    HW1 3941   1.084   4.873   4.870
 1014SOL    HW2 3942   0.950   4.780   4.879
 1015SOL     OW 3943   1.948   6.389   0.397
 1015SOL    HW1 3944   1.970   6.439   0.313
 1015SOL    HW2 3945   1.852   6.406   0.421
 1016SOL     OW 3946   6.993   3.778   0.723
 1016SOL    HW1 3947   0.048   3.801   0.787
 1016SOL    HW2 3948   6.996   3.679   0.705
 1017SOL     OW 3949   2.528   1.317   2.533
 1017SOL    HW1 3950   2.472   1.382   2.584
 1017SOL    HW2 3951   2.576   1.364   2.459
 1018SOL     OW 3952   6.022   6.341   4.140
 1018SOL    HW1 3953   6.064   6.374   4.224
 1018SOL    HW2 3954   6.078   6.267   4.101
 1019SOL     OW 3955   6.361   4.240   0.984
 1019SOL    HW1 3956   6.451   4.197   0.996
 1019SOL    HW2 3957   6.369   4.338   1.000
 1020SOL     OW 3958   5.106   1.019   0.969
 1020SOL    HW1 3959   5.166   0.987   0.896
 1020SOL    HW2 3960   5.116   1.118   0.980
 1021SOL     OW 3961   0.758   6.671   1.183
 1021SOL    HW1 3962   0.697   6.610   1.133
 1021SOL    HW2 3963   0.824   6.617   1.235
 1022SOL     OW 3964   2.601   5.502   6.375
 1022SOL    HW1 3965   2.517   5.449   6.388
 1022SOL    HW2 3966   2.628   5.499   6.279
 1023SOL     OW 3967   0.818   1.698   2.489
 1023SOL    HW1 3968   0.895   1.635   2.504
 1023SOL    HW2 3969   0.810   1.759   2.567
 1024SOL     OW 3970   1.361   2.268   4.092
 1024SOL    HW1 3971   1.429   2.318   4.038
 1024SOL    HW2 3972   1.336   2.183   4.045
 1025SOL     OW 3973   4.917   4.674   0.661
 1025SOL    HW1 3974   4.819   4.659   0.672
 1025SOL    HW2 3975   4.949   4.626   0.579
 1026SOL     OW 3976   2.855   2.860   1.644
 1026SOL    HW1 3977   2.954   2.867   1.646
 1026SOL    HW2 3978   2.816   2.931   1.703
 1027SOL     OW 3979   6.980   6.635   0.055
 1027SOL    HW1 3980   7.015   6.661   0.145
 1027SOL    HW2 3981   6.957   6.537   0.055
 1028SOL     OW 3982   1.213   6.090   2.778
 1028SOL    HW1 3983   1.256   6.085   2.868
 1028SOL    HW2 3984   1.274   6.136   2.714
 1029SOL     OW 3985   1.361   0.925   5.396
 1029SOL    HW1 3986   1.309   1.010   5.409
 1029SOL    HW2 3987   1.353   0.895   5.301
 1030SOL     OW 3988   3.731   3.538   0.930
 1030SOL    HW1 3989   3.807   3.580   0.980
 1030SOL    HW2 3990   3.763   3.456   0.884
 1031SOL     OW 3991   3.911   3.563   0.567
 1031SOL    HW1 3992   3.945   3.640   0.621
 1031SOL    HW2 3993   3.812   3.556   0.577
 1032SOL     OW 3994   1.908   1.549   0.628
 1032SOL    HW1 3995   1.959   1.463   0.638
 1032SOL    HW2 3996   1.966   1.626   0.655
 1033SOL     OW 3997   0.264   0.963   1.967
 1033SOL    HW1 3998   0.260   0.911   1.881
 1033SOL    HW2 3999   0.189   1.030   1.969
 1034SOL     OW 4000   3.543   1.249   4.999
 1034SOL    HW1 4001   3.484   1.329   4.984
 1034SOL    HW2 4002   3.529   1.214   5.091
 1035SOL     OW 4003   1.593   0.785   0.390
 1035SOL    HW1 4004   1.681   0.751   0.356
 1035SOL    HW2 4005   1.537   0.816   0.313
 1036SOL     OW 4006   4.481   1.341   1.722
 1036SOL    HW1 4007   4.571   1.383   1.717
 1036SOL    HW2 4008   4.416   1.395   1.667
 1037SOL     OW 4009   1.609   3.797   2.163
 1037SOL    HW1 4010   1.602   3.697   2.163
 1037SOL    HW2 4011   1.569   3.834   2.079
 1038SOL     OW 4012   1.938   5.831   0.325
 1038SOL    HW1 4013   1.882   5.756   0.361
 1038SOL    HW2 4014   1.966   5.809   0.231
 1039SOL     OW 4015   3.196   3.666   2.994
 1039SOL    HW1 4016   3.109   3.702   2.960
 1039SOL    HW2 4017   3.193   3.662   3.094
 1040SOL     OW 4018   3.692   1.823   3.262
 1040SOL    HW1 4019   3.746   1.780   3.190
 1040SOL    HW2 4020   3.727   1.915   3.280
 1041SOL     OW 4021   6.335   6.455   6.857
 1041SOL    HW1 4022   6.428   6.418   6.849
 1041SOL    HW2 4023   6.334   6.533   6.918
 1042SOL     OW 4024   5.585   4.413   3.290
 1042SOL    HW1 4025   5.519   4.386   3.361
 1042SOL    HW2 4026   5.622   4.332   3.246
 1043SOL     OW 4027   2.659   1.757   3.957
 1043SOL    HW1 4028   2.685   1.661   3.944
 1043SOL    HW2 4029   2.588   1.763   4.027
 1044SOL     OW 4030   6.116   4.839   1.904
 1044SOL    HW1 4031   6.053   4.775   1.858
 1044SOL    HW2 4032   6.209   4.823   1.870
 1045SOL     OW 4033   2.204   0.647   2.021
 1045SOL    HW1 4034   2.252   0.657   1.934
 1045SOL    HW2 4035   2.132   0.716   2.028
 1046SOL     OW 4036   2.931   2.191   1.392
 1046SOL    HW1 4037   2.990   2.126   1.441
 1046SOL    HW2 4038   2.978   2.223   1.310
 1047SOL     OW 4039   3.622   0.321   3.259
 1047SOL    HW1 4040   3.649   0.402   3.208
 1047SOL    HW2 4041   3.561   0.265   3.203
 1048SOL     OW 4042   0.848   0.342   1.955
 1048SOL    HW1 4043   0.853   0.255   2.003
 1048SOL    HW2 4044   0.759   0.384   1.971
 1049SOL     OW 4045   4.260   6.887   6.360
 1049SOL    HW1 4046   4.290   6.982   6.361
 1049SOL    HW2 4047   4.293   6.840   6.442
 1050SOL     OW 4048   3.422   0.334   4.007
 1050SOL    HW1 4049   3.441   0.414   4.064
 1050SOL    HW2 4050   3.508   0.287   3.988
 1051SOL     OW 4051   1.848   1.335   5.074
 1051SOL    HW1 4052   1.748   1.342   5.066
 1051SOL    HW2 4053   1.883   1.276   5.002
 1052SOL     OW 4054   3.751   1.418   0.510
 1052SOL    HW1 4055   3.749   1.482   0.433
 1052SOL    HW2 4056   3.685   1.345   0.495
 1053SOL     OW 4057   5.361   2.236   4.737
 1053SOL    HW1 4058   5.427   2.198   4.801
 1053SOL    HW2 4059   5.294   2.291   4.787
 1054SOL     OW 4060   3.998   5.137   6.234
 1054SOL    HW1 4061   3.982   5.083   6.151
 1054SOL    HW2 4062   3.998   5.235   6.210
 1055SOL     OW 4063   4.839   5.474   6.526
 1055SOL    HW1 4064   4.797   5.502   6.440
 1055SOL    HW2 4065   4.768   5.444   6.590
 1056SOL     OW 4066   3.397   3.598   6.622
 1056SOL    HW1 4067   3.423   3.515   6.671
 1056SOL    HW2 4068   3.379   3.672   6.687
 1057SOL     OW 4069   3.138   2.902   0.098
 1057SOL    HW1 4070   3.131   2.885   7.018
 1057SOL    HW2 4071   3.149   3.000   0.113
 1058SOL     OW 4072   3.017   2.123   2.134
 1058SOL    HW1 4073   2.963   2.198   2.096
 1058SOL    HW2 4074   3.104   2.117   2.085
 1059SOL     OW 4075   2.457   6.158   2.138
 1059SOL    HW1 4076   2.557   6.154   2.137
 1059SOL    HW2 4077   2.420   6.082   2.086
 1060SOL     OW 4078   6.188   0.854   5.272
 1060SOL    HW1 4079   6.192   0.843   5.172
 1060SOL    HW2 4080   6.228   0.773   5.315
 1061SOL     OW 4081   0.674   3.648   5.963
 1061SOL    HW1 4082   0.718   3.693   5.886
 1061SOL    HW2 4083   0.576   3.668   5.961
 1062SOL     OW 4084   3.197   5.244   4.483
 1062SOL    HW1 4085   3.203   5.148   4.457
 1062SOL    HW2 4086   3.149   5.252   4.571
 1063SOL     OW 4087   3.214   6.493   4.287
 1063SOL    HW1 4088   3.269   6.489   4.370
 1063SOL    HW2 4089   3.213   6.587   4.252
 1064SOL     OW 4090   1.194   3.019   0.359
 1064SOL    HW1 4091   1.197   3.087   0.433
 1064SOL    HW2 4092   1.113   2.961   0.371
 1065SOL     OW 4093   6.077   1.075   4.591
 1065SOL    HW1 4094   5.996   1.121   4.627
 1065SOL    HW2 4095   6.145   1.144   4.563
 1066SOL     OW 4096   4.931   6.590   0.607
 1066SOL    HW1 4097   4.893   6.629   0.523
 1066SOL    HW2 4098   4.861   6.591   0.679
 1067SOL     OW 4099   2.170   1.529   0.103
 1067SOL    HW1 4100   2.230   1.572   0.171
 1067SOL    HW2 4101   2.204   1.550   0.011
 1068SOL     OW 4102   6.711   2.611   1.030
 1068SOL    HW1 4103   6.711   2.699   1.078
 1068SOL    HW2 4104   6.628   2.603   0.976
 1069SOL     OW 4105   6.417   3.331   2.827
 1069SOL    HW1 4106   6.396   3.423   2.795
 1069SOL    HW2 4107   6.368   3.264   2.772
 1070SOL     OW 4108   0.829   0.779   2.024
 1070SOL    HW1 4109   0.831   0.853   1.956
 1070SOL    HW2 4110   0.875   0.809   2.107
 1071SOL     OW 4111   0.529   2.936   6.394
 1071SOL    HW1 4112   0.457   3.003   6.373
 1071SOL    HW2 4113   0.598   2.978   6.452
 1072SOL     OW 4114   1.730   1.509   2.410
 1072SOL    HW1 4115   1.792   1.586   2.426
 1072SOL    HW2 4116   1.783   1.423   2.410
 1073SOL     OW 4117   5.271   2.439   2.963
 1073SOL    HW1 4118   5.282   2.539   2.970
 1073SOL    HW2 4119   5.218   2.406   3.041
 1074SOL     OW 4120   2.893   5.057   1.560
 1074SOL    HW1 4121   2.824   5.128   1.546
 1074SOL    HW2 4122   2.874   4.980   1.499
 1075SOL     OW 4123   6.933   3.839   6.133
 1075SOL    HW1 4124   6.934   3.921   6.189
 1075SOL    HW2 4125   6.855   3.782   6.157
 1076SOL     OW 4126   1.972   4.640   5.190
 1076SOL    HW1 4127   1.999   4.566   5.128
 1076SOL    HW2 4128   1.966   4.725   5.138
 1077SOL     OW 4129   6.799   6.496   0.472
 1077SOL    HW1 4130   6.853   6.537   0.546
 1077SOL    HW2 4131   6.754   6.569   0.419
 1078SOL     OW 4132   6.497   6.269   4.545
 1078SOL    HW1 4133   6.583   6.280   4.594
 1078SOL    HW2 4134   6.476   6.353   4.496
 1079SOL     OW 4135   0.492   6.696   1.438
 1079SOL    HW1 4136   0.478   6.762   1.512
 1079SOL    HW2 4137   0.408   6.686   1.385
 1080SOL     OW 4138   3.887   6.629   0.554
 1080SOL    HW1 4139   3.895   6.628   0.454
 1080SOL    HW2 4140   3.790   6.638   0.579
 1081SOL     OW 4141   6.638   6.362   3.413
 1081SOL    HW1 4142   6.665   6.355   3.509
 1081SOL    HW2 4143   6.664   6.279   3.365
 1082SOL     OW 4144   3.872   0.088   0.533
 1082SOL    HW1 4145   3.844   0.030   0.609
 1082SOL    HW2 4146   3.829   0.057   0.448
 1083SOL     OW 4147   5.812   4.011   2.030
 1083SOL    HW1 4148   5.883   3.970   2.087
 1083SOL    HW2 4149   5.786   3.948   1.958
 1084SOL     OW 4150   5.465   0.225   5.566
 1084SOL    HW1 4151   5.438   0.168   5.643
 1084SOL    HW2 4152   5.501   0.168   5.493
 1085SOL     OW 4153   2.208   3.916   4.627
 1085SOL    HW1 4154   2.215   3.953   4.720
 1085SOL    HW2 4155   2.255   3.978   4.563
 1086SOL     OW 4156   5.213   5.387   0.460
 1086SOL    HW1 4157   5.290   5.415   0.517
 1086SOL    HW2 4158   5.215   5.438   0.374
 1087SOL     OW 4159   4.191   0.196   5.740
 1087SOL    HW1 4160   4.228   0.207   5.832
 1087SOL    HW2 4161   4.136   0.113   5.736
 1088SOL     OW 4162   6.830   5.098   4.057
 1088SOL    HW1 4163   6.897   5.056   3.996
 1088SOL    HW2 4164   6.780   5.170   4.007
 1089SOL     OW 4165   5.497   5.474   4.384
 1089SOL    HW1 4166   5.593   5.448   4.377
 1089SOL    HW2 4167   5.441   5.407   4.334
 1090SOL     OW 4168   5.790   2.105   5.052
 1090SOL    HW1 4169   5.703   2.087   5.099
 1090SOL    HW2 4170   5.856   2.143   5.117
 1091SOL     OW 4171   1.667   2.992   3.324
 1091SOL    HW1 4172   1.581   3.017   3.369
 1091SOL    HW2 4173   1.707   3.074   3.283
 1092SOL     OW 4174   0.467   6.176   0.669
 1092SOL    HW1 4175   0.442   6.089   0.712
 1092SOL    HW2 4176   0.476   6.162   0.570
 1093SOL     OW 4177   1.341   0.725   3.264
 1093SOL    HW1 4178   1.362   0.632   3.295
 1093SOL    HW2 4179   1.318   0.722   3.166
 1094SOL     OW 4180   0.246   0.037   3.104
 1094SOL    HW1 4181   0.343   0.058   3.122
 1094SOL    HW2 4182   0.238   6.961   3.074
 1095SOL     OW 4183   5.589   3.387   0.543
 1095SOL    HW1 4184   5.628   3.475   0.514
 1095SOL    HW2 4185   5.660   3.332   0.586
 1096SOL     OW 4186   1.615   5.376   1.821
 1096SOL    HW1 4187   1.657   5.294   1.859
 1096SOL    HW2 4188   1.636   5.455   1.879
 1097SOL     OW 4189   3.247   6.670   4.652
 1097SOL    HW1 4190   3.160   6.650   4.696
 1097SOL    HW2 4191   3.285   6.585   4.614
 1098SOL     OW 4192   6.936   3.825   0.448
 1098SOL    HW1 4193   6.982   3.810   0.535
 1098SOL    HW2 4194   6.942   3.922   0.424
 1099SOL     OW 4195   4.929   0.297   6.549
 1099SOL    HW1 4196   4.916   0.305   6.450
 1099SOL    HW2 4197   4.909   0.203   6.577
 1100SOL     OW 4198   4.695   1.966   4.436
 1100SOL    HW1 4199   4.627   2.011   4.379
 1100SOL    HW2 4200   4.654   1.885   4.479
 1101SOL     OW 4201   4.637   2.954   6.572
 1101SOL    HW1 4202   4.604   3.027   6.512
 1101SOL    HW2 4203   4.703   2.898   6.522
 1102SOL     OW 4204   2.825   0.547   3.334
 1102SOL    HW1 4205   2.816   0.646   3.331
 1102SOL    HW2 4206   2.878   0.516   3.254
 1103SOL     OW 4207   3.320   6.032   0.820
 1103SOL    HW1 4208   3.341   6.072   0.731
 1103SOL    HW2 4209   3.405   6.020   0.872
 1104SOL     OW 4210   6.622   2.664   3.680
 1104SOL    HW1 4211   6.606   2.727   3.756
 1104SOL    HW2 4212   6.633   2.716   3.595
 1105SOL     OW 4213   5.397   1.685   5.985
 1105SOL    HW1 4214   5.348   1.739   6.054
 1105SOL    HW2 4215   5.491   1.718   5.979
 1106SOL     OW 4216   6.254   1.657   0.884
 1106SOL    HW1 4217   6.296   1.743   0.856
 1106SOL    HW2 4218   6.168   1.645   0.835
 1107SOL     OW 4219   0.877   1.365   6.676
 1107SOL    HW1 4220   0.873   1.306   6.596
 1107SOL    HW2 4221   0.785   1.383   6.710
 1108SOL     OW 4222   2.475   0.806   4.182
 1108SOL    HW1 4223   2.429   0.872   4.242
 1108SOL    HW2 4224   2.557   0.848   4.143
 1109SOL     OW 4225   4.888   2.671   4.980
 1109SOL    HW1 4226   4.823   2.737   4.942
 1109SOL    HW2 4227   4.970   2.719   5.012
 1110SOL     OW 4228   1.975   1.292   2.128
 1110SOL    HW1 4229   1.964   1.285   2.029
 1110SOL    HW2 4230   1.917   1.224   2.173
 1111SOL     OW 4231   5.714   3.712   6.321
 1111SOL    HW1 4232   5.773   3.717   6.401
 1111SOL    HW2 4233   5.699   3.617   6.296
 1112SOL     OW 4234   5.482   0.384   2.566
 1112SOL    HW1 4235   5.502   0.422   2.656
 1112SOL    HW2 4236   5.547   0.311   2.544
 1113SOL     OW 4237   6.028   3.442   2.561
 1113SOL    HW1 4238   6.074   3.353   2.566
 1113SOL    HW2 4239   5.975   3.457   2.644
 1114SOL     OW 4240   3.797   3.999   4.756
 1114SOL    HW1 4241   3.853   3.920   4.780
 1114SOL    HW2 4242   3.781   4.054   4.838
 1115SOL     OW 4243   2.730   4.893   5.745
 1115SOL    HW1 4244   2.764   4.826   5.679
 1115SOL    HW2 4245   2.752   4.986   5.714
 1116SOL     OW 4246   4.014   0.159   0.096
 1116SOL    HW1 4247   4.033   0.096   0.021
 1116SOL    HW2 4248   3.958   0.235   0.062
 1117SOL     OW 4249   2.204   2.381   1.686
 1117SOL    HW1 4250   2.262   2.395   1.767
 1117SOL    HW2 4251   2.195   2.468   1.637
 1118SOL     OW 4252   4.273   6.149   0.013
 1118SOL    HW1 4253   4.338   6.224   0.016
 1118SOL    HW2 4254   4.196   6.173   6.972
 1119SOL     OW 4255   3.297   4.950   3.773
 1119SOL    HW1 4256   3.283   5.029   3.832
 1119SOL    HW2 4257   3.391   4.917   3.782
 1120SOL     OW 4258   6.813   3.235   1.240
 1120SOL    HW1 4259   6.894   3.197   1.285
 1120SOL    HW2 4260   6.763   3.293   1.305
 1121SOL     OW 4261   6.751   4.553   4.827
 1121SOL    HW1 4262   6.843   4.548   4.788
 1121SOL    HW2 4263   6.730   4.647   4.851
 1122SOL     OW 4264   5.898   2.038   1.854
 1122SOL    HW1 4265   5.827   2.079   1.911
 1122SOL    HW2 4266   5.970   1.999   1.912
 1123SOL     OW 4267   3.754   1.487   3.846
 1123SOL    HW1 4268   3.787   1.453   3.758
 1123SOL    HW2 4269   3.828   1.533   3.894
 1124SOL     OW 4270   2.311   2.743   4.049
 1124SOL    HW1 4271   2.215   2.769   4.055
 1124SOL    HW2 4272   2.361   2.781   4.127
 1125SOL     OW 4273   1.633   3.626   3.793
 1125SOL    HW1 4274   1.664   3.532   3.784
 1125SOL    HW2 4275   1.706   3.689   3.767
 1126SOL     OW 4276   4.219   5.097   4.461
 1126SOL    HW1 4277   4.194   5.012   4.509
 1126SOL    HW2 4278   4.318   5.099   4.448
 1127SOL     OW 4279   6.550   0.039   1.811
 1127SOL    HW1 4280   6.477   0.038   1.880
 1127SOL    HW2 4281   6.604   6.973   1.819
 1128SOL     OW 4282   4.678   1.558   4.843
 1128SOL    HW1 4283   4.660   1.574   4.940
 1128SOL    HW2 4284   4.717   1.466   4.832
 1129SOL     OW 4285   0.896   0.498   0.044
 1129SOL    HW1 4286   0.825   0.553   0.088
 1129SOL    HW2 4287   0.865   0.403   0.037
 1130SOL     OW 4288   2.370   4.588   1.941
 1130SOL    HW1 4289   2.271   4.603   1.932
 1130SOL    HW2 4290   2.391   4.551   2.031
 1131SOL     OW 4291   1.888   5.533   3.593
 1131SOL    HW1 4292   1.824   5.459   3.570
 1131SOL    HW2 4293   1.937   5.561   3.511
 1132SOL     OW 4294   1.941   1.678   2.707
 1132SOL    HW1 4295   1.950   1.677   2.607
 1132SOL    HW2 4296   2.021   1.722   2.747
 1133SOL     OW 4297   0.945   6.690   6.092
 1133SOL    HW1 4298   0.960   6.768   6.031
 1133SOL    HW2 4299   0.917   6.724   6.182
 1134SOL     OW 4300   3.610   5.783   1.714
 1134SOL    HW1 4301   3.587   5.723   1.637
 1134SOL    HW2 4302   3.617   5.877   1.682
 1135SOL     OW 4303   1.654   6.340   3.278
 1135SOL    HW1 4304   1.558   6.338   3.251
 1135SOL    HW2 4305   1.691   6.432   3.262
 1136SOL     OW 4306   1.697   5.544   2.364
 1136SOL    HW1 4307   1.655   5.604   2.432
 1136SOL    HW2 4308   1.755   5.599   2.304
 1137SOL     OW 4309   0.912   6.039   4.463
 1137SOL    HW1 4310   1.007   6.023   4.437
 1137SOL    HW2 4311   0.895   6.003   4.554
 1138SOL     OW 4312   1.736   3.985   5.128
 1138SOL    HW1 4313   1.786   4.072   5.129
 1138SOL    HW2 4314   1.701   3.967   5.036
 1139SOL     OW 4315   2.425   5.213   5.008
 1139SOL    HW1 4316   2.519   5.203   4.975
 1139SOL    HW2 4317   2.363   5.162   4.948
 1140SOL     OW 4318   2.031   2.020   1.356
 1140SOL    HW1 4319   2.113   2.000   1.409
 1140SOL    HW2 4320   2.051   2.093   1.290
 1141SOL     OW 4321   6.944   4.474   5.882
 1141SOL    HW1 4322   6.858   4.508   5.918
 1141SOL    HW2 4323   6.976   4.398   5.938
 1142SOL     OW 4324   1.574   6.359   1.935
 1142SOL    HW1 4325   1.618   6.395   2.017
 1142SOL    HW2 4326   1.502   6.422   1.905
 1143SOL     OW 4327   0.561   4.030   2.183
 1143SOL    HW1 4328   0.478   4.072   2.219
 1143SOL    HW2 4329   0.537   3.951   2.127
 1144SOL     OW 4330   5.425   4.389   0.197
 1144SOL    HW1 4331   5.525   4.386   0.202
 1144SOL    HW2 4332   5.397   4.452   0.124
 1145SOL     OW 4333   5.610   6.937   0.819
 1145SOL    HW1 4334   5.601   6.858   0.759
 1145SOL    HW2 4335   5.707   6.954   0.837
 1146SOL     OW 4336   1.025   0.987   1.202
 1146SOL    HW1 4337   0.995   0.959   1.111
 1146SOL    HW2 4338   1.023   0.907   1.263
 1147SOL     OW 4339   1.909   6.528   0.750
 1147SOL    HW1 4340   1.831   6.585   0.775
 1147SOL    HW2 4341   1.934   6.470   0.828
 1148SOL     OW 4342   4.324   5.813   3.189
 1148SOL    HW1 4343   4.357   5.801   3.283
 1148SOL    HW2 4344   4.357   5.738   3.132
 1149SOL     OW 4345   4.905   3.276   1.802
 1149SOL    HW1 4346   4.831   3.266   1.737
 1149SOL    HW2 4347   4.909   3.195   1.861
 1150SOL     OW 4348   1.449   3.427   0.529
 1150SOL    HW1 4349   1.395   3.510   0.545
 1150SOL    HW2 4350   1.454   3.374   0.614
 1151SOL     OW 4351   5.931   5.367   4.398
 1151SOL    HW1 4352   6.025   5.355   4.429
 1151SOL    HW2 4353   5.906   5.464   4.406
 1152SOL     OW 4354   3.296   6.577   6.553
 1152SOL    HW1 4355   3.206   6.572   6.597
 1152SOL    HW2 4356   3.298   6.515   6.475
 1153SOL     OW 4357   5.615   6.663   2.091
 1153SOL    HW1 4358   5.702   6.712   2.087
 1153SOL    HW2 4359   5.540   6.729   2.089
 1154SOL     OW 4360   2.597   2.701   0.427
 1154SOL    HW1 4361   2.656   2.697   0.347
 1154SOL    HW2 4362   2.620   2.781   0.482
 1155SOL     OW 4363   3.788   6.005   4.088
 1155SOL    HW1 4364   3.714   5.944   4.061
 1155SOL    HW2 4365   3.865   5.950   4.123
 1156SOL     OW 4366   2.618   1.670   2.838
 1156SOL    HW1 4367   2.650   1.589   2.789
 1156SOL    HW2 4368   2.568   1.641   2.920
 1157SOL     OW 4369   2.749   1.203   0.628
 1157SOL    HW1 4370   2.756   1.105   0.647
 1157SOL    HW2 4371   2.785   1.255   0.705
 1158SOL     OW 4372   5.928   4.309   3.201
 1158SOL    HW1 4373   5.833   4.279   3.211
 1158SOL    HW2 4374   5.988   4.246   3.251
 1159SOL     OW 4375   6.548   5.083   0.731
 1159SOL    HW1 4376   6.596   5.004   0.690
 1159SOL    HW2 4377   6.538   5.068   0.829
 1160SOL     OW 4378   5.399   2.170   0.198
 1160SOL    HW1 4379   5.329   2.101   0.217
 1160SOL    HW2 4380   5.488   2.126   0.194
 1161SOL     OW 4381   6.567   4.818   0.962
 1161SOL    HW1 4382   6.503   4.824   0.885
 1161SOL    HW2 4383   6.552   4.896   1.024
 1162SOL     OW 4384   2.961   2.265   4.638
 1162SOL    HW1 4385   3.059   2.255   4.620
 1162SOL    HW2 4386   2.945   2.263   4.736
 1163SOL     OW 4387   5.810   2.387   1.213
 1163SOL    HW1 4388   5.756   2.448   1.154
 1163SOL    HW2 4389   5.869   2.442   1.273
 1164SOL     OW 4390   4.154   2.710   6.146
 1164SOL    HW1 4391   4.237   2.669   6.184
 1164SOL    HW2 4392   4.088   2.726   6.219
 1165SOL     OW 4393   4.476   6.708   3.473
 1165SOL    HW1 4394   4.541   6.784   3.482
 1165SOL    HW2 4395   4.397   6.725   3.531
 1166SOL     OW 4396   2.867   4.715   6.428
 1166SOL    HW1 4397   2.880   4.769   6.511
 1166SOL    HW2 4398   2.788   4.750   6.377
 1167SOL     OW 4399   4.915   4.671   2.526
 1167SOL    HW1 4400   4.894   4.625   2.439
 1167SOL    HW2 4401   4.962   4.757   2.508
 1168SOL     OW 4402   6.882   0.162   2.364
 1168SOL    HW1 4403   6.966   0.108   2.370
 1168SOL    HW2 4404   6.804   0.107   2.393
 1169SOL     OW 4405   4.320   1.276   5.248
 1169SOL    HW1 4406   4.222   1.291   5.235
 1169SOL    HW2 4407   4.362   1.250   5.161
 1170SOL     OW 4408   4.817   4.920   2.893
 1170SOL    HW1 4409   4.823   4.868   2.978
 1170SOL    HW2 4410   4.909   4.946   2.863
 1171SOL     OW 4411   0.160   6.415   0.459
 1171SOL    HW1 4412   0.111   6.398   0.544
 1171SOL    HW2 4413   0.143   6.509   0.430
 1172SOL     OW 4414   6.830   3.103   6.417
 1172SOL    HW1 4415   6.869   3.123   6.507
 1172SOL    HW2 4416   6.903   3.077   6.354
 1173SOL     OW 4417   3.971   2.160   0.647
 1173SOL    HW1 4418   4.054   2.214   0.630
 1173SOL    HW2 4419   3.985   2.103   0.728
 1174SOL     OW 4420   2.043   4.492   0.530
 1174SOL    HW1 4421   1.986   4.452   0.602
 1174SOL    HW2 4422   2.135   4.509   0.565
 1175SOL     OW 4423   3.205   3.447   4.412
 1175SOL    HW1 4424   3.299   3.414   4.420
 1175SOL    HW2 4425   3.176   3.488   4.498
 1176SOL     OW 4426   5.172   3.051   6.788
 1176SOL    HW1 4427   5.187   3.132   6.732
 1176SOL    HW2 4428   5.076   3.022   6.780
 1177SOL     OW 4429   1.038   1.842   4.109
 1177SOL    HW1 4430   1.115   1.864   4.168
 1177SOL    HW2 4431   1.010   1.923   4.058
 1178SOL     OW 4432   4.289   5.863   6.945
 1178SOL    HW1 4433   4.272   5.950   6.991
 1178SOL    HW2 4434   4.209   5.804   6.956
 1179SOL     OW 4435   1.260   5.989   0.302
 1179SOL    HW1 4436   1.166   5.959   0.314
 1179SOL    HW2 4437   1.267   6.047   0.221
 1180SOL     OW 4438   3.410   6.206   0.600
 1180SOL    HW1 4439   3.412   6.228   0.502
 1180SOL    HW2 4440   3.497   6.234   0.642
 1181SOL     OW 4441   6.498   6.770   6.953
 1181SOL    HW1 4442   6.464   6.693   7.007
 1181SOL    HW2 4443   6.458   6.855   6.988
 1182SOL     OW 4444   4.575   4.851   2.234
 1182SOL    HW1 4445   4.599   4.867   2.330
 1182SOL    HW2 4446   4.567   4.753   2.217
 1183SOL     OW 4447   2.043   3.949   6.247
 1183SOL    HW1 4448   1.975   3.904   6.189
 1183SOL    HW2 4449   2.117   3.885   6.266
 1184SOL     OW 4450   0.523   0.082   5.564
 1184SOL    HW1 4451   0.545   0.103   5.659
 1184SOL    HW2 4452   0.432   0.117   5.542
 1185SOL     OW 4453   6.766   1.489   6.819
 1185SOL    HW1 4454   6.697   1.493   6.892
 1185SOL    HW2 4455   6.799   1.581   6.799
 1186SOL     OW 4456   6.017   6.436   4.631
 1186SOL    HW1 4457   5.969   6.368   4.687
 1186SOL    HW2 4458   6.072   6.495   4.690
 1187SOL     OW 4459   6.427   1.141   5.811
 1187SOL    HW1 4460   6.358   1.081   5.771
 1187SOL    HW2 4461   6.384   1.202   5.878
 1188SOL     OW 4462   2.929   0.470   6.307
 1188SOL    HW1 4463   2.848   0.472   6.365
 1188SOL    HW2 4464   2.903   0.494   6.213
 1189SOL     OW 4465   5.623   3.469   3.929
 1189SOL    HW1 4466   5.565   3.550   3.936
 1189SOL    HW2 4467   5.628   3.439   3.834
 1190SOL     OW 4468   2.369   6.230   3.801
 1190SOL    HW1 4469   2.389   6.326   3.821
 1190SOL    HW2 4470   2.400   6.174   3.878
 1191SOL     OW 4471   4.219   6.053   2.605
 1191SOL    HW1 4472   4.218   6.058   2.506
 1191SOL    HW2 4473   4.253   5.963   2.634
 1192SOL     OW 4474   5.688   5.923   3.457
 1192SOL    HW1 4475   5.631   5.871   3.393
 1192SOL    HW2 4476   5.641   5.929   3.545
 1193SOL     OW 4477   7.006   5.457   4.239
 1193SOL    HW1 4478   6.988   5.539   4.292
 1193SOL    HW2 4479   0.074   5.416   4.269
 1194SOL     OW 4480   3.758   0.277   1.484
 1194SOL    HW1 4481   3.746   0.376   1.480
 1194SOL    HW2 4482   3.695   0.233   1.421
 1195SOL     OW 4483   5.502   2.419   3.732
 1195SOL    HW1 4484   5.418   2.473   3.721
 1195SOL    HW2 4485   5.573   2.456   3.672
 1196SOL     OW 4486   6.922   6.270   5.153
 1196SOL    HW1 4487   6.948   6.190   5.099
 1196SOL    HW2 4488   6.928   6.352   5.096
 1197SOL     OW 4489   1.932   6.133   0.294
 1197SOL    HW1 4490   1.911   6.081   0.376
 1197SOL    HW2 4491   1.962   6.225   0.320
 1198SOL     OW 4492   1.611   2.684   6.874
 1198SOL    HW1 4493   1.611   2.727   6.964
 1198SOL    HW2 4494   1.558   2.599   6.879
 1199SOL     OW 4495   5.942   4.135   1.645
 1199SOL    HW1 4496   5.914   4.114   1.739
 1199SOL    HW2 4497   6.038   4.110   1.633
 1200SOL     OW 4498   2.866   3.689   2.388
 1200SOL    HW1 4499   2.819   3.765   2.433
 1200SOL    HW2 4500   2.885   3.617   2.455
 1201SOL     OW 4501   1.482   2.126   4.331
 1201SOL    HW1 4502   1.580   2.112   4.321
 1201SOL    HW2 4503   1.445   2.166   4.246
 1202SOL     OW 4504   1.204   5.567   5.493
 1202SOL    HW1 4505   1.193   5.561   5.593
 1202SOL    HW2 4506   1.277   5.506   5.464
 1203SOL     OW 4507   3.970   5.860   5.553
 1203SOL    HW1 4508   3.884   5.899   5.522
 1203SOL    HW2 4509   3.964   5.760   5.553
 1204SOL     OW 4510   2.067   6.969   2.687
 1204SOL    HW1 4511   1.973   6.977   2.655
 1204SOL    HW2 4512   2.130   6.986   2.611
 1205SOL     OW 4513   5.362   4.302   2.043
 1205SOL    HW1 4514   5.419   4.247   2.104
 1205SOL    HW2 4515   5.314   4.372   2.096
 1206SOL     OW 4516   3.309   3.766   4.923
 1206SOL    HW1 4517   3.242   3.832   4.890
 1206SOL    HW2 4518   3.402   3.801   4.909
 1207SOL     OW 4519   1.379   6.245   2.595
 1207SOL    HW1 4520   1.345   6.223   2.504
 1207SOL    HW2 4521   1.471   6.283   2.587
 1208SOL     OW 4522   3.142   3.671   5.731
 1208SOL    HW1 4523   3.209   3.638   5.665
 1208SOL    HW2 4524   3.053   3.682   5.685
 1209SOL     OW 4525   4.010   6.581   5.566
 1209SOL    HW1 4526   3.942   6.530   5.513
 1209SOL    HW2 4527   4.031   6.667   5.520
 1210SOL     OW 4528   3.358   1.059   3.303
 1210SOL    HW1 4529   3.259   1.056   3.286
 1210SOL    HW2 4530   3.374   1.063   3.401
 1211SOL     OW 4531   1.090   2.755   0.276
 1211SOL    HW1 4532   1.147   2.803   0.211
 1211SOL    HW2 4533   0.997   2.748   0.240
 1212SOL     OW 4534   1.147   0.330   6.857
 1212SOL    HW1 4535   1.094   0.377   6.927
 1212SOL    HW2 4536   1.187   0.397   6.795
 1213SOL     OW 4537   5.593   3.127   1.159
 1213SOL    HW1 4538   5.664   3.180   1.205
 1213SOL    HW2 4539   5.580   3.163   1.066
 1214SOL     OW 4540   6.822   2.593   1.703
 1214SOL    HW1 4541   6.769   2.540   1.637
 1214SOL    HW2 4542   6.905   2.628   1.659
 1215SOL     OW 4543   1.805   5.946   3.309
 1215SOL    HW1 4544   1.721   5.961   3.257
 1215SOL    HW2 4545   1.788   5.962   3.406
 1216SOL     OW 4546   3.565   6.737   1.640
 1216SOL    HW1 4547   3.491   6.674   1.620
 1216SOL    HW2 4548   3.614   6.760   1.556
 1217SOL     OW 4549   3.249   4.643   0.123
 1217SOL    HW1 4550   3.319   4.576   0.098
 1217SOL    HW2 4551   3.186   4.604   0.190
 1218SOL     OW 4552   2.023   5.226   3.585
 1218SOL    HW1 4553   1.935   5.261   3.552
 1218SOL    HW2 4554   2.009   5.174   3.669
 1219SOL     OW 4555   4.143   6.651   2.259
 1219SOL    HW1 4556   4.163   6.570   2.204
 1219SOL    HW2 4557   4.053   6.641   2.301
 1220SOL     OW 4558   1.184   4.719   2.624
 1220SOL    HW1 4559   1.211   4.630   2.590
 1220SOL    HW2 4560   1.265   4.769   2.656
 1221SOL     OW 4561   5.000   4.344   6.481
 1221SOL    HW1 4562   4.983   4.352   6.383
 1221SOL    HW2 4563   5.080   4.397   6.507
 1222SOL     OW 4564   6.768   0.579   6.189
 1222SOL    HW1 4565   6.773   0.637   6.107
 1222SOL    HW2 4566   6.673   0.574   6.220
 1223SOL     OW 4567   3.437   6.359   0.988
 1223SOL    HW1 4568   3.458   6.305   0.907
 1223SOL    HW2 4569   3.503   6.434   0.997
 1224SOL     OW 4570   2.869   0.235   2.144
 1224SOL    HW1 4571   2.801   0.308   2.141
 1224SOL    HW2 4572   2.822   0.146   2.143
 1225SOL     OW 4573   2.557   3.825   5.819
 1225SOL    HW1 4574   2.507   3.840   5.904
 1225SOL    HW2 4575   2.504   3.762   5.761
 1226SOL     OW 4576   1.857   4.662   0.809
 1226SOL    HW1 4577   1.932   4.705   0.759
 1226SOL    HW2 4578   1.770   4.689   0.768
 1227SOL     OW 4579   0.976   3.358   5.936
 1227SOL    HW1 4580   1.064   3.320   5.909
 1227SOL    HW2 4581   0.971   3.363   6.036
 1228SOL     OW 4582   3.686   1.905   6.771
 1228SOL    HW1 4583   3.732   1.925   6.857
 1228SOL    HW2 4584   3.596   1.865   6.790
 1229SOL     OW 4585   3.039   4.232   6.600
 1229SOL    HW1 4586   3.052   4.147   6.548
 1229SOL    HW2 4587   3.123   4.255   6.649
 1230SOL     OW 4588   4.628   0.602   3.604
 1230SOL    HW1 4589   4.552   0.539   3.618
 1230SOL    HW2 4590   4.593   0.695   3.589
 1231SOL     OW 4591   1.163   4.719   4.592
 1231SOL    HW1 4592   1.117   4.742   4.678
 1231SOL    HW2 4593   1.176   4.802   4.538
 1232SOL     OW 4594   1.809   2.506   4.107
 1232SOL    HW1 4595   1.882   2.463   4.159
 1232SOL    HW2 4596   1.848   2.567   4.038
 1233SOL     OW 4597   0.519   3.242   4.129
 1233SOL    HW1 4598   0.530   3.253   4.030
 1233SOL    HW2 4599   0.605   3.266   4.175
 1234SOL     OW 4600   6.550   3.692   4.227
 1234SOL    HW1 4601   6.585   3.603   4.198
 1234SOL    HW2 4602   6.547   3.695   4.327
 1235SOL     OW 4603   6.767   5.298   3.889
 1235SOL    HW1 4604   6.849   5.336   3.932
 1235SOL    HW2 4605   6.794   5.226   3.825
 1236SOL     OW 4606   5.290   0.831   6.253
 1236SOL    HW1 4607   5.318   0.800   6.162
 1236SOL    HW2 4608   5.221   0.903   6.245
 1237SOL     OW 4609   3.096   4.721   6.926
 1237SOL    HW1 4610   3.140   4.720   7.016
 1237SOL    HW2 4611   3.003   4.758   6.935
 1238SOL     OW 4612   1.314   1.856   0.937
 1238SOL    HW1 4613   1.408   1.880   0.963
 1238SOL    HW2 4614   1.252   1.930   0.965
 1239SOL     OW 4615   0.994   6.885   5.620
 1239SOL    HW1 4616   0.942   6.910   5.538
 1239SOL    HW2 4617   1.060   6.957   5.641
 1240SOL     OW 4618   4.458   6.111   2.059
 1240SOL    HW1 4619   4.495   6.201   2.035
 1240SOL    HW2 4620   4.372   6.096   2.011
 1241SOL     OW 4621   0.264   2.798   4.206
 1241SOL    HW1 4622   0.285   2.731   4.135
 1241SOL    HW2 4623   0.225   2.752   4.286
 1242SOL     OW 4624   2.300   3.436   6.295
 1242SOL    HW1 4625   2.365   3.393   6.358
 1242SOL    HW2 4626   2.221   3.375   6.283
 1243SOL     OW 4627   2.625   5.368   5.513
 1243SOL    HW1 4628   2.528   5.386   5.531
 1243SOL    HW2 4629   2.671   5.454   5.491
 1244SOL     OW 4630   0.955   0.751   2.999
 1244SOL    HW1 4631   0.953   0.851   2.995
 1244SOL    HW2 4632   0.981   0.722   3.091
 1245SOL     OW 4633   2.922   2.796   6.288
 1245SOL    HW1 4634   3.021   2.794   6.276
 1245SOL    HW2 4635   2.883   2.707   6.261
 1246SOL     OW 4636   0.936   0.145   1.185
 1246SOL    HW1 4637   0.973   0.163   1.276
 1246SOL    HW2 4638   0.840   0.118   1.193
 1247SOL     OW 4639   0.851   6.448   6.997
 1247SOL    HW1 4640   0.774   6.405   6.950
 1247SOL    HW2 4641   0.860   6.543   6.965
 1248SOL     OW 4642   2.026   6.643   3.490
 1248SOL    HW1 4643   2.014   6.711   3.562
 1248SOL    HW2 4644   2.066   6.560   3.529
 1249SOL     OW 4645   6.036   3.198   3.572
 1249SOL    HW1 4646   6.079   3.213   3.483
 1249SOL    HW2 4647   6.097   3.143   3.629
 1250SOL     OW 4648   0.441   4.032   4.552
 1250SOL    HW1 4649   0.425   4.024   4.454
 1250SOL    HW2 4650   0.539   4.048   4.569
 1251SOL     OW 4651   3.404   0.014   6.137
 1251SOL    HW1 4652   3.416   0.004   6.236
 1251SOL    HW2 4653   3.481   6.989   6.089
 1252SOL     OW 4654   3.635   3.355   6.739
 1252SOL    HW1 4655   3.648   3.274   6.682
 1252SOL    HW2 4656   3.662   3.437   6.687
 1253SOL     OW 4657   4.278   6.836   3.287
 1253SOL    HW1 4658   4.206   6.790   3.234
 1253SOL    HW2 4659   4.313   6.773   3.357
 1254SOL     OW 4660   6.575   1.970   2.471
 1254SOL    HW1 4661   6.562   2.013   2.560
 1254SOL    HW2 4662   6.631   1.887   2.481
 1255SOL     OW 4663   6.350   0.653   0.479
 1255SOL    HW1 4664   6.404   0.649   0.563
 1255SOL    HW2 4665   6.403   0.697   0.407
 1256SOL     OW 4666   4.852   2.071   4.190
 1256SOL    HW1 4667   4.759   2.056   4.225
 1256SOL    HW2 4668   4.848   2.134   4.113
 1257SOL     OW 4669   6.205   1.635   4.242
 1257SOL    HW1 4670   6.184   1.732   4.238
 1257SOL    HW2 4671   6.125   1.584   4.274
 1258SOL     OW 4672   0.206   5.791   3.641
 1258SOL    HW1 4673   0.151   5.872   3.622
 1258SOL    HW2 4674   0.292   5.818   3.683
 1259SOL     OW 4675   4.357   2.322   5.380
 1259SOL    HW1 4676   4.296   2.248   5.410
 1259SOL    HW2 4677   4.391   2.302   5.288
 1260SOL     OW 4678   0.856   1.647   5.498
 1260SOL    HW1 4679   0.796   1.584   5.546
 1260SOL    HW2 4680   0.937   1.598   5.466
 1261SOL     OW 4681   6.575   3.503   0.563
 1261SOL    HW1 4682   6.601   3.591   0.603
 1261SOL    HW2 4683   6.587   3.431   0.632
 1262SOL     OW 4684   4.895   6.068   2.477
 1262SOL    HW1 4685   4.923   6.148   2.529
 1262SOL    HW2 4686   4.944   5.988   2.510
 1263SOL     OW 4687   6.505   2.288   3.396
 1263SOL    HW1 4688   6.473   2.381   3.375
 1263SOL    HW2 4689   6.462   2.257   3.480
 1264SOL     OW 4690   1.132   3.090   5.900
 1264SOL    HW1 4691   1.119   3.064   5.995
 1264SOL    HW2 4692   1.226   3.121   5.886
 1265SOL     OW 4693   5.763   6.803   5.835
 1265SOL    HW1 4694   5.827   6.731   5.862
 1265SOL    HW2 4695   5.814   6.883   5.804
 1266SOL     OW 4696   2.198   1.035   5.564
 1266SOL    HW1 4697   2.113   1.029   5.615
 1266SOL    HW2 4698   2.205   1.125   5.521
 1267SOL     OW 4699   3.667   0.229   2.529
 1267SOL    HW1 4700   3.697   0.176   2.450
 1267SOL    HW2 4701   3.585   0.188   2.568
 1268SOL     OW 4702   4.025   2.991   5.675
 1268SOL    HW1 4703   4.109   3.041   5.696
 1268SOL    HW2 4704   4.047   2.895   5.656
 1269SOL     OW 4705   5.941   1.837   3.758
 1269SOL    HW1 4706   5.945   1.762   3.691
 1269SOL    HW2 4707   5.935   1.799   3.850
 1270SOL     OW 4708   6.204   4.932   2.906
 1270SOL    HW1 4709   6.264   4.967   2.978
 1270SOL    HW2 4710   6.138   4.868   2.945
 1271SOL     OW 4711   2.252   1.357   1.130
 1271SOL    HW1 4712   2.343   1.346   1.090
 1271SOL    HW2 4713   2.200   1.423   1.076
 1272SOL     OW 4714   6.064   1.869   0.221
 1272SOL    HW1 4715   5.971   1.873   0.184
 1272SOL    HW2 4716   6.126   1.917   0.158
 1273SOL     OW 4717   1.651   4.340   5.495
 1273SOL    HW1 4718   1.703   4.360   5.577
 1273SOL    HW2 4719   1.558   4.313   5.520
 1274SOL     OW 4720   0.178   4.634   3.605
 1274SOL    HW1 4721   0.236   4.699   3.557
 1274SOL    HW2 4722   0.083   4.664   3.600
 1275SOL     OW 4723   2.329   1.481   2.651
 1275SOL    HW1 4724   2.280   1.450   2.733
 1275SOL    HW2 4725   2.337   1.581   2.654
 1276SOL     OW 4726   5.520   4.633   3.553
 1276SOL    HW1 4727   5.598   4.610   3.612
 1276SOL    HW2 4728   5.554   4.670   3.467
 1277SOL     OW 4729   0.633   6.181   0.013
 1277SOL    HW1 4730   0.539   6.159   0.039
 1277SOL    HW2 4731   0.635   6.210   6.935
 1278SOL     OW 4732   0.567   5.780   2.782
 1278SOL    HW1 4733   0.626   5.856   2.809
 1278SOL    HW2 4734   0.623   5.704   2.748
 1279SOL     OW 4735   2.467   2.945   1.363
 1279SOL    HW1 4736   2.428   2.891   1.438
 1279SOL    HW2 4737   2.396   2.962   1.295
 1280SOL     OW 4738   2.474   2.457   4.075
 1280SOL    HW1 4739   2.418   2.538   4.092
 1280SOL    HW2 4740   2.521   2.468   3.987
 1281SOL     OW 4741   6.268   6.331   4.848
 1281SOL    HW1 4742   6.182   6.292   4.880
 1281SOL    HW2 4743   6.263   6.431   4.851
 1282SOL     OW 4744   0.531   3.045   1.133
 1282SOL    HW1 4745   0.611   3.029   1.074
 1282SOL    HW2 4746   0.561   3.052   1.228
 1283SOL     OW 4747   6.834   1.839   4.430
 1283SOL    HW1 4748   6.872   1.901   4.498
 1283SOL    HW2 4749   6.822   1.887   4.344
 1284SOL     OW 4750   3.940   2.155   2.074
 1284SOL    HW1 4751   3.909   2.106   1.992
 1284SOL    HW2 4752   3.860   2.194   2.121
 1285SOL     OW 4753   4.686   1.017   4.021
 1285SOL    HW1 4754   4.643   0.929   4.000
 1285SOL    HW2 4755   4.692   1.028   4.120
 1286SOL     OW 4756   5.210   1.291   1.049
 1286SOL    HW1 4757   5.293   1.334   1.012
 1286SOL    HW2 4758   5.205   1.308   1.147
 1287SOL     OW 4759   6.223   4.915   5.173
 1287SOL    HW1 4760   6.178   4.844   5.119
 1287SOL    HW2 4761   6.208   4.899   5.270
 1288SOL     OW 4762   4.984   4.739   0.085
 1288SOL    HW1 4763   4.927   4.782   0.156
 1288SOL    HW2 4764   5.071   4.710   0.126
 1289SOL     OW 4765   6.503   7.006   0.729
 1289SOL    HW1 4766   6.560   6.933   0.692
 1289SOL    HW2 4767   6.544   0.023   0.814
 1290SOL     OW 4768   1.272   6.597   5.556
 1290SOL    HW1 4769   1.319   6.630   5.638
 1290SOL    HW2 4770   1.195   6.538   5.583
 1291SOL     OW 4771   6.060   5.410   3.895
 1291SOL    HW1 4772   5.970   5.452   3.890
 1291SOL    HW2 4773   6.129   5.481   3.909
 1292SOL     OW 4774   0.922   0.212   2.268
 1292SOL    HW1 4775   0.995   0.279   2.262
 1292SOL    HW2 4776   0.926   0.166   2.357
 1293SOL     OW 4777   4.867   1.072   0.532
 1293SOL    HW1 4778   4.894   0.985   0.574
 1293SOL    HW2 4779   4.796   1.114   0.588
 1294SOL     OW 4780   1.911   4.868   4.809
 1294SOL    HW1 4781   1.876   4.901   4.897
 1294SOL    HW2 4782   1.976   4.793   4.826
 1295SOL     OW 4783   6.788   4.533   0.500
 1295SOL    HW1 4784   6.711   4.584   0.537
 1295SOL    HW2 4785   6.873   4.570   0.537
 1296SOL     OW 4786   4.848   6.639   6.053
 1296SOL    HW1 4787   4.796   6.560   6.019
 1296SOL    HW2 4788   4.931   6.651   5.999
 1297SOL     OW 4789   6.476   0.274   1.177
 1297SOL    HW1 4790   6.503   0.367   1.151
 1297SOL    HW2 4791   6.554   0.226   1.216
 1298SOL     OW 4792   5.269   0.748   3.002
 1298SOL    HW1 4793   5.186   0.731   2.948
 1298SOL    HW2 4794   5.327   0.666   3.000
 1299SOL     OW 4795   0.949   3.526   4.227
 1299SOL    HW1 4796   0.966   3.472   4.309
 1299SOL    HW2 4797   0.926   3.620   4.253
 1300SOL     OW 4798   0.433   5.749   1.020
 1300SOL    HW1 4799   0.506   5.747   1.089
 1300SOL    HW2 4800   0.467   5.794   0.937
 1301SOL     OW 4801   6.557   0.444   0.092
 1301SOL    HW1 4802   6.614   0.465   0.171
 1301SOL    HW2 4803   6.527   0.349   0.097
 1302SOL     OW 4804   6.348   0.138   5.198
 1302SOL    HW1 4805   6.295   0.205   5.146
 1302SOL    HW2 4806   6.429   0.182   5.236
 1303SOL     OW 4807   3.039   6.675   1.587
 1303SOL    HW1 4808   3.009   6.686   1.682
 1303SOL    HW2 4809   3.139   6.664   1.585
 1304SOL     OW 4810   0.092   0.600   0.881
 1304SOL    HW1 4811   0.085   0.633   0.976
 1304SOL    HW2 4812   0.155   0.523   0.878
 1305SOL     OW 4813   4.151   4.775   5.972
 1305SOL    HW1 4814   4.215   4.707   6.008
 1305SOL    HW2 4815   4.074   4.728   5.929
 1306SOL     OW 4816   3.032   5.886   3.937
 1306SOL    HW1 4817   3.119   5.897   3.987
 1306SOL    HW2 4818   2.981   5.971   3.939
 1307SOL     OW 4819   1.930   3.064   4.218
 1307SOL    HW1 4820   1.833   3.074   4.238
 1307SOL    HW2 4821   1.982   3.128   4.274
 1308SOL     OW 4822   6.623   3.499   6.403
 1308SOL    HW1 4823   6.682   3.543   6.470
 1308SOL    HW2 4824   6.672   3.488   6.317
 1309SOL     OW 4825   6.018   3.889   6.667
 1309SOL    HW1 4826   6.005   3.988   6.673
 1309SOL    HW2 4827   5.941   3.849   6.617
 1310SOL     OW 4828   1.605   4.539   3.234
 1310SOL    HW1 4829   1.661   4.461   3.207
 1310SOL    HW2 4830   1.642   4.622   3.192
 1311SOL     OW 4831   5.272   5.274   0.108
 1311SOL    HW1 4832   5.241   5.339   0.178
 1311SOL    HW2 4833   5.372   5.274   0.105
 1312SOL     OW 4834   2.436   1.125   6.175
 1312SOL    HW1 4835   2.505   1.108   6.104
 1312SOL    HW2 4836   2.469   1.090   6.263
 1313SOL     OW 4837   6.639   5.420   1.322
 1313SOL    HW1 4838   6.586   5.453   1.399
 1313SOL    HW2 4839   6.721   5.475   1.311
 1314SOL     OW 4840   2.307   1.545   3.982
 1314SOL    HW1 4841   2.376   1.561   3.912
 1314SOL    HW2 4842   2.220   1.520   3.939
 1315SOL     OW 4843   6.449   1.244   2.851
 1315SOL    HW1 4844   6.410   1.334   2.874
 1315SOL    HW2 4845   6.415   1.177   2.917
 1316SOL     OW 4846   5.160   6.976   6.643
 1316SOL    HW1 4847   5.257   6.999   6.637
 1316SOL    HW2 4848   5.108   0.039   6.669
 1317SOL     OW 4849   3.169   3.093   5.480
 1317SOL    HW1 4850   3.193   3.177   5.430
 1317SOL    HW2 4851   3.191   3.013   5.424
 1318SOL     OW 4852   1.884   1.421   5.973
 1318SOL    HW1 4853   1.792   1.418   5.936
 1318SOL    HW2 4854   1.949   1.446   5.901
 1319SOL     OW 4855   6.769   0.451   0.295
 1319SOL    HW1 4856   6.867   0.436   0.311
 1319SOL    HW2 4857   6.717   0.410   0.370
 1320SOL     OW 4858   3.233   3.363   6.478
 1320SOL    HW1 4859   3.198   3.377   6.386
 1320SOL    HW2 4860   3.202   3.437   6.538
 1321SOL     OW 4861   0.235   2.741   0.543
 1321SOL    HW1 4862   0.166   2.668   0.546
 1321SOL    HW2 4863   0.286   2.735   0.457
 1322SOL     OW 4864   3.971   2.472   6.908
 1322SOL    HW1 4865   4.034   2.548   6.920
 1322SOL    HW2 4866   3.999   2.396   6.968
 1323SOL     OW 4867   3.875   0.022   1.481
 1323SOL    HW1 4868   3.834   0.113   1.484
 1323SOL    HW2 4869   3.943   0.019   1.407
 1324SOL     OW 4870   2.330   4.060   5.960
 1324SOL    HW1 4871   2.347   3.985   6.025
 1324SOL    HW2 4872   2.285   4.024   5.879
 1325SOL     OW 4873   3.607   6.023   5.029
 1325SOL    HW1 4874   3.678   5.975   5.082
 1325SOL    HW2 4875   3.555   5.956   4.976
 1326SOL     OW 4876   5.275   1.685   4.820
 1326SOL    HW1 4877   5.179   1.688   4.846
 1326SOL    HW2 4878   5.309   1.591   4.828
 1327SOL     OW 4879   4.885   5.486   2.790
 1327SOL    HW1 4880   4.955   5.455   2.855
 1327SOL    HW2 4881   4.827   5.554   2.835
 1328SOL     OW 4882   2.194   2.109   6.268
 1328SOL    HW1 4883   2.104   2.151   6.262
 1328SOL    HW2 4884   2.244   2.124   6.183
 1329SOL     OW 4885   0.648   2.664   3.827
 1329SOL    HW1 4886   0.680   2.620   3.911
 1329SOL    HW2 4887   0.707   2.637   3.751
 1330SOL     OW 4888   5.972   3.245   2.869
 1330SOL    HW1 4889   5.876   3.219   2.879
 1330SOL    HW2 4890   6.009   3.203   2.786
 1331SOL     OW 4891   4.680   2.324   3.624
 1331SOL    HW1 4892   4.694   2.270   3.707
 1331SOL    HW2 4893   4.583   2.319   3.597
 1332SOL     OW 4894   1.847   5.615   0.503
 1332SOL    HW1 4895   1.848   5.638   0.601
 1332SOL    HW2 4896   1.898   5.530   0.489
 1333SOL     OW 4897   3.731   3.753   2.837
 1333SOL    HW1 4898   3.679   3.830   2.801
 1333SOL    HW2 4899   3.810   3.786   2.888
 1334SOL     OW 4900   6.888   3.253   1.670
 1334SOL    HW1 4901   6.954   3.219   1.737
 1334SOL    HW2 4902   6.891   3.353   1.668
 1335SOL     OW 4903   0.612   3.336   3.267
 1335SOL    HW1 4904   0.635   3.417   3.212
 1335SOL    HW2 4905   0.688   3.271   3.264
 1336SOL     OW 4906   2.071   0.101   5.601
 1336SOL    HW1 4907   2.127   0.173   5.642
 1336SOL    HW2 4908   1.991   0.141   5.558
 1337SOL     OW 4909   6.744   6.866   2.402
 1337SOL    HW1 4910   6.726   6.788   2.463
 1337SOL    HW2 4911   6.696   6.946   2.436
 1338SOL     OW 4912   6.518   3.851   5.223
 1338SOL    HW1 4913   6.609   3.812   5.216
 1338SOL    HW2 4914   6.467   3.803   5.295
 1339SOL     OW 4915   5.974   0.618   6.779
 1339SOL    HW1 4916   6.022   0.588   6.861
 1339SOL    HW2 4917   6.039   0.662   6.717
 1340SOL     OW 4918   3.738   3.018   1.660
 1340SOL    HW1 4919   3.821   3.036   1.608
 1340SOL    HW2 4920   3.658   3.042   1.605
 1341SOL     OW 4921   4.866   5.804   6.665
 1341SOL    HW1 4922   4.920   5.850   6.735
 1341SOL    HW2 4923   4.924   5.783   6.586
 1342SOL     OW 4924   1.564   6.222   1.402
 1342SOL    HW1 4925   1.613   6.135   1.413
 1342SOL    HW2 4926   1.616   6.295   1.447
 1343SOL     OW 4927   5.449   5.807   2.724
 1343SOL    HW1 4928   5.494   5.784   2.810
 1343SOL    HW2 4929   5.397   5.892   2.736
 1344SOL     OW 4930   0.904   0.629   4.492
 1344SOL    HW1 4931   0.965   0.624   4.414
 1344SOL    HW2 4932   0.819   0.675   4.466
 1345SOL     OW 4933   0.876   6.691   6.868
 1345SOL    HW1 4934   0.886   6.768   6.931
 1345SOL    HW2 4935   0.803   6.712   6.802
 1346SOL     OW 4936   2.984   5.184   4.150
 1346SOL    HW1 4937   2.991   5.120   4.074
 1346SOL    HW2 4938   2.959   5.135   4.233
 1347SOL     OW 4939   1.685   0.737   6.614
 1347SOL    HW1 4940   1.687   0.651   6.563
 1347SOL    HW2 4941   1.591   0.771   6.619
 1348SOL     OW 4942   0.865   6.236   4.922
 1348SOL    HW1 4943   0.803   6.179   4.867
 1348SOL    HW2 4944   0.845   6.222   5.019
 1349SOL     OW 4945   5.191   3.585   4.096
 1349SOL    HW1 4946   5.270   3.600   4.156
 1349SOL    HW2 4947   5.113   3.636   4.131
 1350SOL     OW 4948   4.523   4.655   6.997
 1350SOL    HW1 4949   4.442   4.597   7.008
 1350SOL    HW2 4950   4.605   4.598   7.005
 1351SOL     OW 4951   6.955   2.572   6.005
 1351SOL    HW1 4952   6.958   2.635   5.927
 1351SOL    HW2 4953   6.993   2.484   5.977
 1352SOL     OW 4954   0.125   0.879   3.167
 1352SOL    HW1 4955   0.217   0.843   3.154
 1352SOL    HW2 4956   0.077   0.880   3.080
 1353SOL     OW 4957   0.011   0.824   0.110
 1353SOL    HW1 4958   0.104   0.791   0.121
 1353SOL    HW2 4959   0.002   0.913   0.155
 1354SOL     OW 4960   4.877   5.161   2.447
 1354SOL    HW1 4961   4.855   5.209   2.532
 1354SOL    HW2 4962   4.888   5.227   2.373
 1355SOL     OW 4963   4.784   3.296   5.476
 1355SOL    HW1 4964   4.782   3.396   5.478
 1355SOL    HW2 4965   4.778   3.265   5.381
 1356SOL     OW 4966   2.716   3.354   0.270
 1356SOL    HW1 4967   2.716   3.454   0.269
 1356SOL    HW2 4968   2.690   3.320   0.180
 1357SOL     OW 4969   1.282   2.814   5.756
 1357SOL    HW1 4970   1.345   2.867   5.812
 1357SOL    HW2 4971   1.327   2.731   5.724
 1358SOL     OW 4972   1.946   6.693   6.977
 1358SOL    HW1 4973   1.987   6.620   6.923
 1358SOL    HW2 4974   1.912   6.765   6.916
 1359SOL     OW 4975   6.234   3.829   0.808
 1359SOL    HW1 4976   6.223   3.926   0.786
 1359SOL    HW2 4977   6.157   3.799   0.866
 1360SOL     OW 4978   2.300   2.640   0.221
 1360SOL    HW1 4979   2.354   2.720   0.247
 1360SOL    HW2 4980   2.254   2.604   0.302
 1361SOL     OW 4981   6.376   4.358   4.733
 1361SOL    HW1 4982   6.471   4.347   4.763
 1361SOL    HW2 4983   6.369   4.336   4.636
 1362SOL     OW 4984   3.026   3.764   3.320
 1362SOL    HW1 4985   3.047   3.859   3.299
 1362SOL    HW2 4986   3.109   3.717   3.350
 1363SOL     OW 4987   1.065   6.377   4.389
 1363SOL    HW1 4988   1.109   6.467   4.383
 1363SOL    HW2 4989   0.967   6.387   4.369
 1364SOL     OW 4990   4.673   4.133   0.672
 1364SOL    HW1 4991   4.745   4.070   0.699
 1364SOL    HW2 4992   4.584   4.087   0.677
 1365SOL     OW 4993   6.190   2.731   6.794
 1365SOL    HW1 4994   6.200   2.773   6.884
 1365SOL    HW2 4995   6.102   2.759   6.755
 1366SOL     OW 4996   2.518   0.197   5.698
 1366SOL    HW1 4997   2.437   0.252   5.681
 1366SOL    HW2 4998   2.582   0.206   5.623
 1367SOL     OW 4999   2.894   1.672   1.935
 1367SOL    HW1 5000   2.956   1.596   1.919
 1367SOL    HW2 5001   2.928   1.728   2.011
 1368SOL     OW 5002   6.189   6.577   3.416
 1368SOL    HW1 5003   6.270   6.533   3.376
 1368SOL    HW2 5004   6.163   6.529   3.500
 1369SOL     OW 5005   1.150   0.559   2.615
 1369SOL    HW1 5006   1.238   0.606   2.625
 1369SOL    HW2 5007   1.154   0.500   2.534
 1370SOL     OW 5008   2.774   1.195   1.913
 1370SOL    HW1 5009   2.760   1.127   1.985
 1370SOL    HW2 5010   2.722   1.278   1.937
 1371SOL     OW 5011   3.680   0.294   6.233
 1371SOL    HW1 5012   3.678   0.211   6.289
 1371SOL    HW2 5013   3.586   0.318   6.206
 1372SOL     OW 5014   2.640   2.456   1.932
 1372SOL    HW1 5015   2.663   2.524   1.863
 1372SOL    HW2 5016   2.719   2.396   1.947
 1373SOL     OW 5017   1.581   5.623   6.704
 1373SOL    HW1 5018   1.596   5.604   6.801
 1373SOL    HW2 5019   1.635   5.560   6.648
 1374SOL     OW 5020   5.250   4.175   0.246
 1374SOL    HW1 5021   5.159   4.204   0.219
 1374SOL    HW2 5022   5.315   4.249   0.229
 1375SOL     OW 5023   1.107   4.453   4.936
 1375SOL    HW1 5024   1.161   4.447   4.852
 1375SOL    HW2 5025   1.122   4.541   4.980
 1376SOL     OW 5026   4.856   0.772   2.510
 1376SOL    HW1 5027   4.803   0.689   2.529
 1376SOL    HW2 5028   4.842   0.838   2.584
 1377SOL     OW 5029   0.800   4.795   4.362
 1377SOL    HW1 5030   0.781   4.736   4.283
 1377SOL    HW2 5031   0.807   4.739   4.445
 1378SOL     OW 5032   2.111   2.726   6.814
 1378SOL    HW1 5033   2.110   2.764   6.907
 1378SOL    HW2 5034   2.026   2.749   6.768
 1379SOL     OW 5035   4.150   6.179   1.379
 1379SOL    HW1 5036   4.114   6.164   1.471
 1379SOL    HW2 5037   4.078   6.221   1.322
 1380SOL     OW 5038   5.928   5.105   2.783
 1380SOL    HW1 5039   5.959   5.196   2.809
 1380SOL    HW2 5040   5.966   5.037   2.846
 1381SOL     OW 5041   6.017   6.849   2.083
 1381SOL    HW1 5042   6.066   6.915   2.139
 1381SOL    HW2 5043   6.056   6.758   2.097
 1382SOL     OW 5044   0.320   3.965   6.296
 1382SOL    HW1 5045   0.335   3.866   6.293
 1382SOL    HW2 5046   0.392   4.011   6.245
 1383SOL     OW 5047   2.658   0.203   0.325
 1383SOL    HW1 5048   2.598   0.143   0.272
 1383SOL    HW2 5049   2.683   0.282   0.270
 1384SOL     OW 5050   1.875   2.153   2.445
 1384SOL    HW1 5051   1.939   2.087   2.485
 1384SOL    HW2 5052   1.787   2.107   2.428
 1385SOL     OW 5053   5.148   3.320   4.064
 1385SOL    HW1 5054   5.140   3.320   3.965
 1385SOL    HW2 5055   5.157   3.414   4.096
 1386SOL     OW 5056   2.145   2.812   3.715
 1386SOL    HW1 5057   2.211   2.886   3.698
 1386SOL    HW2 5058   2.194   2.727   3.733
 1387SOL     OW 5059   3.041   0.390   4.265
 1387SOL    HW1 5060   2.959   0.350   4.224
 1387SOL    HW2 5061   3.044   0.488   4.245
 1388SOL     OW 5062   5.497   1.532   3.980
 1388SOL    HW1 5063   5.414   1.502   3.934
 1388SOL    HW2 5064   5.530   1.616   3.937
 1389SOL     OW 5065   6.855   0.090   3.655
 1389SOL    HW1 5066   6.853   7.008   3.655
 1389SOL    HW2 5067   6.769   0.125   3.618
 1390SOL     OW 5068   4.611   2.570   2.887
 1390SOL    HW1 5069   4.634   2.598   2.794
 1390SOL    HW2 5070   4.643   2.639   2.952
 1391SOL     OW 5071   5.395   0.748   4.541
 1391SOL    HW1 5072   5.392   0.842   4.577
 1391SOL    HW2 5073   5.480   0.704   4.571
 1392SOL     OW 5074   4.193   6.467   5.914
 1392SOL    HW1 5075   4.158   6.439   5.824
 1392SOL    HW2 5076   4.209   6.566   5.914
 1393SOL     OW 5077   4.694   0.033   0.093
 1393SOL    HW1 5078   4.667   0.115   0.042
 1393SOL    HW2 5079   4.638   0.025   0.175
 1394SOL     OW 5080   4.156   0.225   4.080
 1394SOL    HW1 5081   4.081   0.177   4.034
 1394SOL    HW2 5082   4.139   0.324   4.078
 1395SOL     OW 5083   0.013   4.933   2.575
 1395SOL    HW1 5084   0.049   4.932   2.481
 1395SOL    HW2 5085   6.960   5.003   2.582
 1396SOL     OW 5086   0.802   1.939   3.616
 1396SOL    HW1 5087   0.801   2.034   3.584
 1396SOL    HW2 5088   0.874   1.888   3.569
 1397SOL     OW 5089   1.862   5.502   4.790
 1397SOL    HW1 5090   1.792   5.457   4.844
 1397SOL    HW2 5091   1.819   5.552   4.714
 1398SOL     OW 5092   2.222   6.978   6.599
 1398SOL    HW1 5093   2.274   6.895   6.578
 1398SOL    HW2 5094   2.265   0.007   6.676
 1399SOL     OW 5095   3.603   0.446   0.093
 1399SOL    HW1 5096   3.532   0.382   0.123
 1399SOL    HW2 5097   3.684   0.395   0.064
 1400SOL     OW 5098   0.351   0.484   5.255
 1400SOL    HW1 5099   0.368   0.460   5.351
 1400SOL    HW2 5100   0.382   0.578   5.239
 1401SOL     OW 5101   5.726   7.003   2.094
 1401SOL    HW1 5102   5.738   0.082   2.113
 1401SOL    HW2 5103   5.812   6.965   2.059
 1402SOL     OW 5104   6.391   4.768   2.222
 1402SOL    HW1 5105   6.453   4.734   2.151
 1402SOL    HW2 5106   6.308   4.804   2.180
 1403SOL     OW 5107   2.907   3.787   6.034
 1403SOL    HW1 5108   2.941   3.695   6.017
 1403SOL    HW2 5109   2.812   3.783   6.066
 1404SOL     OW 5110   3.838   6.448   0.803
 1404SOL    HW1 5111   3.754   6.472   0.755
 1404SOL    HW2 5112   3.913   6.441   0.737
 1405SOL     OW 5113   1.050   3.493   0.083
 1405SOL    HW1 5114   0.987   3.473   0.008
 1405SOL    HW2 5115   1.106   3.412   0.102
 1406SOL     OW 5116   2.426   2.417   6.763
 1406SOL    HW1 5117   2.333   2.445   6.786
 1406SOL    HW2 5118   2.482   2.497   6.742
 1407SOL     OW 5119   0.258   2.126   0.969
 1407SOL    HW1 5120   0.315   2.196   0.925
 1407SOL    HW2 5121   0.165   2.162   0.982
 1408SOL     OW 5122   5.130   6.364   0.633
 1408SOL    HW1 5123   5.062   6.436   0.646
 1408SOL    HW2 5124   5.112   6.316   0.547
 1409SOL     OW 5125   6.153   1.691   5.675
 1409SOL    HW1 5126   6.140   1.776   5.624
 1409SOL    HW2 5127   6.184   1.619   5.612
 1410SOL     OW 5128   2.989   0.995   0.352
 1410SOL    HW1 5129   2.943   1.084   0.346
 1410SOL    HW2 5130   2.933   0.932   0.405
 1411SOL     OW 5131   3.642   5.459   6.962
 1411SOL    HW1 5132   3.688   5.411   0.019
 1411SOL    HW2 5133   3.697   5.538   6.934
 1412SOL     OW 5134   2.335   2.002   6.915
 1412SOL    HW1 5135   2.282   2.026   6.833
 1412SOL    HW2 5136   2.282   1.940   6.972
 1413SOL     OW 5137   2.513   1.243   5.302
 1413SOL    HW1 5138   2.519   1.248   5.203
 1413SOL    HW2 5139   2.605   1.247   5.341
 1414SOL     OW 5140   0.112   5.018   2.075
 1414SOL    HW1 5141   0.200   4.979   2.105
 1414SOL    HW2 5142   0.067   5.061   2.152
 1415SOL     OW 5143   3.751   1.630   4.958
 1415SOL    HW1 5144   3.759   1.724   4.989
 1415SOL    HW2 5145   3.842   1.595   4.935
 1416SOL     OW 5146   4.774   0.490   4.944
 1416SOL    HW1 5147   4.743   0.578   4.981
 1416SOL    HW2 5148   4.719   0.466   4.864
 1417SOL     OW 5149   3.461   3.365   4.431
 1417SOL    HW1 5150   3.444   3.268   4.449
 1417SOL    HW2 5151   3.480   3.413   4.517
 1418SOL     OW 5152   2.915   3.591   5.009
 1418SOL    HW1 5153   2.932   3.630   5.099
 1418SOL    HW2 5154   2.871   3.659   4.951
 1419SOL     OW 5155   0.968   5.995   2.038
 1419SOL    HW1 5156   1.008   6.004   1.947
 1419SOL    HW2 5157   1.008   5.915   2.084
 1420SOL     OW 5158   2.941   6.204   2.992
 1420SOL    HW1 5159   3.011   6.266   2.957
 1420SOL    HW2 5160   2.985   6.128   3.040
 1421SOL     OW 5161   1.609   5.517   0.346
 1421SOL    HW1 5162   1.670   5.571   0.405
 1421SOL    HW2 5163   1.629   5.420   0.358
 1422SOL     OW 5164   2.001   3.759   0.017
 1422SOL    HW1 5165   2.056   3.800   6.963
 1422SOL    HW2 5166   1.971   3.831   0.080
 1423SOL     OW 5167   4.590   0.989   4.670
 1423SOL    HW1 5168   4.538   0.975   4.754
 1423SOL    HW2 5169   4.528   0.994   4.592
 1424SOL     OW 5170   6.109   2.590   1.613
 1424SOL    HW1 5171   6.170   2.659   1.653
 1424SOL    HW2 5172   6.159   2.504   1.601
 1425SOL     OW 5173   5.865   6.855   3.306
 1425SOL    HW1 5174   5.932   6.927   3.287
 1425SOL    HW2 5175   5.779   6.897   3.337
 1426SOL     OW 5176   3.781   1.246   0.894
 1426SOL    HW1 5177   3.867   1.214   0.934
 1426SOL    HW2 5178   3.782   1.228   0.795
 1427SOL     OW 5179   1.115   0.607   4.303
 1427SOL    HW1 5180   1.074   0.616   4.212
 1427SOL    HW2 5181   1.204   0.562   4.294
 1428SOL     OW 5182   2.142   3.835   3.674
 1428SOL    HW1 5183   2.182   3.792   3.754
 1428SOL    HW2 5184   2.175   3.929   3.666
 1429SOL     OW 5185   6.057   0.248   2.219
 1429SOL    HW1 5186   6.004   0.268   2.302
 1429SOL    HW2 5187   6.045   0.322   2.154
 1430SOL     OW 5188   2.193   4.029   4.382
 1430SOL    HW1 5189   2.217   4.070   4.294
 1430SOL    HW2 5190   2.115   3.967   4.370
 1431SOL     OW 5191   3.354   1.844   0.606
 1431SOL    HW1 5192   3.255   1.859   0.611
 1431SOL    HW2 5193   3.383   1.790   0.685
 1432SOL     OW 5194   4.728   0.221   3.177
 1432SOL    HW1 5195   4.662   0.271   3.233
 1432SOL    HW2 5196   4.688   0.135   3.146
 1433SOL     OW 5197   3.055   2.163   3.793
 1433SOL    HW1 5198   3.007   2.157   3.880
 1433SOL    HW2 5199   3.154   2.167   3.809
 1434SOL     OW 5200   5.392   3.539   0.994
 1434SOL    HW1 5201   5.403   3.637   0.979
 1434SOL    HW2 5202   5.410   3.489   0.909
 1435SOL     OW 5203   0.469   6.458   4.296
 1435SOL    HW1 5204   0.511   6.368   4.307
 1435SOL    HW2 5205   0.401   6.454   4.223
 1436SOL     OW 5206   5.129   0.512   0.222
 1436SOL    HW1 5207   5.154   0.601   0.182
 1436SOL    HW2 5208   5.140   0.516   0.321
 1437SOL     OW 5209   4.363   1.154   0.157
 1437SOL    HW1 5210   4.439   1.140   0.220
 1437SOL    HW2 5211   4.358   1.077   0.093
 1438SOL     OW 5212   2.257   0.255   2.780
 1438SOL    HW1 5213   2.266   0.329   2.848
 1438SOL    HW2 5214   2.174   0.269   2.726
 1439SOL     OW 5215   0.731   5.338   5.137
 1439SOL    HW1 5216   0.695   5.265   5.079
 1439SOL    HW2 5217   0.729   5.424   5.086
 1440SOL     OW 5218   3.854   3.047   2.231
 1440SOL    HW1 5219   3.835   3.145   2.223
 1440SOL    HW2 5220   3.776   3.001   2.274
 1441SOL     OW 5221   6.560   1.991   5.759
 1441SOL    HW1 5222   6.609   2.010   5.844
 1441SOL    HW2 5223   6.462   2.009   5.773
 1442SOL     OW 5224   5.005   6.094   0.154
 1442SOL    HW1 5225   4.941   6.072   0.081
 1442SOL    HW2 5226   5.084   6.143   0.116
 1443SOL     OW 5227   1.448   2.915   3.560
 1443SOL    HW1 5228   1.382   2.917   3.635
 1443SOL    HW2 5229   1.452   3.005   3.517
 1444SOL     OW 5230   5.370   6.245   4.754
 1444SOL    HW1 5231   5.355   6.208   4.846
 1444SOL    HW2 5232   5.282   6.271   4.714
 1445SOL     OW 5233   6.808   2.065   6.804
 1445SOL    HW1 5234   6.712   2.093   6.813
 1445SOL    HW2 5235   6.828   1.993   6.869
 1446SOL     OW 5236   3.790   5.987   1.900
 1446SOL    HW1 5237   3.709   5.937   1.931
 1446SOL    HW2 5238   3.764   6.080   1.875
 1447SOL     OW 5239   6.888   0.767   4.664
 1447SOL    HW1 5240   6.952   0.844   4.663
 1447SOL    HW2 5241   6.874   0.736   4.758
 1448SOL     OW 5242   5.329   0.666   0.054
 1448SOL    HW1 5243   5.289   0.757   0.060
 1448SOL    HW2 5244   5.367   0.652   6.981
 1449SOL     OW 5245   4.432   5.620   0.317
 1449SOL    HW1 5246   4.334   5.636   0.314
 1449SOL    HW2 5247   4.458   5.556   0.244
 1450SOL     OW 5248   5.908   1.465   3.984
 1450SOL    HW1 5249   6.008   1.467   3.977
 1450SOL    HW2 5250   5.874   1.557   4.005
 1451SOL     OW 5251   1.155   6.891   1.796
 1451SOL    HW1 5252   1.102   6.857   1.873
 1451SOL    HW2 5253   1.219   6.962   1.827
 1452SOL     OW 5254   3.439   0.346   5.861
 1452SOL    HW1 5255   3.389   0.430   5.882
 1452SOL    HW2 5256   3.412   0.274   5.926
 1453SOL     OW 5257   5.198   4.161   4.191
 1453SOL    HW1 5258   5.255   4.080   4.176
 1453SOL    HW2 5259   5.256   4.238   4.219
 1454SOL     OW 5260   5.338   3.716   1.305
 1454SOL    HW1 5261   5.353   3.813   1.324
 1454SOL    HW2 5262   5.366   3.695   1.212
 1455SOL     OW 5263   1.804   1.951   1.552
 1455SOL    HW1 5264   1.840   2.009   1.625
 1455SOL    HW2 5265   1.843   1.980   1.465
 1456SOL     OW 5266   6.002   5.615   5.360
 1456SOL    HW1 5267   5.952   5.606   5.446
 1456SOL    HW2 5268   5.938   5.619   5.284
 1457SOL     OW 5269   1.985   0.908   4.202
 1457SOL    HW1 5270   2.051   0.849   4.157
 1457SOL    HW2 5271   1.892   0.875   4.183
 1458SOL     OW 5272   0.256   5.360   6.843
 1458SOL    HW1 5273   0.296   5.442   6.882
 1458SOL    HW2 5274   0.163   5.379   6.812
 1459SOL     OW 5275   2.663   6.881   1.586
 1459SOL    HW1 5276   2.715   6.835   1.658
 1459SOL    HW2 5277   2.675   6.833   1.500
 1460SOL     OW 5278   0.323   6.780   6.739
 1460SOL    HW1 5279   0.240   6.762   6.687
 1460SOL    HW2 5280   0.379   6.847   6.690
 1461SOL     OW 5281   4.912   5.407   2.311
 1461SOL    HW1 5282   4.971   5.447   2.241
 1461SOL    HW2 5283   4.917   5.462   2.394
 1462SOL     OW 5284   5.504   6.916   5.099
 1462SOL    HW1 5285   5.565   6.962   5.033
 1462SOL    HW2 5286   5.438   6.861   5.049
 1463SOL     OW 5287   0.784   2.513   5.697
 1463SOL    HW1 5288   0.752   2.421   5.722
 1463SOL    HW2 5289   0.732   2.581   5.748
 1464SOL     OW 5290   0.728   0.713   1.412
 1464SOL    HW1 5291   0.643   0.756   1.380
 1464SOL    HW2 5292   0.719   0.688   1.508
 1465SOL     OW 5293   1.114   0.822   3.722
 1465SOL    HW1 5294   1.021   0.855   3.732
 1465SOL    HW2 5295   1.177   0.880   3.773
 1466SOL     OW 5296   5.601   5.439   4.696
 1466SOL    HW1 5297   5.613   5.404   4.603
 1466SOL    HW2 5298   5.632   5.534   4.700
 1467SOL     OW 5299   6.126   3.920   4.221
 1467SOL    HW1 5300   6.122   3.823   4.246
 1467SOL    HW2 5301   6.192   3.932   4.147
 1468SOL     OW 5302   4.466   0.186   2.607
 1468SOL    HW1 5303   4.555   0.153   2.576
 1468SOL    HW2 5304   4.399   0.178   2.533
 1469SOL     OW 5305   0.674   0.552   1.943
 1469SOL    HW1 5306   0.713   0.644   1.935
 1469SOL    HW2 5307   0.577   0.559   1.966
 1470SOL     OW 5308   6.906   6.949   2.814
 1470SOL    HW1 5309   7.000   6.980   2.800
 1470SOL    HW2 5310   6.907   6.866   2.870
 1471SOL     OW 5311   5.741   1.054   0.964
 1471SOL    HW1 5312   5.661   1.008   0.925
 1471SOL    HW2 5313   5.725   1.073   1.061
 1472SOL     OW 5314   4.714   5.223   4.815
 1472SOL    HW1 5315   4.753   5.151   4.759
 1472SOL    HW2 5316   4.768   5.233   4.899
 1473SOL     OW 5317   6.190   3.491   3.527
 1473SOL    HW1 5318   6.279   3.526   3.498
 1473SOL    HW2 5319   6.153   3.431   3.457
 1474SOL     OW 5320   4.556   5.220   3.054
 1474SOL    HW1 5321   4.633   5.283   3.050
 1474SOL    HW2 5322   4.579   5.137   3.003
 1475SOL     OW 5323   6.406   6.449   3.278
 1475SOL    HW1 5324   6.482   6.416   3.334
 1475SOL    HW2 5325   6.440   6.478   3.189
 1476SOL     OW 5326   0.595   2.598   1.205
 1476SOL    HW1 5327   0.681   2.648   1.218
 1476SOL    HW2 5328   0.520   2.651   1.244
 1477SOL     OW 5329   3.000   6.750   4.428
 1477SOL    HW1 5330   2.956   6.821   4.482
 1477SOL    HW2 5331   3.026   6.787   4.339
 1478SOL     OW 5332   6.658   3.533   1.223
 1478SOL    HW1 5333   6.695   3.588   1.298
 1478SOL    HW2 5334   6.650   3.438   1.253
 1479SOL     OW 5335   1.034   5.346   0.418
 1479SOL    HW1 5336   1.103   5.417   0.427
 1479SOL    HW2 5337   1.074   5.265   0.375
 1480SOL     OW 5338   2.348   1.087   0.045
 1480SOL    HW1 5339   2.326   1.053   0.137
 1480SOL    HW2 5340   2.289   1.043   6.996
 1481SOL     OW 5341   0.883   3.750   6.762
 1481SOL    HW1 5342   0.803   3.704   6.801
 1481SOL    HW2 5343   0.925   3.691   6.693
 1482SOL     OW 5344   5.587   0.219   6.298
 1482SOL    HW1 5345   5.642   0.251   6.375
 1482SOL    HW2 5346   5.514   0.159   6.332
 1483SOL     OW 5347   6.167   1.739   6.096
 1483SOL    HW1 5348   6.153   1.838   6.099
 1483SOL    HW2 5349   6.254   1.716   6.138
 1484SOL     OW 5350   6.305   6.274   2.630
 1484SOL    HW1 5351   6.242   6.196   2.630
 1484SOL    HW2 5352   6.355   6.276   2.543
 1485SOL     OW 5353   5.598   3.395   4.195
 1485SOL    HW1 5354   5.571   3.301   4.217
 1485SOL    HW2 5355   5.588   3.411   4.097
 1486SOL     OW 5356   5.219   2.166   2.193
 1486SOL    HW1 5357   5.207   2.097   2.264
 1486SOL    HW2 5358   5.228   2.122   2.104
 1487SOL     OW 5359   6.927   0.131   5.588
 1487SOL    HW1 5360   6.923   0.037   5.555
 1487SOL    HW2 5361   7.005   0.141   5.650
 1488SOL     OW 5362   5.366   2.030   4.294
 1488SOL    HW1 5363   5.271   2.005   4.273
 1488SOL    HW2 5364   5.406   1.960   4.352
 1489SOL     OW 5365   3.635   5.111   4.453
 1489SOL    HW1 5366   3.595   5.121   4.362
 1489SOL    HW2 5367   3.733   5.130   4.449
 1490SOL     OW 5368   2.497   2.352   1.407
 1490SOL    HW1 5369   2.446   2.360   1.322
 1490SOL    HW2 5370   2.454   2.408   1.478
 1491SOL     OW 5371   0.427   2.181   5.008
 1491SOL    HW1 5372   0.415   2.086   5.037
 1491SOL    HW2 5373   0.374   2.197   4.924
 1492SOL     OW 5374   0.091   2.386   1.151
 1492SOL    HW1 5375   0.183   2.401   1.114
 1492SOL    HW2 5376   0.056   2.299   1.117
 1493SOL     OW 5377   5.868   2.185   5.542
 1493SOL    HW1 5378   5.872   2.239   5.626
 1493SOL    HW2 5379   5.837   2.092   5.564
 1494SOL     OW 5380   5.487   1.622   4.275
 1494SOL    HW1 5381   5.467   1.609   4.178
 1494SOL    HW2 5382   5.418   1.577   4.330
 1495SOL     OW 5383   1.312   3.823   2.179
 1495SOL    HW1 5384   1.389   3.772   2.219
 1495SOL    HW2 5385   1.276   3.772   2.101
 1496SOL     OW 5386   1.021   0.440   2.147
 1496SOL    HW1 5387   0.951   0.497   2.191
 1496SOL    HW2 5388   0.987   0.407   2.059
 1497SOL     OW 5389   5.413   5.368   5.721
 1497SOL    HW1 5390   5.357   5.450   5.729
 1497SOL    HW2 5391   5.371   5.294   5.774
 1498SOL     OW 5392   2.186   5.525   0.424
 1498SOL    HW1 5393   2.278   5.489   0.436
 1498SOL    HW2 5394   2.168   5.596   0.492
 1499SOL     OW 5395   0.813   4.263   4.529
 1499SOL    HW1 5396   0.774   4.176   4.561
 1499SOL    HW2 5397   0.851   4.313   4.607
 1500SOL     OW 5398   4.053   6.810   5.426
 1500SOL    HW1 5399   3.983   6.794   5.357
 1500SOL    HW2 5400   4.133   6.852   5.383
 1501SOL     OW 5401   3.783   0.771   1.056
 1501SOL    HW1 5402   3.741   0.861   1.070
 1501SOL    HW2 5403   3.725   0.700   1.097
 1502SOL     OW 5404   0.741   6.012   5.797
 1502SOL    HW1 5405   0.693   5.971   5.719
 1502SOL    HW2 5406   0.683   6.082   5.839
 1503SOL     OW 5407   3.354   3.862   5.562
 1503SOL    HW1 5408   3.433   3.862   5.501
 1503SOL    HW2 5409   3.294   3.938   5.538
 1504SOL     OW 5410   3.071   6.777   4.130
 1504SOL    HW1 5411   2.986   6.809   4.087
 1504SOL    HW2 5412   3.146   6.839   4.105
 1505SOL     OW 5413   4.821   0.292   2.698
 1505SOL    HW1 5414   4.874   0.250   2.771
 1505SOL    HW2 5415   4.815   0.229   2.620
 1506SOL     OW 5416   0.926   6.564   3.370
 1506SOL    HW1 5417   0.958   6.658   3.352
 1506SOL    HW2 5418   0.830   6.566   3.397
 1507SOL     OW 5419   2.023   2.245   6.869
 1507SOL    HW1 5420   2.098   2.312   6.870
 1507SOL    HW2 5421   2.046   2.170   6.807
 1508SOL     OW 5422   4.711   6.883   1.312
 1508SOL    HW1 5423   4.642   6.868   1.383
 1508SOL    HW2 5424   4.666   6.901   1.225
 1509SOL     OW 5425   5.581   1.742   6.371
 1509SOL    HW1 5426   5.640   1.665   6.344
 1509SOL    HW2 5427   5.585   1.813   6.301
 1510SOL     OW 5428   6.732   1.334   2.842
 1510SOL    HW1 5429   6.750   1.415   2.898
 1510SOL    HW2 5430   6.634   1.314   2.842
 1511SOL     OW 5431   1.379   2.749   0.178
 1511SOL    HW1 5432   1.446   2.710   0.241
 1511SOL    HW2 5433   1.416   2.833   0.138
 1512SOL     OW 5434   6.907   1.273   1.761
 1512SOL    HW1 5435   6.966   1.203   1.802
 1512SOL    HW2 5436   6.840   1.304   1.828
 1513SOL     OW 5437   2.887   0.869   3.070
 1513SOL    HW1 5438   2.795   0.903   3.052
 1513SOL    HW2 5439   2.948   0.946   3.090
 1514SOL     OW 5440   4.701   0.169   6.163
 1514SOL    HW1 5441   4.730   0.132   6.251
 1514SOL    HW2 5442   4.747   0.256   6.147
 1515SOL     OW 5443   5.585   4.893   5.767
 1515SOL    HW1 5444   5.653   4.944   5.819
 1515SOL    HW2 5445   5.502   4.883   5.822
 1516SOL     OW 5446   0.253   1.333   0.866
 1516SOL    HW1 5447   0.192   1.405   0.833
 1516SOL    HW2 5448   0.346   1.351   0.835
 1517SOL     OW 5449   3.063   5.643   2.863
 1517SOL    HW1 5450   3.023   5.586   2.935
 1517SOL    HW2 5451   3.042   5.603   2.774
 1518SOL     OW 5452   0.273   4.573   0.571
 1518SOL    HW1 5453   0.302   4.509   0.500
 1518SOL    HW2 5454   0.228   4.652   0.529
 1519SOL     OW 5455   0.640   3.929   0.766
 1519SOL    HW1 5456   0.686   3.841   0.769
 1519SOL    HW2 5457   0.708   4.002   0.764
 1520SOL     OW 5458   1.609   2.921   3.024
 1520SOL    HW1 5459   1.534   2.958   2.968
 1520SOL    HW2 5460   1.658   2.997   3.068
 1521SOL     OW 5461   2.569   4.648   5.190
 1521SOL    HW1 5462   2.491   4.601   5.149
 1521SOL    HW2 5463   2.640   4.662   5.120
 1522SOL     OW 5464   1.554   1.714   6.203
 1522SOL    HW1 5465   1.582   1.665   6.286
 1522SOL    HW2 5466   1.454   1.719   6.199
 1523SOL     OW 5467   5.933   1.617   1.162
 1523SOL    HW1 5468   5.961   1.560   1.086
 1523SOL    HW2 5469   5.882   1.562   1.228
 1524SOL     OW 5470   0.007   1.297   1.411
 1524SOL    HW1 5471   6.938   1.292   1.460
 1524SOL    HW2 5472   0.025   1.210   1.366
 1525SOL     OW 5473   4.772   1.619   5.929
 1525SOL    HW1 5474   4.783   1.617   5.830
 1525SOL    HW2 5475   4.680   1.652   5.952
 1526SOL     OW 5476   6.115   1.249   0.280
 1526SOL    HW1 5477   6.088   1.312   0.353
 1526SOL    HW2 5478   6.170   1.298   0.212
 1527SOL     OW 5479   3.259   1.577   6.072
 1527SOL    HW1 5480   3.188   1.540   6.014
 1527SOL    HW2 5481   3.249   1.541   6.165
 1528SOL     OW 5482   5.492   5.352   3.924
 1528SOL    HW1 5483   5.524   5.436   3.968
 1528SOL    HW2 5484   5.559   5.280   3.937
 1529SOL     OW 5485   2.027   6.918   5.766
 1529SOL    HW1 5486   2.088   6.911   5.845
 1529SOL    HW2 5487   2.070   6.973   5.695
 1530SOL     OW 5488   2.901   6.519   1.397
 1530SOL    HW1 5489   2.935   6.425   1.396
 1530SOL    HW2 5490   2.958   6.574   1.458
 1531SOL     OW 5491   5.600   0.523   6.450
 1531SOL    HW1 5492   5.640   0.441   6.491
 1531SOL    HW2 5493   5.500   0.514   6.449
 1532SOL     OW 5494   2.820   2.256   5.578
 1532SOL    HW1 5495   2.820   2.189   5.653
 1532SOL    HW2 5496   2.851   2.211   5.494
 1533SOL     OW 5497   4.592   2.788   0.238
 1533SOL    HW1 5498   4.686   2.756   0.234
 1533SOL    HW2 5499   4.546   2.768   0.151
 1534SOL     OW 5500   6.803   0.492   1.559
 1534SOL    HW1 5501   6.733   0.494   1.630
 1534SOL    HW2 5502   6.803   0.580   1.511
 1535SOL     OW 5503   5.253   4.370   4.524
 1535SOL    HW1 5504   5.188   4.302   4.491
 1535SOL    HW2 5505   5.209   4.460   4.528
 1536SOL     OW 5506   3.412   6.423   3.193
 1536SOL    HW1 5507   3.441   6.482   3.118
 1536SOL    HW2 5508   3.316   6.441   3.215
 1537SOL     OW 5509   3.267   5.657   4.463
 1537SOL    HW1 5510   3.256   5.690   4.557
 1537SOL    HW2 5511   3.301   5.563   4.465
 1538SOL     OW 5512   2.926   5.564   6.794
 1538SOL    HW1 5513   2.856   5.582   6.726
 1538SOL    HW2 5514   2.890   5.585   6.885
 1539SOL     OW 5515   2.811   6.360   1.841
 1539SOL    HW1 5516   2.765   6.436   1.796
 1539SOL    HW2 5517   2.796   6.276   1.788
 1540SOL     OW 5518   5.838   6.863   5.113
 1540SOL    HW1 5519   5.795   6.887   5.026
 1540SOL    HW2 5520   5.781   6.795   5.160
 1541SOL     OW 5521   5.150   1.573   1.235
 1541SOL    HW1 5522   5.195   1.663   1.228
 1541SOL    HW2 5523   5.076   1.578   1.302
 1542SOL     OW 5524   0.082   6.413   1.438
 1542SOL    HW1 5525   0.131   6.419   1.526
 1542SOL    HW2 5526   0.143   6.443   1.364
 1543SOL     OW 5527   3.558   3.398   3.404
 1543SOL    HW1 5528   3.633   3.439   3.353
 1543SOL    HW2 5529   3.484   3.375   3.341
 1544SOL     OW 5530   3.580   3.819   2.451
 1544SOL    HW1 5531   3.576   3.736   2.508
 1544SOL    HW2 5532   3.487   3.853   2.436
 1545SOL     OW 5533   6.919   0.156   4.900
 1545SOL    HW1 5534   6.943   0.083   4.963
 1545SOL    HW2 5535   6.887   0.117   4.813
 1546SOL     OW 5536   6.203   6.637   6.437
 1546SOL    HW1 5537   6.142   6.633   6.516
 1546SOL    HW2 5538   6.266   6.559   6.440
 1547SOL     OW 5539   3.213   5.613   6.962
 1547SOL    HW1 5540   3.291   5.557   6.990
 1547SOL    HW2 5541   3.162   5.566   6.889
 1548SOL     OW 5542   6.529   3.893   3.413
 1548SOL    HW1 5543   6.595   3.968   3.408
 1548SOL    HW2 5544   6.544   3.830   3.337
 1549SOL     OW 5545   6.826   2.073   0.836
 1549SOL    HW1 5546   6.823   2.014   0.756
 1549SOL    HW2 5547   6.747   2.054   0.894
 1550SOL     OW 5548   2.708   4.960   2.427
 1550SOL    HW1 5549   2.654   4.965   2.511
 1550SOL    HW2 5550   2.737   5.052   2.400
 1551SOL     OW 5551   0.461   2.787   1.349
 1551SOL    HW1 5552   0.362   2.797   1.340
 1551SOL    HW2 5553   0.505   2.873   1.322
 1552SOL     OW 5554   1.114   6.615   2.479
 1552SOL    HW1 5555   1.211   6.595   2.495
 1552SOL    HW2 5556   1.093   6.602   2.382
 1553SOL     OW 5557   5.446   1.178   6.091
 1553SOL    HW1 5558   5.449   1.129   6.179
 1553SOL    HW2 5559   5.397   1.264   6.103
 1554SOL     OW 5560   2.926   2.646   0.722
 1554SOL    HW1 5561   2.965   2.614   0.808
 1554SOL    HW2 5562   2.868   2.575   0.683
 1555SOL     OW 5563   4.129   1.166   0.521
 1555SOL    HW1 5564   4.118   1.166   0.422
 1555SOL    HW2 5565   4.070   1.237   0.561
 1556SOL     OW 5566   3.654   2.208   0.346
 1556SOL    HW1 5567   3.561   2.172   0.354
 1556SOL    HW2 5568   3.658   2.272   0.269
 1557SOL     OW 5569   1.766   2.833   0.330
 1557SOL    HW1 5570   1.756   2.929   0.305
 1557SOL    HW2 5571   1.828   2.788   0.266
 1558SOL     OW 5572   4.920   2.509   6.643
 1558SOL    HW1 5573   4.878   2.418   6.648
 1558SOL    HW2 5574   4.935   2.532   6.547
 1559SOL     OW 5575   2.730   6.407   3.778
 1559SOL    HW1 5576   2.676   6.491   3.786
 1559SOL    HW2 5577   2.704   6.359   3.695
 1560SOL     OW 5578   4.221   3.128   1.244
 1560SOL    HW1 5579   4.276   3.159   1.167
 1560SOL    HW2 5580   4.132   3.174   1.242
 1561SOL     OW 5581   5.642   6.151   0.894
 1561SOL    HW1 5582   5.553   6.145   0.848
 1561SOL    HW2 5583   5.695   6.225   0.853
 1562SOL     OW 5584   2.500   0.481   2.296
 1562SOL    HW1 5585   2.418   0.436   2.260
 1562SOL    HW2 5586   2.507   0.466   2.394
 1563SOL     OW 5587   1.808   3.350   3.751
 1563SOL    HW1 5588   1.814   3.296   3.667
 1563SOL    HW2 5589   1.847   3.298   3.827
 1564SOL     OW 5590   0.761   1.864   2.849
 1564SOL    HW1 5591   0.830   1.792   2.861
 1564SOL    HW2 5592   0.767   1.929   2.926
 1565SOL     OW 5593   4.576   1.912   5.266
 1565SOL    HW1 5594   4.607   1.988   5.209
 1565SOL    HW2 5595   4.630   1.909   5.350
 1566SOL     OW 5596   0.637   3.704   3.554
 1566SOL    HW1 5597   0.560   3.681   3.495
 1566SOL    HW2 5598   0.708   3.749   3.499
 1567SOL     OW 5599   5.491   0.196   5.031
 1567SOL    HW1 5600   5.446   0.122   5.080
 1567SOL    HW2 5601   5.543   0.252   5.095
 1568SOL     OW 5602   2.462   4.552   0.854
 1568SOL    HW1 5603   2.449   4.464   0.899
 1568SOL    HW2 5604   2.523   4.609   0.909
 1569SOL     OW 5605   2.200   1.136   2.690
 1569SOL    HW1 5606   2.187   1.177   2.599
 1569SOL    HW2 5607   2.251   1.051   2.681
 1570SOL     OW 5608   2.580   5.867   6.366
 1570SOL    HW1 5609   2.670   5.847   6.326
 1570SOL    HW2 5610   2.586   5.863   6.465
 1571SOL     OW 5611   6.586   2.661   4.098
 1571SOL    HW1 5612   6.561   2.624   4.008
 1571SOL    HW2 5613   6.595   2.586   4.163
 1572SOL     OW 5614   2.272   6.270   2.993
 1572SOL    HW1 5615   2.314   6.331   3.060
 1572SOL    HW2 5616   2.206   6.211   3.039
 1573SOL     OW 5617   5.247   5.518   0.235
 1573SOL    HW1 5618   5.306   5.598   0.231
 1573SOL    HW2 5619   5.185   5.517   0.156
 1574SOL     OW 5620   1.092   4.533   3.034
 1574SOL    HW1 5621   1.079   4.475   2.954
 1574SOL    HW2 5622   1.189   4.556   3.044
 1575SOL     OW 5623   6.623   2.461   0.336
 1575SOL    HW1 5624   6.593   2.441   0.429
 1575SOL    HW2 5625   6.676   2.546   0.336
 1576SOL     OW 5626   1.708   5.771   1.832
 1576SOL    HW1 5627   1.781   5.839   1.828
 1576SOL    HW2 5628   1.624   5.809   1.794
 1577SOL     OW 5629   4.659   5.555   3.918
 1577SOL    HW1 5630   4.718   5.599   3.986
 1577SOL    HW2 5631   4.691   5.462   3.901
 1578SOL     OW 5632   5.435   2.022   1.504
 1578SOL    HW1 5633   5.411   2.094   1.440
 1578SOL    HW2 5634   5.372   1.945   1.493
 1579SOL     OW 5635   1.644   3.168   1.950
 1579SOL    HW1 5636   1.579   3.217   2.008
 1579SOL    HW2 5637   1.709   3.119   2.008
 1580SOL     OW 5638   3.123   4.007   3.319
 1580SOL    HW1 5639   3.073   4.073   3.265
 1580SOL    HW2 5640   3.218   4.002   3.287
 1581SOL     OW 5641   5.569   4.229   5.009
 1581SOL    HW1 5642   5.493   4.207   5.069
 1581SOL    HW2 5643   5.539   4.226   4.914
 1582SOL     OW 5644   4.410   5.917   4.988
 1582SOL    HW1 5645   4.404   6.014   4.966
 1582SOL    HW2 5646   4.460   5.905   5.074
 1583SOL     OW 5647   1.559   4.998   5.419
 1583SOL    HW1 5648   1.598   4.944   5.493
 1583SOL    HW2 5649   1.463   4.974   5.407
 1584SOL     OW 5650   0.232   3.919   0.008
 1584SOL    HW1 5651   0.156   3.938   0.070
 1584SOL    HW2 5652   0.291   4.000   0.002
 1585SOL     OW 5653   5.200   6.645   4.205
 1585SOL    HW1 5654   5.156   6.582   4.140
 1585SOL    HW2 5655   5.137   6.663   4.281
 1586SOL     OW 5656   2.653   5.860   3.303
 1586SOL    HW1 5657   2.604   5.891   3.384
 1586SOL    HW2 5658   2.747   5.892   3.306
 1587SOL     OW 5659   3.165   6.291   6.837
 1587SOL    HW1 5660   3.149   6.194   6.817
 1587SOL    HW2 5661   3.217   6.299   6.922
 1588SOL     OW 5662   6.385   2.080   3.209
 1588SOL    HW1 5663   6.329   2.163   3.213
 1588SOL    HW2 5664   6.355   2.024   3.131
 1589SOL     OW 5665   0.012   2.568   4.819
 1589SOL    HW1 5666   6.936   2.538   4.834
 1589SOL    HW2 5667   0.034   2.642   4.883
 1590SOL     OW 5668   5.641   0.635   3.452
 1590SOL    HW1 5669   5.553   0.617   3.407
 1590SOL    HW2 5670   5.625   0.673   3.543
 1591SOL     OW 5671   0.599   5.542   0.468
 1591SOL    HW1 5672   0.520   5.507   0.417
 1591SOL    HW2 5673   0.683   5.509   0.426
 1592SOL     OW 5674   7.008   3.943   5.082
 1592SOL    HW1 5675   0.052   3.870   5.111
 1592SOL    HW2 5676   0.005   4.024   5.138
 1593SOL     OW 5677   3.812   5.978   1.629
 1593SOL    HW1 5678   3.889   6.040   1.617
 1593SOL    HW2 5679   3.838   5.904   1.690
 1594SOL     OW 5680   4.952   0.978   2.727
 1594SOL    HW1 5681   4.955   1.048   2.798
 1594SOL    HW2 5682   4.986   1.016   2.641
 1595SOL     OW 5683   1.072   3.280   6.590
 1595SOL    HW1 5684   1.107   3.229   6.669
 1595SOL    HW2 5685   0.987   3.327   6.615
 1596SOL     OW 5686   4.730   4.135   4.028
 1596SOL    HW1 5687   4.730   4.065   3.957
 1596SOL    HW2 5688   4.824   4.159   4.052
 1597SOL     OW 5689   3.445   5.766   0.117
 1597SOL    HW1 5690   3.347   5.784   0.123
 1597SOL    HW2 5691   3.487   5.781   0.207
 1598SOL     OW 5692   1.272   4.445   6.235
 1598SOL    HW1 5693   1.317   4.414   6.151
 1598SOL    HW2 5694   1.280   4.544   6.243
 1599SOL     OW 5695   4.755   5.285   3.653
 1599SOL    HW1 5696   4.659   5.259   3.643
 1599SOL    HW2 5697   4.800   5.224   3.718
 1600SOL     OW 5698   4.547   0.558   1.780
 1600SOL    HW1 5699   4.476   0.519   1.722
 1600SOL    HW2 5700   4.637   0.526   1.749
 1601SOL     OW 5701   6.348   1.010   4.820
 1601SOL    HW1 5702   6.334   0.938   4.752
 1601SOL    HW2 5703   6.411   1.078   4.784
 1602SOL     OW 5704   4.534   5.424   3.365
 1602SOL    HW1 5705   4.572   5.514   3.343
 1602SOL    HW2 5706   4.556   5.401   3.460
 1603SOL     OW 5707   3.189   4.907   2.097
 1603SOL    HW1 5708   3.115   4.938   2.157
 1603SOL    HW2 5709   3.154   4.837   2.035
 1604SOL     OW 5710   4.429   4.885   2.579
 1604SOL    HW1 5711   4.476   4.969   2.549
 1604SOL    HW2 5712   4.496   4.823   2.621
 1605SOL     OW 5713   4.660   5.262   0.179
 1605SOL    HW1 5714   4.663   5.279   0.081
 1605SOL    HW2 5715   4.745   5.293   0.221
 1606SOL     OW 5716   3.032   5.948   4.855
 1606SOL    HW1 5717   3.083   5.881   4.802
 1606SOL    HW2 5718   2.956   5.903   4.902
 1607SOL     OW 5719   4.781   3.981   3.806
 1607SOL    HW1 5720   4.850   3.912   3.828
 1607SOL    HW2 5721   4.795   4.012   3.712
 1608SOL     OW 5722   5.777   2.761   3.736
 1608SOL    HW1 5723   5.747   2.836   3.795
 1608SOL    HW2 5724   5.727   2.766   3.649
 1609SOL     OW 5725   1.699   0.346   0.636
 1609SOL    HW1 5726   1.763   0.397   0.693
 1609SOL    HW2 5727   1.641   0.411   0.585
 1610SOL     OW 5728   5.555   6.695   0.685
 1610SOL    HW1 5729   5.587   6.604   0.712
 1610SOL    HW2 5730   5.476   6.686   0.624
 1611SOL     OW 5731   1.081   4.184   0.192
 1611SOL    HW1 5732   1.133   4.105   0.223
 1611SOL    HW2 5733   1.052   4.171   0.097
 1612SOL     OW 5734   4.611   1.245   2.398
 1612SOL    HW1 5735   4.625   1.199   2.311
 1612SOL    HW2 5736   4.692   1.233   2.456
 1613SOL     OW 5737   0.309   5.769   2.809
 1613SOL    HW1 5738   0.278   5.741   2.718
 1613SOL    HW2 5739   0.409   5.766   2.813
 1614SOL     OW 5740   6.645   1.234   5.494
 1614SOL    HW1 5741   6.547   1.235   5.472
 1614SOL    HW2 5742   6.684   1.146   5.469
 1615SOL     OW 5743   0.110   3.488   5.740
 1615SOL    HW1 5744   0.109   3.515   5.644
 1615SOL    HW2 5745   0.182   3.539   5.788
 1616SOL     OW 5746   0.617   1.063   3.657
 1616SOL    HW1 5747   0.569   0.983   3.621
 1616SOL    HW2 5748   0.582   1.146   3.612
 1617SOL     OW 5749   6.634   5.534   3.804
 1617SOL    HW1 5750   6.654   5.451   3.857
 1617SOL    HW2 5751   6.696   5.541   3.726
 1618SOL     OW 5752   3.568   5.536   3.125
 1618SOL    HW1 5753   3.562   5.437   3.127
 1618SOL    HW2 5754   3.552   5.569   3.032
 1619SOL     OW 5755   0.995   3.892   6.486
 1619SOL    HW1 5756   0.989   3.792   6.494
 1619SOL    HW2 5757   1.034   3.915   6.396
 1620SOL     OW 5758   3.403   6.789   4.250
 1620SOL    HW1 5759   3.414   6.852   4.173
 1620SOL    HW2 5760   3.378   6.840   4.332
 1621SOL     OW 5761   4.677   5.485   0.834
 1621SOL    HW1 5762   4.749   5.540   0.876
 1621SOL    HW2 5763   4.671   5.507   0.736
 1622SOL     OW 5764   6.036   4.452   4.199
 1622SOL    HW1 5765   6.108   4.515   4.229
 1622SOL    HW2 5766   6.050   4.428   4.103
 1623SOL     OW 5767   0.307   2.826   3.825
 1623SOL    HW1 5768   0.340   2.760   3.893
 1623SOL    HW2 5769   0.334   2.918   3.853
 1624SOL     OW 5770   3.498   3.228   0.483
 1624SOL    HW1 5771   3.450   3.291   0.544
 1624SOL    HW2 5772   3.585   3.267   0.456
 1625SOL     OW 5773   0.828   6.419   0.350
 1625SOL    HW1 5774   0.767   6.430   0.272
 1625SOL    HW2 5775   0.845   6.322   0.365
 1626SOL     OW 5776   2.635   1.952   1.674
 1626SOL    HW1 5777   2.598   2.045   1.669
 1626SOL    HW2 5778   2.650   1.927   1.769
 1627SOL     OW 5779   4.243   2.021   5.877
 1627SOL    HW1 5780   4.249   2.029   5.778
 1627SOL    HW2 5781   4.227   1.925   5.901
 1628SOL     OW 5782   5.403   6.657   1.004
 1628SOL    HW1 5783   5.432   6.750   1.024
 1628SOL    HW2 5784   5.345   6.657   0.922
 1629SOL     OW 5785   1.706   6.983   3.409
 1629SOL    HW1 5786   1.687   0.056   3.375
 1629SOL    HW2 5787   1.686   6.979   3.507
 1630SOL     OW 5788   0.687   3.736   5.713
 1630SOL    HW1 5789   0.740   3.671   5.658
 1630SOL    HW2 5790   0.672   3.820   5.661
 1631SOL     OW 5791   5.827   3.007   0.853
 1631SOL    HW1 5792   5.793   2.954   0.775
 1631SOL    HW2 5793   5.782   2.975   0.937
 1632SOL     OW 5794   6.439   6.178   2.155
 1632SOL    HW1 5795   6.342   6.176   2.130
 1632SOL    HW2 5796   6.449   6.180   2.254
 1633SOL     OW 5797   5.406   3.608   4.859
 1633SOL    HW1 5798   5.398   3.511   4.884
 1633SOL    HW2 5799   5.498   3.640   4.882
 1634SOL     OW 5800   1.176   3.377   5.564
 1634SOL    HW1 5801   1.246   3.360   5.633
 1634SOL    HW2 5802   1.102   3.310   5.575
 1635SOL     OW 5803   3.009   0.434   3.668
 1635SOL    HW1 5804   3.068   0.372   3.616
 1635SOL    HW2 5805   3.064   0.483   3.736
 1636SOL     OW 5806   6.868   5.898   1.478
 1636SOL    HW1 5807   6.890   5.812   1.524
 1636SOL    HW2 5808   6.795   5.944   1.529
 1637SOL     OW 5809   1.505   1.475   2.698
 1637SOL    HW1 5810   1.559   1.550   2.659
 1637SOL    HW2 5811   1.410   1.504   2.705
 1638SOL     OW 5812   5.345   2.271   3.354
 1638SOL    HW1 5813   5.347   2.173   3.374
 1638SOL    HW2 5814   5.253   2.297   3.325
 1639SOL     OW 5815   4.745   2.280   1.971
 1639SOL    HW1 5816   4.811   2.343   1.930
 1639SOL    HW2 5817   4.658   2.287   1.923
 1640SOL     OW 5818   5.896   0.700   6.476
 1640SOL    HW1 5819   5.904   0.678   6.573
 1640SOL    HW2 5820   5.828   0.773   6.465
 1641SOL     OW 5821   6.272   1.369   3.149
 1641SOL    HW1 5822   6.287   1.388   3.246
 1641SOL    HW2 5823   6.174   1.378   3.129
 1642SOL     OW 5824   7.015   3.584   6.313
 1642SOL    HW1 5825   6.992   3.557   6.220
 1642SOL    HW2 5826   6.933   3.620   6.359
 1643SOL     OW 5827   1.545   5.203   3.590
 1643SOL    HW1 5828   1.541   5.253   3.677
 1643SOL    HW2 5829   1.473   5.236   3.529
 1644SOL     OW 5830   6.183   1.576   1.586
 1644SOL    HW1 5831   6.087   1.603   1.580
 1644SOL    HW2 5832   6.207   1.521   1.506
 1645SOL     OW 5833   2.608   0.721   4.804
 1645SOL    HW1 5834   2.662   0.794   4.846
 1645SOL    HW2 5835   2.669   0.646   4.777
 1646SOL     OW 5836   0.787   5.214   0.953
 1646SOL    HW1 5837   0.709   5.168   0.995
 1646SOL    HW2 5838   0.766   5.236   0.858
 1647SOL     OW 5839   6.137   3.243   4.882
 1647SOL    HW1 5840   6.214   3.209   4.828
 1647SOL    HW2 5841   6.171   3.275   4.971
 1648SOL     OW 5842   5.746   6.192   1.636
 1648SOL    HW1 5843   5.829   6.247   1.623
 1648SOL    HW2 5844   5.679   6.245   1.688
 1649SOL     OW 5845   3.676   1.479   2.958
 1649SOL    HW1 5846   3.732   1.456   2.879
 1649SOL    HW2 5847   3.730   1.464   3.042
 1650SOL     OW 5848   2.857   2.603   5.293
 1650SOL    HW1 5849   2.813   2.671   5.352
 1650SOL    HW2 5850   2.947   2.579   5.330
 1651SOL     OW 5851   0.968   2.054   3.984
 1651SOL    HW1 5852   0.884   2.089   3.943
 1651SOL    HW2 5853   1.037   2.127   3.986
 1652SOL     OW 5854   0.269   3.711   1.486
 1652SOL    HW1 5855   0.187   3.654   1.473
 1652SOL    HW2 5856   0.333   3.694   1.411
 1653SOL     OW 5857   0.172   4.151   1.783
 1653SOL    HW1 5858   0.212   4.074   1.733
 1653SOL    HW2 5859   0.242   4.191   1.843
 1654SOL     OW 5860   0.326   3.978   1.618
 1654SOL    HW1 5861   0.324   4.040   1.540
 1654SOL    HW2 5862   0.350   3.886   1.587
 1655SOL     OW 5863   0.241   0.788   5.804
 1655SOL    HW1 5864   0.309   0.827   5.866
 1655SOL    HW2 5865   0.203   0.860   5.747
 1656SOL     OW 5866   2.323   4.252   3.361
 1656SOL    HW1 5867   2.374   4.315   3.418
 1656SOL    HW2 5868   2.345   4.268   3.265
 1657SOL     OW 5869   0.674   0.210   6.065
 1657SOL    HW1 5870   0.718   0.228   5.977
 1657SOL    HW2 5871   0.731   0.247   6.138
 1658SOL     OW 5872   5.238   6.380   6.199
 1658SOL    HW1 5873   5.267   6.340   6.286
 1658SOL    HW2 5874   5.169   6.450   6.216
 1659SOL     OW 5875   4.029   6.975   5.830
 1659SOL    HW1 5876   4.015   7.005   5.924
 1659SOL    HW2 5877   3.955   6.912   5.804
 1660SOL     OW 5878   2.392   0.697   1.789
 1660SOL    HW1 5879   2.316   0.751   1.755
 1660SOL    HW2 5880   2.478   0.746   1.772
 1661SOL     OW 5881   4.715   4.227   2.761
 1661SOL    HW1 5882   4.663   4.205   2.679
 1661SOL    HW2 5883   4.765   4.312   2.748
 1662SOL     OW 5884   0.115   1.913   3.831
 1662SOL    HW1 5885   0.184   1.881   3.767
 1662SOL    HW2 5886   0.024   1.902   3.791
 1663SOL     OW 5887   5.534   4.093   1.204
 1663SOL    HW1 5888   5.560   4.002   1.238
 1663SOL    HW2 5889   5.616   4.143   1.177
 1664SOL     OW 5890   1.448   0.612   6.218
 1664SOL    HW1 5891   1.449   0.649   6.311
 1664SOL    HW2 5892   1.534   0.633   6.173
 1665SOL     OW 5893   2.531   4.087   6.532
 1665SOL    HW1 5894   2.593   4.086   6.453
 1665SOL    HW2 5895   2.517   4.181   6.562
 1666SOL     OW 5896   5.377   5.963   6.700
 1666SOL    HW1 5897   5.446   6.020   6.745
 1666SOL    HW2 5898   5.378   5.872   6.739
 1667SOL     OW 5899   0.109   5.393   0.525
 1667SOL    HW1 5900   0.110   5.315   0.462
 1667SOL    HW2 5901   0.020   5.397   0.571
 1668SOL     OW 5902   5.785   3.135   2.198
 1668SOL    HW1 5903   5.776   3.097   2.290
 1668SOL    HW2 5904   5.784   3.060   2.132
 1669SOL     OW 5905   6.687   2.719   6.028
 1669SOL    HW1 5906   6.754   2.657   5.986
 1669SOL    HW2 5907   6.595   2.682   6.016
 1670SOL     OW 5908   3.224   4.589   5.786
 1670SOL    HW1 5909   3.310   4.567   5.741
 1670SOL    HW2 5910   3.193   4.512   5.841
 1671SOL     OW 5911   5.866   2.223   0.470
 1671SOL    HW1 5912   5.826   2.308   0.437
 1671SOL    HW2 5913   5.820   2.193   0.553
 1672SOL     OW 5914   0.199   2.555   1.457
 1672SOL    HW1 5915   0.292   2.532   1.428
 1672SOL    HW2 5916   0.157   2.474   1.497
 1673SOL     OW 5917   1.389   0.718   4.300
 1673SOL    HW1 5918   1.346   0.670   4.376
 1673SOL    HW2 5919   1.402   0.814   4.325
 1674SOL     OW 5920   4.818   1.997   3.595
 1674SOL    HW1 5921   4.838   1.928   3.525
 1674SOL    HW2 5922   4.897   2.057   3.605
 1675SOL     OW 5923   5.509   0.254   1.862
 1675SOL    HW1 5924   5.565   0.254   1.945
 1675SOL    HW2 5925   5.498   0.348   1.830
 1676SOL     OW 5926   0.703   2.344   3.733
 1676SOL    HW1 5927   0.735   2.251   3.754
 1676SOL    HW2 5928   0.760   2.411   3.781
 1677SOL     OW 5929   3.069   3.323   2.780
 1677SOL    HW1 5930   2.996   3.392   2.786
 1677SOL    HW2 5931   3.037   3.246   2.725
 1678SOL     OW 5932   0.432   6.647   0.204
 1678SOL    HW1 5933   0.409   6.642   0.107
 1678SOL    HW2 5934   0.479   6.564   0.232
 1679SOL     OW 5935   6.283   1.366   0.088
 1679SOL    HW1 5936   6.297   1.452   0.138
 1679SOL    HW2 5937   6.235   1.384   0.002
 1680SOL     OW 5938   6.114   2.865   2.806
 1680SOL    HW1 5939   6.198   2.893   2.852
 1680SOL    HW2 5940   6.065   2.799   2.863
 1681SOL     OW 5941   3.629   6.355   4.499
 1681SOL    HW1 5942   3.644   6.359   4.598
 1681SOL    HW2 5943   3.662   6.268   4.464
 1682SOL     OW 5944   4.244   0.632   4.482
 1682SOL    HW1 5945   4.171   0.577   4.523
 1682SOL    HW2 5946   4.332   0.587   4.497
 1683SOL     OW 5947   0.052   2.657   3.113
 1683SOL    HW1 5948   0.149   2.653   3.090
 1683SOL    HW2 5949   7.018   2.680   3.031
 1684SOL     OW 5950   2.500   5.601   1.198
 1684SOL    HW1 5951   2.459   5.519   1.158
 1684SOL    HW2 5952   2.501   5.593   1.297
 1685SOL     OW 5953   0.165   1.028   5.330
 1685SOL    HW1 5954   0.077   0.989   5.305
 1685SOL    HW2 5955   0.231   1.012   5.257
 1686SOL     OW 5956   3.580   5.224   1.963
 1686SOL    HW1 5957   3.536   5.154   1.906
 1686SOL    HW2 5958   3.626   5.290   1.903
 1687SOL     OW 5959   5.092   3.899   1.265
 1687SOL    HW1 5960   5.094   3.803   1.235
 1687SOL    HW2 5961   5.171   3.917   1.323
 1688SOL     OW 5962   2.179   0.227   3.401
 1688SOL    HW1 5963   2.227   0.163   3.341
 1688SOL    HW2 5964   2.195   0.201   3.497
 1689SOL     OW 5965   3.484   0.553   1.932
 1689SOL    HW1 5966   3.445   0.630   1.881
 1689SOL    HW2 5967   3.507   0.583   2.025
 1690SOL     OW 5968   6.340   4.850   4.037
 1690SOL    HW1 5969   6.416   4.814   3.983
 1690SOL    HW2 5970   6.365   4.939   4.075
 1691SOL     OW 5971   4.060   2.783   5.343
 1691SOL    HW1 5972   4.096   2.876   5.333
 1691SOL    HW2 5973   4.108   2.722   5.280
 1692SOL     OW 5974   5.521   5.366   1.215
 1692SOL    HW1 5975   5.515   5.320   1.304
 1692SOL    HW2 5976   5.583   5.444   1.222
 1693SOL     OW 5977   5.079   6.716   5.944
 1693SOL    HW1 5978   5.176   6.736   5.949
 1693SOL    HW2 5979   5.040   6.758   5.862
 1694SOL     OW 5980   4.691   1.346   6.621
 1694SOL    HW1 5981   4.734   1.285   6.688
 1694SOL    HW2 5982   4.759   1.376   6.554
 1695SOL     OW 5983   4.084   0.629   5.637
 1695SOL    HW1 5984   4.091   0.532   5.614
 1695SOL    HW2 5985   4.090   0.684   5.554
 1696SOL     OW 5986   4.323   0.275   0.921
 1696SOL    HW1 5987   4.422   0.289   0.921
 1696SOL    HW2 5988   4.277   0.359   0.949
 1697SOL     OW 5989   4.714   2.735   1.852
 1697SOL    HW1 5990   4.685   2.827   1.879
 1697SOL    HW2 5991   4.662   2.707   1.771
 1698SOL     OW 5992   4.036   1.718   1.857
 1698SOL    HW1 5993   4.073   1.702   1.948
 1698SOL    HW2 5994   3.936   1.711   1.860
 1699SOL     OW 5995   2.026   0.639   0.558
 1699SOL    HW1 5996   1.956   0.702   0.525
 1699SOL    HW2 5997   2.092   0.690   0.614
 1700SOL     OW 5998   4.937   3.377   2.844
 1700SOL    HW1 5999   4.918   3.303   2.909
 1700SOL    HW2 6000   4.972   3.456   2.894
 1701SOL     OW 6001   1.093   5.738   4.839
 1701SOL    HW1 6002   1.035   5.659   4.860
 1701SOL    HW2 6003   1.177   5.706   4.795
 1702SOL     OW 6004   2.195   3.051   6.578
 1702SOL    HW1 6005   2.121   2.995   6.539
 1702SOL    HW2 6006   2.271   2.992   6.604
 1703SOL     OW 6007   1.444   2.304   1.874
 1703SOL    HW1 6008   1.533   2.260   1.860
 1703SOL    HW2 6009   1.373   2.233   1.876
 1704SOL     OW 6010   2.765   2.699   6.575
 1704SOL    HW1 6011   2.787   2.615   6.525
 1704SOL    HW2 6012   2.828   2.710   6.652
 1705SOL     OW 6013   5.157   2.989   1.007
 1705SOL    HW1 6014   5.230   3.006   0.941
 1705SOL    HW2 6015   5.197   2.965   1.095
 1706SOL     OW 6016   5.750   1.565   6.272
 1706SOL    HW1 6017   5.799   1.494   6.323
 1706SOL    HW2 6018   5.758   1.548   6.174
 1707SOL     OW 6019   4.033   1.289   2.384
 1707SOL    HW1 6020   4.081   1.292   2.472
 1707SOL    HW2 6021   4.024   1.194   2.355
 1708SOL     OW 6022   2.565   4.541   1.771
 1708SOL    HW1 6023   2.659   4.555   1.805
 1708SOL    HW2 6024   2.500   4.573   1.840
 1709SOL     OW 6025   5.174   4.955   0.889
 1709SOL    HW1 6026   5.138   4.866   0.917
 1709SOL    HW2 6027   5.101   5.023   0.892
 1710SOL     OW 6028   4.867   2.976   2.280
 1710SOL    HW1 6029   4.793   2.942   2.222
 1710SOL    HW2 6030   4.864   3.076   2.281
 1711SOL     OW 6031   3.842   5.762   0.176
 1711SOL    HW1 6032   3.769   5.741   0.110
 1711SOL    HW2 6033   3.812   5.734   0.267
 1712SOL     OW 6034   0.078   1.955   2.045
 1712SOL    HW1 6035   0.024   1.906   1.977
 1712SOL    HW2 6036   0.168   1.911   2.054
 1713SOL     OW 6037   2.551   1.864   2.289
 1713SOL    HW1 6038   2.549   1.954   2.244
 1713SOL    HW2 6039   2.490   1.802   2.241
 1714SOL     OW 6040   2.609   4.241   0.991
 1714SOL    HW1 6041   2.518   4.216   0.956
 1714SOL    HW2 6042   2.660   4.159   1.013
 1715SOL     OW 6043   0.976   5.692   0.688
 1715SOL    HW1 6044   1.005   5.750   0.764
 1715SOL    HW2 6045   0.916   5.620   0.723
 1716SOL     OW 6046   5.114   1.693   2.976
 1716SOL    HW1 6047   5.163   1.660   3.056
 1716SOL    HW2 6048   5.159   1.776   2.942
 1717SOL     OW 6049   4.021   6.249   3.811
 1717SOL    HW1 6050   4.042   6.227   3.907
 1717SOL    HW2 6051   4.038   6.169   3.754
 1718SOL     OW 6052   1.808   3.440   1.590
 1718SOL    HW1 6053   1.801   3.358   1.647
 1718SOL    HW2 6054   1.865   3.508   1.637
 1719SOL     OW 6055   1.710   5.643   2.839
 1719SOL    HW1 6056   1.683   5.547   2.842
 1719SOL    HW2 6057   1.632   5.699   2.813
 1720SOL     OW 6058   0.980   2.818   5.235
 1720SOL    HW1 6059   1.050   2.877   5.274
 1720SOL    HW2 6060   0.923   2.780   5.309
 1721SOL     OW 6061   2.229   2.391   0.053
 1721SOL    HW1 6062   2.182   2.435   0.130
 1721SOL    HW2 6063   2.310   2.343   0.087
 1722SOL     OW 6064   2.399   2.682   3.522
 1722SOL    HW1 6065   2.410   2.722   3.613
 1722SOL    HW2 6066   2.450   2.596   3.517
 1723SOL     OW 6067   5.552   4.456   1.220
 1723SOL    HW1 6068   5.587   4.469   1.312
 1723SOL    HW2 6069   5.500   4.536   1.192
 1724SOL     OW 6070   5.488   2.697   0.984
 1724SOL    HW1 6071   5.430   2.662   1.058
 1724SOL    HW2 6072   5.565   2.635   0.969
 1725SOL     OW 6073   2.366   6.641   5.908
 1725SOL    HW1 6074   2.292   6.607   5.967
 1725SOL    HW2 6075   2.427   6.565   5.885
 1726SOL     OW 6076   4.641   4.238   3.214
 1726SOL    HW1 6077   4.640   4.178   3.293
 1726SOL    HW2 6078   4.641   4.183   3.130
 1727SOL     OW 6079   3.519   3.299   2.793
 1727SOL    HW1 6080   3.604   3.312   2.845
 1727SOL    HW2 6081   3.440   3.314   2.853
 1728SOL     OW 6082   5.718   2.156   3.995
 1728SOL    HW1 6083   5.693   2.252   3.985
 1728SOL    HW2 6084   5.643   2.106   4.038
 1729SOL     OW 6085   1.221   2.647   2.708
 1729SOL    HW1 6086   1.213   2.588   2.789
 1729SOL    HW2 6087   1.297   2.616   2.651
 1730SOL     OW 6088   2.565   6.740   5.085
 1730SOL    HW1 6089   2.517   6.796   5.153
 1730SOL    HW2 6090   2.578   6.793   5.002
 1731SOL     OW 6091   4.962   4.265   4.075
 1731SOL    HW1 6092   5.054   4.237   4.106
 1731SOL    HW2 6093   4.928   4.338   4.133
 1732SOL     OW 6094   3.562   3.809   5.075
 1732SOL    HW1 6095   3.550   3.872   4.998
 1732SOL    HW2 6096   3.552   3.715   5.043
 1733SOL     OW 6097   1.799   2.400   6.624
 1733SOL    HW1 6098   1.728   2.373   6.558
 1733SOL    HW2 6099   1.844   2.484   6.591
 1734SOL     OW 6100   0.130   3.800   0.940
 1734SOL    HW1 6101   0.148   3.702   0.937
 1734SOL    HW2 6102   0.131   3.831   1.035
 1735SOL     OW 6103   3.075   5.334   6.306
 1735SOL    HW1 6104   3.047   5.424   6.274
 1735SOL    HW2 6105   2.994   5.282   6.335
 1736SOL     OW 6106   4.849   2.288   6.489
 1736SOL    HW1 6107   4.788   2.213   6.514
 1736SOL    HW2 6108   4.930   2.252   6.443
 1737SOL     OW 6109   2.904   0.939   5.952
 1737SOL    HW1 6110   2.943   0.882   5.880
 1737SOL    HW2 6111   2.806   0.920   5.961
 1738SOL     OW 6112   1.542   4.008   1.976
 1738SOL    HW1 6113   1.600   4.078   1.933
 1738SOL    HW2 6114   1.492   4.050   2.052
 1739SOL     OW 6115   5.030   5.455   3.013
 1739SOL    HW1 6116   5.127   5.429   3.007
 1739SOL    HW2 6117   4.997   5.439   3.105
 1740SOL     OW 6118   0.116   2.765   5.024
 1740SOL    HW1 6119   0.156   2.855   5.045
 1740SOL    HW2 6120   0.167   2.694   5.073
 1741SOL     OW 6121   0.866   2.972   4.849
 1741SOL    HW1 6122   0.853   3.059   4.802
 1741SOL    HW2 6123   0.867   2.987   4.948
 1742SOL     OW 6124   6.345   6.888   0.172
 1742SOL    HW1 6125   6.290   6.831   0.112
 1742SOL    HW2 6126   6.380   6.833   0.248
 1743SOL     OW 6127   1.558   2.267   1.458
 1743SOL    HW1 6128   1.491   2.203   1.495
 1743SOL    HW2 6129   1.521   2.360   1.463
 1744SOL     OW 6130   3.163   2.259   5.514
 1744SOL    HW1 6131   3.129   2.327   5.580
 1744SOL    HW2 6132   3.137   2.286   5.422
 1745SOL     OW 6133   6.848   6.700   0.678
 1745SOL    HW1 6134   6.772   6.690   0.614
 1745SOL    HW2 6135   6.813   6.708   0.771
 1746SOL     OW 6136   2.438   4.959   2.953
 1746SOL    HW1 6137   2.489   5.044   2.946
 1746SOL    HW2 6138   2.420   4.938   3.049
 1747SOL     OW 6139   3.744   0.004   2.384
 1747SOL    HW1 6140   3.819   7.013   2.318
 1747SOL    HW2 6141   3.663   6.974   2.350
 1748SOL     OW 6142   6.812   1.978   4.187
 1748SOL    HW1 6143   6.763   2.054   4.230
 1748SOL    HW2 6144   6.748   1.924   4.133
 1749SOL     OW 6145   6.560   5.067   2.109
 1749SOL    HW1 6146   6.586   5.133   2.039
 1749SOL    HW2 6147   6.494   5.107   2.171
 1750SOL     OW 6148   2.981   0.996   0.746
 1750SOL    HW1 6149   2.994   1.093   0.727
 1750SOL    HW2 6150   3.038   0.969   0.824
 1751SOL     OW 6151   5.323   4.190   5.102
 1751SOL    HW1 6152   5.251   4.198   5.033
 1751SOL    HW2 6153   5.338   4.093   5.123
 1752SOL     OW 6154   6.810   0.760   2.306
 1752SOL    HW1 6155   6.772   0.708   2.382
 1752SOL    HW2 6156   6.781   0.718   2.219
 1753SOL     OW 6157   6.760   2.066   1.717
 1753SOL    HW1 6158   6.812   2.066   1.631
 1753SOL    HW2 6159   6.772   1.978   1.762
 1754SOL     OW 6160   3.136   5.720   3.726
 1754SOL    HW1 6161   3.233   5.723   3.749
 1754SOL    HW2 6162   3.081   5.739   3.808
 1755SOL     OW 6163   6.554   0.269   5.317
 1755SOL    HW1 6164   6.580   0.297   5.410
 1755SOL    HW2 6165   6.627   0.292   5.253
 1756SOL     OW 6166   4.402   5.984   1.532
 1756SOL    HW1 6167   4.400   5.984   1.632
 1756SOL    HW2 6168   4.443   6.069   1.499
 1757SOL     OW 6169   2.901   4.848   5.144
 1757SOL    HW1 6170   2.804   4.861   5.168
 1757SOL    HW2 6171   2.915   4.755   5.112
 1758SOL     OW 6172   1.203   5.945   3.705
 1758SOL    HW1 6173   1.234   6.032   3.742
 1758SOL    HW2 6174   1.241   5.932   3.614
 1759SOL     OW 6175   1.021   5.305   6.873
 1759SOL    HW1 6176   0.977   5.320   6.784
 1759SOL    HW2 6177   0.994   5.216   6.908
 1760SOL     OW 6178   6.309   1.648   4.677
 1760SOL    HW1 6179   6.233   1.584   4.661
 1760SOL    HW2 6180   6.308   1.677   4.773
 1761SOL     OW 6181   5.400   1.482   3.442
 1761SOL    HW1 6182   5.415   1.392   3.401
 1761SOL    HW2 6183   5.404   1.552   3.371
 1762SOL     OW 6184   1.118   1.554   5.771
 1762SOL    HW1 6185   1.084   1.638   5.812
 1762SOL    HW2 6186   1.157   1.574   5.681
 1763SOL     OW 6187   1.581   5.324   3.257
 1763SOL    HW1 6188   1.667   5.305   3.209
 1763SOL    HW2 6189   1.601   5.348   3.352
 1764SOL     OW 6190   0.897   6.019   3.206
 1764SOL    HW1 6191   0.988   6.054   3.228
 1764SOL    HW2 6192   0.842   6.012   3.290
 1765SOL     OW 6193   5.500   4.585   2.286
 1765SOL    HW1 6194   5.493   4.597   2.385
 1765SOL    HW2 6195   5.417   4.539   2.253
 1766SOL     OW 6196   4.849   4.477   4.275
 1766SOL    HW1 6197   4.846   4.528   4.361
 1766SOL    HW2 6198   4.910   4.523   4.211
 1767SOL     OW 6199   0.463   4.791   1.873
 1767SOL    HW1 6200   0.373   4.834   1.868
 1767SOL    HW2 6201   0.475   4.729   1.796
 1768SOL     OW 6202   4.193   4.665   2.568
 1768SOL    HW1 6203   4.242   4.735   2.517
 1768SOL    HW2 6204   4.254   4.587   2.584
 1769SOL     OW 6205   5.160   0.219   1.296
 1769SOL    HW1 6206   5.183   0.203   1.392
 1769SOL    HW2 6207   5.203   0.303   1.265
 1770SOL     OW 6208   1.802   5.096   0.523
 1770SOL    HW1 6209   1.815   5.029   0.450
 1770SOL    HW2 6210   1.882   5.097   0.583
 1771SOL     OW 6211   1.518   2.938   6.601
 1771SOL    HW1 6212   1.606   2.971   6.636
 1771SOL    HW2 6213   1.518   2.838   6.598
 1772SOL     OW 6214   2.024   4.255   3.119
 1772SOL    HW1 6215   2.123   4.267   3.108
 1772SOL    HW2 6216   2.005   4.220   3.211
 1773SOL     OW 6217   2.378   6.266   5.273
 1773SOL    HW1 6218   2.458   6.243   5.329
 1773SOL    HW2 6219   2.295   6.244   5.323
 1774SOL     OW 6220   5.600   5.785   1.636
 1774SOL    HW1 6221   5.696   5.805   1.659
 1774SOL    HW2 6222   5.546   5.781   1.719
 1775SOL     OW 6223   1.070   6.025   0.711
 1775SOL    HW1 6224   0.991   6.042   0.654
 1775SOL    HW2 6225   1.153   6.030   0.656
 1776SOL     OW 6226   4.409   3.814   5.983
 1776SOL    HW1 6227   4.362   3.849   5.902
 1776SOL    HW2 6228   4.359   3.842   6.065
 1777SOL     OW 6229   4.497   6.342   0.015
 1777SOL    HW1 6230   4.556   6.423   0.019
 1777SOL    HW2 6231   4.533   6.279   6.965
 1778SOL     OW 6232   6.633   0.174   3.511
 1778SOL    HW1 6233   6.662   0.252   3.456
 1778SOL    HW2 6234   6.564   0.204   3.577
 1779SOL     OW 6235   5.930   0.403   4.289
 1779SOL    HW1 6236   5.918   0.424   4.192
 1779SOL    HW2 6237   5.844   0.418   4.337
 1780SOL     OW 6238   3.025   6.205   4.768
 1780SOL    HW1 6239   3.000   6.257   4.849
 1780SOL    HW2 6240   3.017   6.107   4.788
 1781SOL     OW 6241   4.201   1.068   5.844
 1781SOL    HW1 6242   4.112   1.108   5.822
 1781SOL    HW2 6243   4.269   1.101   5.778
 1782SOL     OW 6244   5.036   0.536   2.430
 1782SOL    HW1 6245   5.048   0.518   2.527
 1782SOL    HW2 6246   4.980   0.618   2.418
 1783SOL     OW 6247   1.842   3.986   6.589
 1783SOL    HW1 6248   1.757   3.971   6.539
 1783SOL    HW2 6249   1.823   4.035   6.674
 1784SOL     OW 6250   2.561   6.375   1.499
 1784SOL    HW1 6251   2.564   6.413   1.591
 1784SOL    HW2 6252   2.556   6.449   1.431
 1785SOL     OW 6253   1.911   5.970   4.388
 1785SOL    HW1 6254   1.979   6.043   4.381
 1785SOL    HW2 6255   1.898   5.946   4.484
 1786SOL     OW 6256   0.725   6.075   1.454
 1786SOL    HW1 6257   0.779   6.035   1.381
 1786SOL    HW2 6258   0.764   6.164   1.480
 1787SOL     OW 6259   2.138   2.303   5.499
 1787SOL    HW1 6260   2.188   2.216   5.502
 1787SOL    HW2 6261   2.164   2.354   5.418
 1788SOL     OW 6262   3.891   4.062   0.556
 1788SOL    HW1 6263   3.796   4.068   0.588
 1788SOL    HW2 6264   3.903   3.979   0.501
 1789SOL     OW 6265   5.766   3.040   1.912
 1789SOL    HW1 6266   5.717   2.963   1.953
 1789SOL    HW2 6267   5.865   3.023   1.917
 1790SOL     OW 6268   2.164   1.920   4.734
 1790SOL    HW1 6269   2.166   1.834   4.785
 1790SOL    HW2 6270   2.193   1.995   4.793
 1791SOL     OW 6271   5.619   0.379   3.738
 1791SOL    HW1 6272   5.530   0.422   3.727
 1791SOL    HW2 6273   5.609   0.294   3.791
 1792SOL     OW 6274   6.620   2.405   6.591
 1792SOL    HW1 6275   6.718   2.387   6.591
 1792SOL    HW2 6276   6.602   2.495   6.629
 1793SOL     OW 6277   7.003   1.211   4.469
 1793SOL    HW1 6278   7.016   1.308   4.448
 1793SOL    HW2 6279   0.065   1.159   4.440
 1794SOL     OW 6280   0.344   1.671   6.339
 1794SOL    HW1 6281   0.316   1.767   6.345
 1794SOL    HW2 6282   0.437   1.666   6.303
 1795SOL     OW 6283   5.538   4.745   0.674
 1795SOL    HW1 6284   5.621   4.742   0.729
 1795SOL    HW2 6285   5.479   4.819   0.708
 1796SOL     OW 6286   5.888   6.929   0.881
 1796SOL    HW1 6287   5.909   0.008   0.881
 1796SOL    HW2 6288   5.948   6.882   0.946
 1797SOL     OW 6289   3.184   6.051   5.665
 1797SOL    HW1 6290   3.212   6.133   5.616
 1797SOL    HW2 6291   3.157   6.075   5.758
 1798SOL     OW 6292   2.101   3.453   5.788
 1798SOL    HW1 6293   2.200   3.463   5.792
 1798SOL    HW2 6294   2.065   3.434   5.880
 1799SOL     OW 6295   3.386   1.200   2.171
 1799SOL    HW1 6296   3.450   1.140   2.124
 1799SOL    HW2 6297   3.419   1.220   2.263
 1800SOL     OW 6298   6.297   2.817   6.171
 1800SOL    HW1 6299   6.234   2.770   6.109
 1800SOL    HW2 6300   6.375   2.852   6.119
 1801SOL     OW 6301   0.198   1.457   2.567
 1801SOL    HW1 6302   0.143   1.390   2.615
 1801SOL    HW2 6303   0.295   1.432   2.574
 1802SOL     OW 6304   5.883   4.858   4.234
 1802SOL    HW1 6305   5.895   4.955   4.209
 1802SOL    HW2 6306   5.929   4.840   4.321
 1803SOL     OW 6307   0.214   6.922   4.369
 1803SOL    HW1 6308   0.208   0.002   4.355
 1803SOL    HW2 6309   0.130   6.878   4.336
 1804SOL     OW 6310   1.212   2.742   6.533
 1804SOL    HW1 6311   1.156   2.788   6.601
 1804SOL    HW2 6312   1.304   2.726   6.570
 1805SOL     OW 6313   5.808   4.637   6.842
 1805SOL    HW1 6314   5.749   4.584   6.780
 1805SOL    HW2 6315   5.846   4.577   6.912
 1806SOL     OW 6316   0.618   2.018   1.462
 1806SOL    HW1 6317   0.623   1.982   1.369
 1806SOL    HW2 6318   0.598   2.116   1.459
 1807SOL     OW 6319   6.084   3.172   2.590
 1807SOL    HW1 6320   6.150   3.138   2.522
 1807SOL    HW2 6321   6.004   3.112   2.591
 1808SOL     OW 6322   5.692   0.892   6.473
 1808SOL    HW1 6323   5.637   0.972   6.447
 1808SOL    HW2 6324   5.632   0.819   6.505
 1809SOL     OW 6325   4.968   0.212   5.600
 1809SOL    HW1 6326   5.039   0.200   5.670
 1809SOL    HW2 6327   4.891   0.262   5.638
 1810SOL     OW 6328   1.345   1.160   4.573
 1810SOL    HW1 6329   1.269   1.194   4.629
 1810SOL    HW2 6330   1.431   1.200   4.605
 1811SOL     OW 6331   2.966   5.732   2.409
 1811SOL    HW1 6332   2.899   5.674   2.363
 1811SOL    HW2 6333   2.991   5.807   2.348
 1812SOL     OW 6334   4.105   0.364   6.216
 1812SOL    HW1 6335   4.093   0.332   6.122
 1812SOL    HW2 6336   4.044   0.441   6.233
 1813SOL     OW 6337   5.132   3.570   1.826
 1813SOL    HW1 6338   5.132   3.511   1.745
 1813SOL    HW2 6339   5.060   3.638   1.817
 1814SOL     OW 6340   6.616   5.850   0.777
 1814SOL    HW1 6341   6.605   5.875   0.681
 1814SOL    HW2 6342   6.600   5.930   0.834
 1815SOL     OW 6343   6.161   5.171   0.926
 1815SOL    HW1 6344   6.142   5.182   0.829
 1815SOL    HW2 6345   6.176   5.261   0.967
 1816SOL     OW 6346   4.051   5.209   4.164
 1816SOL    HW1 6347   3.951   5.209   4.160
 1816SOL    HW2 6348   4.084   5.301   4.184
 1817SOL     OW 6349   6.602   2.793   3.455
 1817SOL    HW1 6350   6.664   2.743   3.395
 1817SOL    HW2 6351   6.644   2.880   3.481
 1818SOL     OW 6352   2.305   1.490   0.746
 1818SOL    HW1 6353   2.304   1.392   0.767
 1818SOL    HW2 6354   2.338   1.503   0.653
 1819SOL     OW 6355   0.826   4.050   1.484
 1819SOL    HW1 6356   0.745   4.104   1.507
 1819SOL    HW2 6357   0.877   4.096   1.411
 1820SOL     OW 6358   4.199   0.080   5.102
 1820SOL    HW1 6359   4.206   0.154   5.035
 1820SOL    HW2 6360   4.275   0.016   5.090
 1821SOL     OW 6361   4.151   1.507   2.822
 1821SOL    HW1 6362   4.227   1.562   2.788
 1821SOL    HW2 6363   4.098   1.471   2.745
 1822SOL     OW 6364   1.813   3.830   3.978
 1822SOL    HW1 6365   1.751   3.899   4.016
 1822SOL    HW2 6366   1.817   3.840   3.878
 1823SOL     OW 6367   3.657   6.795   3.335
 1823SOL    HW1 6368   3.673   6.714   3.392
 1823SOL    HW2 6369   3.580   6.847   3.371
 1824SOL     OW 6370   4.652   3.244   1.693
 1824SOL    HW1 6371   4.578   3.310   1.704
 1824SOL    HW2 6372   4.632   3.162   1.748
 1825SOL     OW 6373   1.250   3.685   6.953
 1825SOL    HW1 6374   1.158   3.716   6.929
 1825SOL    HW2 6375   1.301   3.663   6.871
 1826SOL     OW 6376   3.641   2.811   0.675
 1826SOL    HW1 6377   3.552   2.847   0.644
 1826SOL    HW2 6378   3.713   2.877   0.653
 1827SOL     OW 6379   4.994   4.514   0.416
 1827SOL    HW1 6380   5.090   4.531   0.392
 1827SOL    HW2 6381   4.986   4.425   0.461
 1828SOL     OW 6382   2.558   4.664   4.723
 1828SOL    HW1 6383   2.609   4.579   4.718
 1828SOL    HW2 6384   2.614   4.734   4.767
 1829SOL     OW 6385   2.631   6.356   2.037
 1829SOL    HW1 6386   2.665   6.309   2.119
 1829SOL    HW2 6387   2.696   6.345   1.963
 1830SOL     OW 6388   4.457   1.137   6.291
 1830SOL    HW1 6389   4.370   1.110   6.250
 1830SOL    HW2 6390   4.511   1.054   6.311
 1831SOL     OW 6391   3.712   4.667   0.275
 1831SOL    HW1 6392   3.650   4.596   0.241
 1831SOL    HW2 6393   3.781   4.626   0.334
 1832SOL     OW 6394   1.828   3.757   5.207
 1832SOL    HW1 6395   1.832   3.746   5.307
 1832SOL    HW2 6396   1.783   3.843   5.185
 1833SOL     OW 6397   5.702   0.811   0.085
 1833SOL    HW1 6398   5.794   0.797   0.049
 1833SOL    HW2 6399   5.706   0.826   0.184
 1834SOL     OW 6400   1.524   3.707   6.607
 1834SOL    HW1 6401   1.441   3.753   6.638
 1834SOL    HW2 6402   1.600   3.773   6.607
 1835SOL     OW 6403   6.630   6.344   1.196
 1835SOL    HW1 6404   6.581   6.411   1.250
 1835SOL    HW2 6405   6.720   6.327   1.237
 1836SOL     OW 6406   5.922   2.044   2.778
 1836SOL    HW1 6407   5.900   1.954   2.816
 1836SOL    HW2 6408   6.021   2.053   2.771
 1837SOL     OW 6409   1.831   1.993   6.990
 1837SOL    HW1 6410   1.874   1.910   6.955
 1837SOL    HW2 6411   1.734   1.977   7.005
 1838SOL     OW 6412   4.698   0.260   0.781
 1838SOL    HW1 6413   4.646   0.298   0.858
 1838SOL    HW2 6414   4.779   0.214   0.816
 1839SOL     OW 6415   6.666   0.777   6.670
 1839SOL    HW1 6416   6.680   0.776   6.769
 1839SOL    HW2 6417   6.741   0.825   6.625
 1840SOL     OW 6418   3.820   6.960   5.045
 1840SOL    HW1 6419   3.869   0.021   5.083
 1840SOL    HW2 6420   3.832   6.881   5.106
 1841SOL     OW 6421   1.912   0.813   1.607
 1841SOL    HW1 6422   1.922   0.905   1.570
 1841SOL    HW2 6423   1.816   0.798   1.633
 1842SOL     OW 6424   6.943   5.136   1.320
 1842SOL    HW1 6425   6.948   5.217   1.261
 1842SOL    HW2 6426   6.853   5.131   1.362
 1843SOL     OW 6427   2.678   1.356   6.879
 1843SOL    HW1 6428   2.592   1.360   6.930
 1843SOL    HW2 6429   2.661   1.378   6.783
 1844SOL     OW 6430   5.175   3.100   0.290
 1844SOL    HW1 6431   5.214   3.191   0.303
 1844SOL    HW2 6432   5.158   3.057   0.379
 1845SOL     OW 6433   1.129   2.630   4.147
 1845SOL    HW1 6434   1.153   2.544   4.192
 1845SOL    HW2 6435   1.095   2.694   4.216
 1846SOL     OW 6436   3.586   1.679   2.135
 1846SOL    HW1 6437   3.637   1.661   2.218
 1846SOL    HW2 6438   3.518   1.607   2.121
 1847SOL     OW 6439   2.174   6.280   6.700
 1847SOL    HW1 6440   2.078   6.287   6.671
 1847SOL    HW2 6441   2.191   6.190   6.739
 1848SOL     OW 6442   4.068   6.529   3.727
 1848SOL    HW1 6443   4.104   6.566   3.813
 1848SOL    HW2 6444   4.039   6.434   3.742
 1849SOL     OW 6445   4.929   3.000   2.861
 1849SOL    HW1 6446   4.996   2.998   2.935
 1849SOL    HW2 6447   4.929   2.911   2.815
 1850SOL     OW 6448   4.598   1.342   0.964
 1850SOL    HW1 6449   4.609   1.332   1.062
 1850SOL    HW2 6450   4.611   1.437   0.938
 1851SOL     OW 6451   0.458   5.159   4.175
 1851SOL    HW1 6452   0.446   5.144   4.273
 1851SOL    HW2 6453   0.554   5.146   4.151
 1852SOL     OW 6454   0.686   6.671   3.470
 1852SOL    HW1 6455   0.656   6.649   3.377
 1852SOL    HW2 6456   0.668   6.768   3.489
 1853SOL     OW 6457   1.079   1.895   5.808
 1853SOL    HW1 6458   1.126   1.925   5.891
 1853SOL    HW2 6459   1.131   1.923   5.728
 1854SOL     OW 6460   0.399   0.177   4.277
 1854SOL    HW1 6461   0.317   0.212   4.323
 1854SOL    HW2 6462   0.402   0.211   4.183
 1855SOL     OW 6463   6.711   1.878   4.913
 1855SOL    HW1 6464   6.689   1.784   4.886
 1855SOL    HW2 6465   6.760   1.923   4.838
 1856SOL     OW 6466   5.009   4.254   6.849
 1856SOL    HW1 6467   4.998   4.341   6.897
 1856SOL    HW2 6468   5.040   4.271   6.755
 1857SOL     OW 6469   3.947   1.469   6.581
 1857SOL    HW1 6470   3.947   1.372   6.556
 1857SOL    HW2 6471   4.041   1.503   6.582
 1858SOL     OW 6472   5.501   1.755   5.232
 1858SOL    HW1 6473   5.419   1.725   5.184
 1858SOL    HW2 6474   5.579   1.700   5.202
 1859SOL     OW 6475   6.641   6.612   2.522
 1859SOL    HW1 6476   6.550   6.638   2.491
 1859SOL    HW2 6477   6.671   6.530   2.474
 1860SOL     OW 6478   2.593   1.035   6.373
 1860SOL    HW1 6479   2.590   1.060   6.470
 1860SOL    HW2 6480   2.652   0.954   6.362
 1861SOL     OW 6481   6.569   6.425   5.442
 1861SOL    HW1 6482   6.475   6.418   5.474
 1861SOL    HW2 6483   6.570   6.432   5.342
 1862SOL     OW 6484   3.070   5.915   6.251
 1862SOL    HW1 6485   3.134   5.851   6.294
 1862SOL    HW2 6486   3.105   5.941   6.161
 1863SOL     OW 6487   6.978   1.621   1.741
 1863SOL    HW1 6488   6.952   1.527   1.765
 1863SOL    HW2 6489   6.969   1.634   1.642
 1864SOL     OW 6490   2.224   6.769   2.130
 1864SOL    HW1 6491   2.232   6.731   2.222
 1864SOL    HW2 6492   2.178   6.857   2.134
 1865SOL     OW 6493   6.102   2.350   5.979
 1865SOL    HW1 6494   6.163   2.300   6.041
 1865SOL    HW2 6495   6.091   2.299   5.894
 1866SOL     OW 6496   6.981   4.428   3.787
 1866SOL    HW1 6497   0.033   4.399   3.723
 1866SOL    HW2 6498   6.969   4.527   3.781
 1867SOL     OW 6499   1.327   1.352   1.882
 1867SOL    HW1 6500   1.260   1.426   1.869
 1867SOL    HW2 6501   1.304   1.275   1.823
 1868SOL     OW 6502   4.799   4.020   6.235
 1868SOL    HW1 6503   4.894   4.046   6.214
 1868SOL    HW2 6504   4.769   3.950   6.171
 1869SOL     OW 6505   5.184   0.684   5.331
 1869SOL    HW1 6506   5.200   0.659   5.427
 1869SOL    HW2 6507   5.151   0.604   5.281
 1870SOL     OW 6508   5.955   0.297   6.311
 1870SOL    HW1 6509   5.877   0.359   6.296
 1870SOL    HW2 6510   5.928   0.204   6.289
 1871SOL     OW 6511   1.000   5.647   6.604
 1871SOL    HW1 6512   0.924   5.620   6.545
 1871SOL    HW2 6513   0.965   5.684   6.690
 1872SOL     OW 6514   2.502   3.265   1.121
 1872SOL    HW1 6515   2.486   3.332   1.193
 1872SOL    HW2 6516   2.421   3.207   1.110
 1873SOL     OW 6517   5.916   1.466   2.394
 1873SOL    HW1 6518   5.906   1.484   2.296
 1873SOL    HW2 6519   5.974   1.387   2.408
 1874SOL     OW 6520   1.397   6.131   6.275
 1874SOL    HW1 6521   1.350   6.084   6.200
 1874SOL    HW2 6522   1.495   6.114   6.269
 1875SOL     OW 6523   0.861   6.506   2.404
 1875SOL    HW1 6524   0.889   6.433   2.467
 1875SOL    HW2 6525   0.864   6.594   2.451
 1876SOL     OW 6526   0.628   4.654   0.391
 1876SOL    HW1 6527   0.710   4.671   0.336
 1876SOL    HW2 6528   0.655   4.635   0.486
 1877SOL     OW 6529   1.249   0.960   2.797
 1877SOL    HW1 6530   1.338   1.002   2.815
 1877SOL    HW2 6531   1.182   0.995   2.863
 1878SOL     OW 6532   5.294   3.767   4.419
 1878SOL    HW1 6533   5.219   3.818   4.460
 1878SOL    HW2 6534   5.324   3.695   4.482
 1879SOL     OW 6535   4.267   6.429   5.346
 1879SOL    HW1 6536   4.178   6.419   5.302
 1879SOL    HW2 6537   4.337   6.443   5.277
 1880SOL     OW 6538   1.346   2.784   4.327
 1880SOL    HW1 6539   1.309   2.862   4.277
 1880SOL    HW2 6540   1.400   2.816   4.405
 1881SOL     OW 6541   1.927   1.319   4.087
 1881SOL    HW1 6542   1.891   1.411   4.076
 1881SOL    HW2 6543   1.937   1.276   3.998
 1882SOL     OW 6544   3.106   5.576   0.927
 1882SOL    HW1 6545   3.022   5.580   0.873
 1882SOL    HW2 6546   3.172   5.642   0.890
 1883SOL     OW 6547   1.781   3.372   2.475
 1883SOL    HW1 6548   1.715   3.363   2.549
 1883SOL    HW2 6549   1.872   3.387   2.513
 1884SOL     OW 6550   4.772   0.295   0.258
 1884SOL    HW1 6551   4.807   0.330   0.345
 1884SOL    HW2 6552   4.811   0.349   0.183
 1885SOL     OW 6553   0.080   1.309   0.381
 1885SOL    HW1 6554   0.060   1.397   0.338
 1885SOL    HW2 6555   0.179   1.300   0.393
 1886SOL     OW 6556   3.770   2.892   5.757
 1886SOL    HW1 6557   3.735   2.819   5.699
 1886SOL    HW2 6558   3.847   2.937   5.713
 1887SOL     OW 6559   0.671   6.045   4.837
 1887SOL    HW1 6560   0.617   6.050   4.753
 1887SOL    HW2 6561   0.754   5.993   4.819
 1888SOL     OW 6562   1.595   1.666   5.876
 1888SOL    HW1 6563   1.619   1.710   5.963
 1888SOL    HW2 6564   1.507   1.618   5.886
 1889SOL     OW 6565   3.750   2.681   6.882
 1889SOL    HW1 6566   3.777   2.757   6.941
 1889SOL    HW2 6567   3.816   2.606   6.892
 1890SOL     OW 6568   6.367   5.781   6.367
 1890SOL    HW1 6569   6.436   5.796   6.297
 1890SOL    HW2 6570   6.319   5.695   6.349
 1891SOL     OW 6571   5.233   3.403   0.240
 1891SOL    HW1 6572   5.261   3.374   0.332
 1891SOL    HW2 6573   5.194   3.495   0.245
 1892SOL     OW 6574   3.812   0.509   3.151
 1892SOL    HW1 6575   3.825   0.607   3.167
 1892SOL    HW2 6576   3.855   0.483   3.064
 1893SOL     OW 6577   2.508   0.809   6.662
 1893SOL    HW1 6578   2.419   0.792   6.619
 1893SOL    HW2 6579   2.573   0.739   6.634
 1894SOL     OW 6580   4.848   2.898   0.426
 1894SOL    HW1 6581   4.877   2.911   0.332
 1894SOL    HW2 6582   4.757   2.938   0.439
 1895SOL     OW 6583   4.985   5.416   3.275
 1895SOL    HW1 6584   5.032   5.335   3.308
 1895SOL    HW2 6585   4.916   5.444   3.342
 1896SOL     OW 6586   6.799   1.903   5.177
 1896SOL    HW1 6587   6.749   1.930   5.094
 1896SOL    HW2 6588   6.896   1.923   5.165
 1897SOL     OW 6589   4.931   4.854   3.420
 1897SOL    HW1 6590   5.029   4.852   3.442
 1897SOL    HW2 6591   4.882   4.902   3.492
 1898SOL     OW 6592   5.565   6.499   0.116
 1898SOL    HW1 6593   5.661   6.527   0.123
 1898SOL    HW2 6594   5.507   6.573   0.149
 1899SOL     OW 6595   2.157   2.982   3.265
 1899SOL    HW1 6596   2.167   3.075   3.299
 1899SOL    HW2 6597   2.110   2.983   3.177
 1900SOL     OW 6598   2.119   5.504   1.584
 1900SOL    HW1 6599   2.084   5.421   1.628
 1900SOL    HW2 6600   2.044   5.551   1.538
 1901SOL     OW 6601   1.774   0.653   5.134
 1901SOL    HW1 6602   1.821   0.592   5.198
 1901SOL    HW2 6603   1.739   0.600   5.056
 1902SOL     OW 6604   0.849   2.945   3.709
 1902SOL    HW1 6605   0.900   3.029   3.723
 1902SOL    HW2 6606   0.771   2.942   3.771
 1903SOL     OW 6607   6.731   4.873   3.718
 1903SOL    HW1 6608   6.728   4.824   3.631
 1903SOL    HW2 6609   6.665   4.948   3.717
 1904SOL     OW 6610   0.810   0.310   3.992
 1904SOL    HW1 6611   0.879   0.308   4.065
 1904SOL    HW2 6612   0.736   0.372   4.019
 1905SOL     OW 6613   6.423   2.835   5.114
 1905SOL    HW1 6614   6.373   2.911   5.156
 1905SOL    HW2 6615   6.425   2.758   5.177
 1906SOL     OW 6616   2.361   6.691   5.602
 1906SOL    HW1 6617   2.379   6.699   5.700
 1906SOL    HW2 6618   2.405   6.766   5.554
 1907SOL     OW 6619   4.335   0.054   3.367
 1907SOL    HW1 6620   4.290   6.988   3.339
 1907SOL    HW2 6621   4.315   0.072   3.463
 1908SOL     OW 6622   4.646   5.953   1.108
 1908SOL    HW1 6623   4.606   6.034   1.066
 1908SOL    HW2 6624   4.588   5.922   1.183
 1909SOL     OW 6625   5.157   5.210   3.644
 1909SOL    HW1 6626   5.095   5.146   3.690
 1909SOL    HW2 6627   5.245   5.211   3.691
 1910SOL     OW 6628   4.946   3.355   4.380
 1910SOL    HW1 6629   4.904   3.306   4.457
 1910SOL    HW2 6630   4.943   3.296   4.299
 1911SOL     OW 6631   0.590   2.663   5.883
 1911SOL    HW1 6632   0.569   2.568   5.906
 1911SOL    HW2 6633   0.552   2.723   5.953
 1912SOL     OW 6634   3.578   6.219   3.136
 1912SOL    HW1 6635   3.636   6.241   3.057
 1912SOL    HW2 6636   3.504   6.285   3.142
 1913SOL     OW 6637   2.375   4.158   5.633
 1913SOL    HW1 6638   2.403   4.115   5.546
 1913SOL    HW2 6639   2.417   4.248   5.640
 1914SOL     OW 6640   4.317   1.779   4.742
 1914SOL    HW1 6641   4.247   1.850   4.738
 1914SOL    HW2 6642   4.289   1.709   4.808
 1915SOL     OW 6643   3.213   0.236   5.574
 1915SOL    HW1 6644   3.159   0.204   5.651
 1915SOL    HW2 6645   3.179   0.194   5.490
 1916SOL     OW 6646   3.500   6.364   2.731
 1916SOL    HW1 6647   3.430   6.356   2.802
 1916SOL    HW2 6648   3.585   6.322   2.762
 1917SOL     OW 6649   3.511   3.836   4.279
 1917SOL    HW1 6650   3.503   3.924   4.232
 1917SOL    HW2 6651   3.488   3.762   4.215
 1918SOL     OW 6652   6.950   6.375   5.444
 1918SOL    HW1 6653   6.939   6.336   5.352
 1918SOL    HW2 6654   0.027   6.366   5.473
 1919SOL     OW 6655   6.644   0.839   2.592
 1919SOL    HW1 6656   6.580   0.802   2.660
 1919SOL    HW2 6657   6.704   0.766   2.560
 1920SOL     OW 6658   6.543   6.241   4.944
 1920SOL    HW1 6659   6.484   6.278   4.873
 1920SOL    HW2 6660   6.638   6.244   4.914
 1921SOL     OW 6661   2.110   6.496   6.851
 1921SOL    HW1 6662   2.188   6.548   6.888
 1921SOL    HW2 6663   2.143   6.425   6.789
 1922SOL     OW 6664   3.663   4.412   0.570
 1922SOL    HW1 6665   3.630   4.416   0.664
 1922SOL    HW2 6666   3.736   4.479   0.557
 1923SOL     OW 6667   1.677   2.629   0.947
 1923SOL    HW1 6668   1.769   2.613   0.984
 1923SOL    HW2 6669   1.666   2.581   0.860
 1924SOL     OW 6670   0.798   3.616   1.082
 1924SOL    HW1 6671   0.883   3.656   1.116
 1924SOL    HW2 6672   0.797   3.621   0.982
 1925SOL     OW 6673   3.127   4.463   0.298
 1925SOL    HW1 6674   3.035   4.430   0.318
 1925SOL    HW2 6675   3.191   4.387   0.301
 1926SOL     OW 6676   0.604   0.621   3.750
 1926SOL    HW1 6677   0.554   0.697   3.708
 1926SOL    HW2 6678   0.578   0.613   3.846
 1927SOL     OW 6679   5.165   3.374   1.614
 1927SOL    HW1 6680   5.242   3.315   1.638
 1927SOL    HW2 6681   5.080   3.329   1.639
 1928SOL     OW 6682   0.025   5.600   4.501
 1928SOL    HW1 6683   6.958   5.652   4.516
 1928SOL    HW2 6684   0.010   5.505   4.526
 1929SOL     OW 6685   1.501   5.776   2.761
 1929SOL    HW1 6686   1.495   5.870   2.794
 1929SOL    HW2 6687   1.411   5.732   2.771
 1930SOL     OW 6688   7.017   5.440   6.302
 1930SOL    HW1 6689   6.999   5.533   6.335
 1930SOL    HW2 6690   0.042   5.387   6.375
 1931SOL     OW 6691   0.855   2.338   4.468
 1931SOL    HW1 6692   0.781   2.286   4.425
 1931SOL    HW2 6693   0.932   2.278   4.486
 1932SOL     OW 6694   5.914   3.535   2.793
 1932SOL    HW1 6695   5.901   3.462   2.860
 1932SOL    HW2 6696   5.830   3.548   2.741
 1933SOL     OW 6697   2.924   4.984   0.079
 1933SOL    HW1 6698   3.023   4.976   0.095
 1933SOL    HW2 6699   2.906   5.059   0.015
 1934SOL     OW 6700   0.015   6.018   2.987
 1934SOL    HW1 6701   6.969   5.967   3.045
 1934SOL    HW2 6702   0.106   5.976   2.994
 1935SOL     OW 6703   1.935   1.283   3.482
 1935SOL    HW1 6704   1.904   1.374   3.454
 1935SOL    HW2 6705   1.861   1.217   3.469
 1936SOL     OW 6706   6.760   5.869   5.187
 1936SOL    HW1 6707   6.854   5.848   5.212
 1936SOL    HW2 6708   6.735   5.959   5.225
 1937SOL     OW 6709   4.113   1.084   3.158
 1937SOL    HW1 6710   4.180   1.026   3.113
 1937SOL    HW2 6711   4.069   1.144   3.091
 1938SOL     OW 6712   5.709   0.425   4.447
 1938SOL    HW1 6713   5.637   0.359   4.467
 1938SOL    HW2 6714   5.702   0.503   4.510
 1939SOL     OW 6715   2.915   0.496   4.656
 1939SOL    HW1 6716   2.902   0.591   4.626
 1939SOL    HW2 6717   2.833   0.464   4.703
 1940SOL     OW 6718   6.221   6.164   6.389
 1940SOL    HW1 6719   6.143   6.121   6.344
 1940SOL    HW2 6720   6.265   6.228   6.326
 1941SOL     OW 6721   4.715   4.945   2.450
 1941SOL    HW1 6722   4.782   5.017   2.466
 1941SOL    HW2 6723   4.724   4.875   2.521
 1942SOL     OW 6724   0.483   3.874   3.108
 1942SOL    HW1 6725   0.461   3.806   3.177
 1942SOL    HW2 6726   0.536   3.948   3.150
 1943SOL     OW 6727   2.907   5.952   3.227
 1943SOL    HW1 6728   2.992   5.900   3.240
 1943SOL    HW2 6729   2.857   5.915   3.149
 1944SOL     OW 6730   6.852   6.628   1.916
 1944SOL    HW1 6731   6.869   6.532   1.897
 1944SOL    HW2 6732   6.908   6.685   1.856
 1945SOL     OW 6733   3.345   4.869   3.039
 1945SOL    HW1 6734   3.257   4.854   3.084
 1945SOL    HW2 6735   3.338   4.844   2.942
 1946SOL     OW 6736   1.206   6.880   6.733
 1946SOL    HW1 6737   1.235   6.787   6.712
 1946SOL    HW2 6738   1.245   6.944   6.667
 1947SOL     OW 6739   4.632   6.933   3.567
 1947SOL    HW1 6740   4.682   6.937   3.654
 1947SOL    HW2 6741   4.586   0.002   3.552
 1948SOL     OW 6742   6.408   3.858   4.959
 1948SOL    HW1 6743   6.457   3.877   5.044
 1948SOL    HW2 6744   6.375   3.944   4.920
 1949SOL     OW 6745   4.302   4.644   6.687
 1949SOL    HW1 6746   4.224   4.662   6.627
 1949SOL    HW2 6747   4.305   4.712   6.760
 1950SOL     OW 6748   3.515   5.214   0.932
 1950SOL    HW1 6749   3.574   5.134   0.916
 1950SOL    HW2 6750   3.550   5.267   1.009
 1951SOL     OW 6751   6.515   2.656   0.688
 1951SOL    HW1 6752   6.469   2.705   0.614
 1951SOL    HW2 6753   6.612   2.678   0.687
 1952SOL     OW 6754   3.314   2.948   4.811
 1952SOL    HW1 6755   3.289   3.045   4.803
 1952SOL    HW2 6756   3.232   2.892   4.794
 1953SOL     OW 6757   0.536   2.900   4.710
 1953SOL    HW1 6758   0.594   2.944   4.641
 1953SOL    HW2 6759   0.520   2.805   4.684
 1954SOL     OW 6760   2.755   1.958   3.797
 1954SOL    HW1 6761   2.717   2.039   3.842
 1954SOL    HW2 6762   2.726   1.876   3.847
 1955SOL     OW 6763   6.079   5.586   1.714
 1955SOL    HW1 6764   6.012   5.658   1.733
 1955SOL    HW2 6765   6.094   5.579   1.616
 1956SOL     OW 6766   5.081   5.835   2.519
 1956SOL    HW1 6767   5.160   5.888   2.490
 1956SOL    HW2 6768   5.085   5.819   2.618
 1957SOL     OW 6769   1.679   6.568   4.515
 1957SOL    HW1 6770   1.734   6.488   4.537
 1957SOL    HW2 6771   1.669   6.625   4.597
 1958SOL     OW 6772   4.022   3.666   5.704
 1958SOL    HW1 6773   4.015   3.711   5.615
 1958SOL    HW2 6774   3.930   3.644   5.738
 1959SOL     OW 6775   2.358   0.998   0.624
 1959SOL    HW1 6776   2.349   1.036   0.532
 1959SOL    HW2 6777   2.430   0.929   0.625
 1960SOL     OW 6778   5.614   5.660   2.545
 1960SOL    HW1 6779   5.706   5.657   2.583
 1960SOL    HW2 6780   5.558   5.723   2.599
 1961SOL     OW 6781   6.036   5.112   5.155
 1961SOL    HW1 6782   6.087   5.027   5.164
 1961SOL    HW2 6783   6.059   5.173   5.231
 1962SOL     OW 6784   6.882   6.837   3.797
 1962SOL    HW1 6785   6.871   6.747   3.839
 1962SOL    HW2 6786   6.974   6.872   3.816
 1963SOL     OW 6787   2.512   0.775   3.538
 1963SOL    HW1 6788   2.423   0.734   3.513
 1963SOL    HW2 6789   2.577   0.702   3.558
 1964SOL     OW 6790   5.861   3.373   2.330
 1964SOL    HW1 6791   5.929   3.379   2.403
 1964SOL    HW2 6792   5.887   3.301   2.265
 1965SOL     OW 6793   2.306   6.207   3.389
 1965SOL    HW1 6794   2.294   6.284   3.327
 1965SOL    HW2 6795   2.218   6.165   3.407
 1966SOL     OW 6796   6.166   0.226   0.008
 1966SOL    HW1 6797   6.113   0.167   0.068
 1966SOL    HW2 6798   6.133   0.320   0.015
 1967SOL     OW 6799   5.206   3.703   5.174
 1967SOL    HW1 6800   5.237   3.615   5.139
 1967SOL    HW2 6801   5.250   3.721   5.262
 1968SOL     OW 6802   3.843   5.078   4.738
 1968SOL    HW1 6803   3.888   5.000   4.694
 1968SOL    HW2 6804   3.748   5.054   4.758
 1969SOL     OW 6805   6.754   1.466   1.891
 1969SOL    HW1 6806   6.685   1.537   1.905
 1969SOL    HW2 6807   6.829   1.479   1.955
 1970SOL     OW 6808   1.866   0.687   3.399
 1970SOL    HW1 6809   1.840   0.725   3.488
 1970SOL    HW2 6810   1.786   0.684   3.339
 1971SOL     OW 6811   0.209   1.359   6.086
 1971SOL    HW1 6812   0.295   1.407   6.068
 1971SOL    HW2 6813   0.206   1.274   6.034
 1972SOL     OW 6814   1.424   0.466   3.351
 1972SOL    HW1 6815   1.472   0.475   3.438
 1972SOL    HW2 6816   1.439   0.374   3.313
 1973SOL     OW 6817   2.645   3.638   0.267
 1973SOL    HW1 6818   2.636   3.648   0.168
 1973SOL    HW2 6819   2.562   3.596   0.304
 1974SOL     OW 6820   6.099   6.965   4.404
 1974SOL    HW1 6821   6.153   6.957   4.320
 1974SOL    HW2 6822   6.022   0.009   4.389
 1975SOL     OW 6823   2.635   0.246   3.635
 1975SOL    HW1 6824   2.625   0.186   3.715
 1975SOL    HW2 6825   2.730   0.245   3.605
 1976SOL     OW 6826   6.367   3.862   6.369
 1976SOL    HW1 6827   6.423   3.921   6.427
 1976SOL    HW2 6828   6.361   3.771   6.411
 1977SOL     OW 6829   2.880   2.017   5.725
 1977SOL    HW1 6830   2.864   1.922   5.752
 1977SOL    HW2 6831   2.948   2.019   5.652
 1978SOL     OW 6832   0.119   2.166   5.378
 1978SOL    HW1 6833   0.028   2.133   5.404
 1978SOL    HW2 6834   0.164   2.206   5.458
 1979SOL     OW 6835   6.308   4.144   2.236
 1979SOL    HW1 6836   6.251   4.106   2.308
 1979SOL    HW2 6837   6.402   4.110   2.247
 1980SOL     OW 6838   3.035   1.222   1.870
 1980SOL    HW1 6839   3.081   1.177   1.946
 1980SOL    HW2 6840   2.937   1.227   1.890
 1981SOL     OW 6841   5.192   3.423   2.030
 1981SOL    HW1 6842   5.220   3.334   1.994
 1981SOL    HW2 6843   5.150   3.477   1.958
 1982SOL     OW 6844   6.898   6.630   5.287
 1982SOL    HW1 6845   6.860   6.562   5.350
 1982SOL    HW2 6846   6.843   6.632   5.203
 1983SOL     OW 6847   0.647   4.353   2.430
 1983SOL    HW1 6848   0.593   4.293   2.371
 1983SOL    HW2 6849   0.717   4.399   2.375
 1984SOL     OW 6850   4.632   0.764   4.953
 1984SOL    HW1 6851   4.582   0.711   4.885
 1984SOL    HW2 6852   4.622   0.862   4.933
 1985SOL     OW 6853   1.506   6.284   1.127
 1985SOL    HW1 6854   1.526   6.255   1.221
 1985SOL    HW2 6855   1.519   6.382   1.119
 1986SOL     OW 6856   0.216   2.379   6.957
 1986SOL    HW1 6857   0.132   2.330   6.935
 1986SOL    HW2 6858   0.194   2.461   7.010
 1987SOL     OW 6859   2.823   4.762   6.885
 1987SOL    HW1 6860   2.789   4.856   6.887
 1987SOL    HW2 6861   2.779   4.712   6.810
 1988SOL     OW 6862   4.487   3.330   0.326
 1988SOL    HW1 6863   4.390   3.350   0.337
 1988SOL    HW2 6864   4.538   3.368   0.403
 1989SOL     OW 6865   2.010   2.033   4.036
 1989SOL    HW1 6866   1.939   2.086   4.081
 1989SOL    HW2 6867   2.086   2.093   4.010
 1990SOL     OW 6868   1.579   0.655   2.914
 1990SOL    HW1 6869   1.601   0.750   2.891
 1990SOL    HW2 6870   1.480   0.646   2.928
 1991SOL     OW 6871   4.380   5.611   3.002
 1991SOL    HW1 6872   4.429   5.637   2.919
 1991SOL    HW2 6873   4.386   5.513   3.015
 1992SOL     OW 6874   2.639   6.159   5.297
 1992SOL    HW1 6875   2.723   6.199   5.333
 1992SOL    HW2 6876   2.618   6.199   5.208
 1993SOL     OW 6877   3.176   3.603   4.175
 1993SOL    HW1 6878   3.266   3.625   4.137
 1993SOL    HW2 6879   3.187   3.550   4.259
 1994SOL     OW 6880   6.388   2.439   2.036
 1994SOL    HW1 6881   6.419   2.397   1.951
 1994SOL    HW2 6882   6.418   2.384   2.114
 1995SOL     OW 6883   4.061   2.389   1.500
 1995SOL    HW1 6884   4.056   2.292   1.524
 1995SOL    HW2 6885   4.116   2.401   1.417
 1996SOL     OW 6886   2.891   4.070   5.224
 1996SOL    HW1 6887   2.974   4.071   5.169
 1996SOL    HW2 6888   2.864   3.976   5.243
 1997SOL     OW 6889   5.689   6.530   3.559
 1997SOL    HW1 6890   5.766   6.562   3.504
 1997SOL    HW2 6891   5.713   6.532   3.656
 1998SOL     OW 6892   3.326   5.166   4.958
 1998SOL    HW1 6893   3.238   5.119   4.951
 1998SOL    HW2 6894   3.343   5.191   5.053
 1999SOL     OW 6895   2.512   1.349   1.757
 1999SOL    HW1 6896   2.568   1.367   1.838
 1999SOL    HW2 6897   2.555   1.278   1.701
 2000SOL     OW 6898   3.396   1.498   4.957
 2000SOL    HW1 6899   3.308   1.528   4.994
 2000SOL    HW2 6900   3.411   1.540   4.868
 2001SOL     OW 6901   2.311   3.553   0.097
 2001SOL    HW1 6902   2.249   3.553   0.018
 2001SOL    HW2 6903   2.286   3.478   0.158
 2002SOL     OW 6904   1.585   5.396   4.880
 2002SOL    HW1 6905   1.524   5.401   4.959
 2002SOL    HW2 6906   1.538   5.352   4.804
 2003SOL     OW 6907   6.621   4.237   2.988
 2003SOL    HW1 6908   6.712   4.197   2.999
 2003SOL    HW2 6909   6.554   4.182   3.038
 2004SOL     OW 6910   3.094   6.986   6.780
 2004SOL    HW1 6911   3.018   6.924   6.758
 2004SOL    HW2 6912   3.081   0.004   6.873
 2005SOL     OW 6913   2.880   6.945   5.305
 2005SOL    HW1 6914   2.818   6.932   5.382
 2005SOL    HW2 6915   2.950   7.013   5.330
 2006SOL     OW 6916   5.123   6.462   3.208
 2006SOL    HW1 6917   5.038   6.515   3.213
 2006SOL    HW2 6918   5.108   6.382   3.150
 2007SOL     OW 6919   6.679   5.420   0.035
 2007SOL    HW1 6920   6.595   5.475   0.030
 2007SOL    HW2 6921   6.689   5.368   6.968
 2008SOL     OW 6922   0.131   6.155   5.286
 2008SOL    HW1 6923   0.057   6.212   5.251
 2008SOL    HW2 6924   0.093   6.070   5.324
 2009SOL     OW 6925   0.996   0.695   6.853
 2009SOL    HW1 6926   0.927   0.632   6.818
 2009SOL    HW2 6927   0.979   0.712   6.950
 2010SOL     OW 6928   1.606   0.684   1.254
 2010SOL    HW1 6929   1.639   0.778   1.243
 2010SOL    HW2 6930   1.620   0.634   1.168
 2011SOL     OW 6931   0.393   1.928   5.105
 2011SOL    HW1 6932   0.472   1.917   5.166
 2011SOL    HW2 6933   0.334   1.848   5.112
 2012SOL     OW 6934   6.663   3.280   0.702
 2012SOL    HW1 6935   6.671   3.182   0.720
 2012SOL    HW2 6936   6.715   3.331   0.771
 2013SOL     OW 6937   4.181   2.246   1.961
 2013SOL    HW1 6938   4.093   2.218   2.000
 2013SOL    HW2 6939   4.188   2.345   1.959
 2014SOL     OW 6940   3.061   6.086   3.639
 2014SOL    HW1 6941   3.121   6.021   3.593
 2014SOL    HW2 6942   3.114   6.135   3.709
 2015SOL     OW 6943   3.012   6.412   0.172
 2015SOL    HW1 6944   2.955   6.351   0.226
 2015SOL    HW2 6945   3.103   6.419   0.213
 2016SOL     OW 6946   6.482   5.855   4.171
 2016SOL    HW1 6947   6.395   5.892   4.139
 2016SOL    HW2 6948   6.534   5.927   4.217
 2017SOL     OW 6949   2.244   5.023   2.041
 2017SOL    HW1 6950   2.325   4.965   2.048
 2017SOL    HW2 6951   2.272   5.118   2.031
 2018SOL     OW 6952   0.480   3.997   5.927
 2018SOL    HW1 6953   0.478   3.897   5.928
 2018SOL    HW2 6954   0.411   4.031   5.863
 2019SOL     OW 6955   5.854   1.616   3.070
 2019SOL    HW1 6956   5.917   1.670   3.126
 2019SOL    HW2 6957   5.884   1.521   3.068
 2020SOL     OW 6958   1.902   5.462   2.905
 2020SOL    HW1 6959   1.857   5.407   2.835
 2020SOL    HW2 6960   1.871   5.557   2.898
 2021SOL     OW 6961   2.282   0.238   1.732
 2021SOL    HW1 6962   2.184   0.242   1.714
 2021SOL    HW2 6963   2.329   0.196   1.654
 2022SOL     OW 6964   2.769   5.000   1.074
 2022SOL    HW1 6965   2.862   4.974   1.101
 2022SOL    HW2 6966   2.708   4.993   1.152
 2023SOL     OW 6967   6.170   1.232   6.430
 2023SOL    HW1 6968   6.210   1.223   6.339
 2023SOL    HW2 6969   6.127   1.145   6.456
 2024SOL     OW 6970   6.066   0.440   2.742
 2024SOL    HW1 6971   6.073   0.344   2.715
 2024SOL    HW2 6972   6.138   0.493   2.698
 2025SOL     OW 6973   6.044   0.918   1.121
 2025SOL    HW1 6974   6.097   0.987   1.072
 2025SOL    HW2 6975   5.947   0.942   1.119
 2026SOL     OW 6976   1.581   2.215   4.816
 2026SOL    HW1 6977   1.608   2.293   4.759
 2026SOL    HW2 6978   1.513   2.160   4.769
 2027SOL     OW 6979   0.760   1.029   2.458
 2027SOL    HW1 6980   0.851   0.986   2.453
 2027SOL    HW2 6981   0.766   1.122   2.422
 2028SOL     OW 6982   3.437   4.201   5.943
 2028SOL    HW1 6983   3.512   4.190   6.009
 2028SOL    HW2 6984   3.366   4.260   5.982
 2029SOL     OW 6985   1.661   0.458   0.136
 2029SOL    HW1 6986   1.721   0.443   0.058
 2029SOL    HW2 6987   1.712   0.445   0.221
 2030SOL     OW 6988   1.799   2.762   3.341
 2030SOL    HW1 6989   1.835   2.750   3.434
 2030SOL    HW2 6990   1.770   2.857   3.329
 2031SOL     OW 6991   5.824   0.056   2.725
 2031SOL    HW1 6992   5.726   0.061   2.707
 2031SOL    HW2 6993   5.869   0.007   2.650
 2032SOL     OW 6994   4.727   6.112   1.827
 2032SOL    HW1 6995   4.669   6.161   1.762
 2032SOL    HW2 6996   4.673   6.082   1.905
 2033SOL     OW 6997   0.052   4.922   6.797
 2033SOL    HW1 6998   0.044   4.899   6.894
 2033SOL    HW2 6999   0.135   4.975   6.781
 2034SOL     OW 7000   2.112   6.410   3.676
 2034SOL    HW1 7001   2.136   6.313   3.674
 2034SOL    HW2 7002   2.185   6.462   3.719
 2035SOL     OW 7003   0.026   2.432   1.835
 2035SOL    HW1 7004   7.017   2.519   1.794
 2035SOL    HW2 7005   6.967   2.368   1.832
 2036SOL     OW 7006   0.410   4.223   0.811
 2036SOL    HW1 7007   0.328   4.165   0.813
 2036SOL    HW2 7008   0.446   4.226   0.718
 2037SOL     OW 7009   0.323   1.931   6.361
 2037SOL    HW1 7010   0.405   1.954   6.413
 2037SOL    HW2 7011   0.244   1.976   6.401
 2038SOL     OW 7012   1.156   6.982   4.941
 2038SOL    HW1 7013   1.217   0.041   4.923
 2038SOL    HW2 7014   1.154   6.964   5.039
 2039SOL     OW 7015   1.226   5.809   1.953
 2039SOL    HW1 7016   1.204   5.739   1.886
 2039SOL    HW2 7017   1.182   5.787   2.040
 2040SOL     OW 7018   3.873   4.027   4.195
 2040SOL    HW1 7019   3.792   4.044   4.139
 2040SOL    HW2 7020   3.859   4.065   4.287
 2041SOL     OW 7021   5.747   3.114   0.207
 2041SOL    HW1 7022   5.742   3.082   0.113
 2041SOL    HW2 7023   5.782   3.208   0.208
 2042SOL     OW 7024   3.332   5.814   0.573
 2042SOL    HW1 7025   3.348   5.761   0.656
 2042SOL    HW2 7026   3.417   5.819   0.520
 2043SOL     OW 7027   4.469   5.151   2.336
 2043SOL    HW1 7028   4.435   5.110   2.251
 2043SOL    HW2 7029   4.563   5.121   2.352
 2044SOL     OW 7030   6.441   0.999   1.870
 2044SOL    HW1 7031   6.420   0.922   1.930
 2044SOL    HW2 7032   6.405   1.084   1.910
 2045SOL     OW 7033   2.667   6.310   6.291
 2045SOL    HW1 7034   2.629   6.275   6.377
 2045SOL    HW2 7035   2.596   6.356   6.239
 2046SOL     OW 7036   6.171   0.301   5.076
 2046SOL    HW1 7037   6.224   0.329   4.997
 2046SOL    HW2 7038   6.149   0.381   5.132
 2047SOL     OW 7039   5.032   2.501   0.096
 2047SOL    HW1 7040   4.986   2.457   0.019
 2047SOL    HW2 7041   5.124   2.464   0.106
 2048SOL     OW 7042   4.721   6.168   5.504
 2048SOL    HW1 7043   4.713   6.184   5.406
 2048SOL    HW2 7044   4.657   6.096   5.531
 2049SOL     OW 7045   4.632   6.166   0.264
 2049SOL    HW1 7046   4.584   6.243   0.223
 2049SOL    HW2 7047   4.642   6.093   0.197
 2050SOL     OW 7048   5.719   0.457   3.981
 2050SOL    HW1 7049   5.669   0.452   3.894
 2050SOL    HW2 7050   5.706   0.548   4.021
 2051SOL     OW 7051   2.540   5.272   1.022
 2051SOL    HW1 7052   2.502   5.191   0.977
 2051SOL    HW2 7053   2.553   5.344   0.955
 2052SOL     OW 7054   1.317   3.002   0.791
 2052SOL    HW1 7055   1.391   3.029   0.853
 2052SOL    HW2 7056   1.311   3.068   0.716
 2053SOL     OW 7057   5.535   1.033   0.294
 2053SOL    HW1 7058   5.634   1.037   0.283
 2053SOL    HW2 7059   5.501   1.122   0.326
 2054SOL     OW 7060   0.025   3.588   1.428
 2054SOL    HW1 7061   7.006   3.539   1.350
 2054SOL    HW2 7062   6.997   3.558   1.512
 2055SOL     OW 7063   6.361   1.892   4.058
 2055SOL    HW1 7064   6.285   1.904   4.122
 2055SOL    HW2 7065   6.335   1.926   3.968
 2056SOL     OW 7066   0.975   0.211   1.712
 2056SOL    HW1 7067   0.974   0.228   1.811
 2056SOL    HW2 7068   0.881   0.201   1.680
 2057SOL     OW 7069   6.005   2.335   4.247
 2057SOL    HW1 7070   5.912   2.369   4.255
 2057SOL    HW2 7071   6.041   2.315   4.338
 2058SOL     OW 7072   0.880   1.868   1.974
 2058SOL    HW1 7073   0.954   1.926   1.940
 2058SOL    HW2 7074   0.895   1.848   2.071
 2059SOL     OW 7075   1.556   0.521   6.477
 2059SOL    HW1 7076   1.469   0.570   6.479
 2059SOL    HW2 7077   1.563   0.461   6.556
 2060SOL     OW 7078   0.288   5.524   1.941
 2060SOL    HW1 7079   0.266   5.533   1.844
 2060SOL    HW2 7080   0.334   5.608   1.972
 2061SOL     OW 7081   0.804   1.188   1.314
 2061SOL    HW1 7082   0.792   1.108   1.255
 2061SOL    HW2 7083   0.885   1.239   1.285
 2062SOL     OW 7084   4.168   0.387   3.726
 2062SOL    HW1 7085   4.069   0.400   3.715
 2062SOL    HW2 7086   4.217   0.450   3.666
 2063SOL     OW 7087   2.348   1.916   0.481
 2063SOL    HW1 7088   2.348   1.839   0.418
 2063SOL    HW2 7089   2.382   1.887   0.570
 2064SOL     OW 7090   1.065   1.794   0.197
 2064SOL    HW1 7091   1.033   1.865   0.134
 2064SOL    HW2 7092   1.155   1.821   0.233
 2065SOL     OW 7093   6.350   3.623   2.742
 2065SOL    HW1 7094   6.389   3.641   2.652
 2065SOL    HW2 7095   6.256   3.657   2.744
 2066SOL     OW 7096   1.490   6.760   3.156
 2066SOL    HW1 7097   1.567   6.815   3.188
 2066SOL    HW2 7098   1.473   6.686   3.222
 2067SOL     OW 7099   6.904   0.213   0.608
 2067SOL    HW1 7100   6.927   0.115   0.606
 2067SOL    HW2 7101   6.954   0.257   0.683
 2068SOL     OW 7102   2.252   1.374   4.874
 2068SOL    HW1 7103   2.251   1.462   4.826
 2068SOL    HW2 7104   2.319   1.313   4.831
 2069SOL     OW 7105   1.348   1.935   2.007
 2069SOL    HW1 7106   1.434   1.924   2.057
 2069SOL    HW2 7107   1.283   1.866   2.037
 2070SOL     OW 7108   1.020   0.983   2.501
 2070SOL    HW1 7109   1.014   0.916   2.575
 2070SOL    HW2 7110   1.085   1.055   2.526
 2071SOL     OW 7111   2.095   6.119   4.889
 2071SOL    HW1 7112   2.008   6.091   4.929
 2071SOL    HW2 7113   2.113   6.065   4.807
 2072SOL     OW 7114   4.753   4.868   1.991
 2072SOL    HW1 7115   4.738   4.962   1.959
 2072SOL    HW2 7116   4.679   4.842   2.053
 2073SOL     OW 7117   3.371   6.324   5.245
 2073SOL    HW1 7118   3.405   6.404   5.195
 2073SOL    HW2 7119   3.282   6.297   5.207
 2074SOL     OW 7120   6.226   2.145   2.198
 2074SOL    HW1 7121   6.188   2.203   2.125
 2074SOL    HW2 7122   6.324   2.164   2.207
 2075SOL     OW 7123   3.883   3.725   6.134
 2075SOL    HW1 7124   3.869   3.678   6.047
 2075SOL    HW2 7125   3.799   3.774   6.160
 2076SOL     OW 7126   4.759   0.141   1.157
 2076SOL    HW1 7127   4.679   0.086   1.131
 2076SOL    HW2 7128   4.731   0.216   1.217
 2077SOL     OW 7129   4.892   1.529   3.617
 2077SOL    HW1 7130   4.876   1.584   3.699
 2077SOL    HW2 7131   4.812   1.472   3.598
 2078SOL     OW 7132   4.049   5.563   4.927
 2078SOL    HW1 7133   4.016   5.485   4.876
 2078SOL    HW2 7134   4.132   5.599   4.884
 2079SOL     OW 7135   5.812   0.437   3.526
 2079SOL    HW1 7136   5.767   0.517   3.487
 2079SOL    HW2 7137   5.766   0.410   3.611
 2080SOL     OW 7138   2.870   1.831   4.122
 2080SOL    HW1 7139   2.895   1.920   4.083
 2080SOL    HW2 7140   2.786   1.798   4.079
 2081SOL     OW 7141   1.134   6.145   4.213
 2081SOL    HW1 7142   1.056   6.142   4.151
 2081SOL    HW2 7143   1.131   6.231   4.265
 2082SOL     OW 7144   4.849   0.494   2.196
 2082SOL    HW1 7145   4.820   0.515   2.290
 2082SOL    HW2 7146   4.778   0.522   2.132
 2083SOL     OW 7147   3.321   5.014   5.687
 2083SOL    HW1 7148   3.258   4.973   5.621
 2083SOL    HW2 7149   3.306   4.973   5.777
 2084SOL     OW 7150   0.029   2.571   2.455
 2084SOL    HW1 7151   0.053   2.583   2.551
 2084SOL    HW2 7152   0.106   2.600   2.398
 2085SOL     OW 7153   5.601   6.051   6.874
 2085SOL    HW1 7154   5.643   6.127   6.922
 2085SOL    HW2 7155   5.652   6.031   6.790
 2086SOL     OW 7156   3.556   5.402   0.425
 2086SOL    HW1 7157   3.463   5.401   0.461
 2086SOL    HW2 7158   3.615   5.348   0.484
 2087SOL     OW 7159   6.110   5.806   3.423
 2087SOL    HW1 7160   6.073   5.898   3.432
 2087SOL    HW2 7161   6.040   5.745   3.386
 2088SOL     OW 7162   2.264   0.066   0.947
 2088SOL    HW1 7163   2.262   0.012   1.031
 2088SOL    HW2 7164   2.257   0.163   0.970
 2089SOL     OW 7165   2.707   0.949   6.763
 2089SOL    HW1 7166   2.626   0.899   6.734
 2089SOL    HW2 7167   2.710   0.954   6.862
 2090SOL     OW 7168   3.096   3.096   3.862
 2090SOL    HW1 7169   2.997   3.106   3.870
 2090SOL    HW2 7170   3.134   3.059   3.947
 2091SOL     OW 7171   1.950   5.243   0.713
 2091SOL    HW1 7172   1.911   5.327   0.751
 2091SOL    HW2 7173   2.021   5.267   0.646
 2092SOL     OW 7174   0.254   6.402   1.647
 2092SOL    HW1 7175   0.344   6.374   1.614
 2092SOL    HW2 7176   0.258   6.498   1.677
 2093SOL     OW 7177   0.948   2.653   1.392
 2093SOL    HW1 7178   1.010   2.631   1.467
 2093SOL    HW2 7179   0.996   2.642   1.305
 2094SOL     OW 7180   6.318   0.585   1.816
 2094SOL    HW1 7181   6.276   0.498   1.793
 2094SOL    HW2 7182   6.337   0.588   1.914
 2095SOL     OW 7183   6.997   4.595   4.706
 2095SOL    HW1 7184   6.949   4.661   4.647
 2095SOL    HW2 7185   0.059   4.639   4.746
 2096SOL     OW 7186   4.993   3.728   3.321
 2096SOL    HW1 7187   5.079   3.731   3.372
 2096SOL    HW2 7188   4.938   3.651   3.351
 2097SOL     OW 7189   6.200   3.806   6.866
 2097SOL    HW1 7190   6.293   3.783   6.839
 2097SOL    HW2 7191   6.147   3.833   6.785
 2098SOL     OW 7192   4.611   0.350   4.283
 2098SOL    HW1 7193   4.631   0.394   4.196
 2098SOL    HW2 7194   4.580   0.256   4.267
 2099SOL     OW 7195   2.979   2.273   3.104
 2099SOL    HW1 7196   3.054   2.324   3.145
 2099SOL    HW2 7197   3.016   2.201   3.045
 2100SOL     OW 7198   3.427   4.470   6.426
 2100SOL    HW1 7199   3.524   4.490   6.408
 2100SOL    HW2 7200   3.370   4.528   6.367
 2101SOL     OW 7201   0.250   0.645   2.340
 2101SOL    HW1 7202   0.315   0.571   2.356
 2101SOL    HW2 7203   0.276   0.696   2.259
 2102SOL     OW 7204   6.954   4.799   1.770
 2102SOL    HW1 7205   6.953   4.782   1.868
 2102SOL    HW2 7206   6.931   4.895   1.752
 2103SOL     OW 7207   2.745   3.430   6.253
 2103SOL    HW1 7208   2.738   3.520   6.296
 2103SOL    HW2 7209   2.837   3.394   6.266
 2104SOL     OW 7210   1.300   3.863   5.397
 2104SOL    HW1 7211   1.372   3.930   5.378
 2104SOL    HW2 7212   1.281   3.810   5.314
 2105SOL     OW 7213   6.308   5.922   1.552
 2105SOL    HW1 7214   6.257   5.946   1.469
 2105SOL    HW2 7215   6.389   5.870   1.526
 2106SOL     OW 7216   5.821   5.298   6.646
 2106SOL    HW1 7217   5.792   5.327   6.738
 2106SOL    HW2 7218   5.836   5.379   6.590
 2107SOL     OW 7219   2.772   4.715   0.129
 2107SOL    HW1 7220   2.760   4.813   0.139
 2107SOL    HW2 7221   2.830   4.696   0.050
 2108SOL     OW 7222   5.635   4.466   5.908
 2108SOL    HW1 7223   5.689   4.453   5.824
 2108SOL    HW2 7224   5.611   4.377   5.946
 2109SOL     OW 7225   5.676   6.021   2.787
 2109SOL    HW1 7226   5.626   6.007   2.701
 2109SOL    HW2 7227   5.773   6.001   2.773
 2110SOL     OW 7228   1.999   5.109   4.712
 2110SOL    HW1 7229   1.976   5.018   4.747
 2110SOL    HW2 7230   1.917   5.153   4.677
 2111SOL     OW 7231   2.100   2.806   0.055
 2111SOL    HW1 7232   2.164   2.764   0.119
 2111SOL    HW2 7233   2.069   2.894   0.092
 2112SOL     OW 7234   5.892   3.236   1.068
 2112SOL    HW1 7235   5.957   3.174   1.024
 2112SOL    HW2 7236   5.880   3.317   1.011
 2113SOL     OW 7237   6.572   1.631   3.243
 2113SOL    HW1 7238   6.652   1.682   3.274
 2113SOL    HW2 7239   6.585   1.602   3.148
 2114SOL     OW 7240   1.782   3.359   0.405
 2114SOL    HW1 7241   1.788   3.272   0.454
 2114SOL    HW2 7242   1.705   3.355   0.341
 2115SOL     OW 7243   2.963   5.719   1.713
 2115SOL    HW1 7244   3.051   5.761   1.730
 2115SOL    HW2 7245   2.976   5.627   1.675
 2116SOL     OW 7246   0.492   4.127   3.242
 2116SOL    HW1 7247   0.412   4.140   3.184
 2116SOL    HW2 7248   0.555   4.205   3.231
 2117SOL     OW 7249   0.362   5.814   6.470
 2117SOL    HW1 7250   0.400   5.745   6.408
 2117SOL    HW2 7251   0.397   5.904   6.444
 2118SOL     OW 7252   6.896   3.467   2.164
 2118SOL    HW1 7253   6.839   3.385   2.172
 2118SOL    HW2 7254   6.838   3.548   2.171
 2119SOL     OW 7255   3.578   6.030   0.948
 2119SOL    HW1 7256   3.536   5.974   1.019
 2119SOL    HW2 7257   3.635   5.972   0.889
 2120SOL     OW 7258   6.752   4.658   2.361
 2120SOL    HW1 7259   6.725   4.747   2.397
 2120SOL    HW2 7260   6.738   4.587   2.430
 2121SOL     OW 7261   0.714   4.015   4.628
 2121SOL    HW1 7262   0.727   3.985   4.723
 2121SOL    HW2 7263   0.718   3.936   4.567
 2122SOL     OW 7264   4.395   4.667   5.668
 2122SOL    HW1 7265   4.327   4.598   5.692
 2122SOL    HW2 7266   4.477   4.623   5.632
 2123SOL     OW 7267   4.487   4.457   3.731
 2123SOL    HW1 7268   4.524   4.393   3.798
 2123SOL    HW2 7269   4.537   4.446   3.644
 2124SOL     OW 7270   3.069   1.888   1.797
 2124SOL    HW1 7271   3.010   1.819   1.839
 2124SOL    HW2 7272   3.054   1.888   1.699
 2125SOL     OW 7273   3.802   6.916   0.736
 2125SOL    HW1 7274   3.760   6.893   0.823
 2125SOL    HW2 7275   3.758   6.865   0.662
 2126SOL     OW 7276   2.839   0.770   2.058
 2126SOL    HW1 7277   2.784   0.697   2.018
 2126SOL    HW2 7278   2.857   0.749   2.154
 2127SOL     OW 7279   5.713   2.855   4.996
 2127SOL    HW1 7280   5.710   2.907   5.081
 2127SOL    HW2 7281   5.794   2.881   4.944
 2128SOL     OW 7282   0.620   4.367   3.756
 2128SOL    HW1 7283   0.579   4.279   3.781
 2128SOL    HW2 7284   0.712   4.352   3.719
 2129SOL     OW 7285   4.143   2.170   5.526
 2129SOL    HW1 7286   4.192   2.086   5.548
 2129SOL    HW2 7287   4.079   2.153   5.451
 2130SOL     OW 7288   4.886   0.795   3.550
 2130SOL    HW1 7289   4.944   0.715   3.569
 2130SOL    HW2 7290   4.799   0.785   3.597
 2131SOL     OW 7291   5.162   1.617   6.664
 2131SOL    HW1 7292   5.220   1.552   6.713
 2131SOL    HW2 7293   5.213   1.656   6.587
 2132SOL     OW 7294   1.738   3.567   0.888
 2132SOL    HW1 7295   1.800   3.566   0.810
 2132SOL    HW2 7296   1.778   3.622   0.962
 2133SOL     OW 7297   2.373   3.482   5.805
 2133SOL    HW1 7298   2.397   3.394   5.763
 2133SOL    HW2 7299   2.445   3.509   5.869
 2134SOL     OW 7300   0.141   6.877   1.142
 2134SOL    HW1 7301   0.180   6.969   1.147
 2134SOL    HW2 7302   0.098   6.863   1.053
 2135SOL     OW 7303   6.783   4.370   5.359
 2135SOL    HW1 7304   6.847   4.389   5.434
 2135SOL    HW2 7305   6.747   4.278   5.368
 2136SOL     OW 7306   0.720   4.621   0.637
 2136SOL    HW1 7307   0.781   4.689   0.678
 2136SOL    HW2 7308   0.635   4.617   0.690
 2137SOL     OW 7309   1.484   6.237   4.127
 2137SOL    HW1 7310   1.456   6.153   4.175
 2137SOL    HW2 7311   1.464   6.316   4.186
 2138SOL     OW 7312   5.142   1.944   1.911
 2138SOL    HW1 7313   5.076   1.871   1.929
 2138SOL    HW2 7314   5.097   2.033   1.922
 2139SOL     OW 7315   3.092   0.081   5.331
 2139SOL    HW1 7316   3.188   0.074   5.305
 2139SOL    HW2 7317   3.048   0.152   5.276
 2140SOL     OW 7318   2.683   1.580   4.309
 2140SOL    HW1 7319   2.687   1.649   4.381
 2140SOL    HW2 7320   2.611   1.603   4.244
 2141SOL     OW 7321   6.730   3.200   3.235
 2141SOL    HW1 7322   6.703   3.114   3.278
 2141SOL    HW2 7323   6.708   3.277   3.295
 2142SOL     OW 7324   1.634   2.571   2.528
 2142SOL    HW1 7325   1.703   2.506   2.563
 2142SOL    HW2 7326   1.665   2.608   2.441
 2143SOL     OW 7327   0.455   4.766   5.968
 2143SOL    HW1 7328   0.424   4.823   5.892
 2143SOL    HW2 7329   0.553   4.749   5.958
 2144SOL     OW 7330   6.519   4.419   3.238
 2144SOL    HW1 7331   6.517   4.321   3.220
 2144SOL    HW2 7332   6.431   4.460   3.214
 2145SOL     OW 7333   4.071   1.392   3.297
 2145SOL    HW1 7334   4.155   1.444   3.283
 2145SOL    HW2 7335   4.091   1.309   3.349
 2146SOL     OW 7336   2.540   2.658   6.723
 2146SOL    HW1 7337   2.619   2.673   6.664
 2146SOL    HW2 7338   2.472   2.729   6.706
 2147SOL     OW 7339   6.054   6.462   3.900
 2147SOL    HW1 7340   6.050   6.423   3.993
 2147SOL    HW2 7341   6.134   6.522   3.893
 2148SOL     OW 7342   0.134   3.388   6.018
 2148SOL    HW1 7343   0.038   3.376   5.992
 2148SOL    HW2 7344   0.191   3.330   5.960
 2149SOL     OW 7345   0.824   0.198   6.991
 2149SOL    HW1 7346   0.798   0.168   0.065
 2149SOL    HW2 7347   0.883   0.128   6.950
 2150SOL     OW 7348   1.782   3.331   1.102
 2150SOL    HW1 7349   1.767   3.338   1.004
 2150SOL    HW2 7350   1.716   3.388   1.150
 2151SOL     OW 7351   0.866   5.024   0.333
 2151SOL    HW1 7352   0.960   5.060   0.336
 2151SOL    HW2 7353   0.819   5.049   0.418
 2152SOL     OW 7354   5.219   5.954   3.783
 2152SOL    HW1 7355   5.222   5.880   3.850
 2152SOL    HW2 7356   5.307   6.001   3.781
 2153SOL     OW 7357   5.140   0.243   4.443
 2153SOL    HW1 7358   5.149   0.145   4.425
 2153SOL    HW2 7359   5.170   0.294   4.363
 2154SOL     OW 7360   2.460   0.426   2.631
 2154SOL    HW1 7361   2.405   0.343   2.641
 2154SOL    HW2 7362   2.409   0.504   2.667
 2155SOL     OW 7363   4.178   0.491   1.024
 2155SOL    HW1 7364   4.227   0.562   1.075
 2155SOL    HW2 7365   4.097   0.531   0.981
 2156SOL     OW 7366   5.385   2.097   5.006
 2156SOL    HW1 7367   5.385   2.022   4.939
 2156SOL    HW2 7368   5.455   2.079   5.075
 2157SOL     OW 7369   4.013   6.180   4.060
 2157SOL    HW1 7370   3.939   6.114   4.050
 2157SOL    HW2 7371   3.992   6.243   4.135
 2158SOL     OW 7372   3.009   0.184   0.427
 2158SOL    HW1 7373   2.915   0.195   0.394
 2158SOL    HW2 7374   3.068   0.249   0.379
 2159SOL     OW 7375   0.575   1.077   5.314
 2159SOL    HW1 7376   0.636   1.133   5.258
 2159SOL    HW2 7377   0.497   1.132   5.344
 2160SOL     OW 7378   5.392   6.879   6.990
 2160SOL    HW1 7379   5.400   6.867   6.891
 2160SOL    HW2 7380   5.402   6.976   7.012
 2161SOL     OW 7381   1.690   3.262   0.735
 2161SOL    HW1 7382   1.740   3.347   0.719
 2161SOL    HW2 7383   1.731   3.188   0.681
 2162SOL     OW 7384   1.665   0.613   1.550
 2162SOL    HW1 7385   1.683   0.703   1.509
 2162SOL    HW2 7386   1.689   0.541   1.486
 2163SOL     OW 7387   1.432   3.578   3.090
 2163SOL    HW1 7388   1.366   3.542   3.025
 2163SOL    HW2 7389   1.425   3.528   3.176
 2164SOL     OW 7390   2.109   3.509   2.256
 2164SOL    HW1 7391   2.136   3.534   2.163
 2164SOL    HW2 7392   2.152   3.423   2.282
 2165SOL     OW 7393   6.271   1.231   4.525
 2165SOL    HW1 7394   6.295   1.192   4.435
 2165SOL    HW2 7395   6.352   1.233   4.583
 2166SOL     OW 7396   0.016   3.218   2.637
 2166SOL    HW1 7397   0.100   3.226   2.691
 2166SOL    HW2 7398   0.038   3.184   2.546
 2167SOL     OW 7399   1.839   1.831   3.022
 2167SOL    HW1 7400   1.846   1.910   2.961
 2167SOL    HW2 7401   1.839   1.747   2.967
 2168SOL     OW 7402   2.125   1.961   3.279
 2168SOL    HW1 7403   2.084   1.918   3.360
 2168SOL    HW2 7404   2.064   2.031   3.243
 2169SOL     OW 7405   6.655   6.906   1.506
 2169SOL    HW1 7406   6.730   6.948   1.556
 2169SOL    HW2 7407   6.602   6.977   1.459
 2170SOL     OW 7408   1.358   3.560   6.084
 2170SOL    HW1 7409   1.397   3.615   6.010
 2170SOL    HW2 7410   1.274   3.603   6.117
 2171SOL     OW 7411   6.783   6.064   1.003
 2171SOL    HW1 7412   6.703   6.080   1.061
 2171SOL    HW2 7413   6.857   6.027   1.059
 2172SOL     OW 7414   2.345   1.786   5.283
 2172SOL    HW1 7415   2.339   1.697   5.238
 2172SOL    HW2 7416   2.406   1.846   5.230
 2173SOL     OW 7417   5.210   0.731   4.921
 2173SOL    HW1 7418   5.158   0.816   4.913
 2173SOL    HW2 7419   5.273   0.737   4.999
 2174SOL     OW 7420   5.484   0.191   6.018
 2174SOL    HW1 7421   5.469   0.287   5.994
 2174SOL    HW2 7422   5.513   0.184   6.113
 2175SOL     OW 7423   2.658   3.883   5.279
 2175SOL    HW1 7424   2.656   3.879   5.379
 2175SOL    HW2 7425   2.566   3.902   5.245
 2176SOL     OW 7426   5.344   2.166   2.973
 2176SOL    HW1 7427   5.257   2.159   3.022
 2176SOL    HW2 7428   5.392   2.249   3.002
 2177SOL     OW 7429   1.025   1.035   4.706
 2177SOL    HW1 7430   1.086   0.987   4.643
 2177SOL    HW2 7431   1.051   1.132   4.711
 2178SOL     OW 7432   1.378   2.174   2.841
 2178SOL    HW1 7433   1.369   2.181   2.940
 2178SOL    HW2 7434   1.452   2.234   2.809
 2179SOL     OW 7435   1.947   4.169   6.888
 2179SOL    HW1 7436   1.906   4.248   6.842
 2179SOL    HW2 7437   1.994   4.199   6.971
 2180SOL     OW 7438   0.716   6.035   2.877
 2180SOL    HW1 7439   0.733   6.052   2.974
 2180SOL    HW2 7440   0.803   6.016   2.831
 2181SOL     OW 7441   4.237   4.903   4.716
 2181SOL    HW1 7442   4.150   4.894   4.667
 2181SOL    HW2 7443   4.220   4.898   4.815
 2182SOL     OW 7444   0.498   6.312   1.503
 2182SOL    HW1 7445   0.485   6.284   1.408
 2182SOL    HW2 7446   0.562   6.388   1.507
 2183SOL     OW 7447   3.185   3.194   6.740
 2183SOL    HW1 7448   3.260   3.211   6.675
 2183SOL    HW2 7449   3.157   3.098   6.734
 2184SOL     OW 7450   6.430   1.381   0.860
 2184SOL    HW1 7451   6.518   1.385   0.812
 2184SOL    HW2 7452   6.410   1.470   0.900
 2185SOL     OW 7453   0.630   0.977   5.872
 2185SOL    HW1 7454   0.637   0.896   5.815
 2185SOL    HW2 7455   0.630   1.059   5.814
 2186SOL     OW 7456   6.575   6.045   5.523
 2186SOL    HW1 7457   6.511   5.970   5.506
 2186SOL    HW2 7458   6.595   6.093   5.437
 2187SOL     OW 7459   6.101   5.353   1.848
 2187SOL    HW1 7460   6.200   5.363   1.857
 2187SOL    HW2 7461   6.066   5.424   1.787
 2188SOL     OW 7462   2.838   0.857   0.548
 2188SOL    HW1 7463   2.888   0.932   0.590
 2188SOL    HW2 7464   2.868   0.770   0.588
 2189SOL     OW 7465   1.909   1.039   1.857
 2189SOL    HW1 7466   1.948   1.132   1.856
 2189SOL    HW2 7467   1.907   1.002   1.765
 2190SOL     OW 7468   6.843   3.958   1.760
 2190SOL    HW1 7469   6.831   3.974   1.662
 2190SOL    HW2 7470   6.885   4.038   1.802
 2191SOL     OW 7471   3.088   0.629   6.687
 2191SOL    HW1 7472   3.058   0.637   6.782
 2191SOL    HW2 7473   3.123   0.717   6.655
 2192SOL     OW 7474   4.964   1.719   1.921
 2192SOL    HW1 7475   4.970   1.627   1.961
 2192SOL    HW2 7476   4.876   1.760   1.946
 2193SOL     OW 7477   2.480   0.076   5.196
 2193SOL    HW1 7478   2.435   7.018   5.242
 2193SOL    HW2 7479   2.457   0.161   5.243
 2194SOL     OW 7480   0.639   3.747   6.491
 2194SOL    HW1 7481   0.550   3.702   6.486
 2194SOL    HW2 7482   0.686   3.739   6.404
 2195SOL     OW 7483   0.063   3.889   4.765
 2195SOL    HW1 7484   0.111   3.955   4.708
 2195SOL    HW2 7485   0.049   3.805   4.713
 2196SOL     OW 7486   3.652   0.991   0.056
 2196SOL    HW1 7487   3.606   0.928   0.119
 2196SOL    HW2 7488   3.592   1.069   0.038
 2197SOL     OW 7489   3.515   6.024   5.768
 2197SOL    HW1 7490   3.545   5.929   5.758
 2197SOL    HW2 7491   3.517   6.069   5.679
 2198SOL     OW 7492   1.276   0.880   6.682
 2198SOL    HW1 7493   1.188   0.872   6.729
 2198SOL    HW2 7494   1.347   0.904   6.749
 2199SOL     OW 7495   4.078   6.888   3.857
 2199SOL    HW1 7496   4.053   6.819   3.925
 2199SOL    HW2 7497   4.153   6.944   3.893
 2200SOL     OW 7498   2.812   2.348   3.819
 2200SOL    HW1 7499   2.779   2.279   3.884
 2200SOL    HW2 7500   2.891   2.312   3.770
 2201SOL     OW 7501   5.598   3.793   5.288
 2201SOL    HW1 7502   5.571   3.697   5.288
 2201SOL    HW2 7503   5.680   3.804   5.233
 2202SOL     OW 7504   3.406   0.103   3.193
 2202SOL    HW1 7505   3.438   0.069   3.105
 2202SOL    HW2 7506   3.417   0.031   3.262
 2203SOL     OW 7507   1.440   4.911   1.059
 2203SOL    HW1 7508   1.384   4.994   1.065
 2203SOL    HW2 7509   1.495   4.902   1.142
 2204SOL     OW 7510   6.239   2.385   0.932
 2204SOL    HW1 7511   6.159   2.354   0.984
 2204SOL    HW2 7512   6.244   2.335   0.846
 2205SOL     OW 7513   6.869   5.530   0.987
 2205SOL    HW1 7514   6.900   5.584   0.909
 2205SOL    HW2 7515   6.815   5.452   0.955
 2206SOL     OW 7516   3.704   2.607   5.604
 2206SOL    HW1 7517   3.720   2.540   5.676
 2206SOL    HW2 7518   3.606   2.613   5.586
 2207SOL     OW 7519   4.799   5.852   1.662
 2207SOL    HW1 7520   4.849   5.837   1.747
 2207SOL    HW2 7521   4.796   5.950   1.642
 2208SOL     OW 7522   0.164   6.806   3.032
 2208SOL    HW1 7523   0.139   6.759   3.117
 2208SOL    HW2 7524   0.090   6.796   2.966
 2209SOL     OW 7525   3.298   5.976   4.075
 2209SOL    HW1 7526   3.303   6.075   4.087
 2209SOL    HW2 7527   3.331   5.951   3.984
 2210SOL     OW 7528   4.741   0.394   1.632
 2210SOL    HW1 7529   4.765   0.327   1.562
 2210SOL    HW2 7530   4.742   0.485   1.592
 2211SOL     OW 7531   1.557   1.939   1.043
 2211SOL    HW1 7532   1.581   2.035   1.029
 2211SOL    HW2 7533   1.541   1.923   1.140
 2212SOL     OW 7534   2.747   5.647   6.589
 2212SOL    HW1 7535   2.727   5.582   6.515
 2212SOL    HW2 7536   2.686   5.726   6.581
 2213SOL     OW 7537   3.668   2.112   5.030
 2213SOL    HW1 7538   3.588   2.113   5.090
 2213SOL    HW2 7539   3.749   2.143   5.080
 2214SOL     OW 7540   3.751   4.404   6.385
 2214SOL    HW1 7541   3.843   4.443   6.381
 2214SOL    HW2 7542   3.727   4.364   6.297
 2215SOL     OW 7543   4.156   6.742   0.593
 2215SOL    HW1 7544   4.073   6.688   0.601
 2215SOL    HW2 7545   4.165   6.803   0.672
 2216SOL     OW 7546   0.214   6.503   6.452
 2216SOL    HW1 7547   0.171   6.425   6.498
 2216SOL    HW2 7548   0.184   6.588   6.496
 2217SOL     OW 7549   4.458   1.486   3.960
 2217SOL    HW1 7550   4.365   1.489   3.994
 2217SOL    HW2 7551   4.485   1.391   3.944
 2218SOL     OW 7552   6.929   5.254   5.300
 2218SOL    HW1 7553   6.829   5.252   5.301
 2218SOL    HW2 7554   6.963   5.202   5.378
 2219SOL     OW 7555   5.545   1.108   0.733
 2219SOL    HW1 7556   5.509   1.054   0.656
 2219SOL    HW2 7557   5.472   1.164   0.772
 2220SOL     OW 7558   0.193   5.945   4.257
 2220SOL    HW1 7559   0.212   6.001   4.337
 2220SOL    HW2 7560   0.114   5.981   4.208
 2221SOL     OW 7561   6.003   1.105   4.261
 2221SOL    HW1 7562   5.964   1.021   4.223
 2221SOL    HW2 7563   6.033   1.088   4.355
 2222SOL     OW 7564   4.534   0.194   2.886
 2222SOL    HW1 7565   4.506   0.192   2.790
 2222SOL    HW2 7566   4.584   0.278   2.905
 2223SOL     OW 7567   0.816   6.681   5.402
 2223SOL    HW1 7568   0.740   6.667   5.466
 2223SOL    HW2 7569   0.783   6.729   5.321
 2224SOL     OW 7570   4.915   3.951   0.470
 2224SOL    HW1 7571   4.871   3.872   0.428
 2224SOL    HW2 7572   5.014   3.941   0.464
 2225SOL     OW 7573   6.685   6.645   1.602
 2225SOL    HW1 7574   6.647   6.738   1.604
 2225SOL    HW2 7575   6.784   6.650   1.593
 2226SOL     OW 7576   2.310   4.620   0.081
 2226SOL    HW1 7577   2.371   4.617   0.160
 2226SOL    HW2 7578   2.339   4.693   0.019
 2227SOL     OW 7579   4.054   2.028   2.343
 2227SOL    HW1 7580   4.035   2.041   2.245
 2227SOL    HW2 7581   4.012   1.943   2.374
 2228SOL     OW 7582   5.524   5.455   6.602
 2228SOL    HW1 7583   5.452   5.524   6.609
 2228SOL    HW2 7584   5.506   5.397   6.522
 2229SOL     OW 7585   2.900   3.301   3.830
 2229SOL    HW1 7586   2.995   3.272   3.828
 2229SOL    HW2 7587   2.893   3.396   3.801
 2230SOL     OW 7588   6.429   0.664   6.552
 2230SOL    HW1 7589   6.373   0.643   6.632
 2230SOL    HW2 7590   6.522   0.688   6.581
 2231SOL     OW 7591   1.357   6.780   6.225
 2231SOL    HW1 7592   1.291   6.783   6.150
 2231SOL    HW2 7593   1.345   6.696   6.278
 2232SOL     OW 7594   1.836   0.534   5.743
 2232SOL    HW1 7595   1.891   0.538   5.826
 2232SOL    HW2 7596   1.842   0.443   5.703
 2233SOL     OW 7597   2.975   4.901   0.771
 2233SOL    HW1 7598   2.986   4.866   0.864
 2233SOL    HW2 7599   3.058   4.884   0.719
 2234SOL     OW 7600   4.800   2.320   1.425
 2234SOL    HW1 7601   4.724   2.321   1.361
 2234SOL    HW2 7602   4.768   2.348   1.516
 2235SOL     OW 7603   0.519   1.821   3.097
 2235SOL    HW1 7604   0.530   1.737   3.043
 2235SOL    HW2 7605   0.607   1.845   3.138
 2236SOL     OW 7606   2.690   5.097   5.504
 2236SOL    HW1 7607   2.787   5.116   5.515
 2236SOL    HW2 7608   2.642   5.182   5.481
 2237SOL     OW 7609   6.312   6.001   6.011
 2237SOL    HW1 7610   6.237   6.048   6.057
 2237SOL    HW2 7611   6.311   6.023   5.914
 2238SOL     OW 7612   5.955   3.568   2.053
 2238SOL    HW1 7613   5.903   3.629   2.113
 2238SOL    HW2 7614   5.925   3.474   2.066
 2239SOL     OW 7615   4.609   6.359   3.042
 2239SOL    HW1 7616   4.525   6.339   2.991
 2239SOL    HW2 7617   4.594   6.340   3.139
 2240SOL     OW 7618   5.025   5.033   1.649
 2240SOL    HW1 7619   5.023   5.047   1.550
 2240SOL    HW2 7620   5.068   5.112   1.692
 2241SOL     OW 7621   0.300   1.575   2.946
 2241SOL    HW1 7622   0.356   1.493   2.948
 2241SOL    HW2 7623   0.334   1.636   2.874
 2242SOL     OW 7624   5.475   2.035   4.027
 2242SOL    HW1 7625   5.422   2.099   3.971
 2242SOL    HW2 7626   5.425   2.017   4.112
 2243SOL     OW 7627   2.519   6.972   0.603
 2243SOL    HW1 7628   2.510   6.888   0.657
 2243SOL    HW2 7629   2.431   6.995   0.562
 2244SOL     OW 7630   2.083   1.730   0.724
 2244SOL    HW1 7631   2.090   1.815   0.672
 2244SOL    HW2 7632   2.161   1.722   0.786
 2245SOL     OW 7633   0.214   0.580   7.003
 2245SOL    HW1 7634   0.145   0.591   6.932
 2245SOL    HW2 7635   0.195   0.497   0.038
 2246SOL     OW 7636   3.872   2.236   5.197
 2246SOL    HW1 7637   3.961   2.225   5.241
 2246SOL    HW2 7638   3.810   2.287   5.257
 2247SOL     OW 7639   2.986   3.165   2.331
 2247SOL    HW1 7640   3.016   3.122   2.246
 2247SOL    HW2 7641   2.962   3.260   2.314
 2248SOL     OW 7642   4.762   4.014   5.106
 2248SOL    HW1 7643   4.708   4.037   5.187
 2248SOL    HW2 7644   4.797   3.921   5.115
 2249SOL     OW 7645   2.248   6.611   2.911
 2249SOL    HW1 7646   2.211   6.546   2.844
 2249SOL    HW2 7647   2.180   6.628   2.982
 2250SOL     OW 7648   4.373   5.847   6.430
 2250SOL    HW1 7649   4.438   5.841   6.505
 2250SOL    HW2 7650   4.307   5.772   6.436
 2251SOL     OW 7651   4.885   6.478   4.686
 2251SOL    HW1 7652   4.907   6.530   4.768
 2251SOL    HW2 7653   4.935   6.391   4.688
 2252SOL     OW 7654   3.845   0.866   2.552
 2252SOL    HW1 7655   3.843   0.830   2.645
 2252SOL    HW2 7656   3.775   0.937   2.542
 2253SOL     OW 7657   0.272   3.216   1.286
 2253SOL    HW1 7658   0.246   3.149   1.217
 2253SOL    HW2 7659   0.323   3.290   1.242
 2254SOL     OW 7660   4.139   3.383   2.857
 2254SOL    HW1 7661   4.197   3.401   2.936
 2254SOL    HW2 7662   4.090   3.297   2.871
 2255SOL     OW 7663   1.772   3.007   6.646
 2255SOL    HW1 7664   1.836   2.993   6.570
 2255SOL    HW2 7665   1.784   3.100   6.682
 2256SOL     OW 7666   5.564   0.108   1.440
 2256SOL    HW1 7667   5.550   0.088   1.343
 2256SOL    HW2 7668   5.500   0.054   1.495
 2257SOL     OW 7669   6.502   0.639   5.515
 2257SOL    HW1 7670   6.505   0.566   5.583
 2257SOL    HW2 7671   6.591   0.685   5.512
 2258SOL     OW 7672   2.498   6.372   4.114
 2258SOL    HW1 7673   2.564   6.365   4.189
 2258SOL    HW2 7674   2.543   6.407   4.032
 2259SOL     OW 7675   6.298   1.969   5.153
 2259SOL    HW1 7676   6.259   1.877   5.156
 2259SOL    HW2 7677   6.331   1.988   5.061
 2260SOL     OW 7678   0.889   3.575   1.547
 2260SOL    HW1 7679   0.859   3.646   1.610
 2260SOL    HW2 7680   0.946   3.509   1.596
 2261SOL     OW 7681   5.502   4.083   0.283
 2261SOL    HW1 7682   5.418   4.135   0.267
 2261SOL    HW2 7683   5.478   3.986   0.294
 2262SOL     OW 7684   6.520   0.170   4.860
 2262SOL    HW1 7685   6.466   0.251   4.882
 2262SOL    HW2 7686   6.605   0.197   4.815
 2263SOL     OW 7687   2.391   4.458   6.343
 2263SOL    HW1 7688   2.475   4.464   6.289
 2263SOL    HW2 7689   2.314   4.437   6.283
 2264SOL     OW 7690   3.058   0.118   5.757
 2264SOL    HW1 7691   3.003   0.034   5.755
 2264SOL    HW2 7692   3.119   0.115   5.836
 2265SOL     OW 7693   6.863   6.625   4.280
 2265SOL    HW1 7694   6.894   6.606   4.373
 2265SOL    HW2 7695   6.848   6.539   4.231
 2266SOL     OW 7696   4.103   3.031   6.675
 2266SOL    HW1 7697   4.129   3.046   6.580
 2266SOL    HW2 7698   4.105   2.933   6.696
 2267SOL     OW 7699   5.377   2.717   4.596
 2267SOL    HW1 7700   5.446   2.697   4.666
 2267SOL    HW2 7701   5.314   2.641   4.588
 2268SOL     OW 7702   1.561   5.989   4.522
 2268SOL    HW1 7703   1.622   5.910   4.524
 2268SOL    HW2 7704   1.600   6.059   4.462
 2269SOL     OW 7705   1.921   2.450   5.619
 2269SOL    HW1 7706   1.843   2.450   5.556
 2269SOL    HW2 7707   1.993   2.392   5.582
 2270SOL     OW 7708   4.609   1.686   6.172
 2270SOL    HW1 7709   4.685   1.627   6.200
 2270SOL    HW2 7710   4.528   1.665   6.226
 2271SOL     OW 7711   4.639   5.471   5.396
 2271SOL    HW1 7712   4.597   5.544   5.342
 2271SOL    HW2 7713   4.612   5.382   5.360
 2272SOL     OW 7714   5.237   1.119   5.862
 2272SOL    HW1 7715   5.223   1.067   5.947
 2272SOL    HW2 7716   5.295   1.066   5.800
 2273SOL     OW 7717   0.985   2.678   3.273
 2273SOL    HW1 7718   1.080   2.674   3.305
 2273SOL    HW2 7719   0.927   2.621   3.332
 2274SOL     OW 7720   1.112   1.372   6.995
 2274SOL    HW1 7721   1.132   1.295   0.037
 2274SOL    HW2 7722   1.106   1.339   6.901
 2275SOL     OW 7723   5.434   4.133   2.963
 2275SOL    HW1 7724   5.385   4.061   3.011
 2275SOL    HW2 7725   5.421   4.121   2.864
 2276SOL     OW 7726   2.082   1.908   1.125
 2276SOL    HW1 7727   2.004   1.947   1.076
 2276SOL    HW2 7728   2.080   1.937   1.220
 2277SOL     OW 7729   3.816   2.955   3.614
 2277SOL    HW1 7730   3.784   3.048   3.597
 2277SOL    HW2 7731   3.742   2.902   3.655
 2278SOL     OW 7732   0.340   3.068   3.932
 2278SOL    HW1 7733   0.287   3.121   3.865
 2278SOL    HW2 7734   0.312   3.093   4.024
 2279SOL     OW 7735   0.729   5.711   5.353
 2279SOL    HW1 7736   0.794   5.635   5.362
 2279SOL    HW2 7737   0.773   5.785   5.302
 2280SOL     OW 7738   4.465   2.127   6.031
 2280SOL    HW1 7739   4.398   2.164   5.967
 2280SOL    HW2 7740   4.437   2.146   6.125
 2281SOL     OW 7741   5.935   6.569   2.410
 2281SOL    HW1 7742   5.990   6.487   2.392
 2281SOL    HW2 7743   5.941   6.592   2.508
 2282SOL     OW 7744   3.890   6.751   5.752
 2282SOL    HW1 7745   3.849   6.808   5.681
 2282SOL    HW2 7746   3.942   6.676   5.708
 2283SOL     OW 7747   0.216   0.799   3.805
 2283SOL    HW1 7748   0.210   0.810   3.706
 2283SOL    HW2 7749   0.306   0.829   3.836
 2284SOL     OW 7750   1.308   2.545   0.017
 2284SOL    HW1 7751   1.339   2.589   0.101
 2284SOL    HW2 7752   1.220   2.584   7.008
 2285SOL     OW 7753   1.732   4.516   6.335
 2285SOL    HW1 7754   1.708   4.515   6.238
 2285SOL    HW2 7755   1.784   4.434   6.358
 2286SOL     OW 7756   4.802   4.645   3.323
 2286SOL    HW1 7757   4.813   4.550   3.354
 2286SOL    HW2 7758   4.869   4.703   3.369
 2287SOL     OW 7759   1.084   1.375   3.394
 2287SOL    HW1 7760   1.092   1.445   3.323
 2287SOL    HW2 7761   1.082   1.420   3.484
 2288SOL     OW 7762   0.050   5.317   2.722
 2288SOL    HW1 7763   0.074   5.316   2.819
 2288SOL    HW2 7764   0.012   5.406   2.698
 2289SOL     OW 7765   0.348   5.750   0.700
 2289SOL    HW1 7766   0.251   5.770   0.715
 2289SOL    HW2 7767   0.360   5.651   0.691
 2290SOL     OW 7768   1.004   5.487   0.070
 2290SOL    HW1 7769   1.009   5.423   7.012
 2290SOL    HW2 7770   0.918   5.537   0.067
 2291SOL     OW 7771   1.962   1.420   6.973
 2291SOL    HW1 7772   1.897   1.491   6.999
 2291SOL    HW2 7773   2.035   1.415   0.023
 2292SOL     OW 7774   2.279   1.599   4.729
 2292SOL    HW1 7775   2.212   1.634   4.664
 2292SOL    HW2 7776   2.334   1.675   4.765
 2293SOL     OW 7777   5.331   4.324   2.533
 2293SOL    HW1 7778   5.322   4.355   2.628
 2293SOL    HW2 7779   5.419   4.355   2.497
 2294SOL     OW 7780   3.459   6.130   6.811
 2294SOL    HW1 7781   3.431   6.096   6.901
 2294SOL    HW2 7782   3.448   6.229   6.808
 2295SOL     OW 7783   0.471   2.435   1.443
 2295SOL    HW1 7784   0.550   2.380   1.417
 2295SOL    HW2 7785   0.502   2.512   1.499
 2296SOL     OW 7786   3.360   6.751   0.966
 2296SOL    HW1 7787   3.360   6.851   0.975
 2296SOL    HW2 7788   3.293   6.724   0.897
 2297SOL     OW 7789   4.619   6.410   6.559
 2297SOL    HW1 7790   4.633   6.439   6.654
 2297SOL    HW2 7791   4.522   6.393   6.544
 2298SOL     OW 7792   4.323   3.318   6.319
 2298SOL    HW1 7793   4.262   3.253   6.272
 2298SOL    HW2 7794   4.280   3.348   6.404
 2299SOL     OW 7795   4.548   6.624   0.015
 2299SOL    HW1 7796   4.575   6.654   6.942
 2299SOL    HW2 7797   4.449   6.640   0.027
 2300SOL     OW 7798   1.287   4.311   1.425
 2300SOL    HW1 7799   1.316   4.378   1.493
 2300SOL    HW2 7800   1.192   4.285   1.441
 2301SOL     OW 7801   3.958   3.593   1.863
 2301SOL    HW1 7802   3.928   3.499   1.847
 2301SOL    HW2 7803   3.903   3.632   1.936
 2302SOL     OW 7804   2.525   6.036   3.140
 2302SOL    HW1 7805   2.560   6.129   3.137
 2302SOL    HW2 7806   2.584   5.979   3.197
 2303SOL     OW 7807   0.609   3.235   5.083
 2303SOL    HW1 7808   0.627   3.151   5.031
 2303SOL    HW2 7809   0.602   3.312   5.020
 2304SOL     OW 7810   2.118   0.491   4.083
 2304SOL    HW1 7811   2.153   0.574   4.126
 2304SOL    HW2 7812   2.059   0.442   4.147
 2305SOL     OW 7813   3.934   5.215   1.694
 2305SOL    HW1 7814   3.934   5.128   1.644
 2305SOL    HW2 7815   3.949   5.198   1.791
 2306SOL     OW 7816   0.474   4.019   0.574
 2306SOL    HW1 7817   0.532   4.022   0.493
 2306SOL    HW2 7818   0.530   4.005   0.655
 2307SOL     OW 7819   0.037   1.589   2.923
 2307SOL    HW1 7820   0.016   1.643   2.841
 2307SOL    HW2 7821   0.136   1.580   2.933
 2308SOL     OW 7822   0.134   0.109   0.294
 2308SOL    HW1 7823   0.209   0.146   0.238
 2308SOL    HW2 7824   0.104   0.177   0.360
 2309SOL     OW 7825   3.315   5.400   6.044
 2309SOL    HW1 7826   3.387   5.347   6.089
 2309SOL    HW2 7827   3.297   5.361   5.954
 2310SOL     OW 7828   5.834   1.784   2.852
 2310SOL    HW1 7829   5.742   1.818   2.834
 2310SOL    HW2 7830   5.836   1.741   2.943
 2311SOL     OW 7831   2.541   0.217   3.113
 2311SOL    HW1 7832   2.475   0.183   3.046
 2311SOL    HW2 7833   2.503   0.296   3.160
 2312SOL     OW 7834   2.534   1.052   2.591
 2312SOL    HW1 7835   2.626   1.052   2.631
 2312SOL    HW2 7836   2.511   1.144   2.561
 2313SOL     OW 7837   5.515   4.082   1.684
 2313SOL    HW1 7838   5.517   4.160   1.746
 2313SOL    HW2 7839   5.425   4.039   1.687
 2314SOL     OW 7840   6.538   6.934   3.084
 2314SOL    HW1 7841   6.636   6.947   3.070
 2314SOL    HW2 7842   6.518   6.933   3.182
 2315SOL     OW 7843   4.237   5.875   5.403
 2315SOL    HW1 7844   4.143   5.884   5.436
 2315SOL    HW2 7845   4.261   5.778   5.397
 2316SOL     OW 7846   2.702   1.798   6.038
 2316SOL    HW1 7847   2.779   1.791   5.974
 2316SOL    HW2 7848   2.733   1.838   6.124
 2317SOL     OW 7849   6.951   5.739   3.423
 2317SOL    HW1 7850   6.947   5.776   3.330
 2317SOL    HW2 7851   0.029   5.722   3.447
 2318SOL     OW 7852   1.625   4.808   5.182
 2318SOL    HW1 7853   1.579   4.755   5.254
 2318SOL    HW2 7854   1.705   4.853   5.221
 2319SOL     OW 7855   2.240   4.947   3.713
 2319SOL    HW1 7856   2.257   4.868   3.654
 2319SOL    HW2 7857   2.191   5.017   3.661
 2320SOL     OW 7858   1.235   2.491   5.208
 2320SOL    HW1 7859   1.294   2.571   5.220
 2320SOL    HW2 7860   1.268   2.416   5.267
 2321SOL     OW 7861   2.516   4.812   5.876
 2321SOL    HW1 7862   2.503   4.843   5.970
 2321SOL    HW2 7863   2.604   4.844   5.842
 2322SOL     OW 7864   1.468   4.023   1.467
 2322SOL    HW1 7865   1.494   4.015   1.563
 2322SOL    HW2 7866   1.537   4.076   1.417
 2323SOL     OW 7867   2.246   5.049   1.570
 2323SOL    HW1 7868   2.338   5.047   1.531
 2323SOL    HW2 7869   2.221   4.957   1.602
 2324SOL     OW 7870   6.855   5.125   2.641
 2324SOL    HW1 7871   6.934   5.180   2.665
 2324SOL    HW2 7872   6.810   5.165   2.561
 2325SOL     OW 7873   6.865   5.040   1.739
 2325SOL    HW1 7874   6.774   5.013   1.708
 2325SOL    HW2 7875   6.906   5.102   1.673
 2326SOL     OW 7876   1.846   0.669   6.965
 2326SOL    HW1 7877   1.826   0.764   6.941
 2326SOL    HW2 7878   1.880   0.664   0.041
 2327SOL     OW 7879   0.400   0.386   2.279
 2327SOL    HW1 7880   0.499   0.379   2.282
 2327SOL    HW2 7881   0.359   0.324   2.345
 2328SOL     OW 7882   2.224   2.882   2.878
 2328SOL    HW1 7883   2.247   2.809   2.942
 2328SOL    HW2 7884   2.217   2.969   2.927
 2329SOL     OW 7885   0.348   5.004   3.180
 2329SOL    HW1 7886   0.248   4.997   3.190
 2329SOL    HW2 7887   0.370   5.089   3.133
 2330SOL     OW 7888   6.636   2.722   0.387
 2330SOL    HW1 7889   6.585   2.761   0.463
 2330SOL    HW2 7890   6.633   2.784   0.309
 2331SOL     OW 7891   4.179   6.222   0.809
 2331SOL    HW1 7892   4.224   6.134   0.792
 2331SOL    HW2 7893   4.089   6.206   0.848
 2332SOL     OW 7894   5.540   6.657   5.747
 2332SOL    HW1 7895   5.628   6.699   5.771
 2332SOL    HW2 7896   5.469   6.727   5.746
 2333SOL     OW 7897   0.303   4.524   2.456
 2333SOL    HW1 7898   0.248   4.479   2.527
 2333SOL    HW2 7899   0.374   4.579   2.500
 2334SOL     OW 7900   2.885   1.312   6.589
 2334SOL    HW1 7901   2.826   1.295   6.510
 2334SOL    HW2 7902   2.875   1.408   6.617
 2335SOL     OW 7903   6.297   1.368   3.417
 2335SOL    HW1 7904   6.217   1.327   3.461
 2335SOL    HW2 7905   6.378   1.352   3.473
 2336SOL     OW 7906   1.851   2.008   2.832
 2336SOL    HW1 7907   1.791   1.969   2.762
 2336SOL    HW2 7908   1.867   2.105   2.811
 2337SOL     OW 7909   4.726   1.725   1.304
 2337SOL    HW1 7910   4.692   1.799   1.362
 2337SOL    HW2 7911   4.649   1.668   1.276
 2338SOL     OW 7912   6.733   3.778   3.956
 2338SOL    HW1 7913   6.653   3.820   3.998
 2338SOL    HW2 7914   6.782   3.846   3.902
 2339SOL     OW 7915   3.575   2.872   2.842
 2339SOL    HW1 7916   3.643   2.869   2.768
 2339SOL    HW2 7917   3.614   2.832   2.925
 2340SOL     OW 7918   1.935   5.606   6.461
 2340SOL    HW1 7919   2.030   5.578   6.472
 2340SOL    HW2 7920   1.875   5.541   6.509
 2341SOL     OW 7921   2.440   4.413   3.544
 2341SOL    HW1 7922   2.486   4.494   3.508
 2341SOL    HW2 7923   2.494   4.374   3.619
 2342SOL     OW 7924   3.081   0.072   4.074
 2342SOL    HW1 7925   2.984   0.082   4.097
 2342SOL    HW2 7926   3.106   0.138   4.003
 2343SOL     OW 7927   1.308   0.032   1.944
 2343SOL    HW1 7928   1.311   7.017   2.038
 2343SOL    HW2 7929   1.319   0.131   1.944
 2344SOL     OW 7930   5.619   3.920   0.862
 2344SOL    HW1 7931   5.682   3.997   0.872
 2344SOL    HW2 7932   5.526   3.955   0.850
 2345SOL     OW 7933   2.806   5.625   4.642
 2345SOL    HW1 7934   2.738   5.560   4.677
 2345SOL    HW2 7935   2.895   5.606   4.683
 2346SOL     OW 7936   3.924   4.184   6.506
 2346SOL    HW1 7937   3.864   4.262   6.490
 2346SOL    HW2 7938   3.958   4.188   6.600
 2347SOL     OW 7939   1.145   2.351   2.090
 2347SOL    HW1 7940   1.090   2.431   2.113
 2347SOL    HW2 7941   1.142   2.336   1.991
 2348SOL     OW 7942   6.937   5.054   2.917
 2348SOL    HW1 7943   6.876   4.981   2.949
 2348SOL    HW2 7944   6.919   5.072   2.820
 2349SOL     OW 7945   0.750   4.473   6.054
 2349SOL    HW1 7946   0.697   4.533   5.995
 2349SOL    HW2 7947   0.804   4.410   5.999
 2350SOL     OW 7948   5.650   3.591   6.764
 2350SOL    HW1 7949   5.603   3.528   6.827
 2350SOL    HW2 7950   5.651   3.683   6.804
 2351SOL     OW 7951   2.915   5.230   2.908
 2351SOL    HW1 7952   2.852   5.155   2.928
 2351SOL    HW2 7953   3.008   5.195   2.904
 2352SOL     OW 7954   0.178   2.742   3.595
 2352SOL    HW1 7955   0.231   2.754   3.679
 2352SOL    HW2 7956   0.202   2.655   3.552
 2353SOL     OW 7957   3.493   5.855   4.820
 2353SOL    HW1 7958   3.559   5.781   4.833
 2353SOL    HW2 7959   3.513   5.904   4.735
 2354SOL     OW 7960   2.170   2.106   3.737
 2354SOL    HW1 7961   2.183   2.143   3.645
 2354SOL    HW2 7962   2.100   2.159   3.784
 2355SOL     OW 7963   2.575   5.902   5.325
 2355SOL    HW1 7964   2.617   5.992   5.320
 2355SOL    HW2 7965   2.492   5.900   5.269
 2356SOL     OW 7966   0.136   3.381   6.983
 2356SOL    HW1 7967   0.129   3.425   0.055
 2356SOL    HW2 7968   0.230   3.350   6.969
 2357SOL     OW 7969   2.443   6.814   2.437
 2357SOL    HW1 7970   2.447   6.737   2.500
 2357SOL    HW2 7971   2.353   6.857   2.442
 2358SOL     OW 7972   3.581   4.823   6.579
 2358SOL    HW1 7973   3.542   4.909   6.612
 2358SOL    HW2 7974   3.548   4.747   6.636
 2359SOL     OW 7975   1.436   0.141   4.537
 2359SOL    HW1 7976   1.504   0.213   4.533
 2359SOL    HW2 7977   1.480   0.054   4.558
 2360SOL     OW 7978   6.413   3.756   0.459
 2360SOL    HW1 7979   6.384   3.663   0.481
 2360SOL    HW2 7980   6.335   3.807   0.422
 2361SOL     OW 7981   3.356   1.225   6.562
 2361SOL    HW1 7982   3.438   1.204   6.615
 2361SOL    HW2 7983   3.364   1.316   6.522
 2362SOL     OW 7984   3.924   5.535   3.346
 2362SOL    HW1 7985   3.996   5.551   3.279
 2362SOL    HW2 7986   3.881   5.447   3.328
 2363SOL     OW 7987   3.921   1.226   4.640
 2363SOL    HW1 7988   3.933   1.150   4.576
 2363SOL    HW2 7989   4.006   1.279   4.645
 2364SOL     OW 7990   1.016   2.651   1.133
 2364SOL    HW1 7991   1.030   2.569   1.078
 2364SOL    HW2 7992   1.092   2.714   1.118
 2365SOL     OW 7993   5.577   2.175   6.677
 2365SOL    HW1 7994   5.486   2.145   6.648
 2365SOL    HW2 7995   5.617   2.106   6.738
 2366SOL     OW 7996   3.726   5.271   0.568
 2366SOL    HW1 7997   3.789   5.348   0.582
 2366SOL    HW2 7998   3.776   5.185   0.576
 2367SOL     OW 7999   2.910   3.282   6.504
 2367SOL    HW1 8000   2.902   3.257   6.408
 2367SOL    HW2 8001   2.963   3.212   6.552
 2368SOL     OW 8002   6.632   5.989   2.780
 2368SOL    HW1 8003   6.649   5.896   2.748
 2368SOL    HW2 8004   6.718   6.040   2.785
 2369SOL     OW 8005   2.256   0.722   3.464
 2369SOL    HW1 8006   2.174   0.747   3.516
 2369SOL    HW2 8007   2.257   0.773   3.378
 2370SOL     OW 8008   5.682   1.978   6.839
 2370SOL    HW1 8009   5.769   2.024   6.859
 2370SOL    HW2 8010   5.691   1.880   6.857
 2371SOL     OW 8011   2.579   6.551   1.735
 2371SOL    HW1 8012   2.546   6.618   1.668
 2371SOL    HW2 8013   2.572   6.589   1.827
 2372SOL     OW 8014   6.702   3.539   2.812
 2372SOL    HW1 8015   6.799   3.563   2.810
 2372SOL    HW2 8016   6.661   3.558   2.723
 2373SOL     OW 8017   2.066   3.292   6.277
 2373SOL    HW1 8018   2.033   3.213   6.226
 2373SOL    HW2 8019   1.994   3.328   6.335
 2374SOL     OW 8020   5.962   2.785   4.818
 2374SOL    HW1 8021   5.961   2.777   4.718
 2374SOL    HW2 8022   6.004   2.872   4.845
 2375SOL     OW 8023   3.240   6.032   5.020
 2375SOL    HW1 8024   3.293   6.101   4.970
 2375SOL    HW2 8025   3.160   6.007   4.965
 2376SOL     OW 8026   6.346   3.178   4.700
 2376SOL    HW1 8027   6.400   3.250   4.743
 2376SOL    HW2 8028   6.395   3.092   4.705
 2377SOL     OW 8029   3.467   3.689   4.043
 2377SOL    HW1 8030   3.422   3.714   3.958
 2377SOL    HW2 8031   3.546   3.631   4.024
 2378SOL     OW 8032   5.167   2.302   6.729
 2378SOL    HW1 8033   5.164   2.309   6.829
 2378SOL    HW2 8034   5.244   2.355   6.694
 2379SOL     OW 8035   6.635   6.850   0.562
 2379SOL    HW1 8036   6.574   6.791   0.509
 2379SOL    HW2 8037   6.661   6.929   0.507
 2380SOL     OW 8038   6.122   1.694   2.069
 2380SOL    HW1 8039   6.171   1.635   2.005
 2380SOL    HW2 8040   6.181   1.715   2.147
 2381SOL     OW 8041   1.731   6.575   3.626
 2381SOL    HW1 8042   1.803   6.619   3.680
 2381SOL    HW2 8043   1.769   6.547   3.537
 2382SOL     OW 8044   1.953   3.447   4.953
 2382SOL    HW1 8045   1.946   3.430   4.855
 2382SOL    HW2 8046   1.940   3.361   5.003
 2383SOL     OW 8047   6.299   5.968   1.155
 2383SOL    HW1 8048   6.279   6.066   1.147
 2383SOL    HW2 8049   6.263   5.920   1.075
 2384SOL     OW 8050   4.621   1.727   1.684
 2384SOL    HW1 8051   4.675   1.648   1.711
 2384SOL    HW2 8052   4.536   1.730   1.737
 2385SOL     OW 8053   0.730   2.058   6.046
 2385SOL    HW1 8054   0.638   2.029   6.070
 2385SOL    HW2 8055   0.738   2.157   6.060
 2386SOL     OW 8056   4.784   5.658   4.277
 2386SOL    HW1 8057   4.833   5.738   4.242
 2386SOL    HW2 8058   4.712   5.689   4.340
 2387SOL     OW 8059   1.976   1.843   3.514
 2387SOL    HW1 8060   1.881   1.851   3.485
 2387SOL    HW2 8061   1.984   1.865   3.611
 2388SOL     OW 8062   6.277   2.042   4.389
 2388SOL    HW1 8063   6.291   2.108   4.462
 2388SOL    HW2 8064   6.354   1.979   4.385
 2389SOL     OW 8065   4.235   5.375   2.925
 2389SOL    HW1 8066   4.310   5.359   2.861
 2389SOL    HW2 8067   4.187   5.459   2.901
 2390SOL     OW 8068   3.304   4.199   1.697
 2390SOL    HW1 8069   3.350   4.148   1.624
 2390SOL    HW2 8070   3.346   4.177   1.785
 2391SOL     OW 8071   4.068   5.099   5.406
 2391SOL    HW1 8072   4.128   5.033   5.360
 2391SOL    HW2 8073   4.122   5.178   5.435
 2392SOL     OW 8074   3.784   1.148   6.680
 2392SOL    HW1 8075   3.783   1.058   6.638
 2392SOL    HW2 8076   3.870   1.161   6.729
 2393SOL     OW 8077   4.071   4.877   5.659
 2393SOL    HW1 8078   4.140   4.893   5.730
 2393SOL    HW2 8079   4.022   4.962   5.641
 2394SOL     OW 8080   0.525   4.166   4.938
 2394SOL    HW1 8081   0.446   4.115   4.904
 2394SOL    HW2 8082   0.495   4.234   5.005
 2395SOL     OW 8083   4.249   0.119   6.012
 2395SOL    HW1 8084   4.280   0.024   6.005
 2395SOL    HW2 8085   4.291   0.162   6.092
 2396SOL     OW 8086   4.307   4.407   0.620
 2396SOL    HW1 8087   4.361   4.455   0.551
 2396SOL    HW2 8088   4.211   4.407   0.594
 2397SOL     OW 8089   0.074   3.739   4.509
 2397SOL    HW1 8090   0.037   3.677   4.578
 2397SOL    HW2 8091   0.154   3.698   4.466
 2398SOL     OW 8092   3.836   4.719   5.669
 2398SOL    HW1 8093   3.831   4.674   5.579
 2398SOL    HW2 8094   3.929   4.752   5.685
 2399SOL     OW 8095   4.124   1.927   1.729
 2399SOL    HW1 8096   4.062   1.868   1.781
 2399SOL    HW2 8097   4.200   1.954   1.788
 2400SOL     OW 8098   2.455   5.267   1.769
 2400SOL    HW1 8099   2.415   5.294   1.682
 2400SOL    HW2 8100   2.522   5.194   1.753
 2401SOL     OW 8101   6.749   6.307   5.909
 2401SOL    HW1 8102   6.665   6.338   5.953
 2401SOL    HW2 8103   6.736   6.304   5.810
 2402SOL     OW 8104   0.008   6.397   4.511
 2402SOL    HW1 8105   0.090   6.417   4.457
 2402SOL    HW2 8106   7.003   6.300   4.503
 2403SOL     OW 8107   0.656   1.671   5.292
 2403SOL    HW1 8108   0.607   1.752   5.258
 2403SOL    HW2 8109   0.651   1.669   5.392
 2404SOL     OW 8110   0.986   0.240   0.278
 2404SOL    HW1 8111   1.056   0.184   0.234
 2404SOL    HW2 8112   0.911   0.181   0.309
 2405SOL     OW 8113   2.732   3.881   1.606
 2405SOL    HW1 8114   2.733   3.906   1.509
 2405SOL    HW2 8115   2.752   3.783   1.615
 2406SOL     OW 8116   4.781   1.039   1.130
 2406SOL    HW1 8117   4.850   1.017   1.199
 2406SOL    HW2 8118   4.822   1.037   1.039
 2407SOL     OW 8119   5.620   0.701   3.724
 2407SOL    HW1 8120   5.547   0.716   3.790
 2407SOL    HW2 8121   5.708   0.703   3.771
 2408SOL     OW 8122   4.551   4.434   2.234
 2408SOL    HW1 8123   4.478   4.501   2.247
 2408SOL    HW2 8124   4.533   4.380   2.152
 2409SOL     OW 8125   1.452   3.986   0.318
 2409SOL    HW1 8126   1.545   4.022   0.332
 2409SOL    HW2 8127   1.453   3.886   0.330
 2410SOL     OW 8128   3.798   2.924   2.679
 2410SOL    HW1 8129   3.820   3.021   2.682
 2410SOL    HW2 8130   3.760   2.900   2.590
 2411SOL     OW 8131   5.121   6.966   4.364
 2411SOL    HW1 8132   5.106   6.868   4.350
 2411SOL    HW2 8133   5.065   7.018   4.299
 2412SOL     OW 8134   4.178   3.218   0.880
 2412SOL    HW1 8135   4.250   3.254   0.940
 2412SOL    HW2 8136   4.215   3.206   0.787
 2413SOL     OW 8137   4.719   0.102   2.495
 2413SOL    HW1 8138   4.706   0.173   2.425
 2413SOL    HW2 8139   4.762   0.022   2.453
 2414SOL     OW 8140   5.463   3.659   4.202
 2414SOL    HW1 8141   5.514   3.573   4.199
 2414SOL    HW2 8142   5.434   3.677   4.296
 2415SOL     OW 8143   4.366   1.122   3.794
 2415SOL    HW1 8144   4.447   1.165   3.832
 2415SOL    HW2 8145   4.370   1.023   3.808
 2416SOL     OW 8146   4.808   1.900   5.744
 2416SOL    HW1 8147   4.892   1.902   5.797
 2416SOL    HW2 8148   4.739   1.956   5.789
 2417SOL     OW 8149   3.053   3.999   4.021
 2417SOL    HW1 8150   3.124   4.002   4.092
 2417SOL    HW2 8151   2.964   4.021   4.062
 2418SOL     OW 8152   3.415   2.891   3.420
 2418SOL    HW1 8153   3.389   2.958   3.352
 2418SOL    HW2 8154   3.345   2.886   3.491
 2419SOL     OW 8155   6.904   0.277   2.769
 2419SOL    HW1 8156   6.954   0.360   2.793
 2419SOL    HW2 8157   6.962   0.197   2.784
 2420SOL     OW 8158   2.386   0.167   1.986
 2420SOL    HW1 8159   2.362   0.193   1.893
 2420SOL    HW2 8160   2.413   0.070   1.988
 2421SOL     OW 8161   3.375   2.153   3.503
 2421SOL    HW1 8162   3.290   2.124   3.459
 2421SOL    HW2 8163   3.449   2.155   3.436
 2422SOL     OW 8164   4.757   1.143   0.864
 2422SOL    HW1 8165   4.692   1.078   0.825
 2422SOL    HW2 8166   4.713   1.233   0.874
 2423SOL     OW 8167   2.219   5.291   2.266
 2423SOL    HW1 8168   2.240   5.249   2.178
 2423SOL    HW2 8169   2.303   5.300   2.320
 2424SOL     OW 8170   6.209   0.561   1.393
 2424SOL    HW1 8171   6.225   0.631   1.323
 2424SOL    HW2 8172   6.271   0.576   1.470
 2425SOL     OW 8173   6.725   6.800   4.615
 2425SOL    HW1 8174   6.705   6.724   4.677
 2425SOL    HW2 8175   6.673   6.788   4.530
 2426SOL     OW 8176   2.622   5.049   3.979
 2426SOL    HW1 8177   2.629   5.059   4.078
 2426SOL    HW2 8178   2.712   5.030   3.941
 2427SOL     OW 8179   6.143   6.863   5.465
 2427SOL    HW1 8180   6.174   6.958   5.476
 2427SOL    HW2 8181   6.220   6.807   5.436
 2428SOL     OW 8182   6.477   0.688   0.724
 2428SOL    HW1 8183   6.508   0.781   0.745
 2428SOL    HW2 8184   6.460   0.638   0.809
 2429SOL     OW 8185   5.076   5.503   2.052
 2429SOL    HW1 8186   5.028   5.509   1.965
 2429SOL    HW2 8187   5.140   5.579   2.060
 2430SOL     OW 8188   5.280   0.606   2.750
 2430SOL    HW1 8189   5.191   0.586   2.710
 2430SOL    HW2 8190   5.285   0.567   2.842
 2431SOL     OW 8191   4.386   0.308   2.192
 2431SOL    HW1 8192   4.339   0.270   2.271
 2431SOL    HW2 8193   4.423   0.233   2.136
 2432SOL     OW 8194   2.120   6.202   2.565
 2432SOL    HW1 8195   2.158   6.231   2.477
 2432SOL    HW2 8196   2.171   6.124   2.600
 2433SOL     OW 8197   3.873   0.355   0.955
 2433SOL    HW1 8198   3.828   0.308   0.879
 2433SOL    HW2 8199   3.972   0.350   0.943
 2434SOL     OW 8200   3.633   3.298   5.507
 2434SOL    HW1 8201   3.592   3.384   5.477
 2434SOL    HW2 8202   3.723   3.287   5.465
 2435SOL     OW 8203   6.092   6.070   5.473
 2435SOL    HW1 8204   6.083   6.066   5.374
 2435SOL    HW2 8205   6.160   6.004   5.504
 2436SOL     OW 8206   2.669   5.459   0.820
 2436SOL    HW1 8207   2.704   5.508   0.900
 2436SOL    HW2 8208   2.729   5.382   0.799
 2437SOL     OW 8209   6.877   0.325   5.891
 2437SOL    HW1 8210   6.808   0.281   5.833
 2437SOL    HW2 8211   6.862   0.424   5.890
 2438SOL     OW 8212   2.706   3.002   1.247
 2438SOL    HW1 8213   2.690   3.069   1.175
 2438SOL    HW2 8214   2.620   2.982   1.294
 2439SOL     OW 8215   5.506   3.946   5.793
 2439SOL    HW1 8216   5.461   3.973   5.708
 2439SOL    HW2 8217   5.591   3.898   5.772
 2440SOL     OW 8218   5.960   5.169   5.936
 2440SOL    HW1 8219   6.048   5.165   5.984
 2440SOL    HW2 8220   5.961   5.244   5.870
 2441SOL     OW 8221   6.232   2.087   0.583
 2441SOL    HW1 8222   6.161   2.064   0.650
 2441SOL    HW2 8223   6.237   2.186   0.573
 2442SOL     OW 8224   6.879   2.668   5.467
 2442SOL    HW1 8225   6.976   2.687   5.449
 2442SOL    HW2 8226   6.871   2.584   5.520
 2443SOL     OW 8227   2.612   4.975   5.211
 2443SOL    HW1 8228   2.532   4.930   5.250
 2443SOL    HW2 8229   2.670   5.011   5.284
 2444SOL     OW 8230   3.660   3.007   5.455
 2444SOL    HW1 8231   3.610   2.923   5.474
 2444SOL    HW2 8232   3.676   3.057   5.541
 2445SOL     OW 8233   0.372   0.170   0.615
 2445SOL    HW1 8234   0.327   0.257   0.595
 2445SOL    HW2 8235   0.303   0.104   0.647
 2446SOL     OW 8236   5.407   3.202   6.353
 2446SOL    HW1 8237   5.493   3.211   6.303
 2446SOL    HW2 8238   5.330   3.207   6.289
 2447SOL     OW 8239   0.798   2.783   6.658
 2447SOL    HW1 8240   0.813   2.689   6.686
 2447SOL    HW2 8241   0.827   2.796   6.563
 2448SOL     OW 8242   0.195   0.282   4.440
 2448SOL    HW1 8243   0.164   0.345   4.511
 2448SOL    HW2 8244   0.121   0.220   4.415
 2449SOL     OW 8245   0.673   3.195   4.534
 2449SOL    HW1 8246   0.645   3.103   4.508
 2449SOL    HW2 8247   0.594   3.257   4.526
 2450SOL     OW 8248   1.877   3.012   1.740
 2450SOL    HW1 8249   1.954   2.984   1.797
 2450SOL    HW2 8250   1.875   3.111   1.732
 2451SOL     OW 8251   2.513   6.634   4.413
 2451SOL    HW1 8252   2.599   6.601   4.373
 2451SOL    HW2 8253   2.495   6.727   4.381
 2452SOL     OW 8254   2.363   2.195   4.127
 2452SOL    HW1 8255   2.399   2.147   4.206
 2452SOL    HW2 8256   2.420   2.275   4.107
 2453SOL     OW 8257   0.405   3.302   1.775
 2453SOL    HW1 8258   0.465   3.221   1.767
 2453SOL    HW2 8259   0.419   3.362   1.696
 2454SOL     OW 8260   2.422   0.062   1.526
 2454SOL    HW1 8261   2.499   0.030   1.582
 2454SOL    HW2 8262   2.454   0.078   1.433
 2455SOL     OW 8263   5.406   3.338   1.427
 2455SOL    HW1 8264   5.460   3.314   1.346
 2455SOL    HW2 8265   5.393   3.256   1.484
 2456SOL     OW 8266   2.809   6.957   1.114
 2456SOL    HW1 8267   2.718   6.927   1.085
 2456SOL    HW2 8268   2.878   6.898   1.073
 2457SOL     OW 8269   5.845   5.697   1.224
 2457SOL    HW1 8270   5.909   5.766   1.257
 2457SOL    HW2 8271   5.759   5.741   1.198
 2458SOL     OW 8272   0.361   5.858   2.476
 2458SOL    HW1 8273   0.403   5.782   2.427
 2458SOL    HW2 8274   0.432   5.910   2.523
 2459SOL     OW 8275   0.651   1.289   0.510
 2459SOL    HW1 8276   0.668   1.368   0.570
 2459SOL    HW2 8277   0.636   1.321   0.416
 2460SOL     OW 8278   3.148   4.832   1.345
 2460SOL    HW1 8279   3.151   4.873   1.436
 2460SOL    HW2 8280   3.184   4.739   1.350
 2461SOL     OW 8281   4.795   1.341   3.308
 2461SOL    HW1 8282   4.894   1.345   3.321
 2461SOL    HW2 8283   4.767   1.408   3.240
 2462SOL     OW 8284   2.670   3.761   6.151
 2462SOL    HW1 8285   2.589   3.817   6.138
 2462SOL    HW2 8286   2.677   3.733   6.247
 2463SOL     OW 8287   0.913   2.332   5.096
 2463SOL    HW1 8288   0.882   2.374   5.011
 2463SOL    HW2 8289   0.906   2.399   5.171
 2464SOL     OW 8290   1.548   3.693   0.648
 2464SOL    HW1 8291   1.450   3.691   0.629
 2464SOL    HW2 8292   1.567   3.639   0.731
 2465SOL     OW 8293   5.812   5.208   2.128
 2465SOL    HW1 8294   5.842   5.157   2.208
 2465SOL    HW2 8295   5.745   5.154   2.077
 2466SOL     OW 8296   3.716   1.561   1.887
 2466SOL    HW1 8297   3.706   1.619   1.806
 2466SOL    HW2 8298   3.665   1.601   1.963
 2467SOL     OW 8299   0.175   1.337   4.857
 2467SOL    HW1 8300   0.202   1.243   4.879
 2467SOL    HW2 8301   0.215   1.364   4.770
 2468SOL     OW 8302   6.376   4.402   0.124
 2468SOL    HW1 8303   6.292   4.410   0.178
 2468SOL    HW2 8304   6.430   4.325   0.158
 2469SOL     OW 8305   3.175   2.906   5.938
 2469SOL    HW1 8306   3.156   2.857   5.853
 2469SOL    HW2 8307   3.217   2.994   5.917
 2470SOL     OW 8308   5.428   2.383   0.991
 2470SOL    HW1 8309   5.378   2.299   1.011
 2470SOL    HW2 8310   5.479   2.411   1.072
 2471SOL     OW 8311   0.263   1.146   3.109
 2471SOL    HW1 8312   0.302   1.139   3.017
 2471SOL    HW2 8313   0.262   1.056   3.151
 2472SOL     OW 8314   5.624   1.463   3.653
 2472SOL    HW1 8315   5.597   1.500   3.742
 2472SOL    HW2 8316   5.555   1.486   3.584
 2473SOL     OW 8317   0.395   6.208   5.248
 2473SOL    HW1 8318   0.315   6.154   5.222
 2473SOL    HW2 8319   0.427   6.179   5.339
 2474SOL     OW 8320   6.196   6.617   4.128
 2474SOL    HW1 8321   6.150   6.593   4.214
 2474SOL    HW2 8322   6.134   6.672   4.071
 2475SOL     OW 8323   4.150   2.331   6.398
 2475SOL    HW1 8324   4.062   2.292   6.423
 2475SOL    HW2 8325   4.150   2.354   6.301
 2476SOL     OW 8326   0.519   1.288   3.540
 2476SOL    HW1 8327   0.501   1.310   3.445
 2476SOL    HW2 8328   0.440   1.312   3.596
 2477SOL     OW 8329   4.444   5.073   2.079
 2477SOL    HW1 8330   4.492   4.989   2.105
 2477SOL    HW2 8331   4.503   5.127   2.019
 2478SOL     OW 8332   0.219   7.007   2.554
 2478SOL    HW1 8333   0.176   6.917   2.542
 2478SOL    HW2 8334   0.248   0.024   2.466
 2479SOL     OW 8335   0.580   2.007   6.846
 2479SOL    HW1 8336   0.546   2.097   6.871
 2479SOL    HW2 8337   0.607   1.957   6.929
 2480SOL     OW 8338   7.003   5.223   1.617
 2480SOL    HW1 8339   0.002   5.262   1.707
 2480SOL    HW2 8340   7.018   5.292   1.547
 2481SOL     OW 8341   3.834   5.205   2.240
 2481SOL    HW1 8342   3.863   5.205   2.336
 2481SOL    HW2 8343   3.784   5.120   2.221
 2482SOL     OW 8344   5.177   2.517   4.658
 2482SOL    HW1 8345   5.141   2.517   4.752
 2482SOL    HW2 8346   5.123   2.453   4.602
 2483SOL     OW 8347   0.729   2.589   6.983
 2483SOL    HW1 8348   0.664   2.622   6.915
 2483SOL    HW2 8349   0.749   2.662   0.030
 2484SOL     OW 8350   3.894   4.324   5.920
 2484SOL    HW1 8351   3.966   4.285   5.863
 2484SOL    HW2 8352   3.877   4.263   5.998
 2485SOL     OW 8353   0.361   6.128   0.045
 2485SOL    HW1 8354   0.270   6.169   0.043
 2485SOL    HW2 8355   0.357   6.036   0.007
 2486SOL     OW 8356   0.528   5.045   3.619
 2486SOL    HW1 8357   0.608   4.986   3.606
 2486SOL    HW2 8358   0.534   5.090   3.708
 2487SOL     OW 8359   3.719   1.736   1.606
 2487SOL    HW1 8360   3.758   1.828   1.615
 2487SOL    HW2 8361   3.678   1.725   1.516
 2488SOL     OW 8362   2.940   5.998   6.483
 2488SOL    HW1 8363   2.998   6.078   6.498
 2488SOL    HW2 8364   2.967   5.953   6.398
 2489SOL     OW 8365   0.234   5.865   3.992
 2489SOL    HW1 8366   0.190   5.943   3.947
 2489SOL    HW2 8367   0.250   5.886   4.088
 2490SOL     OW 8368   5.569   2.878   1.551
 2490SOL    HW1 8369   5.645   2.834   1.598
 2490SOL    HW2 8370   5.502   2.808   1.523
 2491SOL     OW 8371   0.239   4.329   2.906
 2491SOL    HW1 8372   0.180   4.410   2.910
 2491SOL    HW2 8373   0.276   4.319   2.814
 2492SOL     OW 8374   3.922   1.353   6.126
 2492SOL    HW1 8375   3.902   1.258   6.098
 2492SOL    HW2 8376   4.020   1.366   6.133
 2493SOL     OW 8377   0.035   0.970   4.630
 2493SOL    HW1 8378   0.013   1.037   4.559
 2493SOL    HW2 8379   0.134   0.967   4.643
 2494SOL     OW 8380   4.294   5.156   0.764
 2494SOL    HW1 8381   4.281   5.224   0.692
 2494SOL    HW2 8382   4.208   5.110   0.783
 2495SOL     OW 8383   0.001   0.872   2.937
 2495SOL    HW1 8384   6.974   0.900   2.852
 2495SOL    HW2 8385   0.002   0.772   2.943
 2496SOL     OW 8386   1.391   5.563   0.038
 2496SOL    HW1 8387   1.482   5.580   0.001
 2496SOL    HW2 8388   1.336   5.515   6.988
 2497SOL     OW 8389   5.724   0.544   0.031
 2497SOL    HW1 8390   5.654   0.473   0.020
 2497SOL    HW2 8391   5.680   0.630   0.058
 2498SOL     OW 8392   1.136   3.410   4.704
 2498SOL    HW1 8393   1.211   3.352   4.735
 2498SOL    HW2 8394   1.120   3.483   4.770
 2499SOL     OW 8395   5.213   0.911   0.119
 2499SOL    HW1 8396   5.157   0.993   0.110
 2499SOL    HW2 8397   5.173   0.851   0.188
 2500SOL     OW 8398   4.185   4.229   6.420
 2500SOL    HW1 8399   4.090   4.213   6.447
 2500SOL    HW2 8400   4.240   4.247   6.502
 2501SOL     OW 8401   6.540   5.123   0.991
 2501SOL    HW1 8402   6.581   5.211   0.967
 2501SOL    HW2 8403   6.464   5.138   1.055
 2502SOL     OW 8404   0.561   0.360   3.680
 2502SOL    HW1 8405   0.563   0.303   3.762
 2502SOL    HW2 8406   0.616   0.443   3.696
 2503SOL     OW 8407   5.654   6.677   4.142
 2503SOL    HW1 8408   5.582   6.745   4.128
 2503SOL    HW2 8409   5.617   6.585   4.129
 2504SOL     OW 8410   2.319   4.290   3.085
 2504SOL    HW1 8411   2.334   4.264   2.989
 2504SOL    HW2 8412   2.348   4.385   3.098
 2505SOL     OW 8413   5.060   4.483   4.799
 2505SOL    HW1 8414   5.087   4.421   4.872
 2505SOL    HW2 8415   5.019   4.430   4.724
 2506SOL     OW 8416   0.399   0.945   0.616
 2506SOL    HW1 8417   0.322   0.910   0.670
 2506SOL    HW2 8418   0.463   0.993   0.676
 2507SOL     OW 8419   6.137   6.714   0.136
 2507SOL    HW1 8420   6.058   6.744   0.190
 2507SOL    HW2 8421   6.106   6.669   0.053
 2508SOL     OW 8422   1.844   2.304   1.417
 2508SOL    HW1 8423   1.749   2.282   1.440
 2508SOL    HW2 8424   1.906   2.253   1.476
 2509SOL     OW 8425   5.904   1.198   3.295
 2509SOL    HW1 8426   5.942   1.170   3.207
 2509SOL    HW2 8427   5.832   1.135   3.323
 2510SOL     OW 8428   3.988   5.809   2.583
 2510SOL    HW1 8429   3.938   5.865   2.518
 2510SOL    HW2 8430   3.962   5.835   2.677
 2511SOL     OW 8431   0.965   6.837   3.331
 2511SOL    HW1 8432   0.994   6.894   3.254
 2511SOL    HW2 8433   0.885   6.879   3.374
 2512SOL     OW 8434   5.774   3.947   4.490
 2512SOL    HW1 8435   5.710   3.890   4.542
 2512SOL    HW2 8436   5.867   3.926   4.517
 2513SOL     OW 8437   6.981   4.419   0.955
 2513SOL    HW1 8438   7.011   4.439   0.861
 2513SOL    HW2 8439   6.885   4.444   0.965
 2514SOL     OW 8440   7.015   2.426   3.531
 2514SOL    HW1 8441   0.009   2.330   3.554
 2514SOL    HW2 8442   0.026   2.443   3.437
 2515SOL     OW 8443   1.386   4.439   6.904
 2515SOL    HW1 8444   1.421   4.519   6.854
 2515SOL    HW2 8445   1.403   4.452   7.002
 2516SOL     OW 8446   5.388   6.417   3.763
 2516SOL    HW1 8447   5.405   6.501   3.712
 2516SOL    HW2 8448   5.302   6.377   3.735
 2517SOL     OW 8449   1.694   5.269   0.929
 2517SOL    HW1 8450   1.666   5.241   0.838
 2517SOL    HW2 8451   1.685   5.192   0.993
 2518SOL     OW 8452   2.293   2.797   6.633
 2518SOL    HW1 8453   2.276   2.742   6.551
 2518SOL    HW2 8454   2.214   2.789   6.694
 2519SOL     OW 8455   5.820   3.790   5.109
 2519SOL    HW1 8456   5.904   3.815   5.157
 2519SOL    HW2 8457   5.798   3.860   5.041
 2520SOL     OW 8458   3.407   5.730   2.124
 2520SOL    HW1 8459   3.344   5.693   2.192
 2520SOL    HW2 8460   3.492   5.676   2.125
 2521SOL     OW 8461   5.441   6.415   5.804
 2521SOL    HW1 8462   5.350   6.454   5.816
 2521SOL    HW2 8463   5.506   6.488   5.781
 2522SOL     OW 8464   2.217   5.166   4.535
 2522SOL    HW1 8465   2.149   5.194   4.603
 2522SOL    HW2 8466   2.179   5.091   4.480
 2523SOL     OW 8467   1.307   2.276   5.346
 2523SOL    HW1 8468   1.349   2.280   5.436
 2523SOL    HW2 8469   1.354   2.207   5.291
 2524SOL     OW 8470   1.752   6.976   4.314
 2524SOL    HW1 8471   1.790   6.887   4.339
 2524SOL    HW2 8472   1.751   6.985   4.214
 2525SOL     OW 8473   2.567   4.687   2.587
 2525SOL    HW1 8474   2.664   4.696   2.565
 2525SOL    HW2 8475   2.513   4.699   2.503
 2526SOL     OW 8476   1.710   2.420   4.658
 2526SOL    HW1 8477   1.706   2.358   4.580
 2526SOL    HW2 8478   1.766   2.500   4.634
 2527SOL     OW 8479   6.666   0.109   4.438
 2527SOL    HW1 8480   6.652   0.013   4.413
 2527SOL    HW2 8481   6.590   0.164   4.401
 2528SOL     OW 8482   5.480   5.679   0.330
 2528SOL    HW1 8483   5.573   5.674   0.294
 2528SOL    HW2 8484   5.433   5.758   0.291
 2529SOL     OW 8485   4.894   4.243   5.498
 2529SOL    HW1 8486   4.929   4.150   5.483
 2529SOL    HW2 8487   4.943   4.284   5.575
 2530SOL     OW 8488   1.108   6.355   3.291
 2530SOL    HW1 8489   1.067   6.434   3.335
 2530SOL    HW2 8490   1.077   6.350   3.196
 2531SOL     OW 8491   4.985   1.449   6.511
 2531SOL    HW1 8492   5.062   1.434   6.448
 2531SOL    HW2 8493   5.020   1.482   6.599
 2532SOL     OW 8494   0.859   4.730   5.709
 2532SOL    HW1 8495   0.929   4.662   5.686
 2532SOL    HW2 8496   0.801   4.747   5.630
 2533SOL     OW 8497   5.717   6.976   5.406
 2533SOL    HW1 8498   5.767   6.893   5.433
 2533SOL    HW2 8499   5.744   7.002   5.314
 2534SOL     OW 8500   6.552   1.812   3.617
 2534SOL    HW1 8501   6.508   1.846   3.534
 2534SOL    HW2 8502   6.484   1.765   3.673
 2535SOL     OW 8503   2.711   1.722   2.466
 2535SOL    HW1 8504   2.653   1.766   2.398
 2535SOL    HW2 8505   2.801   1.766   2.468
 2536SOL     OW 8506   6.795   0.509   4.565
 2536SOL    HW1 8507   6.809   0.604   4.595
 2536SOL    HW2 8508   6.750   0.458   4.638
 2537SOL     OW 8509   3.739   6.029   2.652
 2537SOL    HW1 8510   3.650   5.991   2.679
 2537SOL    HW2 8511   3.757   6.007   2.556
 2538SOL     OW 8512   0.638   5.035   5.390
 2538SOL    HW1 8513   0.719   5.094   5.382
 2538SOL    HW2 8514   0.574   5.056   5.316
 2539SOL     OW 8515   1.913   0.495   5.332
 2539SOL    HW1 8516   1.899   0.401   5.365
 2539SOL    HW2 8517   2.011   0.516   5.334
 2540SOL     OW 8518   4.833   2.030   2.080
 2540SOL    HW1 8519   4.890   2.007   2.159
 2540SOL    HW2 8520   4.813   2.128   2.081
 2541SOL     OW 8521   1.142   1.323   6.302
 2541SOL    HW1 8522   1.237   1.298   6.320
 2541SOL    HW2 8523   1.091   1.328   6.388
 2542SOL     OW 8524   3.736   1.865   3.915
 2542SOL    HW1 8525   3.665   1.796   3.899
 2542SOL    HW2 8526   3.789   1.878   3.832
 2543SOL     OW 8527   6.172   0.896   5.011
 2543SOL    HW1 8528   6.088   0.896   4.958
 2543SOL    HW2 8529   6.249   0.923   4.952
 2544SOL     OW 8530   0.304   6.697   1.762
 2544SOL    HW1 8531   0.398   6.721   1.735
 2544SOL    HW2 8532   0.306   6.651   1.851
 2545SOL     OW 8533   0.032   1.602   0.279
 2545SOL    HW1 8534   0.125   1.572   0.260
 2545SOL    HW2 8535   6.986   1.550   0.223
 2546SOL     OW 8536   6.390   3.290   2.462
 2546SOL    HW1 8537   6.411   3.230   2.539
 2546SOL    HW2 8538   6.325   3.244   2.401
 2547SOL     OW 8539   6.019   3.716   0.969
 2547SOL    HW1 8540   5.923   3.705   0.942
 2547SOL    HW2 8541   6.026   3.707   1.069
 2548SOL     OW 8542   6.248   0.646   5.446
 2548SOL    HW1 8543   6.337   0.664   5.487
 2548SOL    HW2 8544   6.187   0.605   5.514
 2549SOL     OW 8545   2.687   5.217   0.595
 2549SOL    HW1 8546   2.757   5.206   0.666
 2549SOL    HW2 8547   2.629   5.136   0.592
 2550SOL     OW 8548   3.712   6.818   1.399
 2550SOL    HW1 8549   3.758   6.906   1.382
 2550SOL    HW2 8550   3.756   6.747   1.344
 2551SOL     OW 8551   3.476   4.846   1.416
 2551SOL    HW1 8552   3.445   4.779   1.349
 2551SOL    HW2 8553   3.491   4.934   1.372
 2552SOL     OW 8554   2.323   4.400   1.338
 2552SOL    HW1 8555   2.330   4.475   1.272
 2552SOL    HW2 8556   2.336   4.437   1.431
 2553SOL     OW 8557   5.031   0.846   6.937
 2553SOL    HW1 8558   5.116   0.861   6.987
 2553SOL    HW2 8559   4.959   0.818   7.001
 2554SOL     OW 8560   0.749   5.470   1.383
 2554SOL    HW1 8561   0.718   5.380   1.411
 2554SOL    HW2 8562   0.823   5.461   1.317
 2555SOL     OW 8563   0.742   6.699   4.569
 2555SOL    HW1 8564   0.764   6.758   4.647
 2555SOL    HW2 8565   0.658   6.649   4.587
 2556SOL     OW 8566   4.508   7.014   1.118
 2556SOL    HW1 8567   4.515   6.983   1.023
 2556SOL    HW2 8568   4.431   6.969   1.162
 2557SOL     OW 8569   2.657   1.091   6.997
 2557SOL    HW1 8570   2.557   1.085   6.995
 2557SOL    HW2 8571   2.684   1.186   6.979
 2558SOL     OW 8572   5.290   1.843   1.209
 2558SOL    HW1 8573   5.208   1.885   1.171
 2558SOL    HW2 8574   5.357   1.829   1.135
 2559SOL     OW 8575   6.115   5.205   3.535
 2559SOL    HW1 8576   6.180   5.206   3.610
 2559SOL    HW2 8577   6.029   5.247   3.565
 2560SOL     OW 8578   4.826   2.611   2.355
 2560SOL    HW1 8579   4.777   2.675   2.297
 2560SOL    HW2 8580   4.924   2.627   2.347
 2561SOL     OW 8581   3.451   0.063   4.831
 2561SOL    HW1 8582   3.474   0.160   4.839
 2561SOL    HW2 8583   3.481   0.029   4.742
 2562SOL     OW 8584   2.009   6.704   4.830
 2562SOL    HW1 8585   2.029   6.606   4.827
 2562SOL    HW2 8586   1.942   6.723   4.903
 2563SOL     OW 8587   3.921   2.638   6.292
 2563SOL    HW1 8588   3.830   2.652   6.253
 2563SOL    HW2 8589   3.921   2.665   6.388
 2564SOL     OW 8590   1.229   1.224   0.425
 2564SOL    HW1 8591   1.167   1.268   0.361
 2564SOL    HW2 8592   1.237   1.281   0.507
 2565SOL     OW 8593   0.573   0.761   0.841
 2565SOL    HW1 8594   0.508   0.794   0.772
 2565SOL    HW2 8595   0.652   0.822   0.844
 2566SOL     OW 8596   3.121   0.917   0.982
 2566SOL    HW1 8597   3.066   0.938   1.064
 2566SOL    HW2 8598   3.187   0.990   0.968
 2567SOL     OW 8599   1.880   0.730   6.194
 2567SOL    HW1 8600   1.894   0.725   6.096
 2567SOL    HW2 8601   1.854   0.640   6.229
 2568SOL     OW 8602   1.677   5.185   1.198
 2568SOL    HW1 8603   1.596   5.131   1.221
 2568SOL    HW2 8604   1.668   5.277   1.237
 2569SOL     OW 8605   1.674   6.340   6.737
 2569SOL    HW1 8606   1.650   6.254   6.781
 2569SOL    HW2 8607   1.656   6.334   6.639
 2570SOL     OW 8608   0.910   6.657   4.206
 2570SOL    HW1 8609   0.861   6.730   4.159
 2570SOL    HW2 8610   0.940   6.690   4.296
 2571SOL     OW 8611   4.114   3.642   3.228
 2571SOL    HW1 8612   4.116   3.543   3.230
 2571SOL    HW2 8613   4.192   3.676   3.175
 2572SOL     OW 8614   2.434   5.796   2.433
 2572SOL    HW1 8615   2.402   5.709   2.469
 2572SOL    HW2 8616   2.369   5.830   2.365
 2573SOL     OW 8617   6.991   1.160   2.974
 2573SOL    HW1 8618   0.065   1.167   3.011
 2573SOL    HW2 8619   6.978   1.070   2.931
 2574SOL     OW 8620   0.602   3.008   2.133
 2574SOL    HW1 8621   0.581   2.925   2.082
 2574SOL    HW2 8622   0.589   2.991   2.231
 2575SOL     OW 8623   4.713   3.852   5.527
 2575SOL    HW1 8624   4.763   3.919   5.473
 2575SOL    HW2 8625   4.750   3.848   5.620
 2576SOL     OW 8626   0.803   0.148   3.066
 2576SOL    HW1 8627   0.891   0.101   3.065
 2576SOL    HW2 8628   0.756   0.135   2.979
 2577SOL     OW 8629   1.425   4.527   1.569
 2577SOL    HW1 8630   1.380   4.491   1.651
 2577SOL    HW2 8631   1.473   4.612   1.593
 2578SOL     OW 8632   4.611   2.519   5.072
 2578SOL    HW1 8633   4.690   2.489   5.124
 2578SOL    HW2 8634   4.638   2.539   4.978
 2579SOL     OW 8635   0.259   1.264   6.552
 2579SOL    HW1 8636   0.227   1.354   6.524
 2579SOL    HW2 8637   0.356   1.268   6.573
 2580SOL     OW 8638   1.819   1.449   5.454
 2580SOL    HW1 8639   1.784   1.510   5.524
 2580SOL    HW2 8640   1.843   1.502   5.372
 2581SOL     OW 8641   6.188   6.213   4.533
 2581SOL    HW1 8642   6.126   6.285   4.566
 2581SOL    HW2 8643   6.282   6.234   4.562
 2582SOL     OW 8644   6.745   4.574   2.993
 2582SOL    HW1 8645   6.806   4.547   3.067
 2582SOL    HW2 8646   6.700   4.493   2.956
 2583SOL     OW 8647   2.888   0.930   0.093
 2583SOL    HW1 8648   2.904   0.956   0.188
 2583SOL    HW2 8649   2.844   1.005   0.045
 2584SOL     OW 8650   3.950   0.827   3.133
 2584SOL    HW1 8651   3.876   0.885   3.167
 2584SOL    HW2 8652   4.034   0.881   3.128
 2585SOL     OW 8653   3.815   0.624   2.078
 2585SOL    HW1 8654   3.741   0.612   2.145
 2585SOL    HW2 8655   3.868   0.540   2.071
 2586SOL     OW 8656   0.199   1.370   4.184
 2586SOL    HW1 8657   0.282   1.328   4.219
 2586SOL    HW2 8658   0.124   1.354   4.247
 2587SOL     OW 8659   6.784   5.447   2.886
 2587SOL    HW1 8660   6.769   5.375   2.953
 2587SOL    HW2 8661   6.854   5.511   2.920
 2588SOL     OW 8662   4.052   6.904   2.859
 2588SOL    HW1 8663   4.039   6.805   2.866
 2588SOL    HW2 8664   4.143   6.922   2.822
 2589SOL     OW 8665   4.666   6.267   1.537
 2589SOL    HW1 8666   4.612   6.254   1.453
 2589SOL    HW2 8667   4.763   6.254   1.516
 2590SOL     OW 8668   3.412   5.904   3.831
 2590SOL    HW1 8669   3.507   5.887   3.806
 2590SOL    HW2 8670   3.386   5.997   3.803
 2591SOL     OW 8671   6.176   0.357   0.635
 2591SOL    HW1 8672   6.275   0.347   0.626
 2591SOL    HW2 8673   6.133   0.334   0.547
 2592SOL     OW 8674   2.936   4.689   1.644
 2592SOL    HW1 8675   2.955   4.620   1.714
 2592SOL    HW2 8676   3.014   4.696   1.583
 2593SOL     OW 8677   3.491   6.984   3.451
 2593SOL    HW1 8678   3.584   6.999   3.484
 2593SOL    HW2 8679   3.428   0.025   3.500
 2594SOL     OW 8680   1.263   5.586   6.587
 2594SOL    HW1 8681   1.342   5.635   6.552
 2594SOL    HW2 8682   1.184   5.647   6.589
 2595SOL     OW 8683   6.830   2.975   4.270
 2595SOL    HW1 8684   6.919   2.931   4.258
 2595SOL    HW2 8685   6.843   3.074   4.274
 2596SOL     OW 8686   3.896   1.747   0.951
 2596SOL    HW1 8687   3.990   1.717   0.964
 2596SOL    HW2 8688   3.840   1.670   0.921
 2597SOL     OW 8689   2.221   2.495   6.004
 2597SOL    HW1 8690   2.139   2.446   6.031
 2597SOL    HW2 8691   2.234   2.487   5.906
 2598SOL     OW 8692   0.023   0.589   2.946
 2598SOL    HW1 8693   0.080   0.537   3.010
 2598SOL    HW2 8694   6.949   0.596   2.982
 2599SOL     OW 8695   4.662   5.643   6.204
 2599SOL    HW1 8696   4.593   5.580   6.240
 2599SOL    HW2 8697   4.680   5.715   6.271
 2600SOL     OW 8698   0.448   2.628   4.575
 2600SOL    HW1 8699   0.397   2.591   4.652
 2600SOL    HW2 8700   0.385   2.659   4.504
 2601SOL     OW 8701   4.212   3.845   5.256
 2601SOL    HW1 8702   4.298   3.857   5.206
 2601SOL    HW2 8703   4.183   3.750   5.248
 2602SOL     OW 8704   6.039   6.444   6.286
 2602SOL    HW1 8705   6.074   6.530   6.323
 2602SOL    HW2 8706   6.115   6.386   6.259
 2603SOL     OW 8707   1.367   2.175   6.404
 2603SOL    HW1 8708   1.458   2.154   6.367
 2603SOL    HW2 8709   1.308   2.095   6.392
 2604SOL     OW 8710   5.808   1.837   0.721
 2604SOL    HW1 8711   5.815   1.772   0.645
 2604SOL    HW2 8712   5.720   1.825   0.767
 2605SOL     OW 8713   6.170   3.407   4.639
 2605SOL    HW1 8714   6.182   3.462   4.721
 2605SOL    HW2 8715   6.223   3.323   4.647
 2606SOL     OW 8716   6.654   4.453   1.223
 2606SOL    HW1 8717   6.728   4.389   1.243
 2606SOL    HW2 8718   6.597   4.464   1.305
 2607SOL     OW 8719   1.145   1.514   4.040
 2607SOL    HW1 8720   1.102   1.425   4.049
 2607SOL    HW2 8721   1.098   1.567   3.970
 2608SOL     OW 8722   5.003   6.975   0.605
 2608SOL    HW1 8723   4.920   6.987   0.550
 2608SOL    HW2 8724   5.033   0.046   0.639
 2609SOL     OW 8725   0.641   2.631   3.066
 2609SOL    HW1 8726   0.585   2.653   2.987
 2609SOL    HW2 8727   0.607   2.680   3.146
 2610SOL     OW 8728   5.172   6.033   4.341
 2610SOL    HW1 8729   5.134   5.987   4.422
 2610SOL    HW2 8730   5.112   6.109   4.315
 2611SOL     OW 8731   2.794   5.555   2.236
 2611SOL    HW1 8732   2.851   5.526   2.160
 2611SOL    HW2 8733   2.709   5.596   2.201
 2612SOL     OW 8734   0.520   6.826   5.492
 2612SOL    HW1 8735   0.533   6.919   5.527
 2612SOL    HW2 8736   0.479   6.830   5.401
 2613SOL     OW 8737   3.518   1.205   0.872
 2613SOL    HW1 8738   3.519   1.165   0.780
 2613SOL    HW2 8739   3.611   1.221   0.902
 2614SOL     OW 8740   6.480   6.016   6.698
 2614SOL    HW1 8741   6.507   6.029   6.793
 2614SOL    HW2 8742   6.416   6.088   6.671
 2615SOL     OW 8743   5.729   4.145   1.497
 2615SOL    HW1 8744   5.814   4.140   1.549
 2615SOL    HW2 8745   5.653   4.120   1.556
 2616SOL     OW 8746   4.177   3.323   2.054
 2616SOL    HW1 8747   4.271   3.288   2.052
 2616SOL    HW2 8748   4.162   3.374   2.139
 2617SOL     OW 8749   2.635   6.723   1.072
 2617SOL    HW1 8750   2.571   6.646   1.082
 2617SOL    HW2 8751   2.694   6.706   0.993
 2618SOL     OW 8752   0.910   6.707   0.311
 2618SOL    HW1 8753   0.944   6.781   0.369
 2618SOL    HW2 8754   0.925   6.619   0.357
 2619SOL     OW 8755   6.187   1.443   1.339
 2619SOL    HW1 8756   6.107   1.406   1.293
 2619SOL    HW2 8757   6.256   1.372   1.350
 2620SOL     OW 8758   1.385   5.625   4.042
 2620SOL    HW1 8759   1.305   5.676   4.011
 2620SOL    HW2 8760   1.458   5.689   4.068
 2621SOL     OW 8761   0.627   5.472   4.152
 2621SOL    HW1 8762   0.665   5.513   4.070
 2621SOL    HW2 8763   0.595   5.379   4.132
 2622SOL     OW 8764   2.509   2.209   5.283
 2622SOL    HW1 8765   2.592   2.164   5.318
 2622SOL    HW2 8766   2.530   2.303   5.259
 2623SOL     OW 8767   3.047   0.156   6.579
 2623SOL    HW1 8768   3.108   0.235   6.586
 2623SOL    HW2 8769   3.070   0.090   6.650
 2624SOL     OW 8770   6.201   2.312   3.887
 2624SOL    HW1 8771   6.298   2.336   3.884
 2624SOL    HW2 8772   6.181   2.265   3.973
 2625SOL     OW 8773   3.669   0.194   5.800
 2625SOL    HW1 8774   3.729   0.258   5.752
 2625SOL    HW2 8775   3.574   0.220   5.785
 2626SOL     OW 8776   1.736   0.041   2.926
 2626SOL    HW1 8777   1.827   0.015   2.959
 2626SOL    HW2 8778   1.735   0.139   2.907
 2627SOL     OW 8779   0.896   0.247   5.085
 2627SOL    HW1 8780   0.934   0.277   4.998
 2627SOL    HW2 8781   0.890   0.147   5.086
 2628SOL     OW 8782   3.418   6.035   0.068
 2628SOL    HW1 8783   3.346   5.967   0.066
 2628SOL    HW2 8784   3.507   5.990   0.066
 2629SOL     OW 8785   2.916   3.585   1.940
 2629SOL    HW1 8786   2.956   3.623   2.023
 2629SOL    HW2 8787   2.940   3.489   1.932
 2630SOL     OW 8788   2.589   2.457   2.711
 2630SOL    HW1 8789   2.618   2.422   2.800
 2630SOL    HW2 8790   2.506   2.512   2.723
 2631SOL     OW 8791   4.006   6.092   4.455
 2631SOL    HW1 8792   4.030   6.144   4.537
 2631SOL    HW2 8793   4.073   6.109   4.384
 2632SOL     OW 8794   4.637   1.255   1.246
 2632SOL    HW1 8795   4.609   1.224   1.337
 2632SOL    HW2 8796   4.706   1.192   1.210
 2633SOL     OW 8797   6.849   2.812   6.606
 2633SOL    HW1 8798   6.911   2.818   6.684
 2633SOL    HW2 8799   6.885   2.868   6.531
 2634SOL     OW 8800   3.269   5.145   1.060
 2634SOL    HW1 8801   3.176   5.180   1.051
 2634SOL    HW2 8802   3.330   5.193   0.998
 2635SOL     OW 8803   6.204   4.605   3.450
 2635SOL    HW1 8804   6.209   4.617   3.351
 2635SOL    HW2 8805   6.207   4.694   3.495
 2636SOL     OW 8806   5.865   5.934   5.615
 2636SOL    HW1 8807   5.948   5.972   5.573
 2636SOL    HW2 8808   5.795   6.005   5.620
 2637SOL     OW 8809   5.235   6.445   2.487
 2637SOL    HW1 8810   5.320   6.399   2.464
 2637SOL    HW2 8811   5.227   6.452   2.587
 2638SOL     OW 8812   5.171   5.994   0.868
 2638SOL    HW1 8813   5.113   5.914   0.884
 2638SOL    HW2 8814   5.161   6.024   0.773
 2639SOL     OW 8815   0.017   6.196   6.243
 2639SOL    HW1 8816   6.937   6.198   6.263
 2639SOL    HW2 8817   0.068   6.229   6.322
 2640SOL     OW 8818   6.414   0.014   6.339
 2640SOL    HW1 8819   6.338   0.071   6.369
 2640SOL    HW2 8820   6.500   0.064   6.349
 2641SOL     OW 8821   6.561   5.682   0.291
 2641SOL    HW1 8822   6.629   5.755   0.288
 2641SOL    HW2 8823   6.524   5.675   0.384
 2642SOL     OW 8824   6.463   0.381   3.926
 2642SOL    HW1 8825   6.454   0.453   3.996
 2642SOL    HW2 8826   6.501   0.299   3.969
 2643SOL     OW 8827   2.299   0.363   2.160
 2643SOL    HW1 8828   2.358   0.297   2.113
 2643SOL    HW2 8829   2.245   0.413   2.093
 2644SOL     OW 8830   6.724   5.764   4.928
 2644SOL    HW1 8831   6.750   5.785   5.022
 2644SOL    HW2 8832   6.788   5.699   4.888
 2645SOL     OW 8833   5.820   5.794   6.284
 2645SOL    HW1 8834   5.779   5.738   6.355
 2645SOL    HW2 8835   5.871   5.735   6.221
 2646SOL     OW 8836   5.853   5.894   6.922
 2646SOL    HW1 8837   5.875   5.906   6.826
 2646SOL    HW2 8838   5.931   5.919   6.978
 2647SOL     OW 8839   3.061   3.308   6.946
 2647SOL    HW1 8840   3.138   3.345   6.998
 2647SOL    HW2 8841   3.096   3.263   6.863
 2648SOL     OW 8842   3.801   1.386   3.553
 2648SOL    HW1 8843   3.898   1.364   3.551
 2648SOL    HW2 8844   3.776   1.436   3.470
 2649SOL     OW 8845   2.778   3.447   5.286
 2649SOL    HW1 8846   2.767   3.520   5.218
 2649SOL    HW2 8847   2.834   3.374   5.246
 2650SOL     OW 8848   7.001   6.471   2.735
 2650SOL    HW1 8849   0.033   6.434   2.656
 2650SOL    HW2 8850   0.025   6.439   2.819
 2651SOL     OW 8851   0.804   0.282   3.564
 2651SOL    HW1 8852   0.895   0.316   3.589
 2651SOL    HW2 8853   0.740   0.306   3.637
 2652SOL     OW 8854   2.887   3.243   2.575
 2652SOL    HW1 8855   2.840   3.156   2.594
 2652SOL    HW2 8856   2.951   3.231   2.499
 2653SOL     OW 8857   6.666   6.408   0.129
 2653SOL    HW1 8858   6.669   6.469   0.049
 2653SOL    HW2 8859   6.647   6.463   0.211
 2654SOL     OW 8860   6.647   1.630   5.967
 2654SOL    HW1 8861   6.702   1.548   5.981
 2654SOL    HW2 8862   6.621   1.636   5.870
 2655SOL     OW 8863   5.358   5.148   4.944
 2655SOL    HW1 8864   5.305   5.159   5.029
 2655SOL    HW2 8865   5.411   5.231   4.927
 2656SOL     OW 8866   5.545   3.527   5.255
 2656SOL    HW1 8867   5.475   3.472   5.208
 2656SOL    HW2 8868   5.562   3.488   5.346
 2657SOL     OW 8869   3.582   1.924   6.192
 2657SOL    HW1 8870   3.503   1.908   6.132
 2657SOL    HW2 8871   3.567   1.875   6.278
 2658SOL     OW 8872   6.176   4.067   5.308
 2658SOL    HW1 8873   6.175   4.096   5.404
 2658SOL    HW2 8874   6.271   4.057   5.278
 2659SOL     OW 8875   6.646   1.579   3.952
 2659SOL    HW1 8876   6.598   1.494   3.974
 2659SOL    HW2 8877   6.741   1.557   3.929
 2660SOL     OW 8878   0.303   2.186   3.246
 2660SOL    HW1 8879   0.332   2.279   3.271
 2660SOL    HW2 8880   0.227   2.191   3.181
 2661SOL     OW 8881   3.554   0.049   2.962
 2661SOL    HW1 8882   3.534   0.140   2.925
 2661SOL    HW2 8883   3.650   0.026   2.944
 2662SOL     OW 8884   3.570   1.046   3.740
 2662SOL    HW1 8885   3.665   1.073   3.726
 2662SOL    HW2 8886   3.518   1.125   3.774
 2663SOL     OW 8887   0.537   4.464   2.825
 2663SOL    HW1 8888   0.521   4.365   2.830
 2663SOL    HW2 8889   0.500   4.507   2.907
 2664SOL     OW 8890   4.195   4.000   1.682
 2664SOL    HW1 8891   4.122   4.043   1.629
 2664SOL    HW2 8892   4.263   4.068   1.708
 2665SOL     OW 8893   4.633   0.191   4.744
 2665SOL    HW1 8894   4.588   0.211   4.831
 2665SOL    HW2 8895   4.681   0.272   4.712
 2666SOL     OW 8896   5.169   6.377   1.673
 2666SOL    HW1 8897   5.228   6.366   1.753
 2666SOL    HW2 8898   5.074   6.383   1.702
 2667SOL     OW 8899   2.188   5.203   2.994
 2667SOL    HW1 8900   2.179   5.303   2.988
 2667SOL    HW2 8901   2.145   5.161   2.914
 2668SOL     OW 8902   6.427   2.411   5.641
 2668SOL    HW1 8903   6.504   2.375   5.587
 2668SOL    HW2 8904   6.411   2.507   5.615
 2669SOL     OW 8905   4.291   5.619   5.443
 2669SOL    HW1 8906   4.358   5.596   5.373
 2669SOL    HW2 8907   4.199   5.603   5.407
 2670SOL     OW 8908   2.866   6.919   4.663
 2670SOL    HW1 8909   2.857   6.820   4.653
 2670SOL    HW2 8910   2.886   6.960   4.574
 2671SOL     OW 8911   3.058   4.530   6.430
 2671SOL    HW1 8912   3.020   4.481   6.508
 2671SOL    HW2 8913   2.996   4.606   6.406
 2672SOL     OW 8914   1.156   3.941   0.294
 2672SOL    HW1 8915   1.237   3.882   0.301
 2672SOL    HW2 8916   1.082   3.890   0.250
 2673SOL     OW 8917   4.032   2.186   3.406
 2673SOL    HW1 8918   4.013   2.160   3.500
 2673SOL    HW2 8919   4.115   2.242   3.403
 2674SOL     OW 8920   6.427   5.777   5.376
 2674SOL    HW1 8921   6.511   5.791   5.323
 2674SOL    HW2 8922   6.354   5.748   5.315
 2675SOL     OW 8923   0.662   4.338   5.328
 2675SOL    HW1 8924   0.694   4.247   5.302
 2675SOL    HW2 8925   0.741   4.397   5.346
 2676SOL     OW 8926   4.551   0.113   1.988
 2676SOL    HW1 8927   4.540   0.043   2.058
 2676SOL    HW2 8928   4.479   0.104   1.919
 2677SOL     OW 8929   2.427   4.779   2.359
 2677SOL    HW1 8930   2.387   4.852   2.415
 2677SOL    HW2 8931   2.434   4.810   2.264
 2678SOL     OW 8932   6.775   6.288   6.335
 2678SOL    HW1 8933   6.729   6.374   6.312
 2678SOL    HW2 8934   6.808   6.292   6.429
 2679SOL     OW 8935   2.508   5.094   1.425
 2679SOL    HW1 8936   2.534   5.015   1.369
 2679SOL    HW2 8937   2.585   5.159   1.428
 2680SOL     OW 8938   1.491   2.528   1.329
 2680SOL    HW1 8939   1.520   2.601   1.267
 2680SOL    HW2 8940   1.403   2.491   1.298
 2681SOL     OW 8941   1.628   1.910   2.128
 2681SOL    HW1 8942   1.613   1.813   2.147
 2681SOL    HW2 8943   1.677   1.919   2.041
 2682SOL     OW 8944   6.361   2.815   4.245
 2682SOL    HW1 8945   6.331   2.910   4.254
 2682SOL    HW2 8946   6.457   2.813   4.218
 2683SOL     OW 8947   1.356   0.219   0.355
 2683SOL    HW1 8948   1.357   0.319   0.359
 2683SOL    HW2 8949   1.279   0.189   0.298
 2684SOL     OW 8950   2.624   5.375   3.131
 2684SOL    HW1 8951   2.654   5.382   3.226
 2684SOL    HW2 8952   2.620   5.466   3.089
 2685SOL     OW 8953   5.356   5.929   5.262
 2685SOL    HW1 8954   5.323   5.854   5.204
 2685SOL    HW2 8955   5.278   5.982   5.295
 2686SOL     OW 8956   1.135   2.807   4.575
 2686SOL    HW1 8957   1.152   2.905   4.572
 2686SOL    HW2 8958   1.095   2.778   4.488
 2687SOL     OW 8959   4.609   4.425   3.478
 2687SOL    HW1 8960   4.562   4.366   3.413
 2687SOL    HW2 8961   4.687   4.377   3.517
 2688SOL     OW 8962   3.674   4.849   5.837
 2688SOL    HW1 8963   3.642   4.924   5.780
 2688SOL    HW2 8964   3.748   4.801   5.790
 2689SOL     OW 8965   6.880   3.259   4.302
 2689SOL    HW1 8966   6.810   3.271   4.372
 2689SOL    HW2 8967   6.961   3.313   4.325
 2690SOL     OW 8968   3.092   3.088   3.029
 2690SOL    HW1 8969   3.099   3.058   2.933
 2690SOL    HW2 8970   3.051   3.179   3.033
 2691SOL     OW 8971   1.070   6.067   1.791
 2691SOL    HW1 8972   1.158   6.115   1.786
 2691SOL    HW2 8973   1.077   5.980   1.743
 2692SOL     OW 8974   0.053   5.532   3.231
 2692SOL    HW1 8975   0.122   5.567   3.295
 2692SOL    HW2 8976   0.081   5.551   3.137
 2693SOL     OW 8977   1.693   3.418   3.241
 2693SOL    HW1 8978   1.624   3.489   3.230
 2693SOL    HW2 8979   1.782   3.454   3.214
 2694SOL     OW 8980   2.375   1.193   2.913
 2694SOL    HW1 8981   2.304   1.163   2.850
 2694SOL    HW2 8982   2.341   1.186   3.007
 2695SOL     OW 8983   4.221   2.304   2.764
 2695SOL    HW1 8984   4.163   2.309   2.683
 2695SOL    HW2 8985   4.194   2.226   2.820
 2696SOL     OW 8986   4.038   4.047   5.271
 2696SOL    HW1 8987   4.112   3.979   5.269
 2696SOL    HW2 8988   3.963   4.013   5.328
 2697SOL     OW 8989   2.651   1.523   4.961
 2697SOL    HW1 8990   2.686   1.579   5.036
 2697SOL    HW2 8991   2.569   1.474   4.991
 2698SOL     OW 8992   2.030   2.860   6.466
 2698SOL    HW1 8993   2.030   2.897   6.373
 2698SOL    HW2 8994   1.956   2.793   6.475
 2699SOL     OW 8995   2.236   5.970   2.705
 2699SOL    HW1 8996   2.281   5.938   2.789
 2699SOL    HW2 8997   2.158   5.912   2.684
 2700SOL     OW 8998   1.760   4.470   2.885
 2700SOL    HW1 8999   1.713   4.555   2.860
 2700SOL    HW2 9000   1.703   4.392   2.861
 2701SOL     OW 9001   3.825   0.403   5.738
 2701SOL    HW1 9002   3.872   0.482   5.699
 2701SOL    HW2 9003   3.786   0.428   5.827
 2702SOL     OW 9004   6.955   6.087   2.741
 2702SOL    HW1 9005   6.977   6.067   2.837
 2702SOL    HW2 9006   6.918   6.180   2.734
 2703SOL     OW 9007   1.732   2.014   3.224
 2703SOL    HW1 9008   1.791   1.950   3.175
 2703SOL    HW2 9009   1.781   2.101   3.236
 2704SOL     OW 9010   1.154   6.480   0.371
 2704SOL    HW1 9011   1.136   6.410   0.439
 2704SOL    HW2 9012   1.128   6.446   0.280
 2705SOL     OW 9013   0.475   4.166   2.823
 2705SOL    HW1 9014   0.451   4.145   2.728
 2705SOL    HW2 9015   0.555   4.113   2.850
 2706SOL     OW 9016   6.613   2.148   2.694
 2706SOL    HW1 9017   6.676   2.096   2.752
 2706SOL    HW2 9018   6.642   2.244   2.691
 2707SOL     OW 9019   2.602   1.160   5.988
 2707SOL    HW1 9020   2.701   1.168   5.991
 2707SOL    HW2 9021   2.563   1.245   5.952
 2708SOL     OW 9022   1.547   4.341   0.582
 2708SOL    HW1 9023   1.538   4.418   0.646
 2708SOL    HW2 9024   1.457   4.318   0.544
 2709SOL     OW 9025   4.153   6.635   1.772
 2709SOL    HW1 9026   4.142   6.732   1.796
 2709SOL    HW2 9027   4.065   6.598   1.742
 2710SOL     OW 9028   6.417   3.982   2.479
 2710SOL    HW1 9029   6.478   3.940   2.547
 2710SOL    HW2 9030   6.346   3.916   2.454
 2711SOL     OW 9031   1.219   6.931   2.183
 2711SOL    HW1 9032   1.292   6.893   2.240
 2711SOL    HW2 9033   1.197   0.005   2.216
 2712SOL     OW 9034   3.628   5.295   2.570
 2712SOL    HW1 9035   3.633   5.338   2.480
 2712SOL    HW2 9036   3.661   5.200   2.564
 2713SOL     OW 9037   1.947   2.510   5.302
 2713SOL    HW1 9038   1.918   2.603   5.326
 2713SOL    HW2 9039   2.040   2.496   5.336
 2714SOL     OW 9040   5.352   6.746   6.013
 2714SOL    HW1 9041   5.404   6.815   5.963
 2714SOL    HW2 9042   5.393   6.731   6.103
 2715SOL     OW 9043   5.998   0.041   0.172
 2715SOL    HW1 9044   6.009   6.965   0.204
 2715SOL    HW2 9045   5.904   0.056   0.144
 2716SOL     OW 9046   6.770   6.318   2.715
 2716SOL    HW1 9047   6.742   6.305   2.620
 2716SOL    HW2 9048   6.835   6.394   2.720
 2717SOL     OW 9049   0.465   0.143   3.199
 2717SOL    HW1 9050   0.529   0.070   3.172
 2717SOL    HW2 9051   0.474   0.219   3.135
 2718SOL     OW 9052   0.519   4.498   3.095
 2718SOL    HW1 9053   0.446   4.483   3.162
 2718SOL    HW2 9054   0.608   4.493   3.140
 2719SOL     OW 9055   4.328   4.616   2.944
 2719SOL    HW1 9056   4.391   4.694   2.937
 2719SOL    HW2 9057   4.265   4.631   3.020
 2720SOL     OW 9058   0.476   6.349   3.848
 2720SOL    HW1 9059   0.574   6.366   3.850
 2720SOL    HW2 9060   0.435   6.397   3.770
 2721SOL     OW 9061   5.128   6.462   3.958
 2721SOL    HW1 9062   5.108   6.434   3.864
 2721SOL    HW2 9063   5.160   6.383   4.010
 2722SOL     OW 9064   1.363   5.992   1.306
 2722SOL    HW1 9065   1.364   5.927   1.381
 2722SOL    HW2 9066   1.452   6.037   1.300
 2723SOL     OW 9067   2.109   1.705   4.541
 2723SOL    HW1 9068   2.104   1.787   4.599
 2723SOL    HW2 9069   2.134   1.732   4.448
 2724SOL     OW 9070   3.679   6.133   6.144
 2724SOL    HW1 9071   3.742   6.073   6.095
 2724SOL    HW2 9072   3.730   6.200   6.197
 2725SOL     OW 9073   2.865   4.806   3.641
 2725SOL    HW1 9074   2.916   4.853   3.713
 2725SOL    HW2 9075   2.786   4.861   3.615
 2726SOL     OW 9076   4.770   6.837   2.390
 2726SOL    HW1 9077   4.839   6.769   2.412
 2726SOL    HW2 9078   4.746   6.830   2.293
 2727SOL     OW 9079   1.977   5.557   3.322
 2727SOL    HW1 9080   1.996   5.654   3.307
 2727SOL    HW2 9081   2.064   5.508   3.331
 2728SOL     OW 9082   3.582   6.838   5.327
 2728SOL    HW1 9083   3.583   6.908   5.398
 2728SOL    HW2 9084   3.548   6.878   5.241
 2729SOL     OW 9085   6.990   4.661   2.700
 2729SOL    HW1 9086   0.015   4.743   2.665
 2729SOL    HW2 9087   6.896   4.655   2.666
 2730SOL     OW 9088   1.184   4.749   1.690
 2730SOL    HW1 9089   1.188   4.782   1.784
 2730SOL    HW2 9090   1.128   4.667   1.686
 2731SOL     OW 9091   3.092   3.914   1.155
 2731SOL    HW1 9092   3.052   3.958   1.074
 2731SOL    HW2 9093   3.024   3.915   1.229
 2732SOL     OW 9094   5.380   3.206   4.509
 2732SOL    HW1 9095   5.335   3.184   4.423
 2732SOL    HW2 9096   5.465   3.255   4.491
 2733SOL     OW 9097   2.332   0.459   6.089
 2733SOL    HW1 9098   2.431   0.446   6.098
 2733SOL    HW2 9099   2.286   0.411   6.163
 2734SOL     OW 9100   2.561   0.128   3.909
 2734SOL    HW1 9101   2.524   0.141   4.001
 2734SOL    HW2 9102   2.521   0.046   3.868
 2735SOL     OW 9103   1.289   5.159   1.069
 2735SOL    HW1 9104   1.210   5.167   1.130
 2735SOL    HW2 9105   1.256   5.151   0.975
 2736SOL     OW 9106   3.421   6.897   6.711
 2736SOL    HW1 9107   3.398   6.821   6.770
 2736SOL    HW2 9108   3.340   6.952   6.692
 2737SOL     OW 9109   4.542   3.213   5.560
 2737SOL    HW1 9110   4.630   3.252   5.534
 2737SOL    HW2 9111   4.468   3.274   5.530
 2738SOL     OW 9112   5.683   4.265   4.403
 2738SOL    HW1 9113   5.702   4.255   4.306
 2738SOL    HW2 9114   5.753   4.323   4.445
 2739SOL     OW 9115   4.992   4.226   0.162
 2739SOL    HW1 9116   4.977   4.173   0.079
 2739SOL    HW2 9117   4.928   4.303   0.163
 2740SOL     OW 9118   6.217   2.494   3.387
 2740SOL    HW1 9119   6.241   2.589   3.366
 2740SOL    HW2 9120   6.126   2.491   3.427
 2741SOL     OW 9121   2.201   3.270   4.592
 2741SOL    HW1 9122   2.215   3.177   4.626
 2741SOL    HW2 9123   2.113   3.305   4.625
 2742SOL     OW 9124   2.828   6.073   5.637
 2742SOL    HW1 9125   2.922   6.051   5.610
 2742SOL    HW2 9126   2.821   6.171   5.658
 2743SOL     OW 9127   6.116   4.436   0.239
 2743SOL    HW1 9128   6.082   4.342   0.234
 2743SOL    HW2 9129   6.077   4.482   0.319
 2744SOL     OW 9130   4.433   0.445   0.571
 2744SOL    HW1 9131   4.461   0.350   0.587
 2744SOL    HW2 9132   4.336   0.448   0.549
 2745SOL     OW 9133   2.240   5.776   1.244
 2745SOL    HW1 9134   2.175   5.718   1.195
 2745SOL    HW2 9135   2.305   5.718   1.294
 2746SOL     OW 9136   0.932   2.544   6.130
 2746SOL    HW1 9137   0.999   2.592   6.074
 2746SOL    HW2 9138   0.879   2.610   6.183
 2747SOL     OW 9139   5.305   5.592   3.718
 2747SOL    HW1 9140   5.347   5.645   3.792
 2747SOL    HW2 9141   5.377   5.559   3.656
 2748SOL     OW 9142   4.998   0.890   4.539
 2748SOL    HW1 9143   4.975   0.792   4.541
 2748SOL    HW2 9144   5.019   0.917   4.444
 2749SOL     OW 9145   5.024   4.288   3.732
 2749SOL    HW1 9146   5.068   4.360   3.785
 2749SOL    HW2 9147   5.009   4.208   3.790
 2750SOL     OW 9148   0.561   6.629   0.476
 2750SOL    HW1 9149   0.560   6.675   0.387
 2750SOL    HW2 9150   0.652   6.592   0.493
 2751SOL     OW 9151   1.791   0.308   6.913
 2751SOL    HW1 9152   1.753   0.229   6.961
 2751SOL    HW2 9153   1.888   0.318   6.937
 2752SOL     OW 9154   0.125   6.768   5.667
 2752SOL    HW1 9155   0.104   6.734   5.759
 2752SOL    HW2 9156   0.041   6.797   5.621
 2753SOL     OW 9157   3.591   5.139   5.435
 2753SOL    HW1 9158   3.666   5.091   5.389
 2753SOL    HW2 9159   3.584   5.107   5.529
 2754SOL     OW 9160   0.929   6.171   4.010
 2754SOL    HW1 9161   0.831   6.190   4.015
 2754SOL    HW2 9162   0.968   6.217   3.930
 2755SOL     OW 9163   4.676   5.704   2.524
 2755SOL    HW1 9164   4.670   5.803   2.537
 2755SOL    HW2 9165   4.769   5.673   2.542
 2756SOL     OW 9166   0.587   2.782   5.596
 2756SOL    HW1 9167   0.545   2.705   5.549
 2756SOL    HW2 9168   0.653   2.748   5.663
 2757SOL     OW 9169   4.637   3.973   6.744
 2757SOL    HW1 9170   4.615   3.893   6.687
 2757SOL    HW2 9171   4.556   4.031   6.753
 2758SOL     OW 9172   6.728   6.881   1.930
 2758SOL    HW1 9173   6.775   6.947   1.871
 2758SOL    HW2 9174   6.769   6.790   1.917
 2759SOL     OW 9175   3.197   3.629   5.308
 2759SOL    HW1 9176   3.153   3.616   5.397
 2759SOL    HW2 9177   3.209   3.541   5.263
 2760SOL     OW 9178   5.604   5.388   2.566
 2760SOL    HW1 9179   5.509   5.373   2.592
 2760SOL    HW2 9180   5.619   5.485   2.548
 2761SOL     OW 9181   1.469   3.324   3.708
 2761SOL    HW1 9182   1.507   3.390   3.643
 2761SOL    HW2 9183   1.534   3.311   3.784
 2762SOL     OW 9184   3.998   1.394   1.359
 2762SOL    HW1 9185   3.956   1.315   1.404
 2762SOL    HW2 9186   4.074   1.428   1.415
 2763SOL     OW 9187   5.836   1.319   3.719
 2763SOL    HW1 9188   5.860   1.367   3.804
 2763SOL    HW2 9189   5.746   1.348   3.688
 2764SOL     OW 9190   0.293   2.932   3.420
 2764SOL    HW1 9191   0.268   2.851   3.473
 2764SOL    HW2 9192   0.240   2.934   3.336
 2765SOL     OW 9193   6.321   6.412   5.631
 2765SOL    HW1 9194   6.336   6.492   5.689
 2765SOL    HW2 9195   6.355   6.330   5.678
 2766SOL     OW 9196   4.522   0.194   0.305
 2766SOL    HW1 9197   4.444   0.180   0.245
 2766SOL    HW2 9198   4.586   0.258   0.263
 2767SOL     OW 9199   0.417   5.369   6.160
 2767SOL    HW1 9200   0.379   5.396   6.072
 2767SOL    HW2 9201   0.421   5.269   6.165
 2768SOL     OW 9202   3.327   6.327   1.815
 2768SOL    HW1 9203   3.407   6.301   1.870
 2768SOL    HW2 9204   3.258   6.368   1.874
 2769SOL     OW 9205   0.552   4.694   5.632
 2769SOL    HW1 9206   0.563   4.639   5.715
 2769SOL    HW2 9207   0.499   4.642   5.565
 2770SOL     OW 9208   2.288   6.993   0.509
 2770SOL    HW1 9209   2.236   6.992   0.423
 2770SOL    HW2 9210   2.235   6.947   0.580
 2771SOL     OW 9211   4.390   6.704   5.581
 2771SOL    HW1 9212   4.363   6.608   5.585
 2771SOL    HW2 9213   4.490   6.710   5.578
 2772SOL     OW 9214   5.044   1.388   3.430
 2772SOL    HW1 9215   4.985   1.412   3.507
 2772SOL    HW2 9216   5.084   1.297   3.446
 2773SOL     OW 9217   5.525   2.171   5.908
 2773SOL    HW1 9218   5.608   2.172   5.963
 2773SOL    HW2 9219   5.542   2.219   5.821
 2774SOL     OW 9220   6.447   0.266   3.674
 2774SOL    HW1 9221   6.352   0.291   3.655
 2774SOL    HW2 9222   6.477   0.310   3.759
 2775SOL     OW 9223   0.328   2.503   4.803
 2775SOL    HW1 9224   0.246   2.559   4.791
 2775SOL    HW2 9225   0.377   2.533   4.885
 2776SOL     OW 9226   4.766   4.488   6.221
 2776SOL    HW1 9227   4.840   4.538   6.267
 2776SOL    HW2 9228   4.801   4.402   6.185
 2777SOL     OW 9229   2.174   2.461   6.826
 2777SOL    HW1 9230   2.202   2.443   6.921
 2777SOL    HW2 9231   2.163   2.559   6.812
 2778SOL     OW 9232   3.423   0.372   6.200
 2778SOL    HW1 9233   3.333   0.335   6.176
 2778SOL    HW2 9234   3.427   0.390   6.298
 2779SOL     OW 9235   5.122   1.103   2.036
 2779SOL    HW1 9236   5.133   1.057   2.124
 2779SOL    HW2 9237   5.036   1.155   2.036
 2780SOL     OW 9238   0.078   0.987   4.916
 2780SOL    HW1 9239   0.147   0.915   4.931
 2780SOL    HW2 9240   0.032   0.972   4.829
 2781SOL     OW 9241   0.051   0.245   3.018
 2781SOL    HW1 9242   0.113   0.323   3.009
 2781SOL    HW2 9243   0.103   0.165   3.047
 2782SOL     OW 9244   5.515   6.957   5.625
 2782SOL    HW1 9245   5.439   6.901   5.593
 2782SOL    HW2 9246   5.590   6.954   5.559
 2783SOL     OW 9247   5.798   3.062   1.489
 2783SOL    HW1 9248   5.709   3.016   1.494
 2783SOL    HW2 9249   5.785   3.154   1.450
 2784SOL     OW 9250   0.113   3.062   1.650
 2784SOL    HW1 9251   0.154   3.075   1.741
 2784SOL    HW2 9252   0.028   3.010   1.660
 2785SOL     OW 9253   5.060   3.587   2.971
 2785SOL    HW1 9254   5.080   3.684   2.966
 2785SOL    HW2 9255   5.095   3.550   3.057
 2786SOL     OW 9256   0.767   5.775   0.532
 2786SOL    HW1 9257   0.851   5.761   0.586
 2786SOL    HW2 9258   0.705   5.698   0.546
 2787SOL     OW 9259   0.270   5.803   5.886
 2787SOL    HW1 9260   0.216   5.882   5.858
 2787SOL    HW2 9261   0.210   5.735   5.928
 2788SOL     OW 9262   2.900   6.675   0.223
 2788SOL    HW1 9263   2.896   6.749   0.155
 2788SOL    HW2 9264   2.941   6.594   0.181
 2789SOL     OW 9265   1.778   2.186   4.108
 2789SOL    HW1 9266   1.710   2.149   4.045
 2789SOL    HW2 9267   1.731   2.240   4.179
 2790SOL     OW 9268   0.286   5.273   1.410
 2790SOL    HW1 9269   0.245   5.188   1.377
 2790SOL    HW2 9270   0.216   5.344   1.417
 2791SOL     OW 9271   0.763   3.585   4.686
 2791SOL    HW1 9272   0.709   3.637   4.619
 2791SOL    HW2 9273   0.858   3.618   4.685
 2792SOL     OW 9274   2.905   1.636   6.291
 2792SOL    HW1 9275   2.927   1.731   6.271
 2792SOL    HW2 9276   2.987   1.580   6.281
 2793SOL     OW 9277   3.689   3.653   6.726
 2793SOL    HW1 9278   3.758   3.657   6.654
 2793SOL    HW2 9279   3.637   3.738   6.727
 2794SOL     OW 9280   2.148   1.841   0.056
 2794SOL    HW1 9281   2.092   1.921   0.076
 2794SOL    HW2 9282   2.127   1.768   0.121
 2795SOL     OW 9283   1.385   6.733   1.017
 2795SOL    HW1 9284   1.319   6.732   0.941
 2795SOL    HW2 9285   1.392   6.825   1.053
 2796SOL     OW 9286   2.221   6.065   6.848
 2796SOL    HW1 9287   2.239   6.046   6.945
 2796SOL    HW2 9288   2.143   6.011   6.817
 2797SOL     OW 9289   5.091   3.936   4.003
 2797SOL    HW1 9290   5.154   3.932   4.080
 2797SOL    HW2 9291   4.999   3.910   4.034
 2798SOL     OW 9292   4.922   2.093   1.809
 2798SOL    HW1 9293   4.870   2.087   1.723
 2798SOL    HW2 9294   4.858   2.099   1.886
 2799SOL     OW 9295   3.622   6.575   5.550
 2799SOL    HW1 9296   3.599   6.551   5.456
 2799SOL    HW2 9297   3.566   6.652   5.580
 2800SOL     OW 9298   4.774   0.784   6.350
 2800SOL    HW1 9299   4.869   0.808   6.372
 2800SOL    HW2 9300   4.764   0.685   6.348
 2801SOL     OW 9301   0.504   4.544   3.939
 2801SOL    HW1 9302   0.442   4.495   4.001
 2801SOL    HW2 9303   0.558   4.477   3.887
 2802SOL     OW 9304   1.273   5.071   4.539
 2802SOL    HW1 9305   1.190   5.106   4.496
 2802SOL    HW2 9306   1.280   4.972   4.523
 2803SOL     OW 9307   3.817   2.414   6.640
 2803SOL    HW1 9308   3.822   2.321   6.604
 2803SOL    HW2 9309   3.880   2.423   6.717
 2804SOL     OW 9310   6.322   2.741   3.362
 2804SOL    HW1 9311   6.418   2.738   3.387
 2804SOL    HW2 9312   6.305   2.818   3.300
 2805SOL     OW 9313   4.433   4.495   0.375
 2805SOL    HW1 9314   4.430   4.562   0.301
 2805SOL    HW2 9315   4.528   4.474   0.398
 2806SOL     OW 9316   0.318   3.318   5.319
 2806SOL    HW1 9317   0.380   3.243   5.296
 2806SOL    HW2 9318   0.242   3.320   5.254
 2807SOL     OW 9319   4.615   1.687   3.879
 2807SOL    HW1 9320   4.641   1.746   3.955
 2807SOL    HW2 9321   4.555   1.614   3.912
 2808SOL     OW 9322   1.019   6.141   5.374
 2808SOL    HW1 9323   0.992   6.074   5.442
 2808SOL    HW2 9324   1.118   6.133   5.356
 2809SOL     OW 9325   0.846   5.929   1.244
 2809SOL    HW1 9326   0.885   5.990   1.176
 2809SOL    HW2 9327   0.880   5.836   1.229
 2810SOL     OW 9328   0.865   6.289   2.982
 2810SOL    HW1 9329   0.808   6.238   2.917
 2810SOL    HW2 9330   0.808   6.350   3.037
 2811SOL     OW 9331   0.587   1.182   0.745
 2811SOL    HW1 9332   0.610   1.216   0.653
 2811SOL    HW2 9333   0.536   1.252   0.795
 2812SOL     OW 9334   1.596   1.372   1.087
 2812SOL    HW1 9335   1.512   1.350   1.036
 2812SOL    HW2 9336   1.652   1.436   1.034
 2813SOL     OW 9337   7.010   2.328   0.758
 2813SOL    HW1 9338   6.968   2.240   0.735
 2813SOL    HW2 9339   6.961   2.370   0.835
 2814SOL     OW 9340   2.677   4.618   6.701
 2814SOL    HW1 9341   2.706   4.544   6.641
 2814SOL    HW2 9342   2.631   4.689   6.647
 2815SOL     OW 9343   6.949   5.361   4.578
 2815SOL    HW1 9344   6.972   5.273   4.536
 2815SOL    HW2 9345   6.984   5.364   4.672
 2816SOL     OW 9346   1.354   5.164   4.978
 2816SOL    HW1 9347   1.397   5.187   4.891
 2816SOL    HW2 9348   1.405   5.206   5.053
 2817SOL     OW 9349   2.502   0.987   2.315
 2817SOL    HW1 9350   2.508   0.988   2.415
 2817SOL    HW2 9351   2.450   0.907   2.286
 2818SOL     OW 9352   1.263   1.052   0.091
 2818SOL    HW1 9353   1.322   0.991   0.144
 2818SOL    HW2 9354   1.319   1.101   0.024
 2819SOL     OW 9355   0.406   6.983   6.564
 2819SOL    HW1 9356   0.431   0.058   6.589
 2819SOL    HW2 9357   0.444   6.961   6.474
 2820SOL     OW 9358   2.448   1.765   6.704
 2820SOL    HW1 9359   2.420   1.683   6.654
 2820SOL    HW2 9360   2.448   1.844   6.642
 2821SOL     OW 9361   3.341   2.415   5.694
 2821SOL    HW1 9362   3.363   2.366   5.610
 2821SOL    HW2 9363   3.317   2.509   5.673
 2822SOL     OW 9364   4.002   2.856   0.752
 2822SOL    HW1 9365   4.070   2.911   0.801
 2822SOL    HW2 9366   4.019   2.759   0.769
 2823SOL     OW 9367   5.482   3.953   2.026
 2823SOL    HW1 9368   5.443   3.924   2.113
 2823SOL    HW2 9369   5.581   3.946   2.029
 2824SOL     OW 9370   0.825   4.559   5.355
 2824SOL    HW1 9371   0.868   4.549   5.266
 2824SOL    HW2 9372   0.818   4.656   5.378
 2825SOL     OW 9373   5.231   2.111   5.837
 2825SOL    HW1 9374   5.246   2.154   5.926
 2825SOL    HW2 9375   5.190   2.178   5.774
 2826SOL     OW 9376   2.591   3.683   6.726
 2826SOL    HW1 9377   2.663   3.615   6.712
 2826SOL    HW2 9378   2.546   3.665   6.814
 2827SOL     OW 9379   5.984   1.409   6.379
 2827SOL    HW1 9380   6.038   1.493   6.376
 2827SOL    HW2 9381   6.039   1.336   6.421
 2828SOL     OW 9382   1.386   4.076   0.843
 2828SOL    HW1 9383   1.364   3.999   0.903
 2828SOL    HW2 9384   1.378   4.048   0.748
 2829SOL     OW 9385   3.378   3.859   1.922
 2829SOL    HW1 9386   3.414   3.853   1.829
 2829SOL    HW2 9387   3.279   3.870   1.919
 2830SOL     OW 9388   3.542   5.976   4.592
 2830SOL    HW1 9389   3.464   6.001   4.534
 2830SOL    HW2 9390   3.626   6.008   4.549
 2831SOL     OW 9391   6.575   1.674   2.004
 2831SOL    HW1 9392   6.544   1.619   2.082
 2831SOL    HW2 9393   6.498   1.690   1.942
 2832SOL     OW 9394   1.539   3.449   1.838
 2832SOL    HW1 9395   1.528   3.456   1.937
 2832SOL    HW2 9396   1.594   3.526   1.805
 2833SOL     OW 9397   6.648   2.922   2.997
 2833SOL    HW1 9398   6.693   2.852   3.053
 2833SOL    HW2 9399   6.702   3.005   2.998
 2834SOL     OW 9400   3.791   0.873   4.151
 2834SOL    HW1 9401   3.745   0.952   4.190
 2834SOL    HW2 9402   3.731   0.793   4.157
 2835SOL     OW 9403   0.041   1.099   6.926
 2835SOL    HW1 9404   0.017   1.114   0.003
 2835SOL    HW2 9405   0.109   1.166   6.897
 2836SOL     OW 9406   2.944   5.557   2.027
 2836SOL    HW1 9407   3.036   5.590   2.008
 2836SOL    HW2 9408   2.879   5.606   1.969
 2837SOL     OW 9409   5.161   4.123   1.953
 2837SOL    HW1 9410   5.238   4.187   1.953
 2837SOL    HW2 9411   5.192   4.035   1.917
 2838SOL     OW 9412   6.702   3.506   6.122
 2838SOL    HW1 9413   6.711   3.407   6.130
 2838SOL    HW2 9414   6.746   3.537   6.037
 2839SOL     OW 9415   6.007   2.602   6.402
 2839SOL    HW1 9416   6.061   2.682   6.425
 2839SOL    HW2 9417   5.947   2.578   6.478
 2840SOL     OW 9418   5.837   6.313   4.860
 2840SOL    HW1 9419   5.810   6.334   4.954
 2840SOL    HW2 9420   5.773   6.357   4.797
 2841SOL     OW 9421   5.447   4.099   2.680
 2841SOL    HW1 9422   5.420   4.180   2.628
 2841SOL    HW2 9423   5.387   4.023   2.657
 2842SOL     OW 9424   0.681   6.942   3.411
 2842SOL    HW1 9425   0.668   0.018   3.443
 2842SOL    HW2 9426   0.633   6.929   3.325
 2843SOL     OW 9427   2.406   2.719   4.512
 2843SOL    HW1 9428   2.407   2.694   4.609
 2843SOL    HW2 9429   2.388   2.638   4.457
 2844SOL     OW 9430   4.858   3.433   0.460
 2844SOL    HW1 9431   4.870   3.334   0.468
 2844SOL    HW2 9432   4.925   3.480   0.518
 2845SOL     OW 9433   3.163   1.949   1.507
 2845SOL    HW1 9434   3.164   2.045   1.535
 2845SOL    HW2 9435   3.255   1.910   1.515
 2846SOL     OW 9436   5.162   6.756   6.798
 2846SOL    HW1 9437   5.181   6.843   6.753
 2846SOL    HW2 9438   5.150   6.771   6.897
 2847SOL     OW 9439   5.198   5.138   1.320
 2847SOL    HW1 9440   5.221   5.065   1.256
 2847SOL    HW2 9441   5.282   5.173   1.362
 2848SOL     OW 9442   0.544   4.031   6.749
 2848SOL    HW1 9443   0.598   4.041   6.665
 2848SOL    HW2 9444   0.544   4.118   6.798
 2849SOL     OW 9445   5.226   0.469   1.705
 2849SOL    HW1 9446   5.190   0.400   1.768
 2849SOL    HW2 9447   5.313   0.503   1.739
 2850SOL     OW 9448   0.643   1.291   1.503
 2850SOL    HW1 9449   0.688   1.361   1.558
 2850SOL    HW2 9450   0.697   1.273   1.421
 2851SOL     OW 9451   3.622   3.313   1.762
 2851SOL    HW1 9452   3.538   3.355   1.794
 2851SOL    HW2 9453   3.610   3.279   1.669
 2852SOL     OW 9454   0.372   5.450   5.152
 2852SOL    HW1 9455   0.429   5.517   5.200
 2852SOL    HW2 9456   0.277   5.461   5.182
 2853SOL     OW 9457   0.212   4.250   5.041
 2853SOL    HW1 9458   0.281   4.294   5.098
 2853SOL    HW2 9459   0.172   4.317   4.979
 2854SOL     OW 9460   3.131   0.646   6.406
 2854SOL    HW1 9461   3.062   0.604   6.347
 2854SOL    HW2 9462   3.111   0.625   6.501
 2855SOL     OW 9463   2.151   1.575   4.232
 2855SOL    HW1 9464   2.189   1.552   4.142
 2855SOL    HW2 9465   2.169   1.671   4.252
 2856SOL     OW 9466   1.136   5.819   4.392
 2856SOL    HW1 9467   1.188   5.893   4.435
 2856SOL    HW2 9468   1.197   5.743   4.371
 2857SOL     OW 9469   6.689   4.274   0.475
 2857SOL    HW1 9470   6.629   4.237   0.544
 2857SOL    HW2 9471   6.736   4.355   0.511
 2858SOL     OW 9472   5.784   4.572   3.684
 2858SOL    HW1 9473   5.849   4.554   3.610
 2858SOL    HW2 9474   5.757   4.486   3.727
 2859SOL     OW 9475   6.067   4.956   1.390
 2859SOL    HW1 9476   6.061   5.020   1.466
 2859SOL    HW2 9477   6.153   4.905   1.395
 2860SOL     OW 9478   1.308   6.936   3.231
 2860SOL    HW1 9479   1.362   6.860   3.194
 2860SOL    HW2 9480   1.263   6.907   3.315
 2861SOL     OW 9481   5.166   4.078   5.494
 2861SOL    HW1 9482   5.170   4.159   5.436
 2861SOL    HW2 9483   5.112   4.007   5.450
 2862SOL     OW 9484   4.285   0.786   0.551
 2862SOL    HW1 9485   4.306   0.706   0.607
 2862SOL    HW2 9486   4.370   0.828   0.518
 2863SOL     OW 9487   5.584   2.263   5.638
 2863SOL    HW1 9488   5.671   2.229   5.603
 2863SOL    HW2 9489   5.510   2.239   5.575
 2864SOL     OW 9490   4.338   4.272   1.271
 2864SOL    HW1 9491   4.372   4.344   1.211
 2864SOL    HW2 9492   4.287   4.205   1.218
 2865SOL     OW 9493   5.738   5.065   5.871
 2865SOL    HW1 9494   5.827   5.080   5.914
 2865SOL    HW2 9495   5.725   5.130   5.797
 2866SOL     OW 9496   3.715   5.012   0.916
 2866SOL    HW1 9497   3.758   4.960   0.842
 2866SOL    HW2 9498   3.784   5.068   0.962
 2867SOL     OW 9499   6.932   5.915   2.505
 2867SOL    HW1 9500   0.004   5.873   2.507
 2867SOL    HW2 9501   6.917   5.965   2.590
 2868SOL     OW 9502   0.402   6.904   5.230
 2868SOL    HW1 9503   0.430   6.871   5.141
 2868SOL    HW2 9504   0.314   6.952   5.222
 2869SOL     OW 9505   6.077   4.755   5.002
 2869SOL    HW1 9506   6.120   4.700   4.931
 2869SOL    HW2 9507   6.028   4.695   5.065
 2870SOL     OW 9508   1.065   1.514   1.328
 2870SOL    HW1 9509   1.055   1.422   1.290
 2870SOL    HW2 9510   1.163   1.535   1.339
 2871SOL     OW 9511   4.710   1.337   3.568
 2871SOL    HW1 9512   4.733   1.324   3.471
 2871SOL    HW2 9513   4.729   1.253   3.618
 2872SOL     OW 9514   3.052   1.810   2.499
 2872SOL    HW1 9515   3.051   1.892   2.441
 2872SOL    HW2 9516   3.077   1.730   2.443
 2873SOL     OW 9517   0.780   6.992   2.561
 2873SOL    HW1 9518   0.708   6.977   2.493
 2873SOL    HW2 9519   0.810   0.068   2.558
 2874SOL     OW 9520   2.151   1.364   3.629
 2874SOL    HW1 9521   2.188   1.439   3.574
 2874SOL    HW2 9522   2.074   1.323   3.581
 2875SOL     OW 9523   2.182   0.081   3.662
 2875SOL    HW1 9524   2.239   0.004   3.634
 2875SOL    HW2 9525   2.205   0.107   3.756
 2876SOL     OW 9526   1.009   6.763   1.088
 2876SOL    HW1 9527   0.996   6.783   0.991
 2876SOL    HW2 9528   0.921   6.744   1.130
 2877SOL     OW 9529   1.572   3.060   4.955
 2877SOL    HW1 9530   1.550   3.004   4.875
 2877SOL    HW2 9531   1.612   3.003   5.026
 2878SOL     OW 9532   3.584   2.874   4.816
 2878SOL    HW1 9533   3.590   2.910   4.723
 2878SOL    HW2 9534   3.489   2.848   4.834
 2879SOL     OW 9535   4.928   5.277   0.231
 2879SOL    HW1 9536   4.974   5.313   0.149
 2879SOL    HW2 9537   4.983   5.203   0.270
 2880SOL     OW 9538   1.211   2.103   3.423
 2880SOL    HW1 9539   1.275   2.175   3.396
 2880SOL    HW2 9540   1.200   2.038   3.347
 2881SOL     OW 9541   5.412   4.991   0.722
 2881SOL    HW1 9542   5.316   4.983   0.749
 2881SOL    HW2 9543   5.470   4.987   0.803
 2882SOL     OW 9544   4.346   6.776   6.708
 2882SOL    HW1 9545   4.430   6.736   6.744
 2882SOL    HW2 9546   4.348   6.875   6.721
 2883SOL     OW 9547   5.468   6.248   3.476
 2883SOL    HW1 9548   5.530   6.243   3.555
 2883SOL    HW2 9549   5.391   6.186   3.492
 2884SOL     OW 9550   5.939   5.410   3.641
 2884SOL    HW1 9551   5.905   5.504   3.632
 2884SOL    HW2 9552   6.015   5.408   3.707
 2885SOL     OW 9553   0.031   2.979   3.632
 2885SOL    HW1 9554   0.064   2.884   3.630
 2885SOL    HW2 9555   0.094   3.034   3.688
 2886SOL     OW 9556   2.403   4.494   5.075
 2886SOL    HW1 9557   2.349   4.477   4.992
 2886SOL    HW2 9558   2.395   4.416   5.137
 2887SOL     OW 9559   6.901   5.530   2.621
 2887SOL    HW1 9560   6.858   5.499   2.705
 2887SOL    HW2 9561   6.898   5.457   2.553
 2888SOL     OW 9562   4.925   6.539   6.842
 2888SOL    HW1 9563   4.872   6.537   6.927
 2888SOL    HW2 9564   4.988   6.616   6.844
 2889SOL     OW 9565   4.684   6.265   4.495
 2889SOL    HW1 9566   4.741   6.347   4.485
 2889SOL    HW2 9567   4.588   6.290   4.482
 2890SOL     OW 9568   1.475   2.268   0.172
 2890SOL    HW1 9569   1.458   2.241   0.266
 2890SOL    HW2 9570   1.388   2.285   0.126
 2891SOL     OW 9571   1.077   1.251   5.211
 2891SOL    HW1 9572   1.027   1.301   5.282
 2891SOL    HW2 9573   1.175   1.252   5.232
 2892SOL     OW 9574   5.568   4.643   1.929
 2892SOL    HW1 9575   5.614   4.729   1.908
 2892SOL    HW2 9576   5.613   4.599   2.007
 2893SOL     OW 9577   6.759   5.125   4.694
 2893SOL    HW1 9578   6.827   5.089   4.758
 2893SOL    HW2 9579   6.749   5.063   4.616
 2894SOL     OW 9580   1.593   5.415   1.326
 2894SOL    HW1 9581   1.557   5.346   1.389
 2894SOL    HW2 9582   1.546   5.502   1.342
 2895SOL     OW 9583   4.429   6.358   6.290
 2895SOL    HW1 9584   4.440   6.453   6.319
 2895SOL    HW2 9585   4.388   6.355   6.199
 2896SOL     OW 9586   6.424   0.516   5.123
 2896SOL    HW1 9587   6.337   0.556   5.151
 2896SOL    HW2 9588   6.482   0.504   5.204
 2897SOL     OW 9589   3.633   5.606   3.412
 2897SOL    HW1 9590   3.728   5.623   3.438
 2897SOL    HW2 9591   3.630   5.560   3.323
 2898SOL     OW 9592   5.465   2.933   3.665
 2898SOL    HW1 9593   5.474   3.021   3.619
 2898SOL    HW2 9594   5.517   2.864   3.614
 2899SOL     OW 9595   6.373   3.275   0.674
 2899SOL    HW1 9596   6.311   3.197   0.662
 2899SOL    HW2 9597   6.455   3.245   0.723
 2900SOL     OW 9598   2.476   2.539   5.601
 2900SOL    HW1 9599   2.466   2.635   5.576
 2900SOL    HW2 9600   2.526   2.491   5.528
 2901SOL     OW 9601   1.387   3.999   2.370
 2901SOL    HW1 9602   1.362   3.941   2.292
 2901SOL    HW2 9603   1.311   4.060   2.392
 2902SOL     OW 9604   5.816   5.962   3.749
 2902SOL    HW1 9605   5.858   6.052   3.757
 2902SOL    HW2 9606   5.811   5.936   3.653
 2903SOL     OW 9607   0.117   4.814   0.493
 2903SOL    HW1 9608   0.166   4.798   0.407
 2903SOL    HW2 9609   0.021   4.833   0.474
 2904SOL     OW 9610   2.725   4.820   4.850
 2904SOL    HW1 9611   2.730   4.911   4.892
 2904SOL    HW2 9612   2.755   4.751   4.916
 2905SOL     OW 9613   0.715   5.243   1.522
 2905SOL    HW1 9614   0.797   5.187   1.515
 2905SOL    HW2 9615   0.636   5.185   1.543
 2906SOL     OW 9616   0.349   6.375   5.909
 2906SOL    HW1 9617   0.417   6.440   5.943
 2906SOL    HW2 9618   0.305   6.330   5.986
 2907SOL     OW 9619   0.022   0.614   5.309
 2907SOL    HW1 9620   0.105   0.662   5.337
 2907SOL    HW2 9621   7.007   0.557   5.384
 2908SOL     OW 9622   4.552   0.045   4.154
 2908SOL    HW1 9623   4.542   0.052   4.055
 2908SOL    HW2 9624   4.614   6.987   4.175
 2909SOL     OW 9625   0.148   0.121   1.790
 2909SOL    HW1 9626   0.100   0.128   1.702
 2909SOL    HW2 9627   0.115   0.193   1.852
 2910SOL     OW 9628   1.139   0.860   4.502
 2910SOL    HW1 9629   1.108   0.780   4.451
 2910SOL    HW2 9630   1.183   0.924   4.439
 2911SOL     OW 9631   0.146   3.704   5.173
 2911SOL    HW1 9632   0.210   3.693   5.097
 2911SOL    HW2 9633   0.086   3.625   5.177
 2912SOL     OW 9634   0.612   1.837   2.034
 2912SOL    HW1 9635   0.567   1.812   1.948
 2912SOL    HW2 9636   0.710   1.853   2.016
 2913SOL     OW 9637   0.684   6.732   2.968
 2913SOL    HW1 9638   0.617   6.720   2.895
 2913SOL    HW2 9639   0.765   6.675   2.948
 2914SOL     OW 9640   4.172   4.572   1.255
 2914SOL    HW1 9641   4.157   4.508   1.330
 2914SOL    HW2 9642   4.130   4.660   1.276
 2915SOL     OW 9643   2.064   0.546   3.807
 2915SOL    HW1 9644   2.079   0.534   3.905
 2915SOL    HW2 9645   1.984   0.493   3.779
 2916SOL     OW 9646   0.691   5.193   6.451
 2916SOL    HW1 9647   0.655   5.190   6.544
 2916SOL    HW2 9648   0.789   5.175   6.452
 2917SOL     OW 9649   2.412   0.445   3.296
 2917SOL    HW1 9650   2.472   0.511   3.251
 2917SOL    HW2 9651   2.420   0.454   3.395
 2918SOL     OW 9652   5.072   2.297   1.390
 2918SOL    HW1 9653   4.976   2.321   1.402
 2918SOL    HW2 9654   5.109   2.262   1.476
 2919SOL     OW 9655   0.519   6.294   4.708
 2919SOL    HW1 9656   0.554   6.305   4.801
 2919SOL    HW2 9657   0.596   6.279   4.646
 2920SOL     OW 9658   2.726   2.609   1.692
 2920SOL    HW1 9659   2.775   2.695   1.684
 2920SOL    HW2 9660   2.789   2.533   1.683
 2921SOL     OW 9661   1.228   6.402   3.685
 2921SOL    HW1 9662   1.218   6.374   3.590
 2921SOL    HW2 9663   1.325   6.422   3.704
 2922SOL     OW 9664   3.700   5.151   3.538
 2922SOL    HW1 9665   3.715   5.052   3.545
 2922SOL    HW2 9666   3.614   5.167   3.489
 2923SOL     OW 9667   1.380   5.584   4.395
 2923SOL    HW1 9668   1.450   5.549   4.458
 2923SOL    HW2 9669   1.355   5.512   4.330
 2924SOL     OW 9670   5.196   1.436   6.316
 2924SOL    HW1 9671   5.188   1.380   6.233
 2924SOL    HW2 9672   5.277   1.408   6.367
 2925SOL     OW 9673   5.596   6.606   4.589
 2925SOL    HW1 9674   5.556   6.624   4.679
 2925SOL    HW2 9675   5.651   6.685   4.560
 2926SOL     OW 9676   6.450   2.685   4.642
 2926SOL    HW1 9677   6.481   2.780   4.637
 2926SOL    HW2 9678   6.527   2.627   4.670
 2927SOL     OW 9679   1.166   1.768   2.515
 2927SOL    HW1 9680   1.128   1.832   2.581
 2927SOL    HW2 9681   1.260   1.747   2.539
 2928SOL     OW 9682   5.108   3.540   0.672
 2928SOL    HW1 9683   5.060   3.569   0.755
 2928SOL    HW2 9684   5.185   3.602   0.656
 2929SOL     OW 9685   2.346   1.540   3.332
 2929SOL    HW1 9686   2.355   1.550   3.432
 2929SOL    HW2 9687   2.261   1.493   3.311
 2930SOL     OW 9688   0.581   3.616   4.276
 2930SOL    HW1 9689   0.584   3.655   4.185
 2930SOL    HW2 9690   0.613   3.521   4.273
 2931SOL     OW 9691   6.184   4.542   5.768
 2931SOL    HW1 9692   6.223   4.634   5.771
 2931SOL    HW2 9693   6.216   4.494   5.686
 2932SOL     OW 9694   6.502   5.567   1.109
 2932SOL    HW1 9695   6.500   5.661   1.142
 2932SOL    HW2 9696   6.570   5.514   1.159
 2933SOL     OW 9697   0.679   0.529   6.695
 2933SOL    HW1 9698   0.705   0.436   6.669
 2933SOL    HW2 9699   0.605   0.526   6.763
 2934SOL     OW 9700   5.621   5.487   1.559
 2934SOL    HW1 9701   5.544   5.426   1.539
 2934SOL    HW2 9702   5.590   5.560   1.620
 2935SOL     OW 9703   0.854   3.339   5.534
 2935SOL    HW1 9704   0.920   3.273   5.569
 2935SOL    HW2 9705   0.821   3.309   5.445
 2936SOL     OW 9706   4.491   6.654   2.343
 2936SOL    HW1 9707   4.485   6.725   2.273
 2936SOL    HW2 9708   4.410   6.657   2.401
 2937SOL     OW 9709   6.004   3.675   3.343
 2937SOL    HW1 9710   6.083   3.722   3.305
 2937SOL    HW2 9711   5.953   3.631   3.269
 2938SOL     OW 9712   0.416   4.958   0.063
 2938SOL    HW1 9713   0.416   4.865   0.026
 2938SOL    HW2 9714   0.414   4.954   0.162
 2939SOL     OW 9715   0.047   6.215   1.693
 2939SOL    HW1 9716   0.088   6.127   1.672
 2939SOL    HW2 9717   0.116   6.287   1.683
 2940SOL     OW 9718   4.424   6.719   4.125
 2940SOL    HW1 9719   4.347   6.770   4.162
 2940SOL    HW2 9720   4.510   6.766   4.148
 2941SOL     OW 9721   2.751   4.731   3.051
 2941SOL    HW1 9722   2.658   4.695   3.048
 2941SOL    HW2 9723   2.796   4.700   3.135
 2942SOL     OW 9724   3.465   2.086   1.854
 2942SOL    HW1 9725   3.454   2.137   1.769
 2942SOL    HW2 9726   3.539   2.127   1.908
 2943SOL     OW 9727   6.933   3.632   3.410
 2943SOL    HW1 9728   6.839   3.611   3.383
 2943SOL    HW2 9729   6.955   3.586   3.496
 2944SOL     OW 9730   1.701   5.941   3.063
 2944SOL    HW1 9731   1.619   5.986   3.028
 2944SOL    HW2 9732   1.774   6.009   3.073
 2945SOL     OW 9733   5.875   3.737   1.336
 2945SOL    HW1 9734   5.820   3.656   1.355
 2945SOL    HW2 9735   5.967   3.709   1.308
 2946SOL     OW 9736   3.334   3.123   4.410
 2946SOL    HW1 9737   3.374   3.092   4.324
 2946SOL    HW2 9738   3.235   3.106   4.408
 2947SOL     OW 9739   6.493   5.386   0.369
 2947SOL    HW1 9740   6.466   5.316   0.304
 2947SOL    HW2 9741   6.567   5.442   0.330
 2948SOL     OW 9742   6.798   4.212   1.269
 2948SOL    HW1 9743   6.745   4.155   1.207
 2948SOL    HW2 9744   6.810   4.164   1.356
 2949SOL     OW 9745   1.522   6.756   0.731
 2949SOL    HW1 9746   1.516   6.745   0.631
 2949SOL    HW2 9747   1.432   6.778   0.767
 2950SOL     OW 9748   5.843   5.666   2.653
 2950SOL    HW1 9749   5.868   5.756   2.688
 2950SOL    HW2 9750   5.920   5.629   2.600
 2951SOL     OW 9751   0.653   2.377   1.072
 2951SOL    HW1 9752   0.645   2.455   1.135
 2951SOL    HW2 9753   0.640   2.292   1.123
 2952SOL     OW 9754   0.056   1.609   4.096
 2952SOL    HW1 9755   7.005   1.611   4.167
 2952SOL    HW2 9756   0.116   1.530   4.109
 2953SOL     OW 9757   1.819   6.226   3.083
 2953SOL    HW1 9758   1.915   6.243   3.108
 2953SOL    HW2 9759   1.761   6.254   3.160
 2954SOL     OW 9760   0.742   4.063   5.895
 2954SOL    HW1 9761   0.654   4.048   5.939
 2954SOL    HW2 9762   0.738   4.032   5.800
 2955SOL     OW 9763   1.804   4.751   6.467
 2955SOL    HW1 9764   1.777   4.668   6.418
 2955SOL    HW2 9765   1.819   4.730   6.563
 2956SOL     OW 9766   5.404   3.964   4.821
 2956SOL    HW1 9767   5.424   3.935   4.915
 2956SOL    HW2 9768   5.317   3.924   4.792
 2957SOL     OW 9769   2.069   5.651   2.001
 2957SOL    HW1 9770   2.161   5.683   2.025
 2957SOL    HW2 9771   2.074   5.557   1.967
 2958SOL     OW 9772   1.523   4.871   2.424
 2958SOL    HW1 9773   1.558   4.798   2.366
 2958SOL    HW2 9774   1.434   4.901   2.389
 2959SOL     OW 9775   6.954   4.125   3.870
 2959SOL    HW1 9776   6.865   4.112   3.913
 2959SOL    HW2 9777   6.981   4.221   3.876
 2960SOL     OW 9778   4.457   6.587   1.309
 2960SOL    HW1 9779   4.403   6.558   1.387
 2960SOL    HW2 9780   4.555   6.578   1.331
 2961SOL     OW 9781   5.405   2.448   1.472
 2961SOL    HW1 9782   5.314   2.464   1.510
 2961SOL    HW2 9783   5.455   2.386   1.532
 2962SOL     OW 9784   0.021   0.118   3.933
 2962SOL    HW1 9785   0.025   0.159   3.842
 2962SOL    HW2 9786   0.102   0.061   3.947
 2963SOL     OW 9787   1.830   0.981   5.363
 2963SOL    HW1 9788   1.864   1.075   5.352
 2963SOL    HW2 9789   1.775   0.956   5.284
 2964SOL     OW 9790   1.592   0.292   6.266
 2964SOL    HW1 9791   1.640   0.223   6.321
 2964SOL    HW2 9792   1.618   0.383   6.296
 2965SOL     OW 9793   5.766   0.456   6.199
 2965SOL    HW1 9794   5.737   0.486   6.291
 2965SOL    HW2 9795   5.713   0.376   6.172
 2966SOL     OW 9796   4.026   5.153   2.735
 2966SOL    HW1 9797   4.064   5.152   2.827
 2966SOL    HW2 9798   3.933   5.115   2.736
 2967SOL     OW 9799   5.687   6.925   4.848
 2967SOL    HW1 9800   5.757   6.907   4.778
 2967SOL    HW2 9801   5.607   6.867   4.831
 2968SOL     OW 9802   1.231   3.979   1.331
 2968SOL    HW1 9803   1.315   4.001   1.381
 2968SOL    HW2 9804   1.234   3.884   1.302
 2969SOL     OW 9805   4.700   2.776   4.382
 2969SOL    HW1 9806   4.781   2.717   4.389
 2969SOL    HW2 9807   4.728   2.871   4.396
 2970SOL     OW 9808   2.348   2.948   5.551
 2970SOL    HW1 9809   2.340   3.047   5.545
 2970SOL    HW2 9810   2.389   2.912   5.467
 2971SOL     OW 9811   4.442   4.134   6.835
 2971SOL    HW1 9812   4.363   4.080   6.863
 2971SOL    HW2 9813   4.469   4.195   6.909
 2972SOL     OW 9814   0.200   5.655   6.675
 2972SOL    HW1 9815   0.184   5.718   6.752
 2972SOL    HW2 9816   0.245   5.704   6.601
 2973SOL     OW 9817   5.557   0.719   4.152
 2973SOL    HW1 9818   5.474   0.705   4.206
 2973SOL    HW2 9819   5.534   0.761   4.065
 2974SOL     OW 9820   5.730   6.480   1.924
 2974SOL    HW1 9821   5.811   6.531   1.895
 2974SOL    HW2 9822   5.673   6.538   1.981
 2975SOL     OW 9823   6.774   3.217   5.059
 2975SOL    HW1 9824   6.678   3.192   5.073
 2975SOL    HW2 9825   6.784   3.316   5.066
 2976SOL     OW 9826   3.584   0.867   1.584
 2976SOL    HW1 9827   3.555   0.771   1.589
 2976SOL    HW2 9828   3.535   0.920   1.653
 2977SOL     OW 9829   1.603   1.340   1.830
 2977SOL    HW1 9830   1.504   1.346   1.822
 2977SOL    HW2 9831   1.628   1.263   1.888
 2978SOL     OW 9832   3.239   6.023   0.425
 2978SOL    HW1 9833   3.264   5.972   0.507
 2978SOL    HW2 9834   3.204   6.113   0.452
 2979SOL     OW 9835   2.933   0.973   5.300
 2979SOL    HW1 9836   2.932   1.049   5.235
 2979SOL    HW2 9837   2.930   1.009   5.394
 2980SOL     OW 9838   3.461   2.960   4.225
 2980SOL    HW1 9839   3.530   2.915   4.282
 2980SOL    HW2 9840   3.488   2.952   4.129
 2981SOL     OW 9841   3.220   2.029   1.991
 2981SOL    HW1 9842   3.156   1.978   1.933
 2981SOL    HW2 9843   3.297   2.061   1.936
 2982SOL     OW 9844   1.421   0.709   0.878
 2982SOL    HW1 9845   1.337   0.750   0.913
 2982SOL    HW2 9846   1.438   0.743   0.785
 2983SOL     OW 9847   6.477   2.504   6.366
 2983SOL    HW1 9848   6.476   2.603   6.379
 2983SOL    HW2 9849   6.507   2.459   6.450
 2984SOL     OW 9850   0.544   6.256   1.235
 2984SOL    HW1 9851   0.625   6.299   1.275
 2984SOL    HW2 9852   0.573   6.194   1.161
 2985SOL     OW 9853   6.313   0.762   5.782
 2985SOL    HW1 9854   6.386   0.754   5.850
 2985SOL    HW2 9855   6.272   0.853   5.789
 2986SOL     OW 9856   3.370   3.137   2.103
 2986SOL    HW1 9857   3.423   3.119   2.020
 2986SOL    HW2 9858   3.314   3.219   2.090
 2987SOL     OW 9859   2.543   5.717   4.772
 2987SOL    HW1 9860   2.530   5.619   4.786
 2987SOL    HW2 9861   2.598   5.732   4.689
 2988SOL     OW 9862   6.774   1.998   5.982
 2988SOL    HW1 9863   6.844   2.027   5.917
 2988SOL    HW2 9864   6.774   2.060   6.061
 2989SOL     OW 9865   5.615   3.428   5.496
 2989SOL    HW1 9866   5.584   3.488   5.570
 2989SOL    HW2 9867   5.675   3.357   5.533
 2990SOL     OW 9868   5.613   1.215   5.873
 2990SOL    HW1 9869   5.564   1.204   5.960
 2990SOL    HW2 9870   5.547   1.222   5.798
 2991SOL     OW 9871   6.919   3.637   7.005
 2991SOL    HW1 9872   6.889   3.700   0.059
 2991SOL    HW2 9873   6.914   3.543   0.021
 2992SOL     OW 9874   0.728   3.734   5.359
 2992SOL    HW1 9875   0.810   3.700   5.405
 2992SOL    HW2 9876   0.652   3.672   5.375
 2993SOL     OW 9877   3.006   5.227   0.455
 2993SOL    HW1 9878   2.920   5.177   0.447
 2993SOL    HW2 9879   2.998   5.297   0.526
 2994SOL     OW 9880   2.714   5.094   5.008
 2994SOL    HW1 9881   2.746   5.167   5.069
 2994SOL    HW2 9882   2.641   5.042   5.053
 2995SOL     OW 9883   5.069   0.688   2.144
 2995SOL    HW1 9884   5.014   0.611   2.178
 2995SOL    HW2 9885   5.025   0.728   2.064
 2996SOL     OW 9886   6.663   0.704   4.043
 2996SOL    HW1 9887   6.691   0.757   3.963
 2996SOL    HW2 9888   6.563   0.698   4.045
 2997SOL     OW 9889   4.619   5.761   4.461
 2997SOL    HW1 9890   4.572   5.687   4.510
 2997SOL    HW2 9891   4.588   5.849   4.496
 2998SOL     OW 9892   2.639   0.800   1.733
 2998SOL    HW1 9893   2.689   0.887   1.739
 2998SOL    HW2 9894   2.667   0.752   1.650
 2999SOL     OW 9895   1.139   4.338   0.570
 2999SOL    HW1 9896   1.104   4.431   0.562
 2999SOL    HW2 9897   1.123   4.303   0.662
 3000SOL     OW 9898   2.212   3.805   5.219
 3000SOL    HW1 9899   2.148   3.772   5.148
 3000SOL    HW2 9900   2.288   3.852   5.175
 3001SOL     OW 9901   4.497   0.719   6.359
 3001SOL    HW1 9902   4.483   0.640   6.300
 3001SOL    HW2 9903   4.592   0.749   6.354
 3002SOL     OW 9904   1.497   1.853   2.572
 3002SOL    HW1 9905   1.562   1.797   2.623
 3002SOL    HW2 9906   1.437   1.901   2.635
 3003SOL     OW 9907   1.233   5.711   0.630
 3003SOL    HW1 9908   1.141   5.676   0.645
 3003SOL    HW2 9909   1.230   5.810   0.617
 3004SOL     OW 9910   3.313   6.942   4.037
 3004SOL    HW1 9911   3.308   6.900   3.946
 3004SOL    HW2 9912   3.227   6.989   4.056
 3005SOL     OW 9913   2.801   1.642   0.259
 3005SOL    HW1 9914   2.717   1.598   0.226
 3005SOL    HW2 9915   2.879   1.607   0.207
 3006SOL     OW 9916   5.855   1.292   5.746
 3006SOL    HW1 9917   5.776   1.275   5.806
 3006SOL    HW2 9918   5.846   1.383   5.704
 3007SOL     OW 9919   6.072   5.704   5.741
 3007SOL    HW1 9920   5.992   5.761   5.761
 3007SOL    HW2 9921   6.131   5.699   5.822
 3008SOL     OW 9922   4.819   4.208   5.805
 3008SOL    HW1 9923   4.756   4.250   5.739
 3008SOL    HW2 9924   4.779   4.213   5.897
 3009SOL     OW 9925   5.574   3.279   2.103
 3009SOL    HW1 9926   5.651   3.272   2.166
 3009SOL    HW2 9927   5.608   3.299   2.011
 3010SOL     OW 9928   4.867   5.314   1.759
 3010SOL    HW1 9929   4.871   5.414   1.760
 3010SOL    HW2 9930   4.852   5.282   1.666
 3011SOL     OW 9931   5.704   6.863   0.540
 3011SOL    HW1 9932   5.685   6.854   0.442
 3011SOL    HW2 9933   5.632   6.816   0.591
 3012SOL     OW 9934   2.353   0.807   4.744
 3012SOL    HW1 9935   2.441   0.804   4.792
 3012SOL    HW2 9936   2.368   0.791   4.646
 3013SOL     OW 9937   1.108   4.975   5.429
 3013SOL    HW1 9938   1.181   5.044   5.441
 3013SOL    HW2 9939   1.020   5.017   5.451
 3014SOL     OW 9940   3.832   0.346   0.032
 3014SOL    HW1 9941   3.841   0.435   0.076
 3014SOL    HW2 9942   3.851   0.354   6.953
 3015SOL     OW 9943   2.558   6.795   6.074
 3015SOL    HW1 9944   2.511   6.879   6.046
 3015SOL    HW2 9945   2.494   6.718   6.072
 3016SOL     OW 9946   2.870   0.600   4.018
 3016SOL    HW1 9947   2.858   0.610   3.919
 3016SOL    HW2 9948   2.841   0.508   4.045
 3017SOL     OW 9949   0.852   6.026   0.110
 3017SOL    HW1 9950   0.756   6.047   0.091
 3017SOL    HW2 9951   0.901   6.015   0.024
 3018SOL     OW 9952   3.172   2.188   1.652
 3018SOL    HW1 9953   3.181   2.278   1.611
 3018SOL    HW2 9954   3.143   2.198   1.747
 3019SOL     OW 9955   1.276   0.547   5.219
 3019SOL    HW1 9956   1.347   0.563   5.287
 3019SOL    HW2 9957   1.241   0.453   5.228
 3020SOL     OW 9958   4.839   5.028   0.083
 3020SOL    HW1 9959   4.929   5.039   0.043
 3020SOL    HW2 9960   4.805   5.116   0.116
 3021SOL     OW 9961   5.021   6.666   4.425
 3021SOL    HW1 9962   5.043   6.569   4.436
 3021SOL    HW2 9963   4.922   6.677   4.417
 3022SOL     OW 9964   4.764   6.816   4.485
 3022SOL    HW1 9965   4.834   6.862   4.540
 3022SOL    HW2 9966   4.674   6.851   4.510
 3023SOL     OW 9967   5.253   4.708   5.615
 3023SOL    HW1 9968   5.249   4.608   5.610
 3023SOL    HW2 9969   5.302   4.743   5.535
 3024SOL     OW 9970   6.753   1.034   0.329
 3024SOL    HW1 9971   6.713   0.946   0.303
 3024SOL    HW2 9972   6.836   1.018   0.383
 3025SOL     OW 9973   3.875   5.499   0.601
 3025SOL    HW1 9974   3.826   5.559   0.664
 3025SOL    HW2 9975   3.967   5.481   0.637
 3026SOL     OW 9976   0.198   0.395   2.049
 3026SOL    HW1 9977   0.146   0.310   2.039
 3026SOL    HW2 9978   0.256   0.389   2.131
 3027SOL     OW 9979   3.903   6.655   0.978
 3027SOL    HW1 9980   3.850   6.739   0.967
 3027SOL    HW2 9981   3.854   6.579   0.936
 3028SOL     OW 9982   3.725   3.234   4.590
 3028SOL    HW1 9983   3.764   3.294   4.520
 3028SOL    HW2 9984   3.779   3.151   4.597
 3029SOL     OW 9985   0.280   2.586   5.166
 3029SOL    HW1 9986   0.355   2.594   5.100
 3029SOL    HW2 9987   0.260   2.490   5.181
 3030SOL     OW 9988   1.164   2.979   6.172
 3030SOL    HW1 9989   1.231   2.910   6.199
 3030SOL    HW2 9990   1.075   2.936   6.159
 3031SOL     OW 9991   0.716   5.064   0.088
 3031SOL    HW1 9992   0.768   5.026   0.164
 3031SOL    HW2 9993   0.618   5.061   0.110
 3032SOL     OW 9994   3.311   6.866   3.768
 3032SOL    HW1 9995   3.338   6.839   3.675
 3032SOL    HW2 9996   3.223   6.914   3.764
 3033SOL     OW 9997   1.517   1.455   6.431
 3033SOL    HW1 9998   1.577   1.435   6.353
 3033SOL    HW2 9999   1.543   1.543   6.471
 3034SOL     OW10000   5.255   3.639   3.509
 3034SOL    HW110001   5.299   3.709   3.453
 3034SOL    HW210002   5.229   3.679   3.597
 3035SOL     OW10003   6.661   3.764   6.917
 3035SOL    HW110004   6.645   3.816   7.000
 3035SOL    HW210005   6.752   3.722   6.920
 3036SOL     OW10006   3.341   2.293   5.998
 3036SOL    HW110007   3.440   2.303   6.000
 3036SOL    HW210008   3.306   2.325   5.910
 3037SOL     OW10009   0.751   4.891   6.422
 3037SOL    HW110010   0.710   4.892   6.513
 3037SOL    HW210011   0.721   4.810   6.372
 3038SOL     OW10012   5.921   4.820   5.663
 3038SOL    HW110013   5.835   4.769   5.663
 3038SOL    HW210014   5.935   4.861   5.754
 3039SOL     OW10015   5.588   3.262   6.166
 3039SOL    HW110016   5.543   3.209   6.095
 3039SOL    HW210017   5.687   3.246   6.162
 3040SOL     OW10018   3.604   6.446   6.079
 3040SOL    HW110019   3.572   6.488   5.995
 3040SOL    HW210020   3.655   6.513   6.133
 3041SOL     OW10021   1.973   5.391   6.751
 3041SOL    HW110022   1.875   5.387   6.731
 3041SOL    HW210023   1.993   5.336   6.832
 3042SOL     OW10024   0.134   5.118   4.264
 3042SOL    HW110025   0.129   5.154   4.171
 3042SOL    HW210026   0.171   5.188   4.325
 3043SOL     OW10027   3.228   4.246   1.288
 3043SOL    HW110028   3.320   4.234   1.324
 3043SOL    HW210029   3.225   4.217   1.192
 3044SOL     OW10030   3.844   3.574   4.647
 3044SOL    HW110031   3.818   3.513   4.572
 3044SOL    HW210032   3.941   3.599   4.637
 3045SOL     OW10033   5.326   1.146   2.555
 3045SOL    HW110034   5.386   1.226   2.558
 3045SOL    HW210035   5.266   1.146   2.635
 3046SOL     OW10036   5.883   5.331   1.125
 3046SOL    HW110037   5.859   5.380   1.041
 3046SOL    HW210038   5.849   5.381   1.204
 3047SOL     OW10039   5.909   1.757   4.053
 3047SOL    HW110040   5.826   1.789   4.098
 3047SOL    HW210041   5.988   1.809   4.087
 3048SOL     OW10042   4.200   4.844   1.653
 3048SOL    HW110043   4.195   4.759   1.707
 3048SOL    HW210044   4.275   4.837   1.588
 3049SOL     OW10045   0.377   1.886   2.189
 3049SOL    HW110046   0.328   1.801   2.209
 3049SOL    HW210047   0.458   1.865   2.135
 3050SOL     OW10048   3.559   2.264   6.503
 3050SOL    HW110049   3.566   2.224   6.595
 3050SOL    HW210050   3.602   2.203   6.437
 3051SOL     OW10051   2.655   5.439   6.122
 3051SOL    HW110052   2.640   5.371   6.051
 3051SOL    HW210053   2.731   5.498   6.096
 3052SOL     OW10054   5.949   6.055   3.428
 3052SOL    HW110055   5.942   6.126   3.358
 3052SOL    HW210056   5.863   6.006   3.435
 3053SOL     OW10057   0.955   4.433   6.480
 3053SOL    HW110058   0.873   4.380   6.503
 3053SOL    HW210059   0.994   4.399   6.394
 3054SOL     OW10060   5.901   0.009   2.999
 3054SOL    HW110061   5.827   0.058   3.045
 3054SOL    HW210062   5.877   7.014   2.903
 3055SOL     OW10063   4.768   6.612   0.342
 3055SOL    HW110064   4.707   6.538   0.367
 3055SOL    HW210065   4.721   6.700   0.355
 3056SOL     OW10066   4.642   1.588   0.878
 3056SOL    HW110067   4.596   1.636   0.803
 3056SOL    HW210068   4.710   1.649   0.920
 3057SOL     OW10069   6.406   3.652   3.471
 3057SOL    HW110070   6.404   3.635   3.569
 3057SOL    HW210071   6.464   3.731   3.452
 3058SOL     OW10072   0.036   4.988   5.915
 3058SOL    HW110073   0.094   4.973   5.995
 3058SOL    HW210074   6.963   4.953   5.933
 3059SOL     OW10075   1.267   2.547   2.980
 3059SOL    HW110076   1.249   2.576   3.074
 3059SOL    HW210077   1.357   2.580   2.952
 3060SOL     OW10078   5.528   3.761   3.074
 3060SOL    HW110079   5.575   3.679   3.106
 3060SOL    HW210080   5.594   3.820   3.027
 3061SOL     OW10081   5.892   6.399   2.702
 3061SOL    HW110082   5.882   6.498   2.706
 3061SOL    HW210083   5.806   6.355   2.730
 3062SOL     OW10084   3.903   5.075   1.103
 3062SOL    HW110085   3.963   5.109   1.176
 3062SOL    HW210086   3.943   4.991   1.065
 3063SOL     OW10087   6.779   4.830   0.395
 3063SOL    HW110088   6.755   4.831   0.493
 3063SOL    HW210089   6.695   4.828   0.341
 3064SOL     OW10090   4.788   1.757   6.410
 3064SOL    HW110091   4.820   1.803   6.328
 3064SOL    HW210092   4.818   1.661   6.408
 3065SOL     OW10093   5.467   1.030   6.352
 3065SOL    HW110094   5.400   1.061   6.419
 3065SOL    HW210095   5.437   0.943   6.313
 3066SOL     OW10096   5.206   0.037   5.830
 3066SOL    HW110097   5.297   0.050   5.870
 3066SOL    HW210098   5.142   0.102   5.870
 3067SOL     OW10099   1.549   1.789   4.510
 3067SOL    HW110100   1.581   1.877   4.475
 3067SOL    HW210101   1.554   1.720   4.437
 3068SOL     OW10102   5.711   0.388   1.089
 3068SOL    HW110103   5.706   0.460   1.158
 3068SOL    HW210104   5.754   0.307   1.129
 3069SOL     OW10105   5.457   6.067   3.787
 3069SOL    HW110106   5.512   6.117   3.721
 3069SOL    HW210107   5.477   6.100   3.880
 3070SOL     OW10108   2.673   1.154   0.916
 3070SOL    HW110109   2.723   1.083   0.967
 3070SOL    HW210110   2.731   1.234   0.905
 3071SOL     OW10111   5.613   4.732   5.425
 3071SOL    HW110112   5.517   4.715   5.403
 3071SOL    HW210113   5.650   4.799   5.361
 3072SOL     OW10114   1.565   6.747   5.363
 3072SOL    HW110115   1.623   6.744   5.445
 3072SOL    HW210116   1.617   6.715   5.284
 3073SOL     OW10117   6.904   5.442   2.336
 3073SOL    HW110118   6.810   5.409   2.341
 3073SOL    HW210119   6.913   5.503   2.257
 3074SOL     OW10120   3.121   2.923   1.726
 3074SOL    HW110121   3.141   3.007   1.677
 3074SOL    HW210122   3.193   2.905   1.792
 3075SOL     OW10123   3.950   4.969   1.585
 3075SOL    HW110124   3.910   4.878   1.577
 3075SOL    HW210125   4.044   4.961   1.618
 3076SOL     OW10126   2.056   1.562   3.869
 3076SOL    HW110127   2.058   1.661   3.851
 3076SOL    HW210128   2.088   1.513   3.789
 3077SOL     OW10129   0.257   3.451   1.935
 3077SOL    HW110130   0.302   3.401   1.861
 3077SOL    HW210131   0.318   3.453   2.014
 3078SOL     OW10132   0.331   3.713   1.800
 3078SOL    HW110133   0.305   3.694   1.705
 3078SOL    HW210134   0.300   3.638   1.858
 3079SOL     OW10135   1.639   4.039   4.058
 3079SOL    HW110136   1.653   4.116   4.120
 3079SOL    HW210137   1.554   4.051   4.008
 3080SOL     OW10138   3.839   4.712   1.674
 3080SOL    HW110139   3.803   4.712   1.581
 3080SOL    HW210140   3.770   4.677   1.737
 3081SOL     OW10141   2.453   2.903   5.815
 3081SOL    HW110142   2.423   2.915   5.720
 3081SOL    HW210143   2.414   2.976   5.872
 3082SOL     OW10144   5.390   3.910   5.114
 3082SOL    HW110145   5.473   3.868   5.150
 3082SOL    HW210146   5.314   3.845   5.118
 3083SOL     OW10147   4.026   5.645   1.246
 3083SOL    HW110148   4.100   5.707   1.221
 3083SOL    HW210149   3.989   5.671   1.336
 3084SOL     OW10150   0.189   5.239   4.008
 3084SOL    HW110151   0.130   5.317   3.984
 3084SOL    HW210152   0.184   5.170   3.936
 3085SOL     OW10153   6.419   5.857   0.012
 3085SOL    HW110154   6.439   5.948   6.993
 3085SOL    HW210155   6.466   5.846   0.100
 3086SOL     OW10156   6.032   6.663   6.645
 3086SOL    HW110157   5.949   6.681   6.593
 3086SOL    HW210158   6.079   6.749   6.665
 3087SOL     OW10159   3.118   0.347   2.272
 3087SOL    HW110160   3.119   0.361   2.371
 3087SOL    HW210161   3.060   0.268   2.249
 3088SOL     OW10162   2.354   3.628   5.372
 3088SOL    HW110163   2.317   3.696   5.309
 3088SOL    HW210164   2.452   3.618   5.356
 3089SOL     OW10165   3.963   6.645   6.407
 3089SOL    HW110166   4.044   6.587   6.406
 3089SOL    HW210167   3.965   6.705   6.488
 3090SOL     OW10168   1.214   2.452   2.373
 3090SOL    HW110169   1.240   2.393   2.297
 3090SOL    HW210170   1.206   2.397   2.456
 3091SOL     OW10171   1.218   2.311   0.073
 3091SOL    HW110172   1.256   2.398   0.042
 3091SOL    HW210173   1.125   2.301   0.038
 3092SOL     OW10174   5.690   1.158   2.662
 3092SOL    HW110175   5.720   1.180   2.755
 3092SOL    HW210176   5.651   1.066   2.661
 3093SOL     OW10177   6.491   5.379   6.537
 3093SOL    HW110178   6.518   5.406   6.630
 3093SOL    HW210179   6.515   5.452   6.473
 3094SOL     OW10180   1.943   1.542   6.279
 3094SOL    HW110181   1.997   1.468   6.318
 3094SOL    HW210182   1.945   1.535   6.179
 3095SOL     OW10183   1.635   3.992   4.852
 3095SOL    HW110184   1.714   4.006   4.792
 3095SOL    HW210185   1.556   4.040   4.815
 3096SOL     OW10186   1.766   2.769   4.345
 3096SOL    HW110187   1.739   2.682   4.304
 3096SOL    HW210188   1.865   2.771   4.358
 3097SOL     OW10189   5.186   2.997   5.891
 3097SOL    HW110190   5.190   3.052   5.974
 3097SOL    HW210191   5.179   2.900   5.916
 3098SOL     OW10192   1.706   3.305   2.207
 3098SOL    HW110193   1.782   3.263   2.158
 3098SOL    HW210194   1.736   3.328   2.300
 3099SOL     OW10195   1.115   6.688   5.351
 3099SOL    HW110196   1.173   6.653   5.425
 3099SOL    HW210197   1.019   6.673   5.374
 3100SOL     OW10198   6.276   4.841   2.470
 3100SOL    HW110199   6.178   4.855   2.453
 3100SOL    HW210200   6.324   4.829   2.383
 3101SOL     OW10201   4.981   0.292   4.923
 3101SOL    HW110202   5.038   0.335   4.853
 3101SOL    HW210203   4.894   0.342   4.929
 3102SOL     OW10204   5.890   4.644   2.148
 3102SOL    HW110205   5.969   4.584   2.137
 3102SOL    HW210206   5.862   4.646   2.244
 3103SOL     OW10207   1.671   2.326   2.234
 3103SOL    HW110208   1.763   2.322   2.273
 3103SOL    HW210209   1.618   2.248   2.266
 3104SOL     OW10210   5.536   2.117   5.226
 3104SOL    HW110211   5.532   2.203   5.278
 3104SOL    HW210212   5.589   2.049   5.278
 3105SOL     OW10213   5.156   4.055   0.708
 3105SOL    HW110214   5.061   4.027   0.723
 3105SOL    HW210215   5.186   4.023   0.618
 3106SOL     OW10216   5.386   1.944   6.072
 3106SOL    HW110217   5.425   1.985   6.155
 3106SOL    HW210218   5.400   2.007   5.995
 3107SOL     OW10219   4.092   2.209   4.358
 3107SOL    HW110220   4.103   2.114   4.387
 3107SOL    HW210221   4.057   2.212   4.264
 3108SOL     OW10222   1.528   4.618   3.544
 3108SOL    HW110223   1.538   4.717   3.528
 3108SOL    HW210224   1.574   4.568   3.470
 3109SOL     OW10225   6.880   5.849   3.173
 3109SOL    HW110226   6.784   5.852   3.199
 3109SOL    HW210227   6.900   5.761   3.130
 3110SOL     OW10228   0.982   5.904   4.073
 3110SOL    HW110229   1.041   5.914   4.153
 3110SOL    HW210230   0.954   5.994   4.041
 3111SOL     OW10231   6.450   4.228   3.588
 3111SOL    HW110232   6.524   4.290   3.561
 3111SOL    HW210233   6.473   4.186   3.676
 3112SOL     OW10234   4.078   0.833   0.360
 3112SOL    HW110235   4.135   0.807   0.438
 3112SOL    HW210236   3.988   0.789   0.369
 3113SOL     OW10237   1.082   0.132   3.406
 3113SOL    HW110238   1.084   0.212   3.466
 3113SOL    HW210239   1.150   0.065   3.437
 3114SOL     OW10240   4.782   5.841   5.330
 3114SOL    HW110241   4.866   5.812   5.376
 3114SOL    HW210242   4.802   5.919   5.270
 3115SOL     OW10243   4.598   5.345   4.550
 3115SOL    HW110244   4.648   5.302   4.626
 3115SOL    HW210245   4.529   5.407   4.587
 3116SOL     OW10246   1.219   2.015   5.997
 3116SOL    HW110247   1.164   2.077   6.053
 3116SOL    HW210248   1.303   2.061   5.969
 3117SOL     OW10249   3.729   0.130   1.103
 3117SOL    HW110250   3.705   0.207   1.043
 3117SOL    HW210251   3.685   0.142   1.192
 3118SOL     OW10252   0.656   1.754   3.758
 3118SOL    HW110253   0.633   1.672   3.706
 3118SOL    HW210254   0.718   1.811   3.704
 3119SOL     OW10255   4.680   6.044   3.933
 3119SOL    HW110256   4.728   5.990   3.863
 3119SOL    HW210257   4.623   5.983   3.988
 3120SOL     OW10258   2.894   5.849   0.260
 3120SOL    HW110259   2.989   5.825   0.276
 3120SOL    HW210260   2.846   5.856   0.348
 3121SOL     OW10261   3.944   2.138   3.700
 3121SOL    HW110262   3.880   2.212   3.680
 3121SOL    HW210263   4.007   2.167   3.772
 3122SOL     OW10264   5.566   4.178   6.009
 3122SOL    HW110265   5.535   4.101   5.953
 3122SOL    HW210266   5.658   4.158   6.045
 3123SOL     OW10267   2.048   2.350   2.810
 3123SOL    HW110268   2.113   2.345   2.734
 3123SOL    HW210269   2.043   2.445   2.843
 3124SOL     OW10270   5.087   6.429   5.311
 3124SOL    HW110271   5.066   6.526   5.316
 3124SOL    HW210272   5.105   6.404   5.216
 3125SOL     OW10273   1.341   1.193   5.247
 3125SOL    HW110274   1.347   1.137   5.164
 3125SOL    HW210275   1.415   1.169   5.309
 3126SOL     OW10276   5.035   4.523   5.966
 3126SOL    HW110277   4.994   4.455   6.026
 3126SOL    HW210278   5.010   4.615   5.998
 3127SOL     OW10279   6.405   1.666   5.453
 3127SOL    HW110280   6.501   1.649   5.429
 3127SOL    HW210281   6.359   1.578   5.467
 3128SOL     OW10282   3.616   0.994   1.074
 3128SOL    HW110283   3.525   0.983   1.115
 3128SOL    HW210284   3.613   1.067   1.006
 3129SOL     OW10285   4.226   4.297   0.332
 3129SOL    HW110286   4.253   4.211   0.287
 3129SOL    HW210287   4.308   4.350   0.354
 3130SOL     OW10288   0.528   5.904   1.548
 3130SOL    HW110289   0.478   5.964   1.610
 3130SOL    HW210290   0.586   5.959   1.488
 3131SOL     OW10291   6.916   3.095   2.978
 3131SOL    HW110292   6.934   3.154   3.057
 3131SOL    HW210293   6.876   3.150   2.904
 3132SOL     OW10294   4.767   4.537   0.008
 3132SOL    HW110295   4.853   4.584   7.010
 3132SOL    HW210296   4.737   4.492   6.942
 3133SOL     OW10297   5.395   6.452   3.300
 3133SOL    HW110298   5.425   6.381   3.364
 3133SOL    HW210299   5.303   6.430   3.268
 3134SOL     OW10300   5.360   4.544   3.186
 3134SOL    HW110301   5.323   4.460   3.145
 3134SOL    HW210302   5.458   4.533   3.202
 3135SOL     OW10303   3.688   0.175   6.703
 3135SOL    HW110304   3.759   0.245   6.708
 3135SOL    HW210305   3.654   0.169   6.609
 3136SOL     OW10306   6.462   6.931   2.730
 3136SOL    HW110307   6.555   6.964   2.750
 3136SOL    HW210308   6.430   6.875   2.807
 3137SOL     OW10309   3.894   5.903   6.829
 3137SOL    HW110310   3.818   5.849   6.866
 3137SOL    HW210311   3.975   5.844   6.820
 3138SOL     OW10312   6.900   6.529   4.981
 3138SOL    HW110313   6.993   6.557   4.958
 3138SOL    HW210314   6.840   6.609   4.979
 3139SOL     OW10315   1.385   5.197   1.736
 3139SOL    HW110316   1.472   5.209   1.784
 3139SOL    HW210317   1.320   5.151   1.796
 3140SOL     OW10318   5.742   5.970   0.135
 3140SOL    HW110319   5.691   6.052   0.110
 3140SOL    HW210320   5.800   5.941   0.059
 3141SOL     OW10321   5.738   1.169   6.723
 3141SOL    HW110322   5.760   1.167   6.625
 3141SOL    HW210323   5.687   1.087   6.747
 3142SOL     OW10324   4.822   0.846   3.819
 3142SOL    HW110325   4.786   0.931   3.859
 3142SOL    HW210326   4.913   0.863   3.782
 3143SOL     OW10327   0.009   1.205   0.636
 3143SOL    HW110328   0.108   1.197   0.642
 3143SOL    HW210329   7.000   1.216   0.541
 3144SOL     OW10330   3.757   5.042   6.887
 3144SOL    HW110331   3.834   5.061   6.948
 3144SOL    HW210332   3.688   4.988   6.937
 3145SOL     OW10333   0.962   5.360   6.331
 3145SOL    HW110334   0.931   5.395   6.243
 3145SOL    HW210335   0.928   5.267   6.344
 3146SOL     OW10336   6.352   2.267   4.531
 3146SOL    HW110337   6.448   2.257   4.559
 3146SOL    HW210338   6.330   2.364   4.521
 3147SOL     OW10339   4.303   0.118   0.695
 3147SOL    HW110340   4.392   0.109   0.651
 3147SOL    HW210341   4.310   0.180   0.773
 3148SOL     OW10342   6.684   4.811   0.685
 3148SOL    HW110343   6.766   4.801   0.741
 3148SOL    HW210344   6.612   4.751   0.720
 3149SOL     OW10345   3.820   3.197   0.194
 3149SOL    HW110346   3.900   3.243   0.154
 3149SOL    HW210347   3.784   3.130   0.129
 3150SOL     OW10348   0.287   0.139   5.434
 3150SOL    HW110349   0.312   0.159   5.339
 3150SOL    HW210350   0.227   0.059   5.437
 3151SOL     OW10351   0.045   0.553   5.608
 3151SOL    HW110352   0.088   0.618   5.669
 3151SOL    HW210353   0.096   0.467   5.609
 3152SOL     OW10354   2.303   2.072   5.507
 3152SOL    HW110355   2.324   1.979   5.538
 3152SOL    HW210356   2.368   2.099   5.436
 3153SOL     OW10357   5.868   5.765   1.780
 3153SOL    HW110358   5.823   5.725   1.859
 3153SOL    HW210359   5.939   5.829   1.810
 3154SOL     OW10360   3.651   2.220   0.847
 3154SOL    HW110361   3.718   2.285   0.884
 3154SOL    HW210362   3.621   2.250   0.757
 3155SOL     OW10363   0.311   4.846   6.540
 3155SOL    HW110364   0.231   4.804   6.583
 3155SOL    HW210365   0.303   4.840   6.441
 3156SOL     OW10366   3.718   4.405   1.054
 3156SOL    HW110367   3.675   4.418   0.965
 3156SOL    HW210368   3.676   4.327   1.100
 3157SOL     OW10369   1.361   0.997   4.300
 3157SOL    HW110370   1.287   1.058   4.271
 3157SOL    HW210371   1.440   1.052   4.328
 3158SOL     OW10372   2.621   0.434   6.174
 3158SOL    HW110373   2.691   0.471   6.113
 3158SOL    HW210374   2.659   0.356   6.224
 3159SOL     OW10375   5.035   0.009   1.602
 3159SOL    HW110376   4.944   0.048   1.588
 3159SOL    HW210377   5.105   0.079   1.583
 3160SOL     OW10378   1.952   0.792   4.997
 3160SOL    HW110379   1.902   0.729   5.056
 3160SOL    HW210380   1.888   0.838   4.935
 3161SOL     OW10381   1.473   2.760   2.132
 3161SOL    HW110382   1.441   2.670   2.160
 3161SOL    HW210383   1.572   2.758   2.115
 3162SOL     OW10384   1.117   5.804   1.596
 3162SOL    HW110385   1.057   5.733   1.558
 3162SOL    HW210386   1.212   5.786   1.569
 3163SOL     OW10387   4.753   4.376   1.086
 3163SOL    HW110388   4.817   4.326   1.028
 3163SOL    HW210389   4.722   4.458   1.038
 3164SOL     OW10390   2.512   6.929   4.389
 3164SOL    HW110391   2.424   6.944   4.344
 3164SOL    HW210392   2.515   6.981   4.474
 3165SOL     OW10393   0.570   6.458   6.586
 3165SOL    HW110394   0.532   6.535   6.534
 3165SOL    HW210395   0.668   6.449   6.564
 3166SOL     OW10396   4.382   1.863   4.310
 3166SOL    HW110397   4.445   1.791   4.338
 3166SOL    HW210398   4.297   1.822   4.276
 3167SOL     OW10399   6.002   2.863   1.536
 3167SOL    HW110400   5.931   2.920   1.495
 3167SOL    HW210401   5.998   2.772   1.496
 3168SOL     OW10402   5.400   0.971   0.529
 3168SOL    HW110403   5.406   0.873   0.547
 3168SOL    HW210404   5.451   0.992   0.446
 3169SOL     OW10405   1.310   4.200   2.075
 3169SOL    HW110406   1.325   4.170   1.980
 3169SOL    HW210407   1.212   4.197   2.095
 3170SOL     OW10408   2.205   4.115   3.577
 3170SOL    HW110409   2.206   4.168   3.662
 3170SOL    HW210410   2.257   4.164   3.508
 3171SOL     OW10411   5.417   0.996   4.661
 3171SOL    HW110412   5.419   1.060   4.584
 3171SOL    HW210413   5.408   1.047   4.746
 3172SOL     OW10414   5.779   4.412   1.062
 3172SOL    HW110415   5.819   4.322   1.080
 3172SOL    HW210416   5.686   4.415   1.099
 3173SOL     OW10417   5.672   2.874   0.678
 3173SOL    HW110418   5.645   2.932   0.601
 3173SOL    HW210419   5.596   2.815   0.705
 3174SOL     OW10420   3.863   2.698   6.559
 3174SOL    HW110421   3.807   2.623   6.594
 3174SOL    HW210422   3.947   2.706   6.613
 3175SOL     OW10423   6.007   6.594   5.176
 3175SOL    HW110424   6.058   6.508   5.176
 3175SOL    HW210425   5.911   6.576   5.155
 3176SOL     OW10426   0.412   5.031   3.890
 3176SOL    HW110427   0.383   4.936   3.878
 3176SOL    HW210428   0.391   5.061   3.983
 3177SOL     OW10429   5.000   3.162   3.541
 3177SOL    HW110430   4.950   3.090   3.590
 3177SOL    HW210431   4.970   3.252   3.574
 3178SOL     OW10432   0.995   0.464   2.804
 3178SOL    HW110433   1.068   0.498   2.746
 3178SOL    HW210434   0.917   0.436   2.747
 3179SOL     OW10435   0.920   3.131   2.389
 3179SOL    HW110436   0.846   3.198   2.395
 3179SOL    HW210437   0.890   3.053   2.334
 3180SOL     OW10438   6.511   6.633   6.657
 3180SOL    HW110439   6.431   6.667   6.705
 3180SOL    HW210440   6.576   6.708   6.642
 3181SOL     OW10441   0.561   5.901   5.063
 3181SOL    HW110442   0.585   5.970   4.996
 3181SOL    HW210443   0.632   5.896   5.134
 3182SOL     OW10444   1.335   6.906   1.470
 3182SOL    HW110445   1.298   6.909   1.378
 3182SOL    HW210446   1.358   6.999   1.500
 3183SOL     OW10447   3.956   3.319   1.012
 3183SOL    HW110448   3.993   3.358   1.096
 3183SOL    HW210449   4.030   3.296   0.949
 3184SOL     OW10450   6.450   1.661   4.305
 3184SOL    HW110451   6.505   1.611   4.238
 3184SOL    HW210452   6.354   1.657   4.279
 3185SOL     OW10453   0.681   6.285   6.194
 3185SOL    HW110454   0.726   6.242   6.272
 3185SOL    HW210455   0.599   6.233   6.171
 3186SOL     OW10456   0.336   3.080   6.298
 3186SOL    HW110457   0.280   3.013   6.249
 3186SOL    HW210458   0.337   3.166   6.247
 3187SOL     OW10459   5.093   6.889   2.892
 3187SOL    HW110460   5.001   6.887   2.930
 3187SOL    HW210461   5.118   6.983   2.868
 3188SOL     OW10462   1.748   6.748   0.872
 3188SOL    HW110463   1.763   6.816   0.943
 3188SOL    HW210464   1.656   6.758   0.834
 3189SOL     OW10465   2.651   1.518   6.276
 3189SOL    HW110466   2.589   1.596   6.283
 3189SOL    HW210467   2.746   1.549   6.282
 3190SOL     OW10468   5.924   6.204   3.695
 3190SOL    HW110469   5.961   6.297   3.697
 3190SOL    HW210470   5.866   6.193   3.614
 3191SOL     OW10471   3.660   5.127   1.531
 3191SOL    HW110472   3.677   5.055   1.598
 3191SOL    HW210473   3.672   5.089   1.439
 3192SOL     OW10474   5.051   1.046   2.489
 3192SOL    HW110475   5.057   0.968   2.427
 3192SOL    HW210476   5.132   1.104   2.478
 3193SOL     OW10477   3.398   5.563   5.193
 3193SOL    HW110478   3.426   5.618   5.114
 3193SOL    HW210479   3.414   5.615   5.277
 3194SOL     OW10480   1.758   6.826   5.660
 3194SOL    HW110481   1.672   6.875   5.674
 3194SOL    HW210482   1.834   6.889   5.674
 3195SOL     OW10483   0.633   0.176   0.624
 3195SOL    HW110484   0.653   0.268   0.657
 3195SOL    HW210485   0.536   0.157   0.635
 3196SOL     OW10486   6.154   6.814   2.740
 3196SOL    HW110487   6.199   6.843   2.825
 3196SOL    HW210488   6.198   6.731   2.705
 3197SOL     OW10489   2.715   0.520   6.963
 3197SOL    HW110490   2.811   0.520   6.938
 3197SOL    HW210491   2.679   0.613   6.959
 3198SOL     OW10492   5.663   2.970   3.864
 3198SOL    HW110493   5.591   2.981   3.796
 3198SOL    HW210494   5.623   2.931   3.948
 3199SOL     OW10495   4.850   3.830   2.940
 3199SOL    HW110496   4.905   3.834   2.857
 3199SOL    HW210497   4.853   3.737   2.978
 3200SOL     OW10498   5.687   3.666   4.888
 3200SOL    HW110499   5.704   3.739   4.954
 3200SOL    HW210500   5.765   3.603   4.888
 3201SOL     OW10501   6.184   4.268   2.020
 3201SOL    HW110502   6.163   4.224   1.932
 3201SOL    HW210503   6.225   4.200   2.081
 3202SOL     OW10504   2.649   3.055   6.416
 3202SOL    HW110505   2.686   3.105   6.338
 3202SOL    HW210506   2.643   2.958   6.393
 3203SOL     OW10507   3.060   6.920   1.859
 3203SOL    HW110508   3.048   7.000   1.800
 3203SOL    HW210509   3.057   6.948   1.955
 3204SOL     OW10510   4.066   0.750   3.831
 3204SOL    HW110511   4.011   0.831   3.850
 3204SOL    HW210512   4.026   0.698   3.755
 3205SOL     OW10513   4.722   3.171   6.065
 3205SOL    HW110514   4.668   3.228   6.128
 3205SOL    HW210515   4.668   3.151   5.984
 3206SOL     OW10516   2.713   4.469   1.127
 3206SOL    HW110517   2.693   4.483   1.224
 3206SOL    HW210518   2.664   4.389   1.094
 3207SOL     OW10519   2.498   6.030   3.964
 3207SOL    HW110520   2.581   6.083   3.981
 3207SOL    HW210521   2.520   5.951   3.907
 3208SOL     OW10522   6.785   4.620   6.054
 3208SOL    HW110523   6.864   4.615   6.114
 3208SOL    HW210524   6.701   4.608   6.108
 3209SOL     OW10525   5.459   6.724   6.516
 3209SOL    HW110526   5.363   6.696   6.514
 3209SOL    HW210527   5.518   6.643   6.510
 3210SOL     OW10528   4.815   5.705   1.417
 3210SOL    HW110529   4.848   5.742   1.504
 3210SOL    HW210530   4.765   5.620   1.434
 3211SOL     OW10531   1.633   6.563   6.526
 3211SOL    HW110532   1.555   6.569   6.588
 3211SOL    HW210533   1.639   6.645   6.470
 3212SOL     OW10534   3.528   0.057   3.936
 3212SOL    HW110535   3.613   0.005   3.930
 3212SOL    HW210536   3.455   7.017   3.973
 3213SOL     OW10537   1.440   0.378   5.674
 3213SOL    HW110538   1.475   0.352   5.584
 3213SOL    HW210539   1.342   0.398   5.667
 3214SOL     OW10540   3.625   0.529   2.711
 3214SOL    HW110541   3.693   0.601   2.725
 3214SOL    HW210542   3.614   0.512   2.613
 3215SOL     OW10543   2.097   3.097   1.943
 3215SOL    HW110544   2.079   3.195   1.939
 3215SOL    HW210545   2.108   3.068   2.038
 3216SOL     OW10546   6.322   5.652   0.519
 3216SOL    HW110547   6.254   5.713   0.478
 3216SOL    HW210548   6.293   5.628   0.612
 3217SOL     OW10549   6.846   5.124   3.650
 3217SOL    HW110550   6.763   5.145   3.598
 3217SOL    HW210551   6.858   5.025   3.654
 3218SOL     OW10552   6.018   1.384   3.030
 3218SOL    HW110553   6.034   1.285   3.028
 3218SOL    HW210554   6.027   1.421   2.937
 3219SOL     OW10555   5.713   1.591   5.185
 3219SOL    HW110556   5.693   1.519   5.252
 3219SOL    HW210557   5.812   1.606   5.181
 3220SOL     OW10558   0.380   3.634   5.672
 3220SOL    HW110559   0.474   3.601   5.672
 3220SOL    HW210560   0.331   3.594   5.594
 3221SOL     OW10561   3.880   1.425   2.221
 3221SOL    HW110562   3.949   1.389   2.284
 3221SOL    HW210563   3.808   1.470   2.273
 3222SOL     OW10564   3.429   1.346   3.273
 3222SOL    HW110565   3.478   1.428   3.302
 3222SOL    HW210566   3.495   1.278   3.239
 3223SOL     OW10567   1.560   5.478   1.038
 3223SOL    HW110568   1.630   5.481   1.110
 3223SOL    HW210569   1.586   5.410   0.970
 3224SOL     OW10570   4.563   2.583   4.783
 3224SOL    HW110571   4.622   2.576   4.702
 3224SOL    HW210572   4.486   2.521   4.774
 3225SOL     OW10573   4.458   1.246   5.004
 3225SOL    HW110574   4.549   1.273   5.035
 3225SOL    HW210575   4.430   1.306   4.929
 3226SOL     OW10576   6.287   0.993   0.859
 3226SOL    HW110577   6.197   0.971   0.821
 3226SOL    HW210578   6.287   1.089   0.887
 3227SOL     OW10579   6.139   3.718   5.525
 3227SOL    HW110580   6.065   3.785   5.530
 3227SOL    HW210581   6.181   3.707   5.615
 3228SOL     OW10582   2.361   4.268   0.480
 3228SOL    HW110583   2.372   4.268   0.380
 3228SOL    HW210584   2.382   4.359   0.516
 3229SOL     OW10585   1.828   1.980   0.643
 3229SOL    HW110586   1.910   1.942   0.601
 3229SOL    HW210587   1.845   1.998   0.740
 3230SOL     OW10588   3.083   6.223   5.177
 3230SOL    HW110589   3.030   6.277   5.112
 3230SOL    HW210590   3.121   6.143   5.132
 3231SOL     OW10591   1.812   2.918   2.610
 3231SOL    HW110592   1.859   2.833   2.587
 3231SOL    HW210593   1.769   2.956   2.528
 3232SOL     OW10594   3.133   4.943   3.203
 3232SOL    HW110595   3.146   4.904   3.294
 3232SOL    HW210596   3.069   5.020   3.208
 3233SOL     OW10597   2.317   6.807   0.207
 3233SOL    HW110598   2.226   6.833   0.238
 3233SOL    HW210599   2.346   6.723   0.253
 3234SOL     OW10600   3.052   3.325   0.817
 3234SOL    HW110601   2.962   3.286   0.837
 3234SOL    HW210602   3.099   3.345   0.903
 3235SOL     OW10603   0.052   1.261   2.733
 3235SOL    HW110604   0.014   1.259   2.826
 3235SOL    HW210605   6.998   1.285   2.668
 3236SOL     OW10606   4.581   6.959   0.834
 3236SOL    HW110607   4.613   0.036   0.830
 3236SOL    HW210608   4.536   6.936   0.748
 3237SOL     OW10609   5.815   1.090   5.288
 3237SOL    HW110610   5.851   1.106   5.197
 3237SOL    HW210611   5.883   1.115   5.357
 3238SOL     OW10612   6.079   4.407   1.644
 3238SOL    HW110613   6.009   4.337   1.659
 3238SOL    HW210614   6.130   4.421   1.730
 3239SOL     OW10615   5.861   0.902   4.984
 3239SOL    HW110616   5.769   0.879   5.015
 3239SOL    HW210617   5.877   1.000   4.998
 3240SOL     OW10618   0.255   1.482   0.171
 3240SOL    HW110619   0.338   1.537   0.172
 3240SOL    HW210620   0.275   1.391   0.207
 3241SOL     OW10621   6.814   3.172   5.354
 3241SOL    HW110622   6.875   3.207   5.283
 3241SOL    HW210623   6.737   3.124   5.312
 3242SOL     OW10624   6.933   4.155   4.794
 3242SOL    HW110625   6.863   4.135   4.725
 3242SOL    HW210626   6.954   4.072   4.845
 3243SOL     OW10627   5.724   5.420   4.122
 3243SOL    HW110628   5.719   5.330   4.079
 3243SOL    HW210629   5.813   5.462   4.101
 3244SOL     OW10630   4.631   6.834   0.399
 3244SOL    HW110631   4.535   6.852   0.418
 3244SOL    HW210632   4.683   6.919   0.405
 3245SOL     OW10633   3.685   6.735   4.286
 3245SOL    HW110634   3.589   6.761   4.278
 3245SOL    HW210635   3.692   6.636   4.296
 3246SOL     OW10636   6.582   5.883   3.194
 3246SOL    HW110637   6.486   5.856   3.203
 3246SOL    HW210638   6.617   5.853   3.105
 3247SOL     OW10639   1.749   4.600   3.712
 3247SOL    HW110640   1.723   4.630   3.805
 3247SOL    HW210641   1.666   4.585   3.658
 3248SOL     OW10642   5.639   2.888   3.161
 3248SOL    HW110643   5.719   2.948   3.171
 3248SOL    HW210644   5.665   2.794   3.183
 3249SOL     OW10645   2.946   3.796   3.593
 3249SOL    HW110646   2.971   3.782   3.497
 3249SOL    HW210647   2.940   3.894   3.611
 3250SOL     OW10648   4.601   5.674   3.289
 3250SOL    HW110649   4.640   5.760   3.259
 3250SOL    HW210650   4.522   5.692   3.349
 3251SOL     OW10651   2.794   2.296   2.523
 3251SOL    HW110652   2.729   2.351   2.574
 3251SOL    HW210653   2.870   2.269   2.582
 3252SOL     OW10654   2.034   1.708   3.227
 3252SOL    HW110655   2.088   1.791   3.238
 3252SOL    HW210656   1.958   1.725   3.165
 3253SOL     OW10657   6.399   3.597   0.042
 3253SOL    HW110658   6.367   3.598   6.965
 3253SOL    HW210659   6.411   3.691   0.074
 3254SOL     OW10660   6.280   6.511   1.219
 3254SOL    HW110661   6.379   6.508   1.235
 3254SOL    HW210662   6.238   6.572   1.287
 3255SOL     OW10663   3.673   5.742   2.354
 3255SOL    HW110664   3.626   5.678   2.415
 3255SOL    HW210665   3.675   5.705   2.261
 3256SOL     OW10666   5.542   2.429   1.228
 3256SOL    HW110667   5.504   2.473   1.309
 3256SOL    HW210668   5.626   2.381   1.253
 3257SOL     OW10669   3.224   1.498   3.109
 3257SOL    HW110670   3.212   1.484   3.207
 3257SOL    HW210671   3.139   1.531   3.069
 3258SOL     OW10672   1.870   5.460   3.865
 3258SOL    HW110673   1.908   5.468   3.773
 3258SOL    HW210674   1.825   5.371   3.875
 3259SOL     OW10675   5.446   4.232   4.695
 3259SOL    HW110676   5.392   4.250   4.613
 3259SOL    HW210677   5.390   4.250   4.776
 3260SOL     OW10678   1.916   4.902   3.118
 3260SOL    HW110679   1.912   4.911   3.019
 3260SOL    HW210680   1.966   4.819   3.142
 3261SOL     OW10681   5.874   0.136   4.335
 3261SOL    HW110682   5.847   0.098   4.247
 3261SOL    HW210683   5.925   0.221   4.321
 3262SOL     OW10684   3.094   1.616   3.706
 3262SOL    HW110685   3.118   1.604   3.802
 3262SOL    HW210686   3.035   1.697   3.696
 3263SOL     OW10687   6.913   0.837   1.096
 3263SOL    HW110688   6.886   0.884   1.011
 3263SOL    HW210689   6.839   0.776   1.125
 3264SOL     OW10690   1.779   4.756   6.754
 3264SOL    HW110691   1.760   4.852   6.734
 3264SOL    HW210692   1.746   4.733   6.845
 3265SOL     OW10693   0.082   5.273   6.521
 3265SOL    HW110694   0.019   5.203   6.556
 3265SOL    HW210695   0.172   5.232   6.506
 3266SOL     OW10696   3.699   5.055   6.087
 3266SOL    HW110697   3.633   4.982   6.104
 3266SOL    HW210698   3.784   5.017   6.052
 3267SOL     OW10699   3.589   6.582   1.021
 3267SOL    HW110700   3.571   6.569   1.119
 3267SOL    HW210701   3.514   6.635   0.981
 3268SOL     OW10702   5.623   5.241   1.720
 3268SOL    HW110703   5.709   5.281   1.689
 3268SOL    HW210704   5.623   5.142   1.701
 3269SOL     OW10705   1.704   5.007   1.517
 3269SOL    HW110706   1.656   5.089   1.485
 3269SOL    HW210707   1.739   5.022   1.609
 3270SOL     OW10708   1.418   2.976   5.953
 3270SOL    HW110709   1.375   2.952   6.040
 3270SOL    HW210710   1.475   3.057   5.966
 3271SOL     OW10711   1.126   3.513   1.397
 3271SOL    HW110712   1.044   3.569   1.412
 3271SOL    HW210713   1.182   3.514   1.480
 3272SOL     OW10714   4.231   6.496   1.465
 3272SOL    HW110715   4.210   6.407   1.424
 3272SOL    HW210716   4.250   6.484   1.563
 3273SOL     OW10717   3.732   4.001   6.459
 3273SOL    HW110718   3.655   4.056   6.491
 3273SOL    HW210719   3.816   4.055   6.460
 3274SOL     OW10720   5.107   6.814   2.380
 3274SOL    HW110721   5.054   6.867   2.314
 3274SOL    HW210722   5.094   6.852   2.471
 3275SOL     OW10723   4.791   0.687   1.201
 3275SOL    HW110724   4.706   0.703   1.151
 3275SOL    HW210725   4.869   0.715   1.144
 3276SOL     OW10726   6.119   5.926   0.069
 3276SOL    HW110727   6.218   5.922   0.060
 3276SOL    HW210728   6.095   5.993   0.139
 3277SOL     OW10729   3.010   2.110   2.401
 3277SOL    HW110730   2.937   2.173   2.426
 3277SOL    HW210731   3.016   2.104   2.301
 3278SOL     OW10732   5.003   0.918   6.438
 3278SOL    HW110733   5.023   0.946   6.531
 3278SOL    HW210734   5.032   0.990   6.374
 3279SOL     OW10735   3.572   6.820   2.320
 3279SOL    HW110736   3.493   6.870   2.357
 3279SOL    HW210737   3.599   6.749   2.385
 3280SOL     OW10738   6.932   3.242   3.796
 3280SOL    HW110739   6.895   3.172   3.857
 3280SOL    HW210740   0.004   3.212   3.763
 3281SOL     OW10741   5.939   1.671   1.592
 3281SOL    HW110742   5.943   1.771   1.590
 3281SOL    HW210743   5.845   1.642   1.611
 3282SOL     OW10744   0.058   4.580   5.220
 3282SOL    HW110745   6.996   4.638   5.233
 3282SOL    HW210746   0.112   4.578   5.304
 3283SOL     OW10747   3.016   1.596   6.962
 3283SOL    HW110748   2.964   1.656   6.902
 3283SOL    HW210749   3.096   1.644   6.998
 3284SOL     OW10750   2.143   6.991   4.933
 3284SOL    HW110751   2.147   6.906   4.985
 3284SOL    HW210752   2.136   0.050   4.996
 3285SOL     OW10753   4.316   2.335   4.441
 3285SOL    HW110754   4.224   2.300   4.424
 3285SOL    HW210755   4.331   2.347   4.539
 3286SOL     OW10756   1.835   3.192   3.262
 3286SOL    HW110757   1.772   3.268   3.247
 3286SOL    HW210758   1.895   3.182   3.183
 3287SOL     OW10759   2.757   0.877   1.022
 3287SOL    HW110760   2.662   0.894   0.994
 3287SOL    HW210761   2.802   0.819   0.955
 3288SOL     OW10762   2.608   5.868   1.995
 3288SOL    HW110763   2.630   5.817   1.911
 3288SOL    HW210764   2.690   5.916   2.027
 3289SOL     OW10765   3.826   0.681   0.079
 3289SOL    HW110766   3.727   0.693   0.085
 3289SOL    HW210767   3.868   0.765   0.045
 3290SOL     OW10768   0.719   5.570   0.029
 3290SOL    HW110769   0.653   5.501   0.000
 3290SOL    HW210770   0.671   5.651   0.061
 3291SOL     OW10771   4.942   6.581   4.973
 3291SOL    HW110772   4.977   6.669   4.942
 3291SOL    HW210773   5.018   6.521   4.998
 3292SOL     OW10774   0.107   2.295   0.205
 3292SOL    HW110775   0.017   2.296   0.161
 3292SOL    HW210776   0.177   2.323   0.138
 3293SOL     OW10777   6.701   4.838   3.286
 3293SOL    HW110778   6.622   4.863   3.341
 3293SOL    HW210779   6.777   4.899   3.308
 3294SOL     OW10780   4.360   3.076   5.941
 3294SOL    HW110781   4.446   3.084   5.891
 3294SOL    HW210782   4.325   2.983   5.932
 3295SOL     OW10783   1.300   2.635   3.239
 3295SOL    HW110784   1.392   2.666   3.213
 3295SOL    HW210785   1.300   2.609   3.335
 3296SOL     OW10786   2.259   0.833   6.488
 3296SOL    HW110787   2.226   0.755   6.540
 3296SOL    HW210788   2.220   0.830   6.396
 3297SOL     OW10789   4.059   1.328   5.254
 3297SOL    HW110790   4.012   1.379   5.326
 3297SOL    HW210791   3.993   1.291   5.189
 3298SOL     OW10792   3.180   4.236   5.694
 3298SOL    HW110793   3.201   4.301   5.768
 3298SOL    HW210794   3.143   4.152   5.734
 3299SOL     OW10795   2.728   6.205   3.948
 3299SOL    HW110796   2.728   6.293   3.899
 3299SOL    HW210797   2.757   6.133   3.886
 3300SOL     OW10798   2.181   1.049   3.715
 3300SOL    HW110799   2.161   1.091   3.626
 3300SOL    HW210800   2.130   0.963   3.723
 3301SOL     OW10801   1.071   1.127   3.291
 3301SOL    HW110802   1.060   1.225   3.308
 3301SOL    HW210803   1.113   1.084   3.371
 3302SOL     OW10804   1.318   5.192   5.504
 3302SOL    HW110805   1.382   5.266   5.482
 3302SOL    HW210806   1.342   5.152   5.593
 3303SOL     OW10807   3.811   3.602   6.955
 3303SOL    HW110808   3.892   3.660   6.955
 3303SOL    HW210809   3.760   3.615   6.870
 3304SOL     OW10810   2.228   4.053   0.600
 3304SOL    HW110811   2.170   3.999   0.539
 3304SOL    HW210812   2.256   4.137   0.554
 3305SOL     OW10813   2.745   2.641   0.186
 3305SOL    HW110814   2.689   2.638   0.104
 3305SOL    HW210815   2.822   2.703   0.172
 3306SOL     OW10816   2.660   0.252   0.015
 3306SOL    HW110817   2.718   0.226   0.092
 3306SOL    HW210818   2.680   0.347   7.007
 3307SOL     OW10819   2.122   5.954   4.651
 3307SOL    HW110820   2.155   6.005   4.572
 3307SOL    HW210821   2.191   5.887   4.679
 3308SOL     OW10822   4.478   4.879   1.491
 3308SOL    HW110823   4.488   4.780   1.503
 3308SOL    HW210824   4.494   4.903   1.396
 3309SOL     OW10825   5.309   3.964   3.114
 3309SOL    HW110826   5.335   3.871   3.143
 3309SOL    HW210827   5.255   4.007   3.186
 3310SOL     OW10828   6.446   4.351   6.177
 3310SOL    HW110829   6.391   4.374   6.096
 3310SOL    HW210830   6.509   4.276   6.154
 3311SOL     OW10831   2.070   3.377   0.265
 3311SOL    HW110832   2.040   3.292   0.308
 3311SOL    HW210833   2.062   3.452   0.331
 3312SOL     OW10834   4.982   2.738   6.776
 3312SOL    HW110835   4.940   2.665   6.722
 3312SOL    HW210836   4.931   2.823   6.763
 3313SOL     OW10837   0.218   6.919   4.796
 3313SOL    HW110838   0.299   6.860   4.795
 3313SOL    HW210839   0.151   6.887   4.730
 3314SOL     OW10840   3.666   5.606   2.094
 3314SOL    HW110841   3.699   5.548   2.168
 3314SOL    HW210842   3.706   5.576   2.008
 3315SOL     OW10843   1.671   6.127   3.959
 3315SOL    HW110844   1.693   6.193   3.886
 3315SOL    HW210845   1.598   6.164   4.016
 3316SOL     OW10846   4.018   2.788   0.273
 3316SOL    HW110847   4.044   2.824   0.183
 3316SOL    HW210848   4.092   2.804   0.338
 3317SOL     OW10849   5.126   2.197   1.674
 3317SOL    HW110850   5.050   2.160   1.727
 3317SOL    HW210851   5.200   2.223   1.735
 3318SOL     OW10852   3.368   3.141   0.822
 3318SOL    HW110853   3.426   3.192   0.759
 3318SOL    HW210854   3.396   3.162   0.916
 3319SOL     OW10855   6.562   6.184   4.136
 3319SOL    HW110856   6.542   6.280   4.117
 3319SOL    HW210857   6.552   6.131   4.052
 3320SOL     OW10858   6.314   6.984   1.945
 3320SOL    HW110859   6.339   6.938   2.030
 3320SOL    HW210860   6.216   7.004   1.946
 3321SOL     OW10861   4.956   1.665   6.836
 3321SOL    HW110862   4.881   1.599   6.846
 3321SOL    HW210863   5.011   1.642   6.756
 3322SOL     OW10864   6.523   2.871   0.844
 3322SOL    HW110865   6.449   2.912   0.897
 3322SOL    HW210866   6.488   2.845   0.754
 3323SOL     OW10867   1.767   1.527   1.761
 3323SOL    HW110868   1.838   1.499   1.696
 3323SOL    HW210869   1.714   1.447   1.789
 3324SOL     OW10870   5.677   5.242   5.691
 3324SOL    HW110871   5.694   5.234   5.592
 3324SOL    HW210872   5.584   5.277   5.705
 3325SOL     OW10873   2.919   5.384   5.230
 3325SOL    HW110874   2.938   5.293   5.266
 3325SOL    HW210875   2.892   5.444   5.305
 3326SOL     OW10876   3.556   2.089   2.300
 3326SOL    HW110877   3.460   2.116   2.314
 3326SOL    HW210878   3.597   2.148   2.231
 3327SOL     OW10879   1.208   5.599   5.777
 3327SOL    HW110880   1.226   5.697   5.774
 3327SOL    HW210881   1.281   5.553   5.827
 3328SOL     OW10882   4.855   2.493   5.179
 3328SOL    HW110883   4.914   2.518   5.256
 3328SOL    HW210884   4.873   2.553   5.102
 3329SOL     OW10885   6.450   6.202   5.739
 3329SOL    HW110886   6.483   6.155   5.657
 3329SOL    HW210887   6.481   6.154   5.821
 3330SOL     OW10888   6.621   3.770   3.160
 3330SOL    HW110889   6.612   3.670   3.159
 3330SOL    HW210890   6.718   3.795   3.160
 3331SOL     OW10891   2.060   3.153   0.422
 3331SOL    HW110892   2.133   3.202   0.468
 3331SOL    HW210893   2.097   3.102   0.345
 3332SOL     OW10894   6.895   4.074   1.518
 3332SOL    HW110895   6.922   4.011   1.445
 3332SOL    HW210896   6.951   4.157   1.512
 3333SOL     OW10897   2.863   5.675   5.762
 3333SOL    HW110898   2.940   5.700   5.703
 3333SOL    HW210899   2.803   5.754   5.775
 3334SOL     OW10900   1.586   3.693   1.474
 3334SOL    HW110901   1.637   3.739   1.402
 3334SOL    HW210902   1.644   3.623   1.516
 3335SOL     OW10903   5.804   4.354   5.002
 3335SOL    HW110904   5.844   4.340   4.911
 3335SOL    HW210905   5.719   4.303   5.009
 3336SOL     OW10906   3.305   6.142   5.920
 3336SOL    HW110907   3.325   6.140   6.018
 3336SOL    HW210908   3.390   6.124   5.869
 3337SOL     OW10909   3.323   1.814   0.948
 3337SOL    HW110910   3.389   1.810   1.024
 3337SOL    HW210911   3.265   1.895   0.959
 3338SOL     OW10912   0.029   4.526   0.287
 3338SOL    HW110913   7.007   4.529   0.378
 3338SOL    HW210914   0.084   4.442   0.278
 3339SOL     OW10915   1.145   5.595   6.076
 3339SOL    HW110916   1.130   5.497   6.076
 3339SOL    HW210917   1.190   5.622   5.991
 3340SOL     OW10918   3.950   0.376   2.091
 3340SOL    HW110919   4.025   0.323   2.053
 3340SOL    HW210920   3.864   0.329   2.075
 3341SOL     OW10921   0.150   6.765   1.539
 3341SOL    HW110922   0.153   6.857   1.498
 3341SOL    HW210923   0.232   6.750   1.593
 3342SOL     OW10924   2.996   0.485   5.312
 3342SOL    HW110925   3.040   0.560   5.263
 3342SOL    HW210926   3.003   0.401   5.257
 3343SOL     OW10927   0.366   2.435   1.157
 3343SOL    HW110928   0.368   2.406   1.253
 3343SOL    HW210929   0.459   2.436   1.121
 3344SOL     OW10930   0.215   2.621   6.092
 3344SOL    HW110931   0.247   2.605   5.998
 3344SOL    HW210932   0.115   2.615   6.095
 3345SOL     OW10933   1.895   3.500   5.255
 3345SOL    HW110934   1.879   3.579   5.195
 3345SOL    HW210935   1.912   3.532   5.348
 3346SOL     OW10936   1.852   6.197   2.152
 3346SOL    HW110937   1.807   6.283   2.176
 3346SOL    HW210938   1.918   6.213   2.079
 3347SOL     OW10939   5.889   4.076   4.261
 3347SOL    HW110940   5.811   4.047   4.317
 3347SOL    HW210941   5.964   4.010   4.271
 3348SOL     OW10942   3.786   3.537   3.320
 3348SOL    HW110943   3.822   3.593   3.395
 3348SOL    HW210944   3.768   3.595   3.241
 3349SOL     OW10945   5.769   3.398   6.355
 3349SOL    HW110946   5.723   3.377   6.441
 3349SOL    HW210947   5.852   3.343   6.348
 3350SOL     OW10948   1.487   2.349   0.971
 3350SOL    HW110949   1.529   2.336   1.061
 3350SOL    HW210950   1.558   2.370   0.904
 3351SOL     OW10951   5.424   2.578   0.404
 3351SOL    HW110952   5.332   2.545   0.384
 3351SOL    HW210953   5.426   2.678   0.397
 3352SOL     OW10954   0.864   3.403   6.919
 3352SOL    HW110955   0.837   3.317   6.963
 3352SOL    HW210956   0.793   3.431   6.855
 3353SOL     OW10957   1.648   6.314   6.037
 3353SOL    HW110958   1.666   6.356   5.948
 3353SOL    HW210959   1.652   6.385   6.108
 3354SOL     OW10960   1.091   1.426   1.684
 3354SOL    HW110961   0.993   1.430   1.666
 3354SOL    HW210962   1.138   1.496   1.630
 3355SOL     OW10963   6.402   0.992   2.936
 3355SOL    HW110964   6.502   0.987   2.936
 3355SOL    HW210965   6.365   0.904   2.966
 3356SOL     OW10966   1.554   3.562   5.294
 3356SOL    HW110967   1.474   3.503   5.300
 3356SOL    HW210968   1.606   3.539   5.212
 3357SOL     OW10969   2.673   5.274   2.171
 3357SOL    HW110970   2.688   5.371   2.148
 3357SOL    HW210971   2.761   5.226   2.169
 3358SOL     OW10972   0.200   4.374   3.590
 3358SOL    HW110973   0.189   4.472   3.602
 3358SOL    HW210974   0.284   4.356   3.539
 3359SOL     OW10975   1.642   1.583   2.157
 3359SOL    HW110976   1.726   1.597   2.105
 3359SOL    HW210977   1.664   1.542   2.245
 3360SOL     OW10978   2.236   0.335   6.328
 3360SOL    HW110979   2.161   0.356   6.391
 3360SOL    HW210980   2.272   0.244   6.347
 3361SOL     OW10981   3.840   0.830   2.844
 3361SOL    HW110982   3.889   0.748   2.873
 3361SOL    HW210983   3.879   0.910   2.891
 3362SOL     OW10984   2.629   1.984   4.879
 3362SOL    HW110985   2.599   2.043   4.804
 3362SOL    HW210986   2.724   1.957   4.865
 3363SOL     OW10987   6.927   0.580   6.407
 3363SOL    HW110988   0.007   0.571   6.387
 3363SOL    HW210989   6.877   0.590   6.321
 3364SOL     OW10990   2.000   4.866   6.255
 3364SOL    HW110991   1.927   4.919   6.212
 3364SOL    HW210992   1.974   4.844   6.349
 3365SOL     OW10993   5.898   2.354   6.197
 3365SOL    HW110994   5.925   2.274   6.252
 3365SOL    HW210995   5.969   2.371   6.128
 3366SOL     OW10996   5.260   0.825   6.702
 3366SOL    HW110997   5.273   0.892   6.629
 3366SOL    HW210998   5.205   0.749   6.668
 3367SOL     OW10999   2.150   0.004   1.936
 3367SOL    HW111000   2.142   0.007   1.837
 3367SOL    HW211001   2.245   0.021   1.962
 3368SOL     OW11002   6.719   1.220   5.800
 3368SOL    HW111003   6.632   1.174   5.818
 3368SOL    HW211004   6.724   1.244   5.703
 3369SOL     OW11005   3.338   6.388   6.345
 3369SOL    HW111006   3.331   6.433   6.256
 3369SOL    HW211007   3.379   6.297   6.334
 3370SOL     OW11008   5.300   6.802   5.555
 3370SOL    HW111009   5.293   6.707   5.523
 3370SOL    HW211010   5.216   6.828   5.602
 3371SOL     OW11011   6.533   4.825   1.283
 3371SOL    HW111012   6.551   4.763   1.207
 3371SOL    HW211013   6.605   4.813   1.353
 3372SOL     OW11014   0.388   2.205   2.751
 3372SOL    HW111015   0.455   2.226   2.680
 3372SOL    HW211016   0.425   2.134   2.812
 3373SOL     OW11017   0.548   2.334   6.335
 3373SOL    HW111018   0.480   2.376   6.276
 3373SOL    HW211019   0.587   2.404   6.396
 3374SOL     OW11020   3.716   5.994   5.475
 3374SOL    HW111021   3.765   6.065   5.425
 3374SOL    HW211022   3.627   6.028   5.503
 3375SOL     OW11023   3.881   4.259   5.178
 3375SOL    HW111024   3.963   4.298   5.134
 3375SOL    HW211025   3.905   4.173   5.223
 3376SOL     OW11026   2.779   3.168   1.830
 3376SOL    HW111027   2.727   3.233   1.775
 3376SOL    HW211028   2.717   3.110   1.882
 3377SOL     OW11029   2.792   5.561   5.393
 3377SOL    HW111030   2.708   5.571   5.339
 3377SOL    HW211031   2.820   5.650   5.428
 3378SOL     OW11032   0.240   0.827   0.350
 3378SOL    HW111033   0.307   0.822   0.276
 3378SOL    HW211034   0.269   0.896   0.416
 3379SOL     OW11035   6.602   4.959   5.567
 3379SOL    HW111036   6.580   5.045   5.613
 3379SOL    HW211037   6.519   4.905   5.556
 3380SOL     OW11038   0.692   4.010   5.614
 3380SOL    HW111039   0.614   3.995   5.553
 3380SOL    HW211040   0.777   3.996   5.564
 3381SOL     OW11041   3.363   2.705   1.639
 3381SOL    HW111042   3.438   2.714   1.704
 3381SOL    HW211043   3.278   2.690   1.689
 3382SOL     OW11044   6.697   6.563   6.940
 3382SOL    HW111045   6.639   6.641   6.915
 3382SOL    HW211046   6.773   6.556   6.875
 3383SOL     OW11047   0.769   3.992   2.489
 3383SOL    HW111048   0.771   4.079   2.537
 3383SOL    HW211049   0.681   3.980   2.443
 3384SOL     OW11050   3.027   3.120   4.379
 3384SOL    HW111051   3.029   3.175   4.462
 3384SOL    HW211052   2.990   3.174   4.303
 3385SOL     OW11053   0.012   4.163   3.567
 3385SOL    HW111054   0.088   4.226   3.582
 3385SOL    HW211055   6.987   4.143   3.655
 3386SOL     OW11056   5.855   3.504   5.237
 3386SOL    HW111057   5.758   3.512   5.262
 3386SOL    HW211058   5.865   3.522   5.139
 3387SOL     OW11059   3.281   2.067   2.940
 3387SOL    HW111060   3.256   2.070   2.843
 3387SOL    HW211061   3.258   1.976   2.977
 3388SOL     OW11062   5.454   3.045   1.808
 3388SOL    HW111063   5.518   3.084   1.874
 3388SOL    HW211064   5.505   2.991   1.741
 3389SOL     OW11065   4.173   4.721   3.135
 3389SOL    HW111066   4.217   4.798   3.181
 3389SOL    HW211067   4.078   4.713   3.168
 3390SOL     OW11068   4.571   2.533   5.920
 3390SOL    HW111069   4.600   2.491   6.006
 3390SOL    HW211070   4.527   2.464   5.863
 3391SOL     OW11071   3.897   2.184   4.132
 3391SOL    HW111072   3.940   2.252   4.072
 3391SOL    HW211073   3.798   2.185   4.118
 3392SOL     OW11074   4.943   5.957   3.189
 3392SOL    HW111075   4.899   6.028   3.245
 3392SOL    HW211076   4.940   5.870   3.238
 3393SOL     OW11077   6.636   0.791   6.941
 3393SOL    HW111078   6.705   0.753   7.003
 3393SOL    HW211079   6.654   0.888   6.927
 3394SOL     OW11080   5.412   1.218   2.072
 3394SOL    HW111081   5.416   1.176   2.163
 3394SOL    HW211082   5.356   1.162   2.011
 3395SOL     OW11083   1.179   3.684   5.216
 3395SOL    HW111084   1.222   3.705   5.128
 3395SOL    HW211085   1.212   3.595   5.249
 3396SOL     OW11086   6.740   3.581   4.486
 3396SOL    HW111087   6.772   3.610   4.397
 3396SOL    HW211088   6.640   3.587   4.490
 3397SOL     OW11089   2.997   6.184   6.053
 3397SOL    HW111090   3.045   6.240   5.985
 3397SOL    HW211091   2.991   6.234   6.139
 3398SOL     OW11092   0.968   0.567   4.060
 3398SOL    HW111093   0.960   0.471   4.088
 3398SOL    HW211094   1.021   0.573   3.976
 3399SOL     OW11095   4.231   5.407   4.497
 3399SOL    HW111096   4.248   5.315   4.534
 3399SOL    HW211097   4.132   5.420   4.487
 3400SOL     OW11098   4.948   2.126   6.760
 3400SOL    HW111099   5.009   2.204   6.774
 3400SOL    HW211100   4.924   2.120   6.663
 3401SOL     OW11101   0.033   4.648   6.898
 3401SOL    HW111102   6.986   4.712   6.938
 3401SOL    HW211103   0.074   4.688   6.816
 3402SOL     OW11104   5.219   5.178   2.497
 3402SOL    HW111105   5.192   5.090   2.535
 3402SOL    HW211106   5.150   5.209   2.431
 3403SOL     OW11107   3.194   2.024   5.165
 3403SOL    HW111108   3.183   2.116   5.128
 3403SOL    HW211109   3.107   1.974   5.160
 3404SOL     OW11110   4.321   0.375   1.629
 3404SOL    HW111111   4.289   0.458   1.583
 3404SOL    HW211112   4.242   0.320   1.658
 3405SOL     OW11113   5.834   3.569   0.623
 3405SOL    HW111114   5.825   3.550   0.525
 3405SOL    HW211115   5.917   3.622   0.639
 3406SOL     OW11116   0.945   4.531   1.654
 3406SOL    HW111117   0.936   4.434   1.676
 3406SOL    HW211118   0.929   4.544   1.556
 3407SOL     OW11119   1.573   5.392   2.774
 3407SOL    HW111120   1.528   5.409   2.861
 3407SOL    HW211121   1.505   5.377   2.703
 3408SOL     OW11122   5.037   4.097   2.964
 3408SOL    HW111123   5.065   4.001   2.956
 3408SOL    HW211124   5.008   4.116   3.058
 3409SOL     OW11125   2.802   0.730   5.556
 3409SOL    HW111126   2.783   0.820   5.517
 3409SOL    HW211127   2.744   0.716   5.637
 3410SOL     OW11128   0.345   0.786   0.091
 3410SOL    HW111129   0.376   0.864   0.036
 3410SOL    HW211130   0.296   0.721   0.032
 3411SOL     OW11131   4.642   2.592   2.604
 3411SOL    HW111132   4.709   2.579   2.531
 3411SOL    HW211133   4.590   2.676   2.587
 3412SOL     OW11134   3.881   5.565   6.777
 3412SOL    HW111135   3.832   5.612   6.703
 3412SOL    HW211136   3.880   5.467   6.760
 3413SOL     OW11137   4.486   1.706   2.475
 3413SOL    HW111138   4.428   1.766   2.420
 3413SOL    HW211139   4.578   1.703   2.435
 3414SOL     OW11140   3.640   1.325   5.345
 3414SOL    HW111141   3.641   1.404   5.284
 3414SOL    HW211142   3.575   1.257   5.310
 3415SOL     OW11143   0.792   5.493   4.401
 3415SOL    HW111144   0.719   5.459   4.341
 3415SOL    HW211145   0.880   5.479   4.357
 3416SOL     OW11146   2.192   5.056   5.971
 3416SOL    HW111147   2.194   4.963   6.008
 3416SOL    HW211148   2.145   5.055   5.882
 3417SOL     OW11149   5.966   0.769   1.484
 3417SOL    HW111150   5.905   0.796   1.410
 3417SOL    HW211151   5.920   0.703   1.543
 3418SOL     OW11152   3.205   1.957   6.422
 3418SOL    HW111153   3.297   1.968   6.385
 3418SOL    HW211154   3.154   2.043   6.411
 3419SOL     OW11155   4.329   3.714   0.491
 3419SOL    HW111156   4.417   3.756   0.512
 3419SOL    HW211157   4.310   3.642   0.558
 3420SOL     OW11158   4.311   1.733   3.745
 3420SOL    HW111159   4.384   1.738   3.677
 3420SOL    HW211160   4.233   1.684   3.706
 3421SOL     OW11161   0.599   6.682   3.875
 3421SOL    HW111162   0.553   6.725   3.952
 3421SOL    HW211163   0.631   6.752   3.812
 3422SOL     OW11164   3.231   2.146   2.677
 3422SOL    HW111165   3.233   2.112   2.583
 3422SOL    HW211166   3.218   2.246   2.676
 3423SOL     OW11167   2.711   1.042   2.127
 3423SOL    HW111168   2.755   0.955   2.108
 3423SOL    HW211169   2.632   1.027   2.188
 3424SOL     OW11170   4.231   0.711   2.012
 3424SOL    HW111171   4.258   0.806   1.994
 3424SOL    HW211172   4.225   0.662   1.925
 3425SOL     OW11173   4.890   4.308   1.758
 3425SOL    HW111174   4.856   4.298   1.851
 3425SOL    HW211175   4.939   4.395   1.750
 3426SOL     OW11176   4.260   3.601   0.715
 3426SOL    HW111177   4.258   3.503   0.735
 3426SOL    HW211178   4.342   3.642   0.754
 3427SOL     OW11179   0.944   1.201   0.726
 3427SOL    HW111180   1.016   1.268   0.707
 3427SOL    HW211181   0.912   1.161   0.640
 3428SOL     OW11182   4.296   4.677   3.559
 3428SOL    HW111183   4.284   4.607   3.629
 3428SOL    HW211184   4.356   4.643   3.487
 3429SOL     OW11185   0.593   2.993   0.066
 3429SOL    HW111186   0.561   2.974   0.159
 3429SOL    HW211187   0.514   3.009   0.006
 3430SOL     OW11188   1.056   5.882   6.386
 3430SOL    HW111189   1.148   5.918   6.405
 3430SOL    HW211190   1.038   5.805   6.447
 3431SOL     OW11191   1.114   6.148   6.675
 3431SOL    HW111192   1.202   6.119   6.637
 3431SOL    HW211193   1.077   6.076   6.733
 3432SOL     OW11194   2.565   2.165   6.842
 3432SOL    HW111195   2.506   2.206   6.773
 3432SOL    HW211196   2.520   2.085   6.881
 3433SOL     OW11197   4.524   0.778   4.088
 3433SOL    HW111198   4.551   0.686   4.059
 3433SOL    HW211199   4.456   0.770   4.162
 3434SOL     OW11200   4.516   1.937   3.515
 3434SOL    HW111201   4.616   1.943   3.506
 3434SOL    HW211202   4.485   1.848   3.482
 3435SOL     OW11203   0.521   1.264   6.619
 3435SOL    HW111204   0.564   1.175   6.599
 3435SOL    HW211205   0.561   1.301   6.703
 3436SOL     OW11206   4.850   6.846   3.387
 3436SOL    HW111207   4.870   6.941   3.362
 3436SOL    HW211208   4.764   6.843   3.438
 3437SOL     OW11209   4.725   0.525   6.363
 3437SOL    HW111210   4.702   0.445   6.419
 3437SOL    HW211211   4.759   0.495   6.274
 3438SOL     OW11212   1.659   4.261   6.585
 3438SOL    HW111213   1.591   4.322   6.543
 3438SOL    HW211214   1.613   4.178   6.617
 3439SOL     OW11215   2.360   6.908   3.585
 3439SOL    HW111216   2.442   6.941   3.538
 3439SOL    HW211217   2.299   6.864   3.518
 3440SOL     OW11218   3.399   2.037   0.398
 3440SOL    HW111219   3.472   1.994   0.345
 3440SOL    HW211220   3.389   1.990   0.486
 3441SOL     OW11221   3.892   0.782   4.528
 3441SOL    HW111222   3.833   0.860   4.550
 3441SOL    HW211223   3.969   0.780   4.592
 3442SOL     OW11224   0.969   4.758   3.139
 3442SOL    HW111225   1.008   4.666   3.152
 3442SOL    HW211226   1.027   4.825   3.185
 3443SOL     OW11227   6.086   0.227   4.063
 3443SOL    HW111228   6.023   0.302   4.042
 3443SOL    HW211229   6.131   0.196   3.980
 3444SOL     OW11230   4.248   5.245   0.173
 3444SOL    HW111231   4.328   5.194   0.141
 3444SOL    HW211232   4.176   5.239   0.104
 3445SOL     OW11233   5.855   5.145   4.757
 3445SOL    HW111234   5.894   5.063   4.716
 3445SOL    HW211235   5.773   5.172   4.706
 3446SOL     OW11236   3.021   6.541   3.022
 3446SOL    HW111237   3.019   6.641   3.023
 3446SOL    HW211238   2.943   6.506   3.073
 3447SOL     OW11239   6.540   4.998   6.238
 3447SOL    HW111240   6.540   5.065   6.312
 3447SOL    HW211241   6.481   4.921   6.263
 3448SOL     OW11242   3.508   2.323   1.244
 3448SOL    HW111243   3.484   2.346   1.339
 3448SOL    HW211244   3.465   2.237   1.219
 3449SOL     OW11245   5.910   5.969   2.621
 3449SOL    HW111246   5.954   6.054   2.592
 3449SOL    HW211247   5.972   5.918   2.680
 3450SOL     OW11248   0.721   2.290   1.427
 3450SOL    HW111249   0.727   2.333   1.517
 3450SOL    HW211250   0.813   2.273   1.392
 3451SOL     OW11251   1.322   5.422   4.188
 3451SOL    HW111252   1.342   5.490   4.117
 3451SOL    HW211253   1.386   5.346   4.181
 3452SOL     OW11254   6.401   2.546   0.193
 3452SOL    HW111255   6.498   2.537   0.218
 3452SOL    HW211256   6.392   2.608   0.116
 3453SOL     OW11257   6.266   6.324   6.159
 3453SOL    HW111258   6.353   6.341   6.112
 3453SOL    HW211259   6.208   6.266   6.102
 3454SOL     OW11260   0.872   1.154   0.407
 3454SOL    HW111261   0.794   1.196   0.453
 3454SOL    HW211262   0.840   1.101   0.328
 3455SOL     OW11263   2.348   2.448   4.402
 3455SOL    HW111264   2.277   2.384   4.375
 3455SOL    HW211265   2.438   2.409   4.381
 3456SOL     OW11266   6.277   0.141   1.069
 3456SOL    HW111267   6.357   0.189   1.105
 3456SOL    HW211268   6.223   0.104   1.144
 3457SOL     OW11269   2.546   5.872   3.549
 3457SOL    HW111270   2.525   5.964   3.582
 3457SOL    HW211271   2.477   5.808   3.584
 3458SOL     OW11272   5.252   5.261   0.867
 3458SOL    HW111273   5.155   5.241   0.874
 3458SOL    HW211274   5.298   5.188   0.816
 3459SOL     OW11275   0.220   6.345   3.273
 3459SOL    HW111276   0.133   6.383   3.241
 3459SOL    HW211277   0.295   6.382   3.217
 3460SOL     OW11278   3.667   3.168   5.773
 3460SOL    HW111279   3.749   3.216   5.742
 3460SOL    HW211280   3.603   3.158   5.697
 3461SOL     OW11281   2.826   5.879   2.963
 3461SOL    HW111282   2.815   5.790   2.918
 3461SOL    HW211283   2.919   5.913   2.947
 3462SOL     OW11284   4.861   3.192   3.024
 3462SOL    HW111285   4.834   3.140   3.105
 3462SOL    HW211286   4.860   3.131   2.944
 3463SOL     OW11287   2.318   2.677   0.748
 3463SOL    HW111288   2.388   2.747   0.762
 3463SOL    HW211289   2.357   2.599   0.700
 3464SOL     OW11290   4.662   2.111   5.793
 3464SOL    HW111291   4.581   2.119   5.852
 3464SOL    HW211292   4.721   2.190   5.807
 3465SOL     OW11293   1.753   4.615   1.811
 3465SOL    HW111294   1.750   4.679   1.888
 3465SOL    HW211295   1.676   4.633   1.749
 3466SOL     OW11296   6.581   4.757   3.952
 3466SOL    HW111297   6.625   4.711   4.029
 3466SOL    HW211298   6.649   4.808   3.899
 3467SOL     OW11299   3.087   3.120   1.195
 3467SOL    HW111300   3.007   3.113   1.255
 3467SOL    HW211301   3.063   3.087   1.104
 3468SOL     OW11302   3.587   1.794   0.468
 3468SOL    HW111303   3.516   1.821   0.533
 3468SOL    HW211304   3.545   1.746   0.391
 3469SOL     OW11305   3.625   6.256   5.875
 3469SOL    HW111306   3.572   6.173   5.856
 3469SOL    HW211307   3.618   6.278   5.972
 3470SOL     OW11308   1.311   3.177   1.641
 3470SOL    HW111309   1.403   3.211   1.623
 3470SOL    HW211310   1.267   3.236   1.709
 3471SOL     OW11311   5.094   3.382   4.800
 3471SOL    HW111312   5.084   3.471   4.845
 3471SOL    HW211313   5.117   3.396   4.704
 3472SOL     OW11314   4.143   1.652   3.036
 3472SOL    HW111315   4.123   1.589   2.961
 3472SOL    HW211316   4.179   1.738   2.998
 3473SOL     OW11317   6.627   4.880   1.687
 3473SOL    HW111318   6.634   4.867   1.786
 3473SOL    HW211319   6.543   4.929   1.665
 3474SOL     OW11320   5.509   4.685   4.414
 3474SOL    HW111321   5.459   4.753   4.361
 3474SOL    HW211322   5.586   4.651   4.361
 3475SOL     OW11323   6.954   4.766   4.116
 3475SOL    HW111324   6.871   4.797   4.162
 3475SOL    HW211325   0.013   4.823   4.145
 3476SOL     OW11326   1.761   1.386   3.726
 3476SOL    HW111327   1.770   1.470   3.672
 3476SOL    HW211328   1.710   1.405   3.810
 3477SOL     OW11329   1.041   4.166   2.058
 3477SOL    HW111330   0.942   4.179   2.060
 3477SOL    HW211331   1.065   4.087   2.114
 3478SOL     OW11332   1.977   1.057   1.508
 3478SOL    HW111333   2.034   1.116   1.564
 3478SOL    HW211334   1.975   1.092   1.414
 3479SOL     OW11335   1.449   5.214   4.706
 3479SOL    HW111336   1.384   5.161   4.651
 3479SOL    HW211337   1.529   5.157   4.726
 3480SOL     OW11338   1.491   4.596   6.716
 3480SOL    HW111339   1.590   4.603   6.732
 3480SOL    HW211340   1.474   4.536   6.638
 3481SOL     OW11341   5.970   1.172   5.053
 3481SOL    HW111342   6.067   1.147   5.057
 3481SOL    HW211343   5.960   1.260   5.006
 3482SOL     OW11344   5.852   3.332   6.087
 3482SOL    HW111345   5.807   3.398   6.148
 3482SOL    HW211346   5.808   3.335   5.997
 3483SOL     OW11347   5.377   2.979   5.718
 3483SOL    HW111348   5.344   3.012   5.630
 3483SOL    HW211349   5.301   2.979   5.784
 3484SOL     OW11350   1.198   3.973   5.106
 3484SOL    HW111351   1.205   4.068   5.075
 3484SOL    HW211352   1.154   3.969   5.195
 3485SOL     OW11353   6.630   3.062   6.680
 3485SOL    HW111354   6.633   3.017   6.769
 3485SOL    HW211355   6.591   3.153   6.690
 3486SOL     OW11356   2.317   6.082   5.072
 3486SOL    HW111357   2.226   6.114   5.047
 3486SOL    HW211358   2.358   6.147   5.137
 3487SOL     OW11359   4.707   1.065   6.481
 3487SOL    HW111360   4.721   1.142   6.419
 3487SOL    HW211361   4.751   0.984   6.444
 3488SOL     OW11362   5.809   0.433   4.998
 3488SOL    HW111363   5.882   0.394   4.942
 3488SOL    HW211364   5.815   0.395   5.091
 3489SOL     OW11365   2.851   5.982   0.882
 3489SOL    HW111366   2.829   5.982   0.980
 3489SOL    HW211367   2.770   6.008   0.830
 3490SOL     OW11368   3.538   6.723   0.240
 3490SOL    HW111369   3.462   6.754   0.183
 3490SOL    HW211370   3.503   6.667   0.316
 3491SOL     OW11371   4.269   5.008   5.937
 3491SOL    HW111372   4.359   4.985   5.900
 3491SOL    HW211373   4.220   4.923   5.960
 3492SOL     OW11374   6.069   4.113   2.423
 3492SOL    HW111375   6.023   4.056   2.492
 3492SOL    HW211376   6.040   4.208   2.434
 3493SOL     OW11377   6.877   2.958   5.511
 3493SOL    HW111378   6.893   3.038   5.453
 3493SOL    HW211379   6.883   2.875   5.455
 3494SOL     OW11380   4.343   1.684   2.712
 3494SOL    HW111381   4.295   1.771   2.722
 3494SOL    HW211382   4.388   1.680   2.623
 3495SOL     OW11383   0.804   2.975   2.856
 3495SOL    HW111384   0.835   2.892   2.901
 3495SOL    HW211385   0.752   3.031   2.921
 3496SOL     OW11386   5.722   5.544   0.929
 3496SOL    HW111387   5.702   5.596   1.012
 3496SOL    HW211388   5.660   5.466   0.924
 3497SOL     OW11389   3.022   0.083   2.627
 3497SOL    HW111390   3.021   0.064   2.529
 3497SOL    HW211391   2.930   0.104   2.659
 3498SOL     OW11392   2.234   2.493   1.213
 3498SOL    HW111393   2.134   2.490   1.225
 3498SOL    HW211394   2.276   2.521   1.299
 3499SOL     OW11395   6.374   6.027   4.793
 3499SOL    HW111396   6.383   5.978   4.879
 3499SOL    HW211397   6.326   6.113   4.807
 3500SOL     OW11398   2.200   2.193   4.465
 3500SOL    HW111399   2.131   2.123   4.484
 3500SOL    HW211400   2.221   2.243   4.549
 3501SOL     OW11401   1.478   0.369   4.793
 3501SOL    HW111402   1.482   0.294   4.727
 3501SOL    HW211403   1.398   0.359   4.851
 3502SOL     OW11404   4.798   2.906   2.558
 3502SOL    HW111405   4.814   2.920   2.460
 3502SOL    HW211406   4.771   2.993   2.599
 3503SOL     OW11407   6.433   6.450   6.470
 3503SOL    HW111408   6.394   6.363   6.502
 3503SOL    HW211409   6.482   6.494   6.546
 3504SOL     OW11410   1.236   0.634   0.025
 3504SOL    HW111411   1.272   0.541   0.028
 3504SOL    HW211412   1.142   0.635   0.061
 3505SOL     OW11413   5.284   4.812   6.186
 3505SOL    HW111414   5.316   4.736   6.129
 3505SOL    HW211415   5.211   4.861   6.137
 3506SOL     OW11416   4.518   4.912   4.737
 3506SOL    HW111417   4.424   4.918   4.702
 3506SOL    HW211418   4.580   4.960   4.675
 3507SOL     OW11419   2.932   0.709   0.890
 3507SOL    HW111420   2.979   0.789   0.928
 3507SOL    HW211421   2.978   0.626   0.922
 3508SOL     OW11422   3.135   1.700   5.305
 3508SOL    HW111423   3.114   1.743   5.393
 3508SOL    HW211424   3.174   1.610   5.321
 3509SOL     OW11425   3.236   5.718   6.391
 3509SOL    HW111426   3.320   5.762   6.421
 3509SOL    HW211427   3.169   5.718   6.465
 3510SOL     OW11428   2.537   1.247   0.443
 3510SOL    HW111429   2.601   1.224   0.516
 3510SOL    HW211430   2.561   1.336   0.405
 3511SOL     OW11431   3.043   4.291   1.671
 3511SOL    HW111432   3.009   4.363   1.732
 3511SOL    HW211433   3.138   4.270   1.693
 3512SOL     OW11434   0.443   5.275   5.714
 3512SOL    HW111435   0.417   5.269   5.617
 3512SOL    HW211436   0.510   5.204   5.735
 3513SOL     OW11437   6.205   1.726   0.423
 3513SOL    HW111438   6.290   1.779   0.431
 3513SOL    HW211439   6.143   1.772   0.360
 3514SOL     OW11440   3.505   1.250   2.410
 3514SOL    HW111441   3.519   1.267   2.507
 3514SOL    HW211442   3.554   1.167   2.383
 3515SOL     OW11443   0.318   5.383   4.509
 3515SOL    HW111444   0.378   5.462   4.505
 3515SOL    HW211445   0.289   5.359   4.416
 3516SOL     OW11446   4.471   0.233   1.410
 3516SOL    HW111447   4.411   0.275   1.478
 3516SOL    HW211448   4.422   0.160   1.363
 3517SOL     OW11449   5.799   0.499   1.515
 3517SOL    HW111450   5.885   0.502   1.463
 3517SOL    HW211451   5.729   0.452   1.461
 3518SOL     OW11452   4.942   0.824   5.386
 3518SOL    HW111453   4.887   0.860   5.310
 3518SOL    HW211454   5.033   0.799   5.352
 3519SOL     OW11455   3.313   0.618   1.263
 3519SOL    HW111456   3.285   0.687   1.196
 3519SOL    HW211457   3.235   0.596   1.322
 3520SOL     OW11458   2.720   6.096   4.883
 3520SOL    HW111459   2.750   6.034   4.810
 3520SOL    HW211460   2.725   6.048   4.971
 3521SOL     OW11461   2.765   3.080   6.817
 3521SOL    HW111462   2.830   3.100   6.744
 3521SOL    HW211463   2.801   3.006   6.874
 3522SOL     OW11464   0.428   5.634   6.284
 3522SOL    HW111465   0.398   5.539   6.271
 3522SOL    HW211466   0.527   5.637   6.286
 3523SOL     OW11467   2.017   5.715   0.060
 3523SOL    HW111468   2.099   5.771   0.049
 3523SOL    HW211469   1.988   5.682   6.989
 3524SOL     OW11470   5.326   1.018   3.610
 3524SOL    HW111471   5.339   1.088   3.680
 3524SOL    HW211472   5.315   1.062   3.521
 3525SOL     OW11473   0.002   3.396   2.988
 3525SOL    HW111474   7.015   3.353   3.078
 3525SOL    HW211475   0.073   3.350   2.933
 3526SOL     OW11476   0.093   6.737   2.479
 3526SOL    HW111477   0.017   6.720   2.417
 3526SOL    HW211478   0.151   6.655   2.485
 3527SOL     OW11479   0.357   2.417   6.149
 3527SOL    HW111480   0.297   2.498   6.147
 3527SOL    HW211481   0.316   2.347   6.206
 3528SOL     OW11482   2.480   6.042   4.757
 3528SOL    HW111483   2.569   6.047   4.802
 3528SOL    HW211484   2.408   6.061   4.824
 3529SOL     OW11485   4.217   5.411   0.989
 3529SOL    HW111486   4.317   5.409   0.996
 3529SOL    HW211487   4.185   5.324   0.950
 3530SOL     OW11488   6.440   6.352   1.553
 3530SOL    HW111489   6.458   6.391   1.643
 3530SOL    HW211490   6.510   6.384   1.489
 3531SOL     OW11491   5.171   1.984   0.232
 3531SOL    HW111492   5.199   1.909   0.173
 3531SOL    HW211493   5.084   1.961   0.277
 3532SOL     OW11494   2.038   1.547   2.149
 3532SOL    HW111495   2.020   1.449   2.139
 3532SOL    HW211496   1.983   1.598   2.083
 3533SOL     OW11497   1.118   1.603   3.206
 3533SOL    HW111498   1.084   1.675   3.267
 3533SOL    HW211499   1.156   1.644   3.123
 3534SOL     OW11500   0.213   1.219   1.131
 3534SOL    HW111501   0.291   1.239   1.191
 3534SOL    HW211502   0.242   1.230   1.035
 3535SOL     OW11503   2.757   5.612   4.380
 3535SOL    HW111504   2.841   5.646   4.339
 3535SOL    HW211505   2.760   5.627   4.479
 3536SOL     OW11506   3.866   2.088   2.601
 3536SOL    HW111507   3.870   2.016   2.531
 3536SOL    HW211508   3.781   2.141   2.589
 3537SOL     OW11509   2.334   0.053   3.235
 3537SOL    HW111510   2.397   0.131   3.237
 3537SOL    HW211511   2.386   6.987   3.222
 3538SOL     OW11512   3.391   5.266   3.635
 3538SOL    HW111513   3.409   5.220   3.548
 3538SOL    HW211514   3.438   5.354   3.638
 3539SOL     OW11515   3.805   3.421   4.412
 3539SOL    HW111516   3.742   3.460   4.345
 3539SOL    HW211517   3.881   3.376   4.365
 3540SOL     OW11518   1.855   2.436   3.521
 3540SOL    HW111519   1.793   2.439   3.600
 3540SOL    HW211520   1.804   2.459   3.438
 3541SOL     OW11521   3.705   4.113   3.992
 3541SOL    HW111522   3.780   4.157   3.943
 3541SOL    HW211523   3.637   4.081   3.925
 3542SOL     OW11524   0.166   5.025   1.359
 3542SOL    HW111525   0.073   5.060   1.346
 3542SOL    HW211526   0.163   4.946   1.420
 3543SOL     OW11527   5.976   2.732   5.206
 3543SOL    HW111528   5.950   2.635   5.201
 3543SOL    HW211529   5.920   2.784   5.141
 3544SOL     OW11530   1.753   6.046   0.094
 3544SOL    HW111531   1.821   6.080   0.159
 3544SOL    HW211532   1.723   5.954   0.123
 3545SOL     OW11533   3.196   5.250   0.221
 3545SOL    HW111534   3.214   5.162   0.178
 3545SOL    HW211535   3.119   5.240   0.285
 3546SOL     OW11536   6.400   4.743   2.828
 3546SOL    HW111537   6.453   4.737   2.913
 3546SOL    HW211538   6.313   4.788   2.846
 3547SOL     OW11539   5.197   4.650   4.515
 3547SOL    HW111540   5.187   4.706   4.597
 3547SOL    HW211541   5.291   4.654   4.483
 3548SOL     OW11542   4.634   2.953   5.483
 3548SOL    HW111543   4.694   2.932   5.560
 3548SOL    HW211544   4.604   3.048   5.489
 3549SOL     OW11545   5.919   3.641   2.403
 3549SOL    HW111546   5.822   3.626   2.386
 3549SOL    HW211547   5.961   3.556   2.434
 3550SOL     OW11548   5.851   1.929   2.544
 3550SOL    HW111549   5.864   1.965   2.636
 3550SOL    HW211550   5.838   2.006   2.481
 3551SOL     OW11551   2.490   6.937   3.019
 3551SOL    HW111552   2.399   6.959   2.984
 3551SOL    HW211553   2.557   6.947   2.945
 3552SOL     OW11554   6.939   4.469   3.188
 3552SOL    HW111555   6.903   4.400   3.251
 3552SOL    HW211556   0.020   4.466   3.188
 3553SOL     OW11557   5.766   2.048   3.090
 3553SOL    HW111558   5.706   2.126   3.071
 3553SOL    HW211559   5.861   2.077   3.085
 3554SOL     OW11560   3.701   5.727   6.594
 3554SOL    HW111561   3.676   5.813   6.639
 3554SOL    HW211562   3.631   5.658   6.614
 3555SOL     OW11563   0.431   3.059   3.612
 3555SOL    HW111564   0.380   3.029   3.531
 3555SOL    HW211565   0.481   2.982   3.650
 3556SOL     OW11566   4.226   0.740   6.312
 3556SOL    HW111567   4.317   0.734   6.353
 3556SOL    HW211568   4.234   0.769   6.216
 3557SOL     OW11569   0.697   0.804   4.419
 3557SOL    HW111570   0.685   0.884   4.479
 3557SOL    HW211571   0.774   0.820   4.358
 3558SOL     OW11572   0.032   5.446   1.457
 3558SOL    HW111573   0.000   5.435   1.363
 3558SOL    HW211574   0.005   5.537   1.490
 3559SOL     OW11575   0.876   0.659   5.613
 3559SOL    HW111576   0.945   0.664   5.685
 3559SOL    HW211577   0.911   0.603   5.538
 3560SOL     OW11578   6.976   6.387   1.871
 3560SOL    HW111579   0.035   6.448   1.886
 3560SOL    HW211580   7.007   6.306   1.821
 3561SOL     OW11581   4.625   4.372   4.097
 3561SOL    HW111582   4.695   4.424   4.147
 3561SOL    HW211583   4.661   4.282   4.073
 3562SOL     OW11584   4.597   2.352   3.249
 3562SOL    HW111585   4.613   2.256   3.273
 3562SOL    HW211586   4.615   2.366   3.152
 3563SOL     OW11587   4.582   0.457   1.297
 3563SOL    HW111588   4.543   0.373   1.336
 3563SOL    HW211589   4.661   0.485   1.351
 3564SOL     OW11590   6.881   4.145   2.930
 3564SOL    HW111591   6.979   4.166   2.931
 3564SOL    HW211592   6.852   4.131   2.835
 3565SOL     OW11593   1.691   0.884   4.897
 3565SOL    HW111594   1.684   0.801   4.843
 3565SOL    HW211595   1.609   0.940   4.885
 3566SOL     OW11596   0.974   3.907   6.023
 3566SOL    HW111597   0.917   3.905   5.941
 3566SOL    HW211598   0.918   3.934   6.102
 3567SOL     OW11599   0.213   2.698   0.952
 3567SOL    HW111600   0.131   2.697   0.895
 3567SOL    HW211601   0.215   2.782   1.007
 3568SOL     OW11602   5.455   3.863   3.702
 3568SOL    HW111603   5.375   3.922   3.692
 3568SOL    HW211604   5.444   3.805   3.782
 3569SOL     OW11605   3.539   2.936   3.965
 3569SOL    HW111606   3.559   3.031   3.940
 3569SOL    HW211607   3.510   2.886   3.884
 3570SOL     OW11608   0.754   2.315   5.391
 3570SOL    HW111609   0.773   2.241   5.455
 3570SOL    HW211610   0.840   2.361   5.366
 3571SOL     OW11611   2.387   6.644   4.729
 3571SOL    HW111612   2.463   6.644   4.664
 3571SOL    HW211613   2.388   6.559   4.783
 3572SOL     OW11614   4.870   4.835   1.743
 3572SOL    HW111615   4.899   4.917   1.694
 3572SOL    HW211616   4.833   4.861   1.832
 3573SOL     OW11617   0.669   4.512   3.475
 3573SOL    HW111618   0.732   4.568   3.421
 3573SOL    HW211619   0.644   4.561   3.558
 3574SOL     OW11620   1.999   1.546   5.754
 3574SOL    HW111621   2.081   1.513   5.706
 3574SOL    HW211622   1.950   1.610   5.695
 3575SOL     OW11623   5.088   0.238   0.070
 3575SOL    HW111624   5.172   0.190   0.047
 3575SOL    HW211625   5.109   0.331   0.101
 3576SOL     OW11626   1.441   2.184   0.442
 3576SOL    HW111627   1.535   2.149   0.449
 3576SOL    HW211628   1.434   2.270   0.494
 3577SOL     OW11629   1.827   2.903   4.906
 3577SOL    HW111630   1.906   2.842   4.915
 3577SOL    HW211631   1.748   2.851   4.874
 3578SOL     OW11632   3.616   2.654   6.224
 3578SOL    HW111633   3.573   2.596   6.293
 3578SOL    HW211634   3.618   2.605   6.136
 3579SOL     OW11635   0.634   3.780   1.816
 3579SOL    HW111636   0.568   3.808   1.886
 3579SOL    HW211637   0.596   3.706   1.762
 3580SOL     OW11638   6.945   4.189   1.869
 3580SOL    HW111639   6.954   4.277   1.916
 3580SOL    HW211640   0.012   4.167   1.822
 3581SOL     OW11641   1.570   0.492   2.386
 3581SOL    HW111642   1.479   0.508   2.424
 3581SOL    HW211643   1.571   0.523   2.291
 3582SOL     OW11644   4.005   5.398   6.131
 3582SOL    HW111645   3.933   5.445   6.081
 3582SOL    HW211646   4.078   5.371   6.067
 3583SOL     OW11647   1.013   4.833   1.193
 3583SOL    HW111648   1.094   4.783   1.162
 3583SOL    HW211649   1.018   4.846   1.292
 3584SOL     OW11650   6.293   4.852   4.713
 3584SOL    HW111651   6.323   4.778   4.773
 3584SOL    HW211652   6.341   4.936   4.736
 3585SOL     OW11653   3.189   1.578   3.978
 3585SOL    HW111654   3.282   1.547   3.997
 3585SOL    HW211655   3.125   1.526   4.034
 3586SOL     OW11656   0.170   1.714   5.027
 3586SOL    HW111657   0.172   1.623   5.069
 3586SOL    HW211658   0.139   1.705   4.932
 3587SOL     OW11659   3.077   0.284   6.186
 3587SOL    HW111660   3.053   0.374   6.223
 3587SOL    HW211661   3.022   0.213   6.231
 3588SOL     OW11662   5.943   4.601   4.730
 3588SOL    HW111663   5.861   4.620   4.784
 3588SOL    HW211664   6.016   4.568   4.790
 3589SOL     OW11665   0.896   0.032   6.076
 3589SOL    HW111666   0.855   6.987   6.010
 3589SOL    HW211667   0.832   0.107   6.095
 3590SOL     OW11668   0.062   5.248   5.892
 3590SOL    HW111669   7.001   5.275   5.945
 3590SOL    HW211670   0.057   5.150   5.871
 3591SOL     OW11671   6.011   1.213   6.859
 3591SOL    HW111672   5.913   1.213   6.838
 3591SOL    HW211673   6.042   1.308   6.873
 3592SOL     OW11674   1.507   6.551   1.159
 3592SOL    HW111675   1.500   6.592   1.250
 3592SOL    HW211676   1.466   6.614   1.092
 3593SOL     OW11677   4.039   3.059   5.325
 3593SOL    HW111678   3.951   3.040   5.282
 3593SOL    HW211679   4.060   3.157   5.315
 3594SOL     OW11680   4.819   4.723   5.246
 3594SOL    HW111681   4.917   4.746   5.241
 3594SOL    HW211682   4.809   4.634   5.289
 3595SOL     OW11683   5.717   6.165   4.467
 3595SOL    HW111684   5.689   6.242   4.525
 3595SOL    HW211685   5.732   6.085   4.525
 3596SOL     OW11686   3.881   1.759   3.067
 3596SOL    HW111687   3.958   1.701   3.040
 3596SOL    HW211688   3.854   1.816   2.990
 3597SOL     OW11689   3.361   3.562   5.591
 3597SOL    HW111690   3.376   3.541   5.494
 3597SOL    HW211691   3.386   3.657   5.608
 3598SOL     OW11692   0.305   5.442   4.885
 3598SOL    HW111693   0.322   5.521   4.827
 3598SOL    HW211694   0.354   5.453   4.972
 3599SOL     OW11695   2.778   1.128   5.097
 3599SOL    HW111696   2.841   1.184   5.042
 3599SOL    HW211697   2.764   1.171   5.186
 3600SOL     OW11698   3.114   3.983   6.519
 3600SOL    HW111699   3.069   3.955   6.605
 3600SOL    HW211700   3.065   3.943   6.442
 3601SOL     OW11701   4.790   1.131   5.284
 3601SOL    HW111702   4.885   1.148   5.260
 3601SOL    HW211703   4.780   1.039   5.319
 3602SOL     OW11704   1.520   1.941   1.323
 3602SOL    HW111705   1.590   1.997   1.368
 3602SOL    HW211706   1.472   1.886   1.392
 3603SOL     OW11707   2.461   0.371   5.239
 3603SOL    HW111708   2.539   0.393   5.180
 3603SOL    HW211709   2.382   0.425   5.212
 3604SOL     OW11710   0.097   0.587   3.533
 3604SOL    HW111711   0.051   0.547   3.454
 3604SOL    HW211712   0.045   0.568   3.616
 3605SOL     OW11713   1.091   6.805   4.715
 3605SOL    HW111714   1.145   6.836   4.794
 3605SOL    HW211715   0.995   6.802   4.740
 3606SOL     OW11716   1.880   0.381   2.021
 3606SOL    HW111717   1.802   0.320   2.034
 3606SOL    HW211718   1.880   0.416   1.927
 3607SOL     OW11719   6.304   1.723   3.247
 3607SOL    HW111720   6.287   1.795   3.313
 3607SOL    HW211721   6.396   1.686   3.262
 3608SOL     OW11722   2.944   1.745   5.894
 3608SOL    HW111723   2.993   1.658   5.896
 3608SOL    HW211724   2.989   1.810   5.956
 3609SOL     OW11725   3.753   0.702   5.498
 3609SOL    HW111726   3.761   0.794   5.535
 3609SOL    HW211727   3.831   0.682   5.438
 3610SOL     OW11728   1.567   0.582   5.767
 3610SOL    HW111729   1.524   0.510   5.713
 3610SOL    HW211730   1.665   0.565   5.774
 3611SOL     OW11731   5.657   4.418   2.891
 3611SOL    HW111732   5.710   4.390   2.811
 3611SOL    HW211733   5.563   4.438   2.864
 3612SOL     OW11734   5.238   1.547   0.025
 3612SOL    HW111735   5.319   1.508   0.067
 3612SOL    HW211736   5.225   1.641   0.057
 3613SOL     OW11737   3.824   6.519   3.122
 3613SOL    HW111738   3.788   6.524   3.029
 3613SOL    HW211739   3.860   6.609   3.149
 3614SOL     OW11740   3.525   5.872   6.766
 3614SOL    HW111741   3.511   5.971   6.779
 3614SOL    HW211742   3.438   5.828   6.745
 3615SOL     OW11743   5.355   2.584   5.513
 3615SOL    HW111744   5.256   2.570   5.517
 3615SOL    HW211745   5.395   2.561   5.602
 3616SOL     OW11746   1.710   2.202   0.545
 3616SOL    HW111747   1.760   2.119   0.572
 3616SOL    HW211748   1.757   2.246   0.469
 3617SOL     OW11749   3.979   5.995   5.791
 3617SOL    HW111750   4.070   6.010   5.830
 3617SOL    HW211751   3.985   5.928   5.717
 3618SOL     OW11752   1.071   5.414   4.353
 3618SOL    HW111753   1.057   5.318   4.377
 3618SOL    HW211754   1.151   5.422   4.293
 3619SOL     OW11755   5.808   2.634   1.936
 3619SOL    HW111756   5.866   2.594   1.865
 3619SOL    HW211757   5.800   2.570   2.013
 3620SOL     OW11758   5.779   6.044   4.759
 3620SOL    HW111759   5.786   6.140   4.787
 3620SOL    HW211760   5.699   6.003   4.802
 3621SOL     OW11761   3.453   3.160   3.670
 3621SOL    HW111762   3.475   3.226   3.598
 3621SOL    HW211763   3.442   3.207   3.757
 3622SOL     OW11764   1.475   5.804   6.008
 3622SOL    HW111765   1.388   5.854   6.000
 3622SOL    HW211766   1.551   5.867   5.993
 3623SOL     OW11767   1.244   5.870   5.771
 3623SOL    HW111768   1.150   5.860   5.804
 3623SOL    HW211769   1.254   5.959   5.725
 3624SOL     OW11770   2.301   2.206   2.061
 3624SOL    HW111771   2.238   2.278   2.034
 3624SOL    HW211772   2.250   2.124   2.086
 3625SOL     OW11773   6.563   2.393   0.643
 3625SOL    HW111774   6.632   2.378   0.714
 3625SOL    HW211775   6.531   2.488   0.648
 3626SOL     OW11776   1.827   3.179   5.746
 3626SOL    HW111777   1.835   3.081   5.762
 3626SOL    HW211778   1.791   3.223   5.829
 3627SOL     OW11779   3.532   1.787   2.434
 3627SOL    HW111780   3.530   1.797   2.533
 3627SOL    HW211781   3.480   1.861   2.391
 3628SOL     OW11782   5.961   1.431   1.833
 3628SOL    HW111783   5.862   1.447   1.839
 3628SOL    HW211784   6.002   1.501   1.773
 3629SOL     OW11785   1.602   1.606   4.302
 3629SOL    HW111786   1.696   1.610   4.269
 3629SOL    HW211787   1.581   1.512   4.331
 3630SOL     OW11788   6.694   2.089   2.216
 3630SOL    HW111789   6.760   2.018   2.192
 3630SOL    HW211790   6.642   2.060   2.297
 3631SOL     OW11791   1.958   6.469   2.452
 3631SOL    HW111792   1.958   6.484   2.551
 3631SOL    HW211793   1.865   6.452   2.421
 3632SOL     OW11794   4.876   3.259   2.327
 3632SOL    HW111795   4.909   3.292   2.415
 3632SOL    HW211796   4.860   3.337   2.266
 3633SOL     OW11797   4.009   4.378   0.176
 3633SOL    HW111798   3.934   4.414   0.231
 3633SOL    HW211799   4.092   4.373   0.231
 3634SOL     OW11800   2.980   5.171   6.603
 3634SOL    HW111801   3.048   5.135   6.539
 3634SOL    HW211802   2.924   5.240   6.557
 3635SOL     OW11803   0.870   6.597   2.142
 3635SOL    HW111804   0.866   6.561   2.235
 3635SOL    HW211805   0.853   6.524   2.076
 3636SOL     OW11806   0.324   5.416   5.906
 3636SOL    HW111807   0.367   5.361   5.834
 3636SOL    HW211808   0.325   5.513   5.880
 3637SOL     OW11809   6.028   3.233   0.221
 3637SOL    HW111810   6.104   3.167   0.221
 3637SOL    HW211811   6.002   3.254   0.127
 3638SOL     OW11812   0.322   3.307   3.288
 3638SOL    HW111813   0.419   3.326   3.302
 3638SOL    HW211814   0.271   3.393   3.288
 3639SOL     OW11815   4.163   3.365   4.382
 3639SOL    HW111816   4.175   3.384   4.284
 3639SOL    HW211817   4.146   3.268   4.396
 3640SOL     OW11818   4.320   2.026   1.892
 3640SOL    HW111819   4.260   2.100   1.923
 3640SOL    HW211820   4.390   2.010   1.961
 3641SOL     OW11821   6.222   3.512   2.319
 3641SOL    HW111822   6.238   3.462   2.404
 3641SOL    HW211823   6.178   3.452   2.253
 3642SOL     OW11824   4.894   4.055   6.706
 3642SOL    HW111825   4.930   4.126   6.766
 3642SOL    HW211826   4.802   4.029   6.736
 3643SOL     OW11827   4.302   6.150   5.313
 3643SOL    HW111828   4.280   6.218   5.383
 3643SOL    HW211829   4.291   6.058   5.350
 3644SOL     OW11830   2.930   0.919   1.824
 3644SOL    HW111831   2.945   1.018   1.835
 3644SOL    HW211832   2.905   0.880   1.912
 3645SOL     OW11833   1.365   4.083   3.482
 3645SOL    HW111834   1.340   4.172   3.444
 3645SOL    HW211835   1.462   4.066   3.464
 3646SOL     OW11836   1.818   5.110   5.978
 3646SOL    HW111837   1.889   5.178   5.959
 3646SOL    HW211838   1.786   5.121   6.072
 3647SOL     OW11839   3.259   6.719   6.844
 3647SOL    HW111840   3.263   6.638   6.903
 3647SOL    HW211841   3.198   6.701   6.767
 3648SOL     OW11842   4.764   4.910   3.174
 3648SOL    HW111843   4.800   4.846   3.242
 3648SOL    HW211844   4.826   4.988   3.165
 3649SOL     OW11845   5.716   2.438   0.450
 3649SOL    HW111846   5.689   2.491   0.370
 3649SOL    HW211847   5.635   2.407   0.499
 3650SOL     OW11848   5.078   5.772   6.209
 3650SOL    HW111849   5.173   5.795   6.189
 3650SOL    HW211850   5.031   5.749   6.124
 3651SOL     OW11851   0.913   2.171   5.832
 3651SOL    HW111852   0.986   2.105   5.814
 3651SOL    HW211853   0.836   2.125   5.876
 3652SOL     OW11854   4.755   2.147   2.501
 3652SOL    HW111855   4.683   2.170   2.566
 3652SOL    HW211856   4.730   2.179   2.410
 3653SOL     OW11857   1.969   1.277   0.774
 3653SOL    HW111858   1.914   1.194   0.771
 3653SOL    HW211859   2.064   1.253   0.794
 3654SOL     OW11860   4.463   6.942   2.180
 3654SOL    HW111861   4.363   6.939   2.169
 3654SOL    HW211862   4.485   6.958   2.276
 3655SOL     OW11863   1.109   0.558   3.805
 3655SOL    HW111864   1.112   0.651   3.768
 3655SOL    HW211865   1.034   0.507   3.762
 3656SOL     OW11866   0.013   0.146   1.225
 3656SOL    HW111867   6.984   0.076   1.172
 3656SOL    HW211868   6.968   0.220   1.248
 3657SOL     OW11869   5.876   5.323   6.265
 3657SOL    HW111870   5.782   5.314   6.233
 3657SOL    HW211871   5.907   5.235   6.301
 3658SOL     OW11872   1.922   4.581   5.447
 3658SOL    HW111873   1.951   4.622   5.360
 3658SOL    HW211874   1.981   4.503   5.468
 3659SOL     OW11875   0.565   2.676   6.799
 3659SOL    HW111876   0.637   2.726   6.752
 3659SOL    HW211877   0.494   2.740   6.830
 3660SOL     OW11878   4.200   5.318   5.510
 3660SOL    HW111879   4.255   5.360   5.437
 3660SOL    HW211880   4.178   5.388   5.578
 3661SOL     OW11881   0.157   1.077   4.314
 3661SOL    HW111882   0.166   0.979   4.329
 3661SOL    HW211883   0.123   1.093   4.221
 3662SOL     OW11884   3.087   1.759   5.629
 3662SOL    HW111885   3.048   1.674   5.591
 3662SOL    HW211886   3.052   1.773   5.721
 3663SOL     OW11887   2.314   2.598   6.425
 3663SOL    HW111888   2.305   2.647   6.339
 3663SOL    HW211889   2.395   2.539   6.422
 3664SOL     OW11890   3.150   2.020   1.023
 3664SOL    HW111891   3.086   2.074   0.969
 3664SOL    HW211892   3.100   1.954   1.079
 3665SOL     OW11893   6.980   5.093   5.504
 3665SOL    HW111894   6.925   5.090   5.587
 3665SOL    HW211895   0.053   5.056   5.523
 3666SOL     OW11896   2.087   3.634   4.277
 3666SOL    HW111897   2.118   3.640   4.372
 3666SOL    HW211898   2.145   3.691   4.219
 3667SOL     OW11899   1.894   6.877   0.669
 3667SOL    HW111900   1.839   6.824   0.734
 3667SOL    HW211901   1.988   6.883   0.703
 3668SOL     OW11902   5.935   1.481   0.812
 3668SOL    HW111903   6.003   1.464   0.884
 3668SOL    HW211904   5.970   1.550   0.749
 3669SOL     OW11905   0.422   1.216   2.519
 3669SOL    HW111906   0.449   1.127   2.555
 3669SOL    HW211907   0.345   1.205   2.457
 3670SOL     OW11908   2.190   6.623   1.882
 3670SOL    HW111909   2.243   6.546   1.918
 3670SOL    HW211910   2.187   6.696   1.949
 3671SOL     OW11911   0.150   0.593   4.780
 3671SOL    HW111912   0.108   0.503   4.768
 3671SOL    HW211913   0.126   0.630   4.869
 3672SOL     OW11914   4.002   7.010   3.611
 3672SOL    HW111915   4.023   6.918   3.577
 3672SOL    HW211916   4.007   7.010   3.711
 3673SOL     OW11917   3.180   0.945   1.412
 3673SOL    HW111918   3.174   1.003   1.493
 3673SOL    HW211919   3.170   0.849   1.440
 3674SOL     OW11920   0.555   4.480   5.832
 3674SOL    HW111921   0.548   4.400   5.772
 3674SOL    HW211922   0.476   4.482   5.894
 3675SOL     OW11923   6.971   0.811   4.188
 3675SOL    HW111924   6.996   0.740   4.253
 3675SOL    HW211925   6.879   0.845   4.210
 3676SOL     OW11926   3.473   1.084   5.539
 3676SOL    HW111927   3.573   1.093   5.539
 3676SOL    HW211928   3.438   1.089   5.632
 3677SOL     OW11929   1.424   1.307   4.357
 3677SOL    HW111930   1.513   1.266   4.376
 3677SOL    HW211931   1.354   1.262   4.414
 3678SOL     OW11932   2.344   1.162   3.460
 3678SOL    HW111933   2.401   1.211   3.525
 3678SOL    HW211934   2.396   1.087   3.419
 3679SOL     OW11935   3.209   0.676   2.978
 3679SOL    HW111936   3.204   0.580   3.006
 3679SOL    HW211937   3.157   0.732   3.042
 3680SOL     OW11938   3.131   2.163   4.271
 3680SOL    HW111939   3.214   2.217   4.258
 3680SOL    HW211940   3.149   2.089   4.335
 3681SOL     OW11941   1.107   6.929   4.050
 3681SOL    HW111942   1.131   6.970   4.138
 3681SOL    HW211943   1.191   6.912   3.998
 3682SOL     OW11944   5.336   2.219   1.322
 3682SOL    HW111945   5.335   2.317   1.342
 3682SOL    HW211946   5.248   2.193   1.282
 3683SOL     OW11947   6.624   1.455   0.694
 3683SOL    HW111948   6.627   1.404   0.608
 3683SOL    HW211949   6.590   1.547   0.677
 3684SOL     OW11950   2.719   6.233   5.888
 3684SOL    HW111951   2.717   6.188   5.977
 3684SOL    HW211952   2.791   6.302   5.888
 3685SOL     OW11953   2.259   5.930   3.776
 3685SOL    HW111954   2.232   5.863   3.707
 3685SOL    HW211955   2.355   5.918   3.800
 3686SOL     OW11956   6.994   3.988   0.156
 3686SOL    HW111957   6.994   4.023   0.250
 3686SOL    HW211958   6.917   3.925   0.145
 3687SOL     OW11959   5.952   4.451   4.481
 3687SOL    HW111960   5.981   4.518   4.549
 3687SOL    HW211961   6.008   4.460   4.399
 3688SOL     OW11962   6.890   2.861   1.126
 3688SOL    HW111963   6.924   2.953   1.146
 3688SOL    HW211964   6.957   2.794   1.157
 3689SOL     OW11965   1.251   1.114   5.775
 3689SOL    HW111966   1.313   1.038   5.793
 3689SOL    HW211967   1.244   1.172   5.857
 3690SOL     OW11968   5.920   4.727   1.782
 3690SOL    HW111969   5.897   4.630   1.792
 3690SOL    HW211970   5.886   4.761   1.694
 3691SOL     OW11971   1.684   2.381   0.770
 3691SOL    HW111972   1.662   2.316   0.698
 3691SOL    HW211973   1.772   2.425   0.750
 3692SOL     OW11974   1.016   3.154   5.645
 3692SOL    HW111975   1.024   3.055   5.633
 3692SOL    HW211976   1.049   3.180   5.736
 3693SOL     OW11977   0.034   1.620   2.448
 3693SOL    HW111978   0.116   1.572   2.482
 3693SOL    HW211979   6.992   1.555   2.403
 3694SOL     OW11980   6.905   6.760   2.222
 3694SOL    HW111981   6.879   6.732   2.130
 3694SOL    HW211982   6.824   6.791   2.272
 3695SOL     OW11983   6.104   3.830   3.631
 3695SOL    HW111984   6.071   3.881   3.711
 3695SOL    HW211985   6.181   3.879   3.590
 3696SOL     OW11986   4.573   0.454   4.042
 3696SOL    HW111987   4.474   0.458   4.049
 3696SOL    HW211988   4.605   0.522   3.976
 3697SOL     OW11989   6.329   5.380   2.693
 3697SOL    HW111990   6.420   5.420   2.702
 3697SOL    HW211991   6.335   5.281   2.703
 3698SOL     OW11992   1.810   6.993   4.043
 3698SOL    HW111993   1.750   0.028   3.984
 3698SOL    HW211994   1.903   6.996   4.006
 3699SOL     OW11995   2.586   2.522   3.265
 3699SOL    HW111996   2.557   2.476   3.181
 3699SOL    HW211997   2.643   2.600   3.243
 3700SOL     OW11998   0.941   5.030   4.647
 3700SOL    HW111999   0.961   4.950   4.705
 3700SOL    HW212000   0.919   5.108   4.706
 3701SOL     OW12001   0.454   1.166   2.134
 3701SOL    HW112002   0.429   1.112   2.214
 3701SOL    HW212003   0.518   1.114   2.077
 3702SOL     OW12004   6.613   4.456   3.474
 3702SOL    HW112005   6.586   4.471   3.378
 3702SOL    HW212006   6.658   4.538   3.509
 3703SOL     OW12007   1.233   1.949   3.216
 3703SOL    HW112008   1.263   1.872   3.273
 3703SOL    HW212009   1.312   1.994   3.176
 3704SOL     OW12010   6.022   0.355   1.020
 3704SOL    HW112011   6.111   0.321   1.048
 3704SOL    HW212012   5.979   0.288   0.958
 3705SOL     OW12013   6.100   4.110   3.935
 3705SOL    HW112014   6.187   4.066   3.958
 3705SOL    HW212015   6.111   4.209   3.940
 3706SOL     OW12016   0.931   5.062   6.304
 3706SOL    HW112017   0.866   4.989   6.328
 3706SOL    HW212018   0.915   5.090   6.209
 3707SOL     OW12019   0.763   4.866   3.396
 3707SOL    HW112020   0.676   4.828   3.365
 3707SOL    HW212021   0.823   4.792   3.426
 3708SOL     OW12022   1.403   6.353   0.323
 3708SOL    HW112023   1.331   6.307   0.272
 3708SOL    HW212024   1.378   6.448   0.339
 3709SOL     OW12025   0.864   1.807   2.248
 3709SOL    HW112026   0.837   1.764   2.335
 3709SOL    HW212027   0.835   1.902   2.248
 3710SOL     OW12028   1.900   4.001   4.757
 3710SOL    HW112029   1.868   3.915   4.716
 3710SOL    HW212030   1.979   3.983   4.815
 3711SOL     OW12031   2.298   5.621   4.982
 3711SOL    HW112032   2.200   5.636   4.996
 3711SOL    HW212033   2.321   5.527   5.007
 3712SOL     OW12034   3.083   5.401   4.281
 3712SOL    HW112035   3.052   5.319   4.233
 3712SOL    HW212036   3.144   5.375   4.355
 3713SOL     OW12037   5.804   0.335   5.281
 3713SOL    HW112038   5.781   0.337   5.378
 3713SOL    HW212039   5.859   0.254   5.262
 3714SOL     OW12040   0.200   4.229   6.731
 3714SOL    HW112041   0.105   4.231   6.762
 3714SOL    HW212042   0.220   4.140   6.690
 3715SOL     OW12043   6.266   4.405   3.698
 3715SOL    HW112044   6.236   4.439   3.609
 3715SOL    HW212045   6.323   4.324   3.685
 3716SOL     OW12046   5.636   5.772   5.976
 3716SOL    HW112047   5.717   5.737   6.023
 3716SOL    HW212048   5.650   5.766   5.877
 3717SOL     OW12049   4.598   0.375   1.018
 3717SOL    HW112050   4.587   0.386   1.116
 3717SOL    HW212051   4.624   0.463   0.977
 3718SOL     OW12052   5.633   6.940   6.671
 3718SOL    HW112053   5.714   6.950   6.614
 3718SOL    HW212054   5.582   6.858   6.644
 3719SOL     OW12055   2.844   4.533   0.325
 3719SOL    HW112056   2.866   4.554   0.420
 3719SOL    HW212057   2.847   4.616   0.270
 3720SOL     OW12058   7.005   2.855   0.854
 3720SOL    HW112059   6.921   2.891   0.814
 3720SOL    HW212060   7.013   2.884   0.949
 3721SOL     OW12061   6.113   0.206   5.628
 3721SOL    HW112062   6.181   0.177   5.561
 3721SOL    HW212063   6.138   0.297   5.664
 3722SOL     OW12064   6.019   6.491   1.853
 3722SOL    HW112065   6.003   6.454   1.945
 3722SOL    HW212066   6.117   6.488   1.834
 3723SOL     OW12067   4.779   4.448   6.573
 3723SOL    HW112068   4.859   4.396   6.543
 3723SOL    HW212069   4.696   4.404   6.538
 3724SOL     OW12070   6.666   4.300   4.564
 3724SOL    HW112071   6.624   4.390   4.551
 3724SOL    HW212072   6.735   4.286   4.492
 3725SOL     OW12073   0.976   5.848   0.309
 3725SOL    HW112074   0.906   5.846   0.380
 3725SOL    HW212075   0.943   5.900   0.230
 3726SOL     OW12076   6.394   3.360   5.493
 3726SOL    HW112077   6.394   3.382   5.590
 3726SOL    HW212078   6.426   3.266   5.480
 3727SOL     OW12079   6.479   2.150   4.071
 3727SOL    HW112080   6.467   2.051   4.078
 3727SOL    HW212081   6.479   2.177   3.975
 3728SOL     OW12082   2.039   4.247   0.917
 3728SOL    HW112083   2.028   4.247   0.817
 3728SOL    HW212084   2.111   4.312   0.943
 3729SOL     OW12085   0.540   0.125   5.822
 3729SOL    HW112086   0.573   0.138   5.916
 3729SOL    HW212087   0.462   0.062   5.823
 3730SOL     OW12088   4.946   5.177   4.966
 3730SOL    HW112089   4.983   5.104   4.908
 3730SOL    HW212090   5.004   5.258   4.959
 3731SOL     OW12091   0.094   2.029   0.735
 3731SOL    HW112092   0.125   1.936   0.757
 3731SOL    HW212093   0.135   2.093   0.800
 3732SOL     OW12094   3.635   3.078   6.610
 3732SOL    HW112095   3.570   3.032   6.670
 3732SOL    HW212096   3.586   3.133   6.543
 3733SOL     OW12097   1.419   1.072   3.462
 3733SOL    HW112098   1.480   1.146   3.490
 3733SOL    HW212099   1.441   0.990   3.514
 3734SOL     OW12100   3.680   6.842   2.066
 3734SOL    HW112101   3.668   6.848   2.165
 3734SOL    HW212102   3.623   6.911   2.021
 3735SOL     OW12103   4.508   0.693   2.807
 3735SOL    HW112104   4.493   0.658   2.714
 3735SOL    HW212105   4.542   0.787   2.801
 3736SOL     OW12106   0.488   1.618   0.243
 3736SOL    HW112107   0.522   1.705   0.208
 3736SOL    HW212108   0.504   1.613   0.342
 3737SOL     OW12109   6.053   2.061   3.125
 3737SOL    HW112110   6.095   2.023   3.042
 3737SOL    HW212111   6.095   2.149   3.147
 3738SOL     OW12112   0.517   0.632   1.079
 3738SOL    HW112113   0.562   0.680   1.004
 3738SOL    HW212114   0.507   0.694   1.157
 3739SOL     OW12115   2.998   4.430   6.894
 3739SOL    HW112116   2.964   4.524   6.883
 3739SOL    HW212117   2.931   4.365   6.859
 3740SOL     OW12118   5.808   6.242   6.794
 3740SOL    HW112119   5.803   6.198   6.704
 3740SOL    HW212120   5.804   6.341   6.781
 3741SOL     OW12121   5.417   3.796   0.304
 3741SOL    HW112122   5.444   3.728   0.371
 3741SOL    HW212123   5.440   3.763   0.212
 3742SOL     OW12124   4.484   5.428   1.026
 3742SOL    HW112125   4.520   5.339   1.053
 3742SOL    HW212126   4.548   5.474   0.964
 3743SOL     OW12127   2.789   4.374   0.802
 3743SOL    HW112128   2.763   4.334   0.715
 3743SOL    HW212129   2.731   4.339   0.875
 3744SOL     OW12130   6.360   5.802   2.556
 3744SOL    HW112131   6.328   5.755   2.473
 3744SOL    HW212132   6.340   5.745   2.636
 3745SOL     OW12133   4.938   2.554   3.032
 3745SOL    HW112134   4.881   2.633   3.012
 3745SOL    HW212135   4.933   2.488   2.957
 3746SOL     OW12136   5.569   6.968   4.592
 3746SOL    HW112137   5.475   6.933   4.600
 3746SOL    HW212138   5.566   0.048   4.575
 3747SOL     OW12139   2.905   5.849   5.363
 3747SOL    HW112140   2.833   5.916   5.342
 3747SOL    HW212141   2.966   5.841   5.284
 3748SOL     OW12142   5.051   2.372   3.786
 3748SOL    HW112143   5.131   2.432   3.788
 3748SOL    HW212144   4.986   2.406   3.719
 3749SOL     OW12145   6.578   6.537   2.243
 3749SOL    HW112146   6.561   6.630   2.212
 3749SOL    HW212147   6.612   6.481   2.167
 3750SOL     OW12148   5.793   4.177   1.217
 3750SOL    HW112149   5.783   4.175   1.316
 3750SOL    HW212150   5.863   4.112   1.189
 3751SOL     OW12151   0.916   4.271   1.735
 3751SOL    HW112152   0.956   4.199   1.678
 3751SOL    HW212153   0.942   4.256   1.830
 3752SOL     OW12154   0.747   6.455   5.938
 3752SOL    HW112155   0.747   6.386   6.010
 3752SOL    HW212156   0.779   6.542   5.975
 3753SOL     OW12157   0.081   0.663   5.035
 3753SOL    HW112158   0.076   0.639   5.132
 3753SOL    HW212159   7.007   0.665   4.996
 3754SOL     OW12160   6.638   6.091   1.548
 3754SOL    HW112161   6.685   6.179   1.548
 3754SOL    HW212162   6.567   6.091   1.477
 3755SOL     OW12163   4.995   2.780   2.708
 3755SOL    HW112164   5.012   2.684   2.688
 3755SOL    HW212165   4.954   2.824   2.628
 3756SOL     OW12166   3.422   0.018   0.273
 3756SOL    HW112167   3.351   6.999   0.214
 3756SOL    HW212168   3.457   6.965   0.334
 3757SOL     OW12169   3.803   5.064   6.597
 3757SOL    HW112170   3.781   5.039   6.692
 3757SOL    HW212171   3.724   5.043   6.539
 3758SOL     OW12172   6.783   0.609   2.532
 3758SOL    HW112173   6.872   0.597   2.489
 3758SOL    HW212174   6.755   0.524   2.575
 3759SOL     OW12175   4.997   5.164   0.895
 3759SOL    HW112176   4.970   5.198   0.985
 3759SOL    HW212177   4.924   5.182   0.829
 3760SOL     OW12178   1.822   1.941   5.976
 3760SOL    HW112179   1.896   2.008   5.970
 3760SOL    HW212180   1.802   1.922   6.072
 3761SOL     OW12181   6.908   6.359   4.152
 3761SOL    HW112182   6.832   6.357   4.087
 3761SOL    HW212183   6.928   6.266   4.182
 3762SOL     OW12184   0.553   2.942   0.348
 3762SOL    HW112185   0.492   3.021   0.351
 3762SOL    HW212186   0.636   2.962   0.400
 3763SOL     OW12187   6.922   3.786   5.543
 3763SOL    HW112188   6.909   3.688   5.530
 3763SOL    HW212189   6.932   3.806   5.640
 3764SOL     OW12190   2.714   7.017   4.199
 3764SOL    HW112191   2.639   6.987   4.258
 3764SOL    HW212192   2.700   0.094   4.172
 3765SOL     OW12193   5.690   1.404   3.366
 3765SOL    HW112194   5.726   1.497   3.362
 3765SOL    HW212195   5.762   1.339   3.340
 3766SOL     OW12196   1.626   0.922   5.146
 3766SOL    HW112197   1.681   0.896   5.066
 3766SOL    HW212198   1.529   0.919   5.122
 3767SOL     OW12199   0.667   4.539   0.019
 3767SOL    HW112200   0.763   4.558   0.039
 3767SOL    HW212201   0.640   4.452   0.061
 3768SOL     OW12202   4.121   6.744   1.403
 3768SOL    HW112203   4.154   6.794   1.323
 3768SOL    HW212204   4.174   6.659   1.413
 3769SOL     OW12205   4.421   6.943   5.075
 3769SOL    HW112206   4.458   6.886   5.001
 3769SOL    HW212207   4.429   6.894   5.161
 3770SOL     OW12208   2.745   2.438   0.596
 3770SOL    HW112209   2.648   2.415   0.598
 3770SOL    HW212210   2.771   2.464   0.503
 3771SOL     OW12211   4.352   1.815   5.196
 3771SOL    HW112212   4.437   1.860   5.224
 3771SOL    HW212213   4.365   1.716   5.193
 3772SOL     OW12214   4.723   0.517   2.571
 3772SOL    HW112215   4.631   0.540   2.542
 3772SOL    HW212216   4.721   0.433   2.625
 3773SOL     OW12217   6.384   1.908   0.766
 3773SOL    HW112218   6.376   1.974   0.691
 3773SOL    HW212219   6.452   1.941   0.832
 3774SOL     OW12220   1.087   2.115   2.247
 3774SOL    HW112221   1.106   2.204   2.205
 3774SOL    HW212222   0.993   2.088   2.226
 3775SOL     OW12223   5.499   3.204   3.554
 3775SOL    HW112224   5.464   3.291   3.587
 3775SOL    HW212225   5.597   3.197   3.573
 3776SOL     OW12226   3.184   2.445   6.602
 3776SOL    HW112227   3.258   2.410   6.659
 3776SOL    HW212228   3.193   2.544   6.592
 3777SOL     OW12229   1.253   3.897   2.984
 3777SOL    HW112230   1.333   3.946   3.018
 3777SOL    HW212231   1.226   3.827   3.050
 3778SOL     OW12232   2.690   6.640   2.041
 3778SOL    HW112233   2.628   6.565   2.066
 3778SOL    HW212234   2.733   6.676   2.124
 3779SOL     OW12235   2.069   4.745   0.138
 3779SOL    HW112236   2.034   4.771   0.228
 3779SOL    HW212237   2.153   4.693   0.149
 3780SOL     OW12238   2.595   0.417   3.892
 3780SOL    HW112239   2.557   0.334   3.850
 3780SOL    HW212240   2.540   0.443   3.971
 3781SOL     OW12241   2.778   5.422   4.997
 3781SOL    HW112242   2.793   5.519   4.982
 3781SOL    HW212243   2.826   5.393   5.080
 3782SOL     OW12244   2.777   1.021   2.693
 3782SOL    HW112245   2.742   1.084   2.762
 3782SOL    HW212246   2.827   1.073   2.624
 3783SOL     OW12247   5.308   5.677   5.171
 3783SOL    HW112248   5.328   5.606   5.239
 3783SOL    HW212249   5.283   5.634   5.084
 3784SOL     OW12250   5.089   1.983   4.311
 3784SOL    HW112251   5.071   1.938   4.398
 3784SOL    HW212252   5.004   2.021   4.275
 3785SOL     OW12253   1.205   1.438   2.243
 3785SOL    HW112254   1.253   1.482   2.166
 3785SOL    HW212255   1.269   1.380   2.293
 3786SOL     OW12256   3.213   6.316   2.918
 3786SOL    HW112257   3.252   6.248   2.979
 3786SOL    HW212258   3.205   6.404   2.966
 3787SOL     OW12259   4.180   1.087   4.157
 3787SOL    HW112260   4.197   1.091   4.255
 3787SOL    HW212261   4.161   0.993   4.130
 3788SOL     OW12262   6.559   3.434   2.296
 3788SOL    HW112263   6.489   3.380   2.343
 3788SOL    HW212264   6.646   3.386   2.300
 3789SOL     OW12265   1.278   5.558   2.351
 3789SOL    HW112266   1.360   5.503   2.338
 3789SOL    HW212267   1.198   5.506   2.323
 3790SOL     OW12268   2.071   3.091   3.000
 3790SOL    HW112269   2.095   3.187   3.017
 3790SOL    HW212270   2.022   3.084   2.913
 3791SOL     OW12271   6.235   0.588   2.580
 3791SOL    HW112272   6.331   0.560   2.586
 3791SOL    HW212273   6.225   0.652   2.503
 3792SOL     OW12274   0.292   6.891   6.102
 3792SOL    HW112275   0.311   6.850   6.191
 3792SOL    HW212276   0.230   6.968   6.113
 3793SOL     OW12277   1.097   6.367   3.034
 3793SOL    HW112278   1.162   6.350   2.960
 3793SOL    HW212279   1.005   6.342   3.004
 3794SOL     OW12280   3.978   6.734   3.579
 3794SOL    HW112281   3.991   6.655   3.638
 3794SOL    HW212282   3.912   6.711   3.507
 3795SOL     OW12283   5.457   0.170   0.735
 3795SOL    HW112284   5.501   0.081   0.748
 3795SOL    HW212285   5.477   0.229   0.813
 3796SOL     OW12286   1.215   3.201   0.578
 3796SOL    HW112287   1.292   3.258   0.607
 3796SOL    HW212288   1.153   3.187   0.656
 3797SOL     OW12289   0.056   5.385   1.994
 3797SOL    HW112290   0.128   5.453   1.981
 3797SOL    HW212291   0.077   5.330   2.075
 3798SOL     OW12292   0.634   4.165   1.242
 3798SOL    HW112293   0.617   4.076   1.285
 3798SOL    HW212294   0.731   4.189   1.252
 3799SOL     OW12295   1.277   0.258   4.967
 3799SOL    HW112296   1.195   0.272   4.912
 3799SOL    HW212297   1.253   0.266   5.064
 3800SOL     OW12298   5.078   2.573   5.391
 3800SOL    HW112299   5.132   2.600   5.312
 3800SOL    HW212300   5.016   2.648   5.417
 3801SOL     OW12301   6.772   0.124   6.635
 3801SOL    HW112302   6.831   0.105   6.714
 3801SOL    HW212303   6.678   0.137   6.666
 3802SOL     OW12304   1.341   2.661   5.461
 3802SOL    HW112305   1.421   2.658   5.402
 3802SOL    HW212306   1.367   2.638   5.555
 3803SOL     OW12307   4.194   0.966   1.217
 3803SOL    HW112308   4.234   1.032   1.281
 3803SOL    HW212309   4.133   0.904   1.266
 3804SOL     OW12310   5.116   2.779   5.048
 3804SOL    HW112311   5.177   2.748   5.121
 3804SOL    HW212312   5.108   2.879   5.052
 3805SOL     OW12313   1.926   3.922   1.771
 3805SOL    HW112314   1.973   3.866   1.840
 3805SOL    HW212315   1.925   4.017   1.800
 3806SOL     OW12316   3.470   1.453   0.755
 3806SOL    HW112317   3.466   1.410   0.664
 3806SOL    HW212318   3.472   1.382   0.825
 3807SOL     OW12319   1.488   0.053   3.025
 3807SOL    HW112320   1.573   0.027   2.981
 3807SOL    HW212321   1.411   0.005   2.982
 3808SOL     OW12322   2.995   0.500   1.126
 3808SOL    HW112323   3.072   0.477   1.186
 3808SOL    HW212324   2.971   0.420   1.070
 3809SOL     OW12325   3.852   0.393   6.727
 3809SOL    HW112326   3.914   0.379   6.650
 3809SOL    HW212327   3.901   0.439   6.801
 3810SOL     OW12328   2.326   3.638   6.094
 3810SOL    HW112329   2.332   3.575   6.172
 3810SOL    HW212330   2.349   3.589   6.010
 3811SOL     OW12331   1.132   0.650   6.077
 3811SOL    HW112332   1.121   0.675   5.981
 3811SOL    HW212333   1.171   0.558   6.083
 3812SOL     OW12334   5.377   0.739   6.005
 3812SOL    HW112335   5.477   0.742   6.000
 3812SOL    HW212336   5.339   0.805   5.940
 3813SOL     OW12337   3.893   4.869   1.927
 3813SOL    HW112338   3.803   4.837   1.957
 3813SOL    HW212339   3.906   4.845   1.830
 3814SOL     OW12340   1.965   0.794   1.973
 3814SOL    HW112341   1.869   0.778   1.997
 3814SOL    HW212342   1.974   0.885   1.931
 3815SOL     OW12343   5.615   1.986   1.751
 3815SOL    HW112344   5.715   1.988   1.748
 3815SOL    HW212345   5.579   1.985   1.658
 3816SOL     OW12346   0.135   6.498   1.144
 3816SOL    HW112347   0.180   6.412   1.119
 3816SOL    HW212348   0.204   6.565   1.169
 3817SOL     OW12349   4.752   1.476   5.483
 3817SOL    HW112350   4.724   1.557   5.431
 3817SOL    HW212351   4.821   1.502   5.551
 3818SOL     OW12352   4.680   5.469   3.096
 3818SOL    HW112353   4.712   5.561   3.116
 3818SOL    HW212354   4.656   5.422   3.181
 3819SOL     OW12355   6.305   4.390   5.961
 3819SOL    HW112356   6.238   4.455   5.925
 3819SOL    HW212357   6.294   4.302   5.916
 3820SOL     OW12358   4.828   6.130   3.348
 3820SOL    HW112359   4.843   6.229   3.341
 3820SOL    HW212360   4.814   6.105   3.444
 3821SOL     OW12361   7.014   4.671   1.435
 3821SOL    HW112362   0.011   4.642   1.530
 3821SOL    HW212363   7.005   4.590   1.377
 3822SOL     OW12364   0.627   4.651   1.643
 3822SOL    HW112365   0.655   4.703   1.563
 3822SOL    HW212366   0.622   4.554   1.618
 3823SOL     OW12367   2.729   3.228   5.727
 3823SOL    HW112368   2.761   3.315   5.765
 3823SOL    HW212369   2.799   3.192   5.665
 3824SOL     OW12370   6.776   2.187   6.163
 3824SOL    HW112371   6.830   2.198   6.246
 3824SOL    HW212372   6.719   2.269   6.150
 3825SOL     OW12373   6.321   6.611   5.801
 3825SOL    HW112374   6.379   6.623   5.881
 3825SOL    HW212375   6.255   6.686   5.796
 3826SOL     OW12376   6.989   1.829   1.253
 3826SOL    HW112377   6.940   1.860   1.172
 3826SOL    HW212378   0.066   1.813   1.230
 3827SOL     OW12379   5.598   2.132   1.164
 3827SOL    HW112380   5.655   2.204   1.124
 3827SOL    HW212381   5.519   2.173   1.209
 3828SOL     OW12382   4.296   1.190   1.357
 3828SOL    HW112383   4.262   1.273   1.401
 3828SOL    HW212384   4.396   1.196   1.349
 3829SOL     OW12385   1.173   4.973   3.584
 3829SOL    HW112386   1.214   5.062   3.606
 3829SOL    HW212387   1.119   4.982   3.500
 3830SOL     OW12388   3.140   0.739   5.580
 3830SOL    HW112389   3.203   0.667   5.609
 3830SOL    HW212390   3.048   0.701   5.571
 3831SOL     OW12391   4.690   1.578   2.029
 3831SOL    HW112392   4.686   1.673   2.000
 3831SOL    HW212393   4.598   1.543   2.044
 3832SOL     OW12394   5.307   0.065   2.560
 3832SOL    HW112395   5.334   0.088   2.466
 3832SOL    HW212396   5.225   0.008   2.557
 3833SOL     OW12397   1.563   6.493   1.603
 3833SOL    HW112398   1.558   6.565   1.672
 3833SOL    HW212399   1.651   6.446   1.610
 3834SOL     OW12400   2.794   2.877   0.616
 3834SOL    HW112401   2.880   2.925   0.631
 3834SOL    HW212402   2.795   2.791   0.668
 3835SOL     OW12403   3.564   5.479   3.684
 3835SOL    HW112404   3.564   5.540   3.605
 3835SOL    HW212405   3.658   5.465   3.715
 3836SOL     OW12406   1.687   3.017   5.268
 3836SOL    HW112407   1.761   3.079   5.243
 3836SOL    HW212408   1.691   2.997   5.366
 3837SOL     OW12409   3.261   3.498   0.026
 3837SOL    HW112410   3.234   3.565   6.976
 3837SOL    HW212411   3.342   3.448   7.013
 3838SOL     OW12412   5.795   3.033   5.227
 3838SOL    HW112413   5.715   3.065   5.278
 3838SOL    HW212414   5.869   3.101   5.235
 3839SOL     OW12415   0.425   6.166   6.148
 3839SOL    HW112416   0.370   6.102   6.094
 3839SOL    HW212417   0.372   6.248   6.168
 3840SOL     OW12418   2.330   1.033   3.936
 3840SOL    HW112419   2.277   1.056   3.854
 3840SOL    HW212420   2.304   1.095   4.010
 3841SOL     OW12421   0.867   3.854   4.100
 3841SOL    HW112422   0.939   3.814   4.044
 3841SOL    HW212423   0.872   3.819   4.193
 3842SOL     OW12424   1.648   5.596   6.965
 3842SOL    HW112425   1.704   5.522   7.004
 3842SOL    HW212426   1.669   5.682   7.012
 3843SOL     OW12427   5.726   4.243   0.352
 3843SOL    HW112428   5.638   4.196   0.352
 3843SOL    HW212429   5.713   4.338   0.322
 3844SOL     OW12430   2.487   4.419   5.674
 3844SOL    HW112431   2.580   4.390   5.697
 3844SOL    HW212432   2.480   4.518   5.686
 3845SOL     OW12433   3.186   3.455   3.846
 3845SOL    HW112434   3.263   3.491   3.793
 3845SOL    HW212435   3.220   3.415   3.931
 3846SOL     OW12436   6.695   4.568   4.121
 3846SOL    HW112437   6.773   4.559   4.183
 3846SOL    HW212438   6.702   4.500   4.049
 3847SOL     OW12439   0.732   6.956   0.784
 3847SOL    HW112440   0.659   6.944   0.717
 3847SOL    HW212441   0.758   0.034   0.788
 3848SOL     OW12442   2.848   5.928   1.572
 3848SOL    HW112443   2.896   5.843   1.595
 3848SOL    HW212444   2.906   5.984   1.512
 3849SOL     OW12445   2.423   1.412   5.971
 3849SOL    HW112446   2.393   1.355   5.895
 3849SOL    HW212447   2.357   1.404   6.046
 3850SOL     OW12448   1.881   3.996   1.503
 3850SOL    HW112449   1.913   3.957   1.589
 3850SOL    HW212450   1.944   4.068   1.474
 3851SOL     OW12451   2.872   2.619   1.224
 3851SOL    HW112452   2.895   2.697   1.166
 3851SOL    HW212453   2.810   2.649   1.297
 3852SOL     OW12454   4.082   1.017   5.183
 3852SOL    HW112455   4.098   1.077   5.105
 3852SOL    HW212456   3.991   1.034   5.221
 3853SOL     OW12457   0.964   3.296   1.895
 3853SOL    HW112458   0.907   3.237   1.952
 3853SOL    HW212459   1.060   3.280   1.917
 3854SOL     OW12460   1.569   3.015   4.242
 3854SOL    HW112461   1.605   3.105   4.266
 3854SOL    HW212462   1.614   2.945   4.297
 3855SOL     OW12463   7.011   1.724   4.796
 3855SOL    HW112464   6.953   1.677   4.730
 3855SOL    HW212465   6.954   1.776   4.860
 3856SOL     OW12466   1.030   6.237   5.782
 3856SOL    HW112467   0.939   6.257   5.745
 3856SOL    HW212468   1.029   6.252   5.881
 3857SOL     OW12469   0.840   0.291   6.283
 3857SOL    HW112470   0.920   0.252   6.329
 3857SOL    HW212471   0.867   0.375   6.236
 3858SOL     OW12472   2.667   5.346   0.010
 3858SOL    HW112473   2.689   5.350   6.931
 3858SOL    HW212474   2.751   5.331   0.063
 3859SOL     OW12475   6.096   2.863   2.246
 3859SOL    HW112476   6.023   2.831   2.306
 3859SOL    HW212477   6.163   2.790   2.233
 3860SOL     OW12478   2.205   5.951   5.379
 3860SOL    HW112479   2.159   6.037   5.360
 3860SOL    HW212480   2.279   5.966   5.446
 3861SOL     OW12481   3.761   4.345   0.313
 3861SOL    HW112482   3.777   4.354   0.412
 3861SOL    HW212483   3.718   4.257   0.294
 3862SOL     OW12484   0.421   5.641   5.416
 3862SOL    HW112485   0.497   5.578   5.426
 3862SOL    HW212486   0.456   5.730   5.386
 3863SOL     OW12487   2.909   3.605   0.743
 3863SOL    HW112488   2.900   3.676   0.674
 3863SOL    HW212489   2.982   3.541   0.716
 3864SOL     OW12490   2.981   1.649   0.798
 3864SOL    HW112491   3.078   1.638   0.779
 3864SOL    HW212492   2.957   1.747   0.795
 3865SOL     OW12493   4.057   0.575   2.236
 3865SOL    HW112494   4.037   0.489   2.189
 3865SOL    HW212495   4.101   0.638   2.172
 3866SOL     OW12496   3.152   6.208   6.518
 3866SOL    HW112497   3.210   6.216   6.437
 3866SOL    HW212498   3.168   6.286   6.578
 3867SOL     OW12499   1.517   4.937   3.481
 3867SOL    HW112500   1.464   4.984   3.410
 3867SOL    HW212501   1.611   4.927   3.451
 3868SOL     OW12502   2.669   5.870   2.572
 3868SOL    HW112503   2.640   5.955   2.616
 3868SOL    HW212504   2.594   5.834   2.516
 3869SOL     OW12505   0.451   1.429   3.900
 3869SOL    HW112506   0.466   1.339   3.941
 3869SOL    HW212507   0.425   1.418   3.804
 3870SOL     OW12508   3.545   4.092   0.310
 3870SOL    HW112509   3.607   4.090   0.388
 3870SOL    HW212510   3.484   4.171   0.318
 3871SOL     OW12511   3.240   1.265   5.250
 3871SOL    HW112512   3.257   1.363   5.263
 3871SOL    HW212513   3.179   1.251   5.173
 3872SOL     OW12514   4.400   3.776   1.125
 3872SOL    HW112515   4.334   3.701   1.135
 3872SOL    HW212516   4.452   3.787   1.209
 3873SOL     OW12517   5.785   4.849   1.980
 3873SOL    HW112518   5.844   4.842   1.900
 3873SOL    HW212519   5.821   4.790   2.053
 3874SOL     OW12520   4.450   5.570   5.828
 3874SOL    HW112521   4.525   5.561   5.763
 3874SOL    HW212522   4.379   5.629   5.790
 3875SOL     OW12523   2.664   4.036   0.333
 3875SOL    HW112524   2.622   4.115   0.378
 3875SOL    HW212525   2.718   3.985   0.400
 3876SOL     OW12526   5.712   3.765   2.142
 3876SOL    HW112527   5.655   3.684   2.125
 3876SOL    HW212528   5.719   3.782   2.240
 3877SOL     OW12529   4.716   1.839   1.954
 3877SOL    HW112530   4.703   1.869   1.859
 3877SOL    HW212531   4.763   1.911   2.005
 3878SOL     OW12532   4.596   5.865   4.770
 3878SOL    HW112533   4.543   5.866   4.855
 3878SOL    HW212534   4.534   5.878   4.692
 3879SOL     OW12535   2.603   6.085   1.166
 3879SOL    HW112536   2.676   6.017   1.168
 3879SOL    HW212537   2.515   6.039   1.153
 3880SOL     OW12538   6.131   1.916   4.201
 3880SOL    HW112539   6.073   1.988   4.164
 3880SOL    HW212540   6.185   1.952   4.277
 3881SOL     OW12541   0.405   5.866   6.947
 3881SOL    HW112542   0.447   5.845   0.018
 3881SOL    HW212543   0.315   5.823   6.942
 3882SOL     OW12544   0.142   6.226   6.488
 3882SOL    HW112545   0.134   6.128   6.472
 3882SOL    HW212546   0.216   6.244   6.553
 3883SOL     OW12547   3.773   2.188   0.003
 3883SOL    HW112548   3.811   2.098   7.004
 3883SOL    HW212549   3.842   2.246   0.046
 3884SOL     OW12550   1.982   5.025   5.789
 3884SOL    HW112551   2.010   5.112   5.750
 3884SOL    HW212552   1.901   5.038   5.846
 3885SOL     OW12553   6.658   0.808   4.507
 3885SOL    HW112554   6.750   0.816   4.544
 3885SOL    HW212555   6.650   0.866   4.425
 3886SOL     OW12556   0.052   5.829   4.979
 3886SOL    HW112557   0.087   5.814   4.887
 3886SOL    HW212558   7.014   5.752   5.008
 3887SOL     OW12559   5.661   2.412   4.800
 3887SOL    HW112560   5.663   2.313   4.795
 3887SOL    HW212561   5.738   2.445   4.855
 3888SOL     OW12562   5.496   1.341   2.535
 3888SOL    HW112563   5.526   1.415   2.476
 3888SOL    HW212564   5.576   1.289   2.566
 3889SOL     OW12565   6.579   5.680   6.773
 3889SOL    HW112566   6.614   5.774   6.777
 3889SOL    HW212567   6.479   5.681   6.781
 3890SOL     OW12568   6.320   3.213   3.055
 3890SOL    HW112569   6.337   3.277   2.979
 3890SOL    HW212570   6.397   3.217   3.119
 3891SOL     OW12571   4.762   4.881   5.807
 3891SOL    HW112572   4.665   4.859   5.820
 3891SOL    HW212573   4.777   4.978   5.824
 3892SOL     OW12574   5.895   5.609   3.974
 3892SOL    HW112575   5.963   5.650   4.035
 3892SOL    HW212576   5.824   5.677   3.954
 3893SOL     OW12577   2.932   6.412   4.587
 3893SOL    HW112578   2.987   6.349   4.643
 3893SOL    HW212579   2.945   6.391   4.491
 3894SOL     OW12580   5.932   5.058   6.737
 3894SOL    HW112581   5.903   5.148   6.706
 3894SOL    HW212582   6.011   5.028   6.683
 3895SOL     OW12583   1.731   1.908   6.240
 3895SOL    HW112584   1.646   1.862   6.211
 3895SOL    HW212585   1.774   1.855   6.313
 3896SOL     OW12586   6.343   3.452   0.423
 3896SOL    HW112587   6.434   3.471   0.458
 3896SOL    HW212588   6.281   3.430   0.500
 3897SOL     OW12589   3.312   6.795   3.503
 3897SOL    HW112590   3.343   6.701   3.513
 3897SOL    HW212591   3.388   6.853   3.473
 3898SOL     OW12592   3.267   3.281   4.144
 3898SOL    HW112593   3.212   3.332   4.211
 3898SOL    HW212594   3.225   3.192   4.128
 3899SOL     OW12595   4.162   1.719   6.341
 3899SOL    HW112596   4.134   1.809   6.310
 3899SOL    HW212597   4.092   1.652   6.318
 3900SOL     OW12598   0.770   2.545   4.023
 3900SOL    HW112599   0.726   2.469   4.070
 3900SOL    HW212600   0.869   2.539   4.036
 3901SOL     OW12601   3.375   5.722   5.731
 3901SOL    HW112602   3.436   5.763   5.798
 3901SOL    HW212603   3.281   5.724   5.766
 3902SOL     OW12604   3.794   5.525   2.789
 3902SOL    HW112605   3.760   5.431   2.795
 3902SOL    HW212606   3.725   5.588   2.822
 3903SOL     OW12607   3.755   3.871   5.770
 3903SOL    HW112608   3.781   3.798   5.834
 3903SOL    HW212609   3.697   3.937   5.818
 3904SOL     OW12610   1.886   6.356   6.901
 3904SOL    HW112611   1.965   6.402   6.861
 3904SOL    HW212612   1.816   6.342   6.830
 3905SOL     OW12613   4.696   6.832   5.771
 3905SOL    HW112614   4.756   6.863   5.844
 3905SOL    HW212615   4.615   6.891   5.767
 3906SOL     OW12616   6.819   5.916   4.247
 3906SOL    HW112617   6.733   5.948   4.287
 3906SOL    HW212618   6.827   5.817   4.260
 3907SOL     OW12619   0.427   1.688   4.325
 3907SOL    HW112620   0.463   1.776   4.292
 3907SOL    HW212621   0.461   1.615   4.267
 3908SOL     OW12622   2.152   0.760   4.469
 3908SOL    HW112623   2.089   0.721   4.536
 3908SOL    HW212624   2.112   0.843   4.431
 3909SOL     OW12625   5.260   3.866   1.915
 3909SOL    HW112626   5.226   3.794   1.975
 3909SOL    HW212627   5.351   3.893   1.944
 3910SOL     OW12628   2.430   2.765   1.060
 3910SOL    HW112629   2.446   2.675   1.101
 3910SOL    HW212630   2.364   2.816   1.115
 3911SOL     OW12631   0.071   1.472   1.107
 3911SOL    HW112632   7.012   1.486   1.045
 3911SOL    HW212633   0.100   1.376   1.103
 3912SOL     OW12634   4.540   3.950   0.436
 3912SOL    HW112635   4.605   4.022   0.411
 3912SOL    HW212636   4.503   3.968   0.527
 3913SOL     OW12637   4.063   5.132   1.313
 3913SOL    HW112638   4.079   5.231   1.305
 3913SOL    HW212639   4.043   5.109   1.408
 3914SOL     OW12640   0.161   0.845   0.778
 3914SOL    HW112641   0.138   0.748   0.792
 3914SOL    HW212642   0.183   0.886   0.866
 3915SOL     OW12643   5.530   0.416   5.244
 3915SOL    HW112644   5.613   0.362   5.236
 3915SOL    HW212645   5.553   0.509   5.275
 3916SOL     OW12646   1.792   2.619   2.310
 3916SOL    HW112647   1.767   2.627   2.213
 3916SOL    HW212648   1.857   2.545   2.322
 3917SOL     OW12649   4.564   5.439   2.438
 3917SOL    HW112650   4.479   5.407   2.396
 3917SOL    HW212651   4.595   5.522   2.391
 3918SOL     OW12652   4.253   6.875   1.158
 3918SOL    HW112653   4.256   6.788   1.108
 3918SOL    HW212654   4.196   6.940   1.108
 3919SOL     OW12655   5.415   5.498   3.136
 3919SOL    HW112656   5.415   5.505   3.036
 3919SOL    HW212657   5.400   5.403   3.162
 3920SOL     OW12658   3.691   1.708   5.846
 3920SOL    HW112659   3.703   1.794   5.895
 3920SOL    HW212660   3.594   1.684   5.845
 3921SOL     OW12661   1.771   2.993   6.315
 3921SOL    HW112662   1.710   3.064   6.349
 3921SOL    HW212663   1.724   2.905   6.315
 3922SOL     OW12664   5.337   2.252   3.897
 3922SOL    HW112665   5.351   2.350   3.904
 3922SOL    HW212666   5.248   2.234   3.855
 3923SOL     OW12667   5.781   0.903   1.252
 3923SOL    HW112668   5.721   0.834   1.212
 3923SOL    HW212669   5.728   0.984   1.277
 3924SOL     OW12670   5.346   4.890   4.276
 3924SOL    HW112671   5.363   4.981   4.312
 3924SOL    HW212672   5.250   4.880   4.252
 3925SOL     OW12673   3.307   5.168   1.543
 3925SOL    HW112674   3.342   5.091   1.596
 3925SOL    HW212675   3.211   5.184   1.566
 3926SOL     OW12676   1.296   6.131   5.344
 3926SOL    HW112677   1.364   6.204   5.340
 3926SOL    HW212678   1.336   6.046   5.310
 3927SOL     OW12679   5.890   6.760   5.398
 3927SOL    HW112680   5.923   6.697   5.328
 3927SOL    HW212681   5.966   6.814   5.433
 3928SOL     OW12682   4.494   5.624   2.745
 3928SOL    HW112683   4.460   5.530   2.745
 3928SOL    HW212684   4.524   5.649   2.653
 3929SOL     OW12685   1.623   0.901   5.524
 3929SOL    HW112686   1.708   0.918   5.474
 3929SOL    HW212687   1.546   0.903   5.460
 3930SOL     OW12688   2.563   6.061   4.494
 3930SOL    HW112689   2.528   6.055   4.588
 3930SOL    HW212690   2.510   6.000   4.435
 3931SOL     OW12691   0.639   2.379   0.106
 3931SOL    HW112692   0.668   2.461   0.055
 3931SOL    HW212693   0.606   2.406   0.196
 3932SOL     OW12694   2.153   3.941   2.888
 3932SOL    HW112695   2.186   4.034   2.873
 3932SOL    HW212696   2.053   3.940   2.882
 3933SOL     OW12697   1.840   6.385   1.468
 3933SOL    HW112698   1.841   6.433   1.555
 3933SOL    HW212699   1.921   6.327   1.462
 3934SOL     OW12700   1.878   6.722   1.849
 3934SOL    HW112701   1.841   6.758   1.764
 3934SOL    HW212702   1.975   6.743   1.855
 3935SOL     OW12703   0.365   1.619   4.595
 3935SOL    HW112704   0.291   1.685   4.584
 3935SOL    HW212705   0.431   1.630   4.519
 3936SOL     OW12706   6.509   4.128   3.812
 3936SOL    HW112707   6.471   4.072   3.886
 3936SOL    HW212708   6.566   4.200   3.851
 3937SOL     OW12709   0.701   0.036   0.168
 3937SOL    HW112710   0.618   7.009   0.135
 3937SOL    HW212711   0.709   0.023   0.267
 3938SOL     OW12712   0.931   4.060   6.710
 3938SOL    HW112713   0.990   3.999   6.657
 3938SOL    HW212714   0.884   4.008   6.781
 3939SOL     OW12715   2.068   6.222   3.989
 3939SOL    HW112716   2.079   6.148   3.923
 3939SOL    HW212717   2.156   6.268   4.002
 3940SOL     OW12718   1.929   6.332   6.517
 3940SOL    HW112719   1.919   6.373   6.426
 3940SOL    HW212720   1.871   6.251   6.524
 3941SOL     OW12721   5.341   5.377   2.637
 3941SOL    HW112722   5.300   5.289   2.613
 3941SOL    HW212723   5.277   5.451   2.618
 3942SOL     OW12724   6.611   6.525   6.284
 3942SOL    HW112725   6.655   6.612   6.308
 3942SOL    HW212726   6.555   6.494   6.361
 3943SOL     OW12727   1.679   4.129   0.346
 3943SOL    HW112728   1.635   4.166   0.264
 3943SOL    HW212729   1.696   4.204   0.410
 3944SOL     OW12730   4.568   3.433   6.978
 3944SOL    HW112731   4.470   3.453   6.977
 3944SOL    HW212732   4.585   3.347   0.006
 3945SOL     OW12733   6.825   0.597   3.068
 3945SOL    HW112734   6.765   0.672   3.094
 3945SOL    HW212735   6.830   0.531   3.143
 3946SOL     OW12736   6.141   2.375   1.332
 3946SOL    HW112737   6.059   2.432   1.336
 3946SOL    HW212738   6.151   2.338   1.239
 3947SOL     OW12739   5.486   6.627   2.585
 3947SOL    HW112740   5.536   6.611   2.500
 3947SOL    HW212741   5.487   6.544   2.641
 3948SOL     OW12742   2.345   1.096   4.831
 3948SOL    HW112743   2.282   1.025   4.865
 3948SOL    HW212744   2.380   1.069   4.742
 3949SOL     OW12745   6.167   6.993   2.235
 3949SOL    HW112746   6.164   6.975   2.333
 3949SOL    HW212747   6.161   0.073   2.218
 3950SOL     OW12748   2.605   4.869   1.262
 3950SOL    HW112749   2.512   4.835   1.270
 3950SOL    HW212750   2.658   4.843   1.343
 3951SOL     OW12751   6.759   2.526   3.437
 3951SOL    HW112752   6.736   2.494   3.529
 3951SOL    HW212753   6.845   2.577   3.440
 3952SOL     OW12754   5.652   4.248   6.874
 3952SOL    HW112755   5.650   4.176   6.943
 3952SOL    HW212756   5.706   4.325   6.907
 3953SOL     OW12757   3.548   3.637   5.923
 3953SOL    HW112758   3.490   3.573   5.974
 3953SOL    HW212759   3.519   3.730   5.943
 3954SOL     OW12760   1.311   3.434   5.258
 3954SOL    HW112761   1.334   3.352   5.207
 3954SOL    HW212762   1.295   3.411   5.354
 3955SOL     OW12763   5.833   3.487   0.352
 3955SOL    HW112764   5.932   3.503   0.361
 3955SOL    HW212765   5.799   3.531   0.269
 3956SOL     OW12766   6.793   2.490   4.966
 3956SOL    HW112767   6.715   2.549   4.987
 3956SOL    HW212768   6.831   2.454   5.050
 3957SOL     OW12769   0.930   2.565   2.376
 3957SOL    HW112770   1.029   2.551   2.363
 3957SOL    HW212771   0.913   2.658   2.408
 3958SOL     OW12772   5.553   5.819   1.347
 3958SOL    HW112773   5.468   5.869   1.331
 3958SOL    HW212774   5.585   5.836   1.440
 3959SOL     OW12775   2.639   5.067   1.787
 3959SOL    HW112776   2.619   4.982   1.739
 3959SOL    HW212777   2.731   5.062   1.826
 3960SOL     OW12778   6.277   2.517   0.434
 3960SOL    HW112779   6.181   2.539   0.415
 3960SOL    HW212780   6.329   2.516   0.348
 3961SOL     OW12781   6.973   1.055   1.263
 3961SOL    HW112782   6.970   1.125   1.192
 3961SOL    HW212783   6.923   0.974   1.232
 3962SOL     OW12784   6.852   0.290   6.152
 3962SOL    HW112785   6.887   0.377   6.187
 3962SOL    HW212786   6.832   0.299   6.055
 3963SOL     OW12787   5.349   3.944   4.195
 3963SOL    HW112788   5.329   3.885   4.274
 3963SOL    HW212789   5.448   3.946   4.180
 3964SOL     OW12790   6.038   4.813   0.570
 3964SOL    HW112791   5.944   4.821   0.535
 3964SOL    HW212792   6.093   4.889   0.536
 3965SOL     OW12793   3.213   4.155   1.027
 3965SOL    HW112794   3.264   4.075   0.996
 3965SOL    HW212795   3.174   4.202   0.948
 3966SOL     OW12796   6.626   3.396   5.790
 3966SOL    HW112797   6.597   3.492   5.793
 3966SOL    HW212798   6.555   3.339   5.829
 3967SOL     OW12799   2.231   6.416   0.208
 3967SOL    HW112800   2.164   6.484   0.237
 3967SOL    HW212801   2.185   6.344   0.157
 3968SOL     OW12802   4.652   2.267   0.492
 3968SOL    HW112803   4.721   2.296   0.558
 3968SOL    HW212804   4.578   2.219   0.539
 3969SOL     OW12805   6.534   6.302   0.940
 3969SOL    HW112806   6.593   6.345   1.007
 3969SOL    HW212807   6.551   6.343   0.850
 3970SOL     OW12808   5.758   4.613   4.287
 3970SOL    HW112809   5.810   4.691   4.251
 3970SOL    HW212810   5.782   4.600   4.384
 3971SOL     OW12811   0.738   5.894   3.898
 3971SOL    HW112812   0.804   5.888   3.823
 3971SOL    HW212813   0.734   5.988   3.932
 3972SOL     OW12814   0.986   0.414   5.894
 3972SOL    HW112815   0.933   0.330   5.886
 3972SOL    HW212816   1.044   0.425   5.814
 3973SOL     OW12817   3.881   3.178   2.529
 3973SOL    HW112818   3.787   3.145   2.520
 3973SOL    HW212819   3.939   3.133   2.461
 3974SOL     OW12820   5.043   0.673   6.536
 3974SOL    HW112821   5.027   0.767   6.504
 3974SOL    HW212822   4.989   0.656   6.618
 3975SOL     OW12823   0.247   6.718   4.555
 3975SOL    HW112824   0.160   6.709   4.602
 3975SOL    HW212825   0.244   6.796   4.492
 3976SOL     OW12826   0.897   2.891   5.818
 3976SOL    HW112827   0.950   2.949   5.756
 3976SOL    HW212828   0.801   2.918   5.815
 3977SOL     OW12829   3.162   4.876   5.498
 3977SOL    HW112830   3.213   4.892   5.413
 3977SOL    HW212831   3.111   4.790   5.491
 3978SOL     OW12832   5.432   2.999   6.654
 3978SOL    HW112833   5.492   2.981   6.732
 3978SOL    HW212834   5.337   3.006   6.685
 3979SOL     OW12835   1.225   5.995   3.183
 3979SOL    HW112836   1.209   5.901   3.213
 3979SOL    HW212837   1.281   6.042   3.250
 3980SOL     OW12838   5.107   3.942   4.512
 3980SOL    HW112839   5.016   3.935   4.554
 3980SOL    HW212840   5.120   4.035   4.477
 3981SOL     OW12841   0.094   1.178   6.293
 3981SOL    HW112842   0.019   1.141   6.239
 3981SOL    HW212843   0.145   1.244   6.239
 3982SOL     OW12844   2.075   3.239   4.349
 3982SOL    HW112845   2.110   3.246   4.443
 3982SOL    HW212846   2.034   3.327   4.323
 3983SOL     OW12847   2.782   0.566   3.732
 3983SOL    HW112848   2.866   0.526   3.696
 3983SOL    HW212849   2.723   0.494   3.769
 3984SOL     OW12850   1.885   5.717   2.170
 3984SOL    HW112851   1.926   5.676   2.252
 3984SOL    HW212852   1.946   5.703   2.092
 3985SOL     OW12853   1.979   2.531   1.304
 3985SOL    HW112854   1.922   2.450   1.319
 3985SOL    HW212855   1.986   2.583   1.389
 3986SOL     OW12856   6.890   2.348   2.432
 3986SOL    HW112857   6.865   2.323   2.525
 3986SOL    HW212858   6.956   2.424   2.434
 3987SOL     OW12859   0.890   4.386   5.118
 3987SOL    HW112860   0.867   4.295   5.082
 3987SOL    HW212861   0.953   4.432   5.056
 3988SOL     OW12862   5.020   6.913   2.120
 3988SOL    HW112863   4.921   6.898   2.125
 3988SOL    HW212864   5.043   6.957   2.033
 3989SOL     OW12865   4.489   1.414   5.832
 3989SOL    HW112866   4.458   1.363   5.751
 3989SOL    HW212867   4.513   1.508   5.804
 3990SOL     OW12868   6.109   0.712   3.983
 3990SOL    HW112869   6.076   0.760   4.064
 3990SOL    HW212870   6.148   0.779   3.919
 3991SOL     OW12871   6.908   1.936   3.467
 3991SOL    HW112872   6.833   2.002   3.464
 3991SOL    HW212873   6.994   1.982   3.446
 3992SOL     OW12874   5.319   3.786   6.027
 3992SOL    HW112875   5.325   3.835   5.941
 3992SOL    HW212876   5.256   3.833   6.088
 3993SOL     OW12877   1.433   0.778   3.529
 3993SOL    HW112878   1.464   0.690   3.566
 3993SOL    HW212879   1.391   0.763   3.440
 3994SOL     OW12880   2.995   1.879   3.694
 3994SOL    HW112881   2.943   1.947   3.745
 3994SOL    HW212882   3.009   1.911   3.601
 3995SOL     OW12883   1.542   3.527   2.125
 3995SOL    HW112884   1.460   3.502   2.177
 3995SOL    HW212885   1.621   3.481   2.165
 3996SOL     OW12886   6.566   6.402   5.168
 3996SOL    HW112887   6.578   6.354   5.081
 3996SOL    HW212888   6.492   6.469   5.159
 3997SOL     OW12889   5.691   4.154   4.677
 3997SOL    HW112890   5.595   4.180   4.671
 3997SOL    HW212891   5.716   4.099   4.597
 3998SOL     OW12892   5.022   1.948   3.914
 3998SOL    HW112893   4.941   2.002   3.891
 3998SOL    HW212894   5.104   1.996   3.884
 3999SOL     OW12895   5.154   2.718   0.674
 3999SOL    HW112896   5.150   2.621   0.652
 3999SOL    HW212897   5.075   2.743   0.730
 4000SOL     OW12898   2.362   4.767   3.223
 4000SOL    HW112899   2.280   4.726   3.185
 4000SOL    HW212900   2.343   4.862   3.250
 4001SOL     OW12901   0.531   6.005   4.561
 4001SOL    HW112902   0.544   5.908   4.580
 4001SOL    HW212903   0.449   6.039   4.608
 4002SOL     OW12904   3.863   3.740   4.883
 4002SOL    HW112905   3.911   3.661   4.921
 4002SOL    HW212906   3.807   3.710   4.805
 4003SOL     OW12907   2.925   0.905   4.672
 4003SOL    HW112908   2.860   0.921   4.746
 4003SOL    HW212909   2.994   0.977   4.672
 4004SOL     OW12910   1.968   4.314   4.907
 4004SOL    HW112911   1.925   4.255   4.839
 4004SOL    HW212912   1.928   4.296   4.997
 4005SOL     OW12913   5.128   2.950   0.505
 4005SOL    HW112914   5.147   2.907   0.593
 4005SOL    HW212915   5.049   2.905   0.462
 4006SOL     OW12916   6.942   5.588   1.875
 4006SOL    HW112917   7.001   5.511   1.903
 4006SOL    HW212918   6.951   5.602   1.777
 4007SOL     OW12919   0.833   1.416   1.988
 4007SOL    HW112920   0.877   1.494   2.031
 4007SOL    HW212921   0.737   1.411   2.016
 4008SOL     OW12922   3.836   0.764   1.620
 4008SOL    HW112923   3.841   0.785   1.718
 4008SOL    HW212924   3.757   0.812   1.580
 4009SOL     OW12925   3.777   2.355   1.198
 4009SOL    HW112926   3.801   2.267   1.240
 4009SOL    HW212927   3.688   2.385   1.231
 4010SOL     OW12928   1.737   4.725   1.059
 4010SOL    HW112929   1.745   4.808   1.113
 4010SOL    HW212930   1.790   4.735   0.975
 4011SOL     OW12931   6.017   6.969   5.993
 4011SOL    HW112932   5.973   0.011   5.927
 4011SOL    HW212933   6.061   6.894   5.944
 4012SOL     OW12934   5.765   5.626   2.010
 4012SOL    HW112935   5.703   5.657   2.082
 4012SOL    HW212936   5.850   5.592   2.050
 4013SOL     OW12937   6.855   1.879   6.996
 4013SOL    HW112938   6.796   1.859   0.057
 4013SOL    HW212939   6.940   1.826   7.004
 4014SOL     OW12940   3.332   5.721   2.822
 4014SOL    HW112941   3.241   5.719   2.863
 4014SOL    HW212942   3.342   5.644   2.759
 4015SOL     OW12943   4.514   5.964   5.548
 4015SOL    HW112944   4.428   5.914   5.537
 4015SOL    HW212945   4.506   6.030   5.622
 4016SOL     OW12946   5.221   5.223   4.530
 4016SOL    HW112947   5.284   5.177   4.593
 4016SOL    HW212948   5.259   5.221   4.437
 4017SOL     OW12949   1.880   5.930   5.784
 4017SOL    HW112950   1.962   5.916   5.728
 4017SOL    HW212951   1.830   5.844   5.793
 4018SOL     OW12952   4.181   5.395   1.275
 4018SOL    HW112953   4.196   5.417   1.178
 4018SOL    HW212954   4.109   5.454   1.312
 4019SOL     OW12955   6.777   3.259   2.308
 4019SOL    HW112956   6.748   3.164   2.296
 4019SOL    HW212957   6.764   3.285   2.404
 4020SOL     OW12958   7.013   6.057   4.119
 4020SOL    HW112959   6.945   5.984   4.127
 4020SOL    HW212960   7.016   6.091   4.025
 4021SOL     OW12961   4.357   5.078   6.211
 4021SOL    HW112962   4.283   5.026   6.253
 4021SOL    HW212963   4.349   5.074   6.112
 4022SOL     OW12964   3.492   6.931   1.228
 4022SOL    HW112965   3.396   6.902   1.234
 4022SOL    HW212966   3.546   6.879   1.294
 4023SOL     OW12967   0.442   2.091   4.376
 4023SOL    HW112968   0.412   2.185   4.391
 4023SOL    HW212969   0.401   2.056   4.291
 4024SOL     OW12970   0.123   6.476   5.765
 4024SOL    HW112971   0.140   6.492   5.667
 4024SOL    HW212972   0.208   6.446   5.809
 4025SOL     OW12973   6.940   4.699   3.785
 4025SOL    HW112974   6.847   4.717   3.752
 4025SOL    HW212975   6.976   4.782   3.829
 4026SOL     OW12976   0.494   6.774   4.139
 4026SOL    HW112977   0.526   6.845   4.202
 4026SOL    HW212978   0.492   6.686   4.186
 4027SOL     OW12979   3.514   5.389   5.031
 4027SOL    HW112980   3.498   5.433   5.120
 4027SOL    HW212981   3.433   5.336   5.006
 4028SOL     OW12982   5.283   1.404   4.388
 4028SOL    HW112983   5.343   1.331   4.420
 4028SOL    HW212984   5.244   1.451   4.467
 4029SOL     OW12985   1.275   6.871   0.777
 4029SOL    HW112986   1.271   6.911   0.686
 4029SOL    HW212987   1.230   6.933   0.842
 4030SOL     OW12988   0.712   2.099   1.731
 4030SOL    HW112989   0.687   2.057   1.644
 4030SOL    HW212990   0.631   2.105   1.789
 4031SOL     OW12991   5.796   6.006   0.410
 4031SOL    HW112992   5.738   5.952   0.472
 4031SOL    HW212993   5.763   5.995   0.316
 4032SOL     OW12994   5.042   1.609   2.723
 4032SOL    HW112995   5.114   1.555   2.679
 4032SOL    HW212996   5.071   1.633   2.816
 4033SOL     OW12997   1.934   3.101   2.759
 4033SOL    HW112998   1.914   3.030   2.692
 4033SOL    HW212999   1.855   3.162   2.768
 4034SOL     OW13000   1.627   2.750   4.815
 4034SOL    HW113001   1.630   2.650   4.814
 4034SOL    HW213002   1.600   2.784   4.725
 4035SOL     OW13003   4.503   2.309   1.814
 4035SOL    HW113004   4.476   2.398   1.849
 4035SOL    HW213005   4.450   2.288   1.732
 4036SOL     OW13006   3.738   5.906   3.209
 4036SOL    HW113007   3.698   5.844   3.276
 4036SOL    HW213008   3.769   5.989   3.254
 4037SOL     OW13009   2.029   2.522   6.368
 4037SOL    HW113010   2.118   2.530   6.414
 4037SOL    HW213011   1.963   2.582   6.413
 4038SOL     OW13012   3.010   5.050   6.043
 4038SOL    HW113013   3.035   5.035   5.947
 4038SOL    HW213014   3.077   5.110   6.086
 4039SOL     OW13015   5.875   4.546   1.463
 4039SOL    HW113016   5.930   4.554   1.379
 4039SOL    HW213017   5.935   4.527   1.540
 4040SOL     OW13018   3.649   0.650   5.225
 4040SOL    HW113019   3.704   0.697   5.155
 4040SOL    HW213020   3.648   0.705   5.309
 4041SOL     OW13021   1.233   5.358   1.972
 4041SOL    HW113022   1.312   5.373   2.031
 4041SOL    HW213023   1.202   5.446   1.936
 4042SOL     OW13024   6.833   1.757   3.288
 4042SOL    HW113025   6.904   1.762   3.217
 4042SOL    HW213026   6.865   1.806   3.369
 4043SOL     OW13027   4.540   2.475   6.200
 4043SOL    HW113028   4.533   2.558   6.256
 4043SOL    HW213029   4.462   2.471   6.138
 4044SOL     OW13030   4.491   4.606   3.298
 4044SOL    HW113031   4.481   4.547   3.218
 4044SOL    HW213032   4.585   4.601   3.331
 4045SOL     OW13033   4.428   1.535   5.149
 4045SOL    HW113034   4.525   1.558   5.149
 4045SOL    HW213035   4.414   1.447   5.194
 4046SOL     OW13036   5.117   1.521   4.128
 4046SOL    HW113037   5.184   1.498   4.198
 4046SOL    HW213038   5.130   1.616   4.099
 4047SOL     OW13039   3.572   2.623   6.693
 4047SOL    HW113040   3.580   2.524   6.695
 4047SOL    HW213041   3.652   2.664   6.737
 4048SOL     OW13042   5.085   1.963   3.286
 4048SOL    HW113043   5.032   1.878   3.284
 4048SOL    HW213044   5.182   1.942   3.270
 4049SOL     OW13045   4.261   3.997   1.232
 4049SOL    HW113046   4.312   3.989   1.317
 4049SOL    HW213047   4.255   3.907   1.188
 4050SOL     OW13048   0.147   4.862   2.343
 4050SOL    HW113049   0.235   4.900   2.313
 4050SOL    HW213050   0.138   4.769   2.309
 4051SOL     OW13051   5.259   0.343   5.230
 4051SOL    HW113052   5.354   0.355   5.259
 4051SOL    HW213053   5.234   0.416   5.166
 4052SOL     OW13054   5.154   1.785   4.114
 4052SOL    HW113055   5.137   1.831   4.201
 4052SOL    HW213056   5.124   1.844   4.038
 4053SOL     OW13057   0.807   4.931   4.013
 4053SOL    HW113058   0.768   4.969   3.930
 4053SOL    HW213059   0.740   4.873   4.059
 4054SOL     OW13060   4.558   3.794   1.345
 4054SOL    HW113061   4.494   3.844   1.403
 4054SOL    HW213062   4.650   3.829   1.359
 4055SOL     OW13063   6.826   4.461   0.093
 4055SOL    HW113064   6.870   4.373   0.073
 4055SOL    HW213065   6.875   4.505   0.168
 4056SOL     OW13066   5.295   3.305   7.017
 4056SOL    HW113067   5.281   3.327   0.095
 4056SOL    HW213068   5.211   3.266   6.979
 4057SOL     OW13069   0.179   3.718   6.848
 4057SOL    HW113070   0.116   3.668   6.907
 4057SOL    HW213071   0.229   3.786   6.902
 4058SOL     OW13072   3.373   0.322   4.641
 4058SOL    HW113073   3.445   0.299   4.707
 4058SOL    HW213074   3.288   0.340   4.690
 4059SOL     OW13075   0.717   1.194   3.884
 4059SOL    HW113076   0.668   1.158   3.963
 4059SOL    HW213077   0.677   1.157   3.800
 4060SOL     OW13078   0.278   6.179   4.423
 4060SOL    HW113079   0.203   6.224   4.374
 4060SOL    HW213080   0.261   6.183   4.521
 4061SOL     OW13081   0.642   4.991   1.755
 4061SOL    HW113082   0.607   4.921   1.817
 4061SOL    HW213083   0.566   5.046   1.721
 4062SOL     OW13084   1.835   3.470   0.644
 4062SOL    HW113085   1.814   3.414   0.564
 4062SOL    HW213086   1.905   3.537   0.621
 4063SOL     OW13087   3.927   0.424   1.222
 4063SOL    HW113088   3.896   0.417   1.127
 4063SOL    HW213089   3.852   0.454   1.280
 4064SOL     OW13090   1.972   1.028   5.706
 4064SOL    HW113091   1.922   1.109   5.675
 4064SOL    HW213092   1.907   0.960   5.739
 4065SOL     OW13093   2.280   0.952   1.349
 4065SOL    HW113094   2.359   0.970   1.408
 4065SOL    HW213095   2.228   0.874   1.386
 4066SOL     OW13096   0.511   3.720   4.043
 4066SOL    HW113097   0.555   3.808   4.027
 4066SOL    HW213098   0.495   3.673   3.956
 4067SOL     OW13099   6.250   5.053   0.611
 4067SOL    HW113100   6.285   5.136   0.569
 4067SOL    HW213101   6.299   5.034   0.696
 4068SOL     OW13102   2.414   2.681   5.181
 4068SOL    HW113103   2.375   2.752   5.123
 4068SOL    HW213104   2.481   2.722   5.243
 4069SOL     OW13105   4.677   5.931   6.001
 4069SOL    HW113106   4.775   5.914   6.007
 4069SOL    HW213107   4.643   5.904   5.911
 4070SOL     OW13108   1.649   3.512   4.199
 4070SOL    HW113109   1.582   3.556   4.139
 4070SOL    HW213110   1.730   3.486   4.146
 4071SOL     OW13111   1.587   1.197   4.869
 4071SOL    HW113112   1.585   1.222   4.966
 4071SOL    HW213113   1.614   1.276   4.815
 4072SOL     OW13114   3.109   6.478   2.721
 4072SOL    HW113115   3.134   6.416   2.794
 4072SOL    HW213116   3.013   6.505   2.731
 4073SOL     OW13117   3.904   5.342   6.604
 4073SOL    HW113118   3.910   5.392   6.517
 4073SOL    HW213119   3.882   5.246   6.586
 4074SOL     OW13120   1.606   5.737   2.506
 4074SOL    HW113121   1.557   5.754   2.591
 4074SOL    HW213122   1.597   5.817   2.446
 4075SOL     OW13123   6.389   0.923   0.012
 4075SOL    HW113124   6.413   1.012   0.051
 4075SOL    HW213125   6.472   0.867   0.003
 4076SOL     OW13126   2.360   5.674   3.596
 4076SOL    HW113127   2.269   5.712   3.580
 4076SOL    HW213128   2.357   5.614   3.676
 4077SOL     OW13129   3.170   1.083   1.649
 4077SOL    HW113130   3.098   1.120   1.708
 4077SOL    HW213131   3.258   1.091   1.695
 4078SOL     OW13132   3.703   4.960   2.183
 4078SOL    HW113133   3.614   5.005   2.193
 4078SOL    HW213134   3.701   4.900   2.103
 4079SOL     OW13135   0.059   2.187   3.632
 4079SOL    HW113136   0.111   2.185   3.717
 4079SOL    HW213137   0.114   2.147   3.558
 4080SOL     OW13138   0.035   1.963   5.121
 4080SOL    HW113139   0.068   1.874   5.090
 4080SOL    HW213140   0.103   2.005   5.181
 4081SOL     OW13141   1.107   3.438   3.760
 4081SOL    HW113142   1.058   3.424   3.845
 4081SOL    HW213143   1.062   3.510   3.707
 4082SOL     OW13144   0.700   3.774   0.077
 4082SOL    HW113145   0.643   3.722   0.140
 4082SOL    HW213146   0.650   3.790   7.010
 4083SOL     OW13147   6.516   2.522   5.240
 4083SOL    HW113148   6.446   2.483   5.179
 4083SOL    HW213149   6.553   2.449   5.298
 4084SOL     OW13150   6.352   1.118   4.244
 4084SOL    HW113151   6.297   1.133   4.162
 4084SOL    HW213152   6.440   1.077   4.218
 4085SOL     OW13153   2.556   6.178   0.723
 4085SOL    HW113154   2.545   6.102   0.659
 4085SOL    HW213155   2.543   6.264   0.674
 4086SOL     OW13156   1.137   4.161   1.132
 4086SOL    HW113157   1.209   4.193   1.070
 4086SOL    HW213158   1.179   4.122   1.214
 4087SOL     OW13159   2.429   1.781   2.623
 4087SOL    HW113160   2.441   1.844   2.546
 4087SOL    HW213161   2.519   1.746   2.651
 4088SOL     OW13162   6.551   1.592   0.307
 4088SOL    HW113163   6.470   1.602   0.250
 4088SOL    HW213164   6.585   1.499   0.301
 4089SOL     OW13165   1.371   1.487   5.301
 4089SOL    HW113166   1.363   1.394   5.264
 4089SOL    HW213167   1.449   1.533   5.259
 4090SOL     OW13168   2.701   4.819   6.248
 4090SOL    HW113169   2.620   4.868   6.218
 4090SOL    HW213170   2.761   4.802   6.169
 4091SOL     OW13171   4.163   0.089   1.014
 4091SOL    HW113172   4.221   0.165   0.987
 4091SOL    HW213173   4.148   0.029   0.936
 4092SOL     OW13174   6.903   1.559   4.336
 4092SOL    HW113175   6.873   1.648   4.372
 4092SOL    HW213176   6.960   1.513   4.404
 4093SOL     OW13177   5.807   6.843   4.538
 4093SOL    HW113178   5.717   6.882   4.553
 4093SOL    HW213179   5.876   6.915   4.538
 4094SOL     OW13180   3.007   4.337   5.282
 4094SOL    HW113181   2.963   4.421   5.251
 4094SOL    HW213182   2.990   4.264   5.217
 4095SOL     OW13183   1.798   3.317   5.504
 4095SOL    HW113184   1.845   3.400   5.532
 4095SOL    HW213185   1.796   3.251   5.579
 4096SOL     OW13186   4.336   4.613   2.288
 4096SOL    HW113187   4.246   4.643   2.320
 4096SOL    HW213188   4.329   4.584   2.193
 4097SOL     OW13189   3.412   4.149   3.470
 4097SOL    HW113190   3.435   4.202   3.551
 4097SOL    HW213191   3.459   4.061   3.472
 4098SOL     OW13192   0.593   3.342   2.443
 4098SOL    HW113193   0.650   3.342   2.362
 4098SOL    HW213194   0.501   3.312   2.419
 4099SOL     OW13195   2.447   6.080   1.723
 4099SOL    HW113196   2.395   6.040   1.798
 4099SOL    HW213197   2.460   6.178   1.739
 4100SOL     OW13198   3.634   6.350   3.397
 4100SOL    HW113199   3.581   6.358   3.313
 4100SOL    HW213200   3.671   6.258   3.405
 4101SOL     OW13201   4.684   0.953   6.938
 4101SOL    HW113202   4.639   1.002   6.864
 4101SOL    HW213203   4.746   1.014   6.987
 4102SOL     OW13204   5.489   1.465   0.116
 4102SOL    HW113205   5.539   1.381   0.138
 4102SOL    HW213206   5.526   1.541   0.170
 4103SOL     OW13207   0.279   0.260   2.517
 4103SOL    HW113208   0.205   0.272   2.583
 4103SOL    HW213209   0.266   0.174   2.467
 4104SOL     OW13210   1.962   5.009   2.499
 4104SOL    HW113211   1.918   4.921   2.520
 4104SOL    HW213212   2.043   4.993   2.444
 4105SOL     OW13213   5.837   4.881   0.393
 4105SOL    HW113214   5.743   4.857   0.418
 4105SOL    HW213215   5.862   4.832   0.309
 4106SOL     OW13216   0.027   3.581   4.746
 4106SOL    HW113217   0.089   3.504   4.760
 4106SOL    HW213218   7.018   3.618   4.835
 4107SOL     OW13219   6.478   0.353   0.701
 4107SOL    HW113220   6.482   0.382   0.797
 4107SOL    HW213221   6.494   0.432   0.642
 4108SOL     OW13222   6.688   2.959   5.202
 4108SOL    HW113223   6.707   2.940   5.106
 4108SOL    HW213224   6.655   2.875   5.246
 4109SOL     OW13225   3.009   6.445   3.757
 4109SOL    HW113226   2.916   6.410   3.770
 4109SOL    HW213227   3.044   6.478   3.845
 4110SOL     OW13228   4.294   3.595   5.713
 4110SOL    HW113229   4.200   3.617   5.688
 4110SOL    HW213230   4.334   3.673   5.762
 4111SOL     OW13231   4.029   3.555   6.256
 4111SOL    HW113232   4.127   3.575   6.253
 4111SOL    HW213233   3.978   3.631   6.214
 4112SOL     OW13234   3.969   0.752   4.818
 4112SOL    HW113235   3.989   0.661   4.780
 4112SOL    HW213236   3.935   0.742   4.912
 4113SOL     OW13237   3.998   5.256   4.865
 4113SOL    HW113238   4.024   5.245   4.960
 4113SOL    HW213239   3.934   5.184   4.839
 4114SOL     OW13240   3.573   2.074   2.601
 4114SOL    HW113241   3.567   2.070   2.501
 4114SOL    HW213242   3.560   1.983   2.639
 4115SOL     OW13243   5.586   5.063   2.381
 4115SOL    HW113244   5.520   4.991   2.359
 4115SOL    HW213245   5.543   5.152   2.365
 4116SOL     OW13246   3.206   1.109   2.585
 4116SOL    HW113247   3.204   1.046   2.662
 4116SOL    HW213248   3.185   1.202   2.617
 4117SOL     OW13249   0.689   5.631   2.065
 4117SOL    HW113250   0.685   5.541   2.022
 4117SOL    HW213251   0.660   5.700   1.999
 4118SOL     OW13252   2.713   6.887   0.410
 4118SOL    HW113253   2.649   6.931   0.473
 4118SOL    HW213254   2.780   6.835   0.462
 4119SOL     OW13255   4.563   0.873   3.299
 4119SOL    HW113256   4.568   0.964   3.259
 4119SOL    HW213257   4.640   0.861   3.362
 4120SOL     OW13258   4.284   1.032   2.351
 4120SOL    HW113259   4.296   1.005   2.256
 4120SOL    HW213260   4.333   1.118   2.367
 4121SOL     OW13261   6.768   2.242   4.910
 4121SOL    HW113262   6.861   2.207   4.899
 4121SOL    HW213263   6.771   2.342   4.919
 4122SOL     OW13264   1.918   5.628   6.841
 4122SOL    HW113265   1.837   5.585   6.882
 4122SOL    HW213266   1.974   5.557   6.798
 4123SOL     OW13267   4.516   4.367   6.221
 4123SOL    HW113268   4.604   4.414   6.230
 4123SOL    HW213269   4.482   4.378   6.127
 4124SOL     OW13270   4.428   6.319   3.372
 4124SOL    HW113271   4.377   6.275   3.299
 4124SOL    HW213272   4.365   6.343   3.446
 4125SOL     OW13273   5.439   0.949   1.066
 4125SOL    HW113274   5.397   0.969   1.155
 4125SOL    HW213275   5.367   0.947   0.996
 4126SOL     OW13276   2.154   5.066   4.208
 4126SOL    HW113277   2.117   5.030   4.123
 4126SOL    HW213278   2.199   5.154   4.191
 4127SOL     OW13279   6.076   3.857   5.196
 4127SOL    HW113280   6.142   3.928   5.219
 4127SOL    HW213281   6.115   3.767   5.214
 4128SOL     OW13282   0.632   2.256   2.020
 4128SOL    HW113283   0.601   2.350   2.007
 4128SOL    HW213284   0.714   2.255   2.077
 4129SOL     OW13285   5.862   2.348   6.524
 4129SOL    HW113286   5.928   2.319   6.455
 4129SOL    HW213287   5.811   2.269   6.556
 4130SOL     OW13288   6.544   3.220   1.099
 4130SOL    HW113289   6.476   3.281   1.141
 4130SOL    HW213290   6.624   3.214   1.159
 4131SOL     OW13291   0.005   3.946   3.388
 4131SOL    HW113292   0.079   3.880   3.393
 4131SOL    HW213293   0.023   4.022   3.452
 4132SOL     OW13294   4.948   1.993   4.771
 4132SOL    HW113295   4.940   2.064   4.841
 4132SOL    HW213296   5.045   1.977   4.750
 4133SOL     OW13297   2.578   2.470   1.166
 4133SOL    HW113298   2.611   2.466   1.261
 4133SOL    HW213299   2.640   2.418   1.107
 4134SOL     OW13300   1.731   1.495   0.388
 4134SOL    HW113301   1.773   1.531   0.471
 4134SOL    HW213302   1.645   1.543   0.370
 4135SOL     OW13303   1.643   0.589   0.992
 4135SOL    HW113304   1.575   0.643   0.943
 4135SOL    HW213305   1.691   0.530   0.928
 4136SOL     OW13306   0.894   1.689   3.485
 4136SOL    HW113307   0.903   1.595   3.452
 4136SOL    HW213308   0.963   1.707   3.555
 4137SOL     OW13309   3.944   3.707   5.428
 4137SOL    HW113310   3.948   3.725   5.330
 4137SOL    HW213311   3.965   3.610   5.445
 4138SOL     OW13312   4.205   5.415   2.642
 4138SOL    HW113313   4.134   5.377   2.701
 4138SOL    HW213314   4.187   5.513   2.628
 4139SOL     OW13315   2.403   0.840   0.283
 4139SOL    HW113316   2.382   0.929   0.323
 4139SOL    HW213317   2.497   0.841   0.249
 4140SOL     OW13318   4.234   2.021   5.046
 4140SOL    HW113319   4.302   2.074   4.996
 4140SOL    HW213320   4.278   1.941   5.086
 4141SOL     OW13321   5.324   5.109   0.464
 4141SOL    HW113322   5.378   5.094   0.547
 4141SOL    HW213323   5.306   5.207   0.453
 4142SOL     OW13324   6.893   2.281   1.398
 4142SOL    HW113325   6.974   2.335   1.421
 4142SOL    HW213326   6.831   2.336   1.342
 4143SOL     OW13327   0.730   2.756   1.560
 4143SOL    HW113328   0.744   2.688   1.488
 4143SOL    HW213329   0.798   2.828   1.551
 4144SOL     OW13330   4.656   0.559   2.030
 4144SOL    HW113331   4.632   0.545   1.934
 4144SOL    HW213332   4.572   0.563   2.084
 4145SOL     OW13333   3.282   0.212   2.962
 4145SOL    HW113334   3.275   0.246   2.868
 4145SOL    HW213335   3.273   0.288   3.026
 4146SOL     OW13336   4.630   5.567   0.556
 4146SOL    HW113337   4.593   5.492   0.501
 4146SOL    HW213338   4.590   5.653   0.525
 4147SOL     OW13339   2.835   2.374   5.888
 4147SOL    HW113340   2.904   2.447   5.881
 4147SOL    HW213341   2.749   2.406   5.848
 4148SOL     OW13342   6.353   0.141   2.997
 4148SOL    HW113343   6.264   0.100   3.019
 4148SOL    HW213344   6.426   0.082   3.031
 4149SOL     OW13345   5.163   4.416   1.749
 4149SOL    HW113346   5.100   4.483   1.789
 4149SOL    HW213347   5.137   4.324   1.779
 4150SOL     OW13348   4.783   0.432   5.675
 4150SOL    HW113349   4.737   0.445   5.763
 4150SOL    HW213350   4.729   0.369   5.618
 4151SOL     OW13351   0.383   5.379   0.351
 4151SOL    HW113352   0.329   5.359   0.433
 4151SOL    HW213353   0.356   5.318   0.277
 4152SOL     OW13354   3.612   4.185   1.252
 4152SOL    HW113355   3.674   4.125   1.303
 4152SOL    HW213356   3.590   4.265   1.309
 4153SOL     OW13357   5.888   5.666   6.018
 4153SOL    HW113358   5.986   5.648   6.031
 4153SOL    HW213359   5.847   5.592   5.964
 4154SOL     OW13360   4.401   2.356   5.780
 4154SOL    HW113361   4.433   2.382   5.688
 4154SOL    HW213362   4.302   2.339   5.777
 4155SOL     OW13363   1.422   3.331   0.774
 4155SOL    HW113364   1.515   3.297   0.763
 4155SOL    HW213365   1.401   3.341   0.871
 4156SOL     OW13366   5.956   0.102   5.220
 4156SOL    HW113367   5.930   0.014   5.181
 4156SOL    HW213368   6.042   0.132   5.180
 4157SOL     OW13369   3.214   0.846   4.091
 4157SOL    HW113370   3.205   0.858   3.992
 4157SOL    HW213371   3.308   0.822   4.113
 4158SOL     OW13372   0.870   0.551   3.633
 4158SOL    HW113373   0.870   0.580   3.537
 4158SOL    HW213374   0.787   0.583   3.678
 4159SOL     OW13375   0.598   3.459   4.922
 4159SOL    HW113376   0.600   3.543   4.976
 4159SOL    HW213377   0.631   3.478   4.830
 4160SOL     OW13378   1.113   0.723   0.877
 4160SOL    HW113379   1.115   0.645   0.939
 4160SOL    HW213380   1.115   0.690   0.782
 4161SOL     OW13381   6.359   1.940   0.382
 4161SOL    HW113382   6.326   2.016   0.437
 4161SOL    HW213383   6.434   1.972   0.323
 4162SOL     OW13384   0.316   6.487   4.804
 4162SOL    HW113385   0.321   6.432   4.887
 4162SOL    HW213386   0.367   6.441   4.731
 4163SOL     OW13387   6.519   1.180   5.170
 4163SOL    HW113388   6.607   1.217   5.201
 4163SOL    HW213389   6.532   1.088   5.134
 4164SOL     OW13390   2.542   6.661   6.335
 4164SOL    HW113391   2.558   6.747   6.286
 4164SOL    HW213392   2.499   6.594   6.274
 4165SOL     OW13393   2.463   6.110   2.583
 4165SOL    HW113394   2.408   6.041   2.629
 4165SOL    HW213395   2.456   6.096   2.484
 4166SOL     OW13396   5.912   2.499   1.450
 4166SOL    HW113397   5.846   2.483   1.524
 4166SOL    HW213398   5.996   2.538   1.488
 4167SOL     OW13399   1.828   3.085   1.027
 4167SOL    HW113400   1.833   3.025   1.107
 4167SOL    HW213401   1.834   3.181   1.057
 4168SOL     OW13402   1.515   4.515   1.028
 4168SOL    HW113403   1.591   4.579   1.025
 4168SOL    HW213404   1.488   4.500   1.123
 4169SOL     OW13405   6.159   3.555   4.881
 4169SOL    HW113406   6.220   3.560   4.960
 4169SOL    HW213407   6.131   3.648   4.854
 4170SOL     OW13408   4.054   1.866   4.931
 4170SOL    HW113409   3.958   1.890   4.943
 4170SOL    HW213410   4.112   1.943   4.957
 4171SOL     OW13411   5.686   3.528   1.405
 4171SOL    HW113412   5.608   3.539   1.344
 4171SOL    HW213413   5.654   3.503   1.497
 4172SOL     OW13414   2.299   1.103   0.381
 4172SOL    HW113415   2.373   1.169   0.395
 4172SOL    HW213416   2.224   1.147   0.331
 4173SOL     OW13417   5.170   3.266   6.242
 4173SOL    HW113418   5.159   3.264   6.143
 4173SOL    HW213419   5.186   3.360   6.273
 4174SOL     OW13420   5.321   0.785   4.279
 4174SOL    HW113421   5.344   0.875   4.242
 4174SOL    HW213422   5.322   0.788   4.379
 4175SOL     OW13423   2.908   1.720   3.347
 4175SOL    HW113424   2.979   1.785   3.320
 4175SOL    HW213425   2.856   1.757   3.424
 4176SOL     OW13426   6.013   4.971   2.568
 4176SOL    HW113427   6.015   5.031   2.649
 4176SOL    HW213428   6.018   4.876   2.597
 4177SOL     OW13429   6.449   4.755   3.112
 4177SOL    HW113430   6.425   4.839   3.160
 4177SOL    HW213431   6.541   4.726   3.140
 4178SOL     OW13432   3.895   3.254   5.650
 4178SOL    HW113433   3.908   3.159   5.676
 4178SOL    HW213434   3.954   3.313   5.706
 4179SOL     OW13435   6.552   2.765   6.922
 4179SOL    HW113436   6.479   2.833   6.932
 4179SOL    HW213437   6.569   2.749   6.825
 4180SOL     OW13438   4.379   3.746   1.655
 4180SOL    HW113439   4.364   3.833   1.608
 4180SOL    HW213440   4.293   3.715   1.695
 4181SOL     OW13441   6.653   0.754   0.344
 4181SOL    HW113442   6.569   0.782   0.297
 4181SOL    HW213443   6.697   0.681   0.292
 4182SOL     OW13444   5.412   0.740   3.892
 4182SOL    HW113445   5.322   0.719   3.854
 4182SOL    HW213446   5.425   0.839   3.897
 4183SOL     OW13447   1.999   1.480   1.591
 4183SOL    HW113448   1.974   1.467   1.495
 4183SOL    HW213449   2.098   1.472   1.601
 4184SOL     OW13450   4.352   5.123   6.848
 4184SOL    HW113451   4.267   5.160   6.810
 4184SOL    HW213452   4.429   5.176   6.814
 4185SOL     OW13453   6.928   6.874   4.379
 4185SOL    HW113454   6.888   6.797   4.329
 4185SOL    HW213455   6.890   6.877   4.471
 4186SOL     OW13456   3.791   4.227   1.784
 4186SOL    HW113457   3.719   4.277   1.736
 4186SOL    HW213458   3.759   4.135   1.807
 4187SOL     OW13459   4.120   5.094   6.453
 4187SOL    HW113460   4.202   5.150   6.467
 4187SOL    HW213461   4.068   5.130   6.376
 4188SOL     OW13462   5.020   6.221   4.200
 4188SOL    HW113463   5.056   6.201   4.109
 4188SOL    HW213464   4.934   6.271   4.192
 4189SOL     OW13465   1.567   3.478   3.510
 4189SOL    HW113466   1.638   3.447   3.447
 4189SOL    HW213467   1.563   3.578   3.510
 4190SOL     OW13468   2.579   0.093   1.282
 4190SOL    HW113469   2.571   7.018   1.248
 4190SOL    HW213470   2.648   0.142   1.228
 4191SOL     OW13471   0.590   2.286   2.492
 4191SOL    HW113472   0.568   2.382   2.510
 4191SOL    HW213473   0.543   2.255   2.410
 4192SOL     OW13474   5.898   0.626   3.117
 4192SOL    HW113475   5.919   0.654   3.211
 4192SOL    HW213476   5.978   0.580   3.078
 4193SOL     OW13477   1.950   6.782   2.336
 4193SOL    HW113478   1.993   6.866   2.303
 4193SOL    HW213479   2.015   6.706   2.328
 4194SOL     OW13480   5.966   0.855   3.582
 4194SOL    HW113481   5.918   0.845   3.495
 4194SOL    HW213482   6.048   0.798   3.582
 4195SOL     OW13483   5.324   1.184   2.835
 4195SOL    HW113484   5.406   1.147   2.881
 4195SOL    HW213485   5.321   1.283   2.848
 4196SOL     OW13486   4.402   2.333   3.655
 4196SOL    HW113487   4.381   2.412   3.712
 4196SOL    HW213488   4.366   2.250   3.698
 4197SOL     OW13489   5.086   4.265   4.987
 4197SOL    HW113490   4.989   4.290   4.997
 4197SOL    HW213491   5.094   4.180   4.937
 4198SOL     OW13492   6.226   3.851   6.136
 4198SOL    HW113493   6.252   3.862   6.232
 4198SOL    HW213494   6.227   3.754   6.112
 4199SOL     OW13495   2.932   3.832   5.525
 4199SOL    HW113496   2.990   3.908   5.495
 4199SOL    HW213497   2.841   3.867   5.548
 4200SOL     OW13498   2.484   0.519   6.390
 4200SOL    HW113499   2.539   0.553   6.314
 4200SOL    HW213500   2.387   0.520   6.365
 4201SOL     OW13501   6.296   6.829   4.564
 4201SOL    HW113502   6.302   6.870   4.655
 4201SOL    HW213503   6.233   6.881   4.507
 4202SOL     OW13504   5.202   3.477   5.471
 4202SOL    HW113505   5.209   3.424   5.387
 4202SOL    HW213506   5.271   3.550   5.471
 4203SOL     OW13507   4.444   5.221   4.051
 4203SOL    HW113508   4.464   5.252   4.144
 4203SOL    HW213509   4.530   5.210   4.001
 4204SOL     OW13510   1.680   4.126   0.717
 4204SOL    HW113511   1.692   4.151   0.813
 4204SOL    HW213512   1.625   4.196   0.671
 4205SOL     OW13513   2.755   6.175   3.308
 4205SOL    HW113514   2.748   6.258   3.252
 4205SOL    HW213515   2.825   6.114   3.269
 4206SOL     OW13516   5.104   6.116   3.984
 4206SOL    HW113517   5.161   6.059   3.926
 4206SOL    HW213518   5.024   6.148   3.931
 4207SOL     OW13519   0.609   0.360   6.913
 4207SOL    HW113520   0.698   0.315   6.903
 4207SOL    HW213521   0.598   0.391   7.007
 4208SOL     OW13522   1.068   2.604   0.799
 4208SOL    HW113523   0.975   2.577   0.824
 4208SOL    HW213524   1.116   2.525   0.760
 4209SOL     OW13525   3.404   0.749   5.107
 4209SOL    HW113526   3.345   0.785   5.180
 4209SOL    HW213527   3.486   0.709   5.148
 4210SOL     OW13528   4.321   2.465   0.439
 4210SOL    HW113529   4.411   2.494   0.471
 4210SOL    HW213530   4.256   2.540   0.452
 4211SOL     OW13531   5.378   3.553   4.564
 4211SOL    HW113532   5.296   3.497   4.558
 4211SOL    HW213533   5.406   3.562   4.659
 4212SOL     OW13534   6.477   6.330   2.392
 4212SOL    HW113535   6.483   6.412   2.335
 4212SOL    HW213536   6.568   6.293   2.408
 4213SOL     OW13537   0.697   0.045   1.209
 4213SOL    HW113538   0.613   0.074   1.254
 4213SOL    HW213539   0.679   6.982   1.154
 4214SOL     OW13540   3.100   5.519   4.815
 4214SOL    HW113541   3.110   5.529   4.914
 4214SOL    HW213542   3.092   5.422   4.793
 4215SOL     OW13543   0.905   5.997   5.567
 4215SOL    HW113544   0.960   5.913   5.565
 4215SOL    HW213545   0.865   6.009   5.658
 4216SOL     OW13546   2.720   3.070   5.291
 4216SOL    HW113547   2.629   3.049   5.255
 4216SOL    HW213548   2.758   3.149   5.242
 4217SOL     OW13549   6.745   0.847   3.830
 4217SOL    HW113550   6.677   0.881   3.765
 4217SOL    HW213551   6.828   0.819   3.781
 4218SOL     OW13552   3.413   6.185   2.508
 4218SOL    HW113553   3.406   6.096   2.551
 4218SOL    HW213554   3.420   6.256   2.578
 4219SOL     OW13555   5.397   0.094   2.936
 4219SOL    HW113556   5.461   0.032   2.981
 4219SOL    HW213557   5.408   0.088   2.837
 4220SOL     OW13558   0.456   4.068   3.509
 4220SOL    HW113559   0.470   4.071   3.410
 4220SOL    HW213560   0.434   3.975   3.536
 4221SOL     OW13561   5.526   6.176   5.729
 4221SOL    HW113562   5.477   6.257   5.761
 4221SOL    HW213563   5.522   6.105   5.799
 4222SOL     OW13564   3.081   3.163   0.189
 4222SOL    HW113565   3.039   3.221   0.258
 4222SOL    HW213566   3.055   3.195   0.098
 4223SOL     OW13567   2.994   3.906   2.602
 4223SOL    HW113568   2.944   3.972   2.546
 4223SOL    HW213569   3.090   3.904   2.574
 4224SOL     OW13570   4.011   2.133   6.038
 4224SOL    HW113571   4.007   2.077   6.121
 4224SOL    HW213572   4.105   2.136   6.005
 4225SOL     OW13573   4.944   0.599   4.333
 4225SOL    HW113574   4.999   0.648   4.265
 4225SOL    HW213575   4.880   0.538   4.286
 4226SOL     OW13576   1.623   1.439   3.145
 4226SOL    HW113577   1.583   1.348   3.135
 4226SOL    HW213578   1.702   1.448   3.084
 4227SOL     OW13579   5.114   3.948   6.495
 4227SOL    HW113580   5.093   4.015   6.566
 4227SOL    HW213581   5.171   3.876   6.534
 4228SOL     OW13582   5.373   5.265   3.244
 4228SOL    HW113583   5.289   5.240   3.293
 4228SOL    HW213584   5.419   5.182   3.213
 4229SOL     OW13585   4.409   4.888   5.317
 4229SOL    HW113586   4.335   4.838   5.273
 4229SOL    HW213587   4.409   4.868   5.415
 4230SOL     OW13588   3.172   0.988   5.679
 4230SOL    HW113589   3.250   0.986   5.742
 4230SOL    HW213590   3.171   0.904   5.625
 4231SOL     OW13591   3.729   6.634   6.265
 4231SOL    HW113592   3.813   6.638   6.319
 4231SOL    HW213593   3.725   6.712   6.203
 4232SOL     OW13594   2.338   4.103   1.406
 4232SOL    HW113595   2.317   4.130   1.312
 4232SOL    HW213596   2.432   4.128   1.428
 4233SOL     OW13597   5.602   6.241   1.200
 4233SOL    HW113598   5.525   6.182   1.222
 4233SOL    HW213599   5.623   6.235   1.102
 4234SOL     OW13600   3.638   3.570   5.364
 4234SOL    HW113601   3.727   3.584   5.409
 4234SOL    HW213602   3.590   3.658   5.360
 4235SOL     OW13603   0.282   4.003   4.932
 4235SOL    HW113604   0.208   3.971   4.873
 4235SOL    HW213605   0.252   4.084   4.983
 4236SOL     OW13606   0.684   3.879   4.886
 4236SOL    HW113607   0.783   3.867   4.887
 4236SOL    HW213608   0.648   3.867   4.979
 4237SOL     OW13609   6.370   4.023   5.539
 4237SOL    HW113610   6.281   4.047   5.578
 4237SOL    HW213611   6.361   3.939   5.486
 4238SOL     OW13612   4.885   4.659   4.463
 4238SOL    HW113613   4.985   4.654   4.461
 4238SOL    HW213614   4.854   4.687   4.554
 4239SOL     OW13615   5.133   5.497   5.478
 4239SOL    HW113616   5.154   5.502   5.575
 4239SOL    HW213617   5.218   5.487   5.426
 4240SOL     OW13618   2.437   5.282   6.433
 4240SOL    HW113619   2.500   5.204   6.428
 4240SOL    HW213620   2.355   5.255   6.484
 4241SOL     OW13621   4.401   2.308   0.983
 4241SOL    HW113622   4.361   2.270   1.066
 4241SOL    HW213623   4.466   2.243   0.944
 4242SOL     OW13624   1.917   0.518   1.788
 4242SOL    HW113625   1.920   0.594   1.853
 4242SOL    HW213626   1.954   0.548   1.700
 4243SOL     OW13627   1.198   2.967   3.081
 4243SOL    HW113628   1.266   2.934   3.016
 4243SOL    HW213629   1.201   3.067   3.085
 4244SOL     OW13630   3.207   0.476   0.885
 4244SOL    HW113631   3.276   0.404   0.880
 4244SOL    HW213632   3.251   0.563   0.906
 4245SOL     OW13633   6.803   1.883   1.069
 4245SOL    HW113634   6.735   1.957   1.066
 4245SOL    HW213635   6.779   1.813   1.001
 4246SOL     OW13636   4.648   2.637   3.668
 4246SOL    HW113637   4.610   2.597   3.584
 4246SOL    HW213638   4.737   2.595   3.686
 4247SOL     OW13639   2.130   5.200   6.999
 4247SOL    HW113640   2.178   5.287   7.008
 4247SOL    HW213641   2.125   5.156   0.070
 4248SOL     OW13642   2.100   1.014   3.393
 4248SOL    HW113643   2.013   1.063   3.388
 4248SOL    HW213644   2.174   1.080   3.411
 4249SOL     OW13645   5.510   0.455   5.931
 4249SOL    HW113646   5.472   0.479   5.842
 4249SOL    HW213647   5.557   0.534   5.970
 4250SOL     OW13648   0.626   5.633   4.961
 4250SOL    HW113649   0.555   5.610   4.894
 4250SOL    HW213650   0.615   5.727   4.991
 4251SOL     OW13651   4.541   2.055   5.552
 4251SOL    HW113652   4.599   2.109   5.491
 4251SOL    HW213653   4.580   2.055   5.644
 4252SOL     OW13654   0.059   0.002   6.565
 4252SOL    HW113655   0.004   0.067   6.618
 4252SOL    HW213656   0.120   0.052   6.504
 4253SOL     OW13657   4.279   6.496   3.094
 4253SOL    HW113658   4.275   6.577   3.152
 4253SOL    HW213659   4.369   6.492   3.049
 4254SOL     OW13660   1.517   2.488   5.947
 4254SOL    HW113661   1.608   2.484   5.988
 4254SOL    HW213662   1.480   2.395   5.940
 4255SOL     OW13663   0.753   2.981   3.133
 4255SOL    HW113664   0.780   3.013   3.224
 4255SOL    HW213665   0.805   2.899   3.110
 4256SOL     OW13666   5.924   5.857   0.711
 4256SOL    HW113667   5.857   5.926   0.687
 4256SOL    HW213668   5.949   5.866   0.808
 4257SOL     OW13669   6.671   0.956   2.955
 4257SOL    HW113670   6.760   0.955   2.909
 4257SOL    HW213671   6.681   0.921   3.048
 4258SOL     OW13672   3.125   5.985   1.050
 4258SOL    HW113673   3.185   6.054   1.010
 4258SOL    HW213674   3.030   6.010   1.035
 4259SOL     OW13675   0.555   6.925   0.428
 4259SOL    HW113676   0.637   6.981   0.439
 4259SOL    HW213677   0.517   6.903   0.518
 4260SOL     OW13678   5.996   0.301   4.808
 4260SOL    HW113679   5.921   0.235   4.803
 4260SOL    HW213680   6.042   0.307   4.720
 4261SOL     OW13681   2.723   6.252   3.567
 4261SOL    HW113682   2.639   6.200   3.579
 4261SOL    HW213683   2.757   6.240   3.474
 4262SOL     OW13684   2.025   5.212   5.032
 4262SOL    HW113685   2.117   5.172   5.033
 4262SOL    HW213686   2.019   5.279   4.957
 4263SOL     OW13687   2.997   1.663   3.031
 4263SOL    HW113688   3.010   1.692   2.937
 4263SOL    HW213689   2.900   1.650   3.049
 4264SOL     OW13690   4.817   1.862   6.648
 4264SOL    HW113691   4.802   1.819   6.559
 4264SOL    HW213692   4.814   1.793   6.720
 4265SOL     OW13693   3.140   6.022   6.741
 4265SOL    HW113694   3.169   6.067   6.657
 4265SOL    HW213695   3.183   5.932   6.747
 4266SOL     OW13696   0.852   5.156   1.844
 4266SOL    HW113697   0.805   5.233   1.887
 4266SOL    HW213698   0.786   5.095   1.801
 4267SOL     OW13699   1.127   4.024   4.103
 4267SOL    HW113700   1.135   4.009   4.004
 4267SOL    HW213701   1.180   3.955   4.152
 4268SOL     OW13702   1.394   4.346   6.013
 4268SOL    HW113703   1.465   4.352   5.943
 4268SOL    HW213704   1.357   4.253   6.014
 4269SOL     OW13705   3.011   1.181   3.910
 4269SOL    HW113706   2.927   1.128   3.925
 4269SOL    HW213707   3.054   1.154   3.824
 4270SOL     OW13708   4.438   4.033   0.988
 4270SOL    HW113709   4.531   4.041   1.023
 4270SOL    HW213710   4.381   3.986   1.056
 4271SOL     OW13711   6.696   0.701   1.140
 4271SOL    HW113712   6.642   0.626   1.178
 4271SOL    HW213713   6.640   0.752   1.074
 4272SOL     OW13714   6.954   1.715   5.545
 4272SOL    HW113715   6.959   1.710   5.645
 4272SOL    HW213716   6.911   1.633   5.509
 4273SOL     OW13717   3.407   6.167   3.739
 4273SOL    HW113718   3.367   6.184   3.649
 4273SOL    HW213719   3.385   6.243   3.800
 4274SOL     OW13720   0.384   1.261   1.454
 4274SOL    HW113721   0.344   1.343   1.495
 4274SOL    HW213722   0.479   1.251   1.485
 4275SOL     OW13723   6.746   2.223   3.681
 4275SOL    HW113724   6.832   2.186   3.717
 4275SOL    HW213725   6.727   2.181   3.592
 4276SOL     OW13726   1.555   6.552   2.712
 4276SOL    HW113727   1.635   6.604   2.745
 4276SOL    HW213728   1.485   6.552   2.783
 4277SOL     OW13729   6.624   5.475   3.399
 4277SOL    HW113730   6.695   5.485   3.329
 4277SOL    HW213731   6.534   5.482   3.356
 4278SOL     OW13732   6.815   6.758   1.325
 4278SOL    HW113733   6.872   6.709   1.391
 4278SOL    HW213734   6.757   6.823   1.373
 4279SOL     OW13735   1.048   2.397   3.041
 4279SOL    HW113736   1.129   2.447   3.012
 4279SOL    HW213737   1.000   2.449   3.112
 4280SOL     OW13738   2.149   6.585   6.520
 4280SOL    HW113739   2.063   6.607   6.567
 4280SOL    HW213740   2.222   6.574   6.588
 4281SOL     OW13741   6.324   5.956   2.842
 4281SOL    HW113742   6.301   6.051   2.864
 4281SOL    HW213743   6.409   5.954   2.789
 4282SOL     OW13744   5.366   5.370   1.710
 4282SOL    HW113745   5.316   5.410   1.787
 4282SOL    HW213746   5.446   5.320   1.744
 4283SOL     OW13747   6.134   1.461   4.616
 4283SOL    HW113748   6.087   1.503   4.539
 4283SOL    HW213749   6.195   1.389   4.583
 4284SOL     OW13750   4.580   5.956   6.592
 4284SOL    HW113751   4.581   6.029   6.524
 4284SOL    HW213752   4.665   5.904   6.587
 4285SOL     OW13753   3.113   1.208   6.713
 4285SOL    HW113754   3.046   1.220   6.640
 4285SOL    HW213755   3.203   1.193   6.673
 4286SOL     OW13756   5.235   6.487   0.118
 4286SOL    HW113757   5.220   6.545   0.038
 4286SOL    HW213758   5.211   6.537   0.201
 4287SOL     OW13759   3.560   1.093   1.396
 4287SOL    HW113760   3.578   1.023   1.465
 4287SOL    HW213761   3.489   1.060   1.333
 4288SOL     OW13762   6.918   5.655   2.143
 4288SOL    HW113763   6.923   5.642   2.044
 4288SOL    HW213764   6.839   5.713   2.165
 4289SOL     OW13765   0.439   4.536   5.398
 4289SOL    HW113766   0.528   4.494   5.381
 4289SOL    HW213767   0.399   4.565   5.311
 4290SOL     OW13768   6.753   1.582   3.625
 4290SOL    HW113769   6.811   1.576   3.706
 4290SOL    HW213770   6.711   1.673   3.621
 4291SOL     OW13771   4.085   4.959   6.760
 4291SOL    HW113772   4.114   5.052   6.737
 4291SOL    HW213773   4.159   4.911   6.806
 4292SOL     OW13774   6.628   0.539   1.775
 4292SOL    HW113775   6.692   0.615   1.788
 4292SOL    HW213776   6.535   0.572   1.792
 4293SOL     OW13777   3.806   2.968   6.404
 4293SOL    HW113778   3.825   2.888   6.461
 4293SOL    HW213779   3.729   3.019   6.441
 4294SOL     OW13780   2.857   1.739   6.825
 4294SOL    HW113781   2.772   1.765   6.871
 4294SOL    HW213782   2.904   1.821   6.793
 4295SOL     OW13783   4.384   6.263   2.876
 4295SOL    HW113784   4.383   6.165   2.896
 4295SOL    HW213785   4.331   6.281   2.794
 4296SOL     OW13786   2.278   5.565   2.560
 4296SOL    HW113787   2.318   5.605   2.642
 4296SOL    HW213788   2.318   5.476   2.543
 4297SOL     OW13789   4.554   5.349   0.430
 4297SOL    HW113790   4.623   5.297   0.480
 4297SOL    HW213791   4.548   5.314   0.336
 4298SOL     OW13792   1.582   0.069   0.306
 4298SOL    HW113793   1.649   0.098   0.375
 4298SOL    HW213794   1.496   0.118   0.320
 4299SOL     OW13795   0.480   2.869   6.042
 4299SOL    HW113796   0.486   2.935   5.967
 4299SOL    HW213797   0.400   2.890   6.098
 4300SOL     OW13798   3.027   0.537   2.100
 4300SOL    HW113799   3.015   0.601   2.176
 4300SOL    HW213800   3.038   0.445   2.136
 4301SOL     OW13801   1.868   6.308   5.208
 4301SOL    HW113802   1.864   6.221   5.159
 4301SOL    HW213803   1.882   6.383   5.143
 4302SOL     OW13804   3.513   5.208   6.837
 4302SOL    HW113805   3.613   5.203   6.837
 4302SOL    HW213806   3.482   5.267   6.911
 4303SOL     OW13807   4.470   5.346   3.636
 4303SOL    HW113808   4.443   5.252   3.655
 4303SOL    HW213809   4.416   5.408   3.693
 4304SOL     OW13810   2.971   4.024   1.760
 4304SOL    HW113811   2.993   4.120   1.745
 4304SOL    HW213812   2.897   3.996   1.698
 4305SOL     OW13813   0.577   6.338   5.488
 4305SOL    HW113814   0.647   6.345   5.416
 4305SOL    HW213815   0.532   6.249   5.483
 4306SOL     OW13816   5.604   3.192   5.341
 4306SOL    HW113817   5.518   3.160   5.381
 4306SOL    HW213818   5.614   3.290   5.356
 4307SOL     OW13819   6.837   1.458   5.489
 4307SOL    HW113820   6.918   1.400   5.489
 4307SOL    HW213821   6.755   1.401   5.491
 4308SOL     OW13822   3.946   5.765   6.165
 4308SOL    HW113823   4.037   5.748   6.127
 4308SOL    HW213824   3.950   5.758   6.265
 4309SOL     OW13825   2.615   1.705   0.683
 4309SOL    HW113826   2.631   1.641   0.608
 4309SOL    HW213827   2.641   1.663   0.770
 4310SOL     OW13828   6.069   2.038   3.650
 4310SOL    HW113829   6.023   1.973   3.712
 4310SOL    HW213830   6.011   2.054   3.570
 4311SOL     OW13831   0.318   6.686   1.216
 4311SOL    HW113832   0.413   6.708   1.197
 4311SOL    HW213833   0.259   6.762   1.188
 4312SOL     OW13834   0.053   3.643   2.333
 4312SOL    HW113835   0.040   3.738   2.303
 4312SOL    HW213836   0.033   3.581   2.257
 4313SOL     OW13837   0.823   3.230   0.329
 4313SOL    HW113838   0.795   3.259   0.238
 4313SOL    HW213839   0.886   3.297   0.367
 4314SOL     OW13840   1.751   1.647   5.604
 4314SOL    HW113841   1.702   1.644   5.691
 4314SOL    HW213842   1.707   1.712   5.543
 4315SOL     OW13843   2.784   2.089   5.283
 4315SOL    HW113844   2.821   1.996   5.273
 4315SOL    HW213845   2.858   2.151   5.307
 4316SOL     OW13846   4.593   5.368   2.095
 4316SOL    HW113847   4.670   5.337   2.038
 4316SOL    HW213848   4.627   5.428   2.167
 4317SOL     OW13849   4.931   0.607   4.638
 4317SOL    HW113850   4.958   0.580   4.545
 4317SOL    HW213851   4.991   0.563   4.705
 4318SOL     OW13852   1.852   5.991   3.609
 4318SOL    HW113853   1.819   5.907   3.651
 4318SOL    HW213854   1.776   6.056   3.601
 4319SOL     OW13855   1.672   5.082   2.495
 4319SOL    HW113856   1.642   5.001   2.444
 4319SOL    HW213857   1.769   5.074   2.517
 4320SOL     OW13858   3.388   0.335   1.302
 4320SOL    HW113859   3.355   0.429   1.297
 4320SOL    HW213860   3.312   0.273   1.322
 4321SOL     OW13861   6.686   5.731   2.660
 4321SOL    HW113862   6.593   5.706   2.632
 4321SOL    HW213863   6.746   5.652   2.649
 4322SOL     OW13864   2.589   2.497   3.801
 4322SOL    HW113865   2.684   2.464   3.803
 4322SOL    HW213866   2.530   2.425   3.764
 4323SOL     OW13867   4.949   4.729   1.146
 4323SOL    HW113868   4.924   4.654   1.206
 4323SOL    HW213869   5.048   4.730   1.133
 4324SOL     OW13870   0.182   4.088   5.987
 4324SOL    HW113871   0.218   4.135   5.906
 4324SOL    HW213872   0.247   4.097   6.062
 4325SOL     OW13873   1.643   0.382   1.189
 4325SOL    HW113874   1.634   0.471   1.144
 4325SOL    HW213875   1.695   0.393   1.274
 4326SOL     OW13876   4.736   2.792   3.022
 4326SOL    HW113877   4.771   2.862   2.960
 4326SOL    HW213878   4.736   2.828   3.116
 4327SOL     OW13879   3.159   6.593   3.949
 4327SOL    HW113880   3.240   6.640   3.912
 4327SOL    HW213881   3.127   6.641   4.030
 4328SOL     OW13882   6.149   0.027   3.117
 4328SOL    HW113883   6.066   7.003   3.082
 4328SOL    HW213884   6.201   6.978   3.169
 4329SOL     OW13885   6.186   3.850   0.372
 4329SOL    HW113886   6.125   3.880   0.445
 4329SOL    HW213887   6.183   3.918   0.298
 4330SOL     OW13888   2.475   5.234   4.591
 4330SOL    HW113889   2.377   5.214   4.595
 4330SOL    HW213890   2.506   5.236   4.496
 4331SOL     OW13891   5.608   1.509   2.342
 4331SOL    HW113892   5.642   1.475   2.254
 4331SOL    HW213893   5.678   1.565   2.386
 4332SOL     OW13894   6.793   5.674   1.277
 4332SOL    HW113895   6.775   5.694   1.181
 4332SOL    HW213896   6.854   5.743   1.315
 4333SOL     OW13897   3.629   2.915   6.216
 4333SOL    HW113898   3.699   2.937   6.284
 4333SOL    HW213899   3.604   2.819   6.222
 4334SOL     OW13900   6.958   2.681   4.009
 4334SOL    HW113901   6.860   2.694   3.991
 4334SOL    HW213902   7.002   2.646   3.926
 4335SOL     OW13903   2.496   4.011   1.703
 4335SOL    HW113904   2.576   3.953   1.717
 4335SOL    HW213905   2.507   4.064   1.618
 4336SOL     OW13906   3.099   5.549   5.458
 4336SOL    HW113907   3.043   5.569   5.539
 4336SOL    HW213908   3.165   5.623   5.444
 4337SOL     OW13909   6.741   4.699   3.518
 4337SOL    HW113910   6.836   4.724   3.500
 4337SOL    HW213911   6.685   4.720   3.438
 4338SOL     OW13912   3.133   2.250   6.165
 4338SOL    HW113913   3.066   2.217   6.099
 4338SOL    HW213914   3.221   2.263   6.119
 4339SOL     OW13915   4.324   4.444   5.508
 4339SOL    HW113916   4.282   4.429   5.419
 4339SOL    HW213917   4.322   4.360   5.561
 4340SOL     OW13918   6.906   4.112   0.387
 4340SOL    HW113919   6.813   4.140   0.411
 4340SOL    HW213920   6.967   4.191   0.395
 4341SOL     OW13921   6.264   5.432   1.021
 4341SOL    HW113922   6.195   5.501   1.045
 4341SOL    HW213923   6.355   5.468   1.040
 4342SOL     OW13924   5.254   3.402   2.610
 4342SOL    HW113925   5.256   3.343   2.529
 4342SOL    HW213926   5.169   3.455   2.610
 4343SOL     OW13927   3.982   0.440   6.500
 4343SOL    HW113928   4.062   0.480   6.455
 4343SOL    HW213929   3.959   0.353   6.456
 4344SOL     OW13930   1.154   4.130   2.384
 4344SOL    HW113931   1.101   4.171   2.458
 4344SOL    HW213932   1.093   4.087   2.318
 4345SOL     OW13933   3.707   3.589   3.059
 4345SOL    HW113934   3.708   3.641   2.973
 4345SOL    HW213935   3.726   3.493   3.040
 4346SOL     OW13936   0.723   3.552   2.582
 4346SOL    HW113937   0.815   3.516   2.566
 4346SOL    HW213938   0.656   3.499   2.530
 4347SOL     OW13939   6.598   5.604   0.550
 4347SOL    HW113940   6.499   5.609   0.567
 4347SOL    HW213941   6.642   5.554   0.624
 4348SOL     OW13942   6.001   3.895   5.833
 4348SOL    HW113943   5.960   3.981   5.802
 4348SOL    HW213944   5.953   3.864   5.915
 4349SOL     OW13945   1.091   4.281   4.139
 4349SOL    HW113946   1.076   4.298   4.237
 4349SOL    HW213947   1.100   4.182   4.124
 4350SOL     OW13948   4.707   0.620   3.880
 4350SOL    HW113949   4.753   0.709   3.877
 4350SOL    HW213950   4.669   0.599   3.790
 4351SOL     OW13951   0.072   5.804   0.869
 4351SOL    HW113952   0.102   5.744   0.943
 4351SOL    HW213953   7.004   5.771   0.832
 4352SOL     OW13954   3.437   4.656   1.603
 4352SOL    HW113955   3.461   4.735   1.548
 4352SOL    HW213956   3.492   4.656   1.687
 4353SOL     OW13957   2.443   4.041   0.884
 4353SOL    HW113958   2.505   3.964   0.874
 4353SOL    HW213959   2.408   4.068   0.794
 4354SOL     OW13960   5.350   5.626   2.379
 4354SOL    HW113961   5.400   5.548   2.416
 4354SOL    HW213962   5.288   5.662   2.449
 4355SOL     OW13963   2.637   5.100   3.133
 4355SOL    HW113964   2.653   5.063   3.225
 4355SOL    HW213965   2.614   5.197   3.140
 4356SOL     OW13966   5.840   2.327   5.777
 4356SOL    HW113967   5.776   2.395   5.742
 4356SOL    HW213968   5.825   2.316   5.876
 4357SOL     OW13969   5.819   6.077   2.041
 4357SOL    HW113970   5.749   6.010   2.066
 4357SOL    HW213971   5.785   6.169   2.059
 4358SOL     OW13972   2.797   0.588   0.668
 4358SOL    HW113973   2.860   0.631   0.733
 4358SOL    HW213974   2.710   0.570   0.713
 4359SOL     OW13975   2.424   2.268   1.823
 4359SOL    HW113976   2.478   2.340   1.867
 4359SOL    HW213977   2.371   2.220   1.893
 4360SOL     OW13978   2.520   5.782   3.827
 4360SOL    HW113979   2.609   5.767   3.784
 4360SOL    HW213980   2.484   5.695   3.860
 4361SOL     OW13981   1.249   1.589   0.115
 4361SOL    HW113982   1.178   1.656   0.133
 4361SOL    HW213983   1.207   1.500   0.097
 4362SOL     OW13984   0.774   5.215   2.787
 4362SOL    HW113985   0.686   5.261   2.791
 4362SOL    HW213986   0.761   5.117   2.771
 4363SOL     OW13987   3.541   0.576   2.191
 4363SOL    HW113988   3.574   0.546   2.281
 4363SOL    HW213989   3.468   0.643   2.204
 4364SOL     OW13990   3.194   4.023   2.970
 4364SOL    HW113991   3.259   4.054   3.039
 4364SOL    HW213992   3.241   4.014   2.882
 4365SOL     OW13993   2.346   1.052   1.031
 4365SOL    HW113994   2.402   1.125   1.068
 4365SOL    HW213995   2.304   1.000   1.105
 4366SOL     OW13996   5.282   5.832   4.717
 4366SOL    HW113997   5.317   5.782   4.638
 4366SOL    HW213998   5.207   5.892   4.689
 4367SOL     OW13999   2.865   6.619   2.244
 4367SOL    HW114000   2.906   6.545   2.191
 4367SOL    HW214001   2.843   6.586   2.336
 4368SOL     OW14002   4.871   3.887   4.161
 4368SOL    HW114003   4.908   3.807   4.208
 4368SOL    HW214004   4.843   3.956   4.227
 4369SOL     OW14005   5.970   4.084   3.689
 4369SOL    HW114006   6.019   4.103   3.774
 4369SOL    HW214007   5.876   4.058   3.710
 4370SOL     OW14008   4.115   5.047   0.467
 4370SOL    HW114009   4.139   5.140   0.439
 4370SOL    HW214010   4.028   5.049   0.516
 4371SOL     OW14011   3.416   1.370   2.936
 4371SOL    HW114012   3.355   1.386   3.013
 4371SOL    HW214013   3.506   1.410   2.956
 4372SOL     OW14014   1.898   4.535   4.714
 4372SOL    HW114015   1.955   4.516   4.634
 4372SOL    HW214016   1.897   4.455   4.773
 4373SOL     OW14017   4.134   0.470   0.509
 4373SOL    HW114018   4.050   0.509   0.546
 4373SOL    HW214019   4.113   0.384   0.461
 4374SOL     OW14020   2.683   6.478   0.555
 4374SOL    HW114021   2.623   6.491   0.634
 4374SOL    HW214022   2.628   6.464   0.473
 4375SOL     OW14023   3.780   1.707   5.564
 4375SOL    HW114024   3.708   1.735   5.501
 4375SOL    HW214025   3.745   1.713   5.658
 4376SOL     OW14026   2.151   5.969   0.162
 4376SOL    HW114027   2.211   5.909   0.216
 4376SOL    HW214028   2.079   6.005   0.221
 4377SOL     OW14029   5.050   5.919   6.842
 4377SOL    HW114030   5.140   5.930   6.798
 4377SOL    HW214031   5.061   5.864   6.925
 4378SOL     OW14032   2.922   5.168   2.380
 4378SOL    HW114033   2.945   5.206   2.470
 4378SOL    HW214034   2.987   5.202   2.312
 4379SOL     OW14035   0.125   6.802   0.878
 4379SOL    HW114036   0.217   6.802   0.837
 4379SOL    HW214037   0.099   6.709   0.900
 4380SOL     OW14038   2.139   5.751   4.194
 4380SOL    HW114039   2.050   5.736   4.237
 4380SOL    HW214040   2.211   5.742   4.263
 4381SOL     OW14041   4.120   5.828   5.059
 4381SOL    HW114042   4.108   5.738   5.015
 4381SOL    HW214043   4.215   5.856   5.052
 4382SOL     OW14044   5.548   4.613   2.573
 4382SOL    HW114045   5.482   4.561   2.627
 4382SOL    HW214046   5.537   4.711   2.592
 4383SOL     OW14047   1.058   0.993   0.580
 4383SOL    HW114048   1.046   1.044   0.495
 4383SOL    HW214049   1.080   1.057   0.654
 4384SOL     OW14050   3.497   0.239   2.120
 4384SOL    HW114051   3.460   0.327   2.152
 4384SOL    HW214052   3.423   0.172   2.116
 4385SOL     OW14053   6.057   2.414   2.834
 4385SOL    HW114054   6.059   2.483   2.762
 4385SOL    HW214055   6.135   2.428   2.895
 4386SOL     OW14056   1.800   4.366   0.040
 4386SOL    HW114057   1.753   4.283   0.068
 4386SOL    HW214058   1.802   4.372   6.959
 4387SOL     OW14059   6.219   2.337   1.608
 4387SOL    HW114060   6.183   2.333   1.514
 4387SOL    HW214061   6.194   2.253   1.656
 4388SOL     OW14062   3.527   1.673   5.475
 4388SOL    HW114063   3.497   1.579   5.492
 4388SOL    HW214064   3.469   1.737   5.526
 4389SOL     OW14065   6.264   2.444   2.433
 4389SOL    HW114066   6.300   2.353   2.451
 4389SOL    HW214067   6.230   2.448   2.338
 4390SOL     OW14068   4.087   2.979   0.988
 4390SOL    HW114069   3.988   2.994   0.995
 4390SOL    HW214070   4.132   3.066   0.970
 4391SOL     OW14071   0.611   6.402   0.175
 4391SOL    HW114072   0.542   6.361   0.234
 4391SOL    HW214073   0.622   6.346   0.093
 4392SOL     OW14074   5.344   4.723   5.341
 4392SOL    HW114075   5.326   4.806   5.288
 4392SOL    HW214076   5.289   4.647   5.305
 4393SOL     OW14077   5.001   6.296   3.021
 4393SOL    HW114078   4.991   6.199   2.998
 4393SOL    HW214079   4.929   6.349   2.976
 4394SOL     OW14080   4.413   0.583   2.158
 4394SOL    HW114081   4.390   0.486   2.166
 4394SOL    HW214082   4.342   0.630   2.105
 4395SOL     OW14083   4.824   1.981   0.908
 4395SOL    HW114084   4.809   1.903   0.969
 4395SOL    HW214085   4.757   2.052   0.928
 4396SOL     OW14086   1.552   1.314   3.521
 4396SOL    HW114087   1.649   1.333   3.540
 4396SOL    HW214088   1.522   1.368   3.443
 4397SOL     OW14089   5.141   6.904   6.359
 4397SOL    HW114090   5.178   6.996   6.373
 4397SOL    HW214091   5.178   6.843   6.429
 4398SOL     OW14092   0.158   5.168   4.642
 4398SOL    HW114093   0.210   5.234   4.589
 4398SOL    HW214094   0.201   5.154   4.731
 4399SOL     OW14095   3.200   1.370   2.726
 4399SOL    HW114096   3.250   1.388   2.811
 4399SOL    HW214097   3.243   1.420   2.651
 4400SOL     OW14098   4.159   5.526   3.200
 4400SOL    HW114099   4.171   5.431   3.172
 4400SOL    HW214100   4.218   5.585   3.145
 4401SOL     OW14101   5.865   5.617   4.844
 4401SOL    HW114102   5.934   5.579   4.782
 4401SOL    HW214103   5.790   5.656   4.790
 4402SOL     OW14104   6.736   6.273   2.454
 4402SOL    HW114105   6.726   6.174   2.445
 4402SOL    HW214106   6.811   6.304   2.396
 4403SOL     OW14107   0.243   1.160   2.325
 4403SOL    HW114108   0.229   1.061   2.325
 4403SOL    HW214109   0.223   1.196   2.234
 4404SOL     OW14110   2.391   5.036   2.442
 4404SOL    HW114111   2.442   5.027   2.528
 4404SOL    HW214112   2.420   5.120   2.396
 4405SOL     OW14113   2.780   4.004   5.865
 4405SOL    HW114114   2.697   3.953   5.845
 4405SOL    HW214115   2.836   3.951   5.929
 4406SOL     OW14116   6.056   3.249   2.115
 4406SOL    HW114117   6.000   3.169   2.093
 4406SOL    HW214118   6.122   3.264   2.041
 4407SOL     OW14119   0.402   1.187   0.129
 4407SOL    HW114120   0.419   1.134   0.046
 4407SOL    HW214121   0.403   1.126   0.208
 4408SOL     OW14122   3.922   6.257   1.247
 4408SOL    HW114123   3.870   6.175   1.226
 4408SOL    HW214124   3.860   6.327   1.283
 4409SOL     OW14125   2.599   2.042   2.824
 4409SOL    HW114126   2.675   1.979   2.839
 4409SOL    HW214127   2.611   2.088   2.736
 4410SOL     OW14128   1.769   5.775   1.560
 4410SOL    HW114129   1.763   5.772   1.660
 4410SOL    HW214130   1.818   5.694   1.527
 4411SOL     OW14131   4.110   3.349   2.553
 4411SOL    HW114132   4.132   3.352   2.650
 4411SOL    HW214133   4.027   3.296   2.539
 4412SOL     OW14134   3.420   1.651   5.828
 4412SOL    HW114135   3.348   1.613   5.886
 4412SOL    HW214136   3.378   1.699   5.751
 4413SOL     OW14137   4.432   5.076   3.663
 4413SOL    HW114138   4.464   5.089   3.569
 4413SOL    HW214139   4.463   4.987   3.697
 4414SOL     OW14140   3.398   4.987   1.876
 4414SOL    HW114141   3.452   4.924   1.821
 4414SOL    HW214142   3.336   4.935   1.935
 4415SOL     OW14143   4.524   1.551   1.269
 4415SOL    HW114144   4.551   1.456   1.287
 4415SOL    HW214145   4.447   1.553   1.206
 4416SOL     OW14146   2.504   2.100   4.656
 4416SOL    HW114147   2.557   2.176   4.619
 4416SOL    HW214148   2.412   2.131   4.679
 4417SOL     OW14149   6.035   6.512   1.385
 4417SOL    HW114150   5.970   6.497   1.310
 4417SOL    HW214151   6.090   6.430   1.398
 4418SOL     OW14152   4.903   1.027   3.384
 4418SOL    HW114153   4.892   0.940   3.433
 4418SOL    HW214154   4.939   1.009   3.292
 4419SOL     OW14155   6.259   5.553   6.339
 4419SOL    HW114156   6.223   5.496   6.265
 4419SOL    HW214157   6.201   5.543   6.420
 4420SOL     OW14158   4.215   0.717   6.995
 4420SOL    HW114159   4.312   0.720   7.016
 4420SOL    HW214160   4.175   0.633   0.014
 4421SOL     OW14161   0.438   1.307   3.294
 4421SOL    HW114162   0.420   1.236   3.226
 4421SOL    HW214163   0.362   1.372   3.296
 4422SOL     OW14164   1.516   4.576   5.809
 4422SOL    HW114165   1.446   4.569   5.737
 4422SOL    HW214166   1.599   4.529   5.779
 4423SOL     OW14167   0.110   1.621   6.158
 4423SOL    HW114168   0.011   1.631   6.157
 4423SOL    HW214169   0.133   1.524   6.168
 4424SOL     OW14170   1.276   5.594   3.723
 4424SOL    HW114171   1.215   5.521   3.692
 4424SOL    HW214172   1.235   5.642   3.800
 4425SOL     OW14173   5.330   4.474   0.897
 4425SOL    HW114174   5.252   4.537   0.898
 4425SOL    HW214175   5.320   4.408   0.972
 4426SOL     OW14176   0.853   0.517   6.146
 4426SOL    HW114177   0.927   0.579   6.173
 4426SOL    HW214178   0.875   0.476   6.057
 4427SOL     OW14179   1.226   5.779   3.405
 4427SOL    HW114180   1.303   5.759   3.466
 4427SOL    HW214181   1.149   5.719   3.427
 4428SOL     OW14182   2.013   7.006   3.054
 4428SOL    HW114183   1.996   7.016   3.152
 4428SOL    HW214184   2.109   6.981   3.039
 4429SOL     OW14185   3.308   0.646   3.299
 4429SOL    HW114186   3.211   0.662   3.280
 4429SOL    HW214187   3.326   0.664   3.395
 4430SOL     OW14188   1.126   0.934   1.997
 4430SOL    HW114189   1.200   1.001   1.987
 4430SOL    HW214190   1.080   0.923   1.909
 4431SOL     OW14191   2.388   2.098   3.544
 4431SOL    HW114192   2.416   2.126   3.453
 4431SOL    HW214193   2.387   1.998   3.549
 4432SOL     OW14194   2.914   3.550   4.044
 4432SOL    HW114195   3.004   3.583   4.072
 4432SOL    HW214196   2.911   3.539   3.945
 4433SOL     OW14197   6.490   0.542   2.636
 4433SOL    HW114198   6.537   0.583   2.714
 4433SOL    HW214199   6.544   0.465   2.602
 4434SOL     OW14200   5.391   2.405   5.024
 4434SOL    HW114201   5.469   2.358   4.981
 4434SOL    HW214202   5.312   2.402   4.963
 4435SOL     OW14203   3.981   3.127   1.976
 4435SOL    HW114204   3.948   3.070   2.051
 4435SOL    HW214205   4.057   3.183   2.009
 4436SOL     OW14206   5.175   0.194   0.746
 4436SOL    HW114207   5.173   0.094   0.747
 4436SOL    HW214208   5.270   0.225   0.749
 4437SOL     OW14209   3.650   0.332   5.397
 4437SOL    HW114210   3.607   0.393   5.463
 4437SOL    HW214211   3.749   0.335   5.409
 4438SOL     OW14212   3.853   3.351   6.063
 4438SOL    HW114213   3.906   3.272   6.033
 4438SOL    HW214214   3.914   3.416   6.110
 4439SOL     OW14215   2.084   4.510   2.502
 4439SOL    HW114216   2.035   4.556   2.428
 4439SOL    HW214217   2.080   4.566   2.585
 4440SOL     OW14218   6.346   1.417   0.441
 4440SOL    HW114219   6.264   1.469   0.463
 4440SOL    HW214220   6.412   1.476   0.396
 4441SOL     OW14221   6.227   0.397   3.585
 4441SOL    HW114222   6.228   0.497   3.590
 4441SOL    HW214223   6.156   0.367   3.522
 4442SOL     OW14224   1.800   6.123   1.798
 4442SOL    HW114225   1.741   6.149   1.874
 4442SOL    HW214226   1.894   6.153   1.816
 4443SOL     OW14227   2.431   1.358   7.014
 4443SOL    HW114228   2.406   1.277   0.047
 4443SOL    HW214229   2.380   1.360   6.927
 4444SOL     OW14230   4.478   1.098   2.980
 4444SOL    HW114231   4.538   1.114   3.058
 4444SOL    HW214232   4.422   1.017   2.997
 4445SOL     OW14233   0.807   0.975   6.134
 4445SOL    HW114234   0.768   0.959   6.044
 4445SOL    HW214235   0.798   1.071   6.158
 4446SOL     OW14236   5.159   4.486   3.880
 4446SOL    HW114237   5.190   4.503   3.786
 4446SOL    HW214238   5.238   4.462   3.937
 4447SOL     OW14239   4.976   3.024   5.360
 4447SOL    HW114240   5.010   3.072   5.440
 4447SOL    HW214241   4.904   3.079   5.317
 4448SOL     OW14242   2.074   3.267   6.682
 4448SOL    HW114243   2.011   3.291   6.608
 4448SOL    HW214244   2.117   3.179   6.662
 4449SOL     OW14245   0.256   0.951   5.578
 4449SOL    HW114246   0.334   1.007   5.606
 4449SOL    HW214247   0.219   0.986   5.492
 4450SOL     OW14248   3.492   3.427   2.230
 4450SOL    HW114249   3.529   3.498   2.170
 4450SOL    HW214250   3.542   3.427   2.316
 4451SOL     OW14251   0.185   4.083   0.857
 4451SOL    HW114252   0.134   4.127   0.931
 4451SOL    HW214253   0.187   3.985   0.871
 4452SOL     OW14254   6.306   3.067   6.453
 4452SOL    HW114255   6.252   3.141   6.414
 4452SOL    HW214256   6.393   3.059   6.404
 4453SOL     OW14257   5.273   0.941   0.784
 4453SOL    HW114258   5.325   0.974   0.705
 4453SOL    HW214259   5.237   0.850   0.764
 4454SOL     OW14260   4.966   3.026   1.930
 4454SOL    HW114261   4.892   3.006   1.994
 4454SOL    HW214262   4.997   2.942   1.886
 4455SOL     OW14263   4.373   2.379   2.467
 4455SOL    HW114264   4.381   2.426   2.555
 4455SOL    HW214265   4.285   2.332   2.463
 4456SOL     OW14266   0.960   5.437   2.843
 4456SOL    HW114267   0.909   5.351   2.838
 4456SOL    HW214268   0.997   5.459   2.753
 4457SOL     OW14269   4.346   1.933   0.029
 4457SOL    HW114270   4.442   1.950   0.010
 4457SOL    HW214271   4.334   1.837   0.056
 4458SOL     OW14272   4.254   1.533   1.197
 4458SOL    HW114273   4.201   1.455   1.163
 4458SOL    HW214274   4.225   1.616   1.150
 4459SOL     OW14275   5.390   6.487   5.006
 4459SOL    HW114276   5.463   6.423   5.032
 4459SOL    HW214277   5.383   6.559   5.075
 4460SOL     OW14278   1.094   1.215   6.732
 4460SOL    HW114279   1.011   1.269   6.717
 4460SOL    HW214280   1.162   1.239   6.662
 4461SOL     OW14281   2.085   6.986   2.215
 4461SOL    HW114282   2.080   0.002   2.121
 4461SOL    HW214283   2.102   0.043   2.278
 4462SOL     OW14284   6.611   4.524   0.272
 4462SOL    HW114285   6.662   4.515   0.186
 4462SOL    HW214286   6.659   4.475   0.345
 4463SOL     OW14287   1.277   4.129   6.434
 4463SOL    HW114288   1.192   4.107   6.386
 4463SOL    HW214289   1.256   4.173   6.522
 4464SOL     OW14290   6.642   2.896   0.170
 4464SOL    HW114291   6.704   2.968   0.141
 4464SOL    HW214292   6.596   2.857   0.090
 4465SOL     OW14293   0.313   5.667   0.330
 4465SOL    HW114294   0.221   5.671   0.368
 4465SOL    HW214295   0.347   5.573   0.336
 4466SOL     OW14296   6.915   2.961   3.311
 4466SOL    HW114297   6.995   2.994   3.260
 4466SOL    HW214298   6.853   2.914   3.250
 4467SOL     OW14299   1.031   0.345   3.227
 4467SOL    HW114300   1.030   0.275   3.299
 4467SOL    HW214301   1.015   0.303   3.138
 4468SOL     OW14302   1.913   2.029   0.936
 4468SOL    HW114303   2.013   2.035   0.928
 4468SOL    HW214304   1.878   2.110   0.982
 4469SOL     OW14305   4.363   6.928   0.459
 4469SOL    HW114306   4.281   6.904   0.510
 4469SOL    HW214307   4.381   0.007   0.470
 4470SOL     OW14308   4.858   5.255   1.142
 4470SOL    HW114309   4.762   5.236   1.122
 4470SOL    HW214310   4.882   5.213   1.230
 4471SOL     OW14311   6.431   2.598   0.945
 4471SOL    HW114312   6.376   2.514   0.943
 4471SOL    HW214313   6.454   2.625   0.851
 4472SOL     OW14314   2.122   4.746   1.459
 4472SOL    HW114315   2.073   4.672   1.505
 4472SOL    HW214316   2.057   4.803   1.408
 4473SOL     OW14317   6.962   0.761   6.616
 4473SOL    HW114318   6.945   0.843   6.561
 4473SOL    HW214319   6.934   0.680   6.565
 4474SOL     OW14320   6.227   0.819   4.411
 4474SOL    HW114321   6.299   0.884   4.385
 4474SOL    HW214322   6.267   0.728   4.424
 4475SOL     OW14323   1.735   3.867   0.752
 4475SOL    HW114324   1.659   3.817   0.713
 4475SOL    HW214325   1.731   3.963   0.724
 4476SOL     OW14326   5.199   6.453   2.753
 4476SOL    HW114327   5.123   6.412   2.803
 4476SOL    HW214328   5.269   6.483   2.818
 4477SOL     OW14329   1.422   2.114   0.786
 4477SOL    HW114330   1.460   2.182   0.849
 4477SOL    HW214331   1.322   2.118   0.789
 4478SOL     OW14332   1.205   4.885   1.917
 4478SOL    HW114333   1.190   4.984   1.911
 4478SOL    HW214334   1.299   4.865   1.889
 4479SOL     OW14335   1.392   0.177   6.124
 4479SOL    HW114336   1.325   0.130   6.182
 4479SOL    HW214337   1.466   0.213   6.181
 4480SOL     OW14338   6.860   4.302   3.386
 4480SOL    HW114339   6.793   4.366   3.421
 4480SOL    HW214340   6.925   4.279   3.459
 4481SOL     OW14341   0.607   0.929   3.994
 4481SOL    HW114342   0.631   0.983   4.074
 4481SOL    HW214343   0.520   0.881   4.010
 4482SOL     OW14344   1.547   3.996   3.028
 4482SOL    HW114345   1.574   3.899   3.026
 4482SOL    HW214346   1.575   4.040   2.943
 4483SOL     OW14347   6.154   3.021   1.273
 4483SOL    HW114348   6.235   3.015   1.215
 4483SOL    HW214349   6.072   2.998   1.220
 4484SOL     OW14350   3.413   3.520   6.122
 4484SOL    HW114351   3.469   3.438   6.133
 4484SOL    HW214352   3.425   3.580   6.202
 4485SOL     OW14353   4.603   0.260   6.976
 4485SOL    HW114354   4.690   0.304   6.954
 4485SOL    HW214355   4.550   0.319   0.019
 4486SOL     OW14356   6.141   3.327   3.846
 4486SOL    HW114357   6.155   3.379   3.930
 4486SOL    HW214358   6.047   3.293   3.843
 4487SOL     OW14359   3.125   2.863   5.626
 4487SOL    HW114360   3.158   2.950   5.589
 4487SOL    HW214361   3.196   2.793   5.616
 4488SOL     OW14362   6.662   1.654   6.516
 4488SOL    HW114363   6.752   1.609   6.512
 4488SOL    HW214364   6.628   1.668   6.424
 4489SOL     OW14365   0.635   1.367   2.521
 4489SOL    HW114366   0.568   1.295   2.504
 4489SOL    HW214367   0.706   1.364   2.451
 4490SOL     OW14368   6.493   2.226   3.797
 4490SOL    HW114369   6.586   2.221   3.760
 4490SOL    HW214370   6.430   2.255   3.724
 4491SOL     OW14371   2.160   3.843   2.634
 4491SOL    HW114372   2.153   3.930   2.683
 4491SOL    HW214373   2.184   3.861   2.538
 4492SOL     OW14374   5.048   4.634   6.327
 4492SOL    HW114375   5.000   4.679   6.402
 4492SOL    HW214376   5.068   4.700   6.255
 4493SOL     OW14377   6.147   4.896   3.833
 4493SOL    HW114378   6.099   4.979   3.863
 4493SOL    HW214379   6.207   4.864   3.906
 4494SOL     OW14380   5.278   2.732   3.050
 4494SOL    HW114381   5.356   2.744   2.990
 4494SOL    HW214382   5.204   2.794   3.022
 4495SOL     OW14383   4.955   6.191   1.991
 4495SOL    HW114384   4.885   6.155   1.929
 4495SOL    HW214385   5.015   6.117   2.020
 4496SOL     OW14386   5.824   4.082   6.031
 4496SOL    HW114387   5.802   3.991   5.997
 4496SOL    HW214388   5.923   4.091   6.040
 4497SOL     OW14389   6.510   5.608   0.850
 4497SOL    HW114390   6.501   5.611   0.949
 4497SOL    HW214391   6.556   5.692   0.818
 4498SOL     OW14392   1.241   3.996   6.835
 4498SOL    HW114393   1.314   3.989   6.903
 4498SOL    HW214394   1.153   3.979   6.879
 4499SOL     OW14395   5.004   3.400   0.079
 4499SOL    HW114396   5.009   3.494   0.045
 4499SOL    HW214397   5.071   3.387   0.152
 4500SOL     OW14398   3.972   3.831   2.950
 4500SOL    HW114399   3.957   3.828   3.049
 4500SOL    HW214400   4.042   3.764   2.925
 4501SOL     OW14401   1.637   5.013   4.781
 4501SOL    HW114402   1.692   5.019   4.864
 4501SOL    HW214403   1.691   5.043   4.702
 4502SOL     OW14404   5.576   2.902   6.879
 4502SOL    HW114405   5.493   2.899   6.935
 4502SOL    HW214406   5.591   2.813   6.838
 4503SOL     OW14407   1.648   3.622   2.666
 4503SOL    HW114408   1.635   3.678   2.748
 4503SOL    HW214409   1.685   3.679   2.592
 4504SOL     OW14410   4.624   2.613   4.159
 4504SOL    HW114411   4.657   2.683   4.222
 4504SOL    HW214412   4.546   2.565   4.199
 4505SOL     OW14413   1.687   5.019   6.679
 4505SOL    HW114414   1.651   5.083   6.747
 4505SOL    HW214415   1.639   5.032   6.593
 4506SOL     OW14416   4.087   6.797   4.891
 4506SOL    HW114417   3.996   6.755   4.882
 4506SOL    HW214418   4.077   6.896   4.900
 4507SOL     OW14419   6.211   3.115   2.330
 4507SOL    HW114420   6.209   3.016   2.321
 4507SOL    HW214421   6.162   3.156   2.253
 4508SOL     OW14422   2.299   3.845   0.212
 4508SOL    HW114423   2.374   3.912   0.214
 4508SOL    HW214424   2.252   3.850   0.124
 4509SOL     OW14425   0.294   1.818   3.616
 4509SOL    HW114426   0.319   1.753   3.544
 4509SOL    HW214427   0.374   1.873   3.639
 4510SOL     OW14428   3.269   6.463   6.087
 4510SOL    HW114429   3.171   6.448   6.097
 4510SOL    HW214430   3.286   6.556   6.054
 4511SOL     OW14431   6.557   2.135   6.861
 4511SOL    HW114432   6.497   2.206   6.823
 4511SOL    HW214433   6.516   2.045   6.845
 4512SOL     OW14434   2.502   4.471   6.833
 4512SOL    HW114435   2.557   4.553   6.817
 4512SOL    HW214436   2.546   4.393   6.788
 4513SOL     OW14437   5.981   1.262   2.608
 4513SOL    HW114438   6.050   1.258   2.536
 4513SOL    HW214439   5.961   1.169   2.639
 4514SOL     OW14440   3.379   0.614   5.877
 4514SOL    HW114441   3.417   0.676   5.945
 4514SOL    HW214442   3.418   0.635   5.787
 4515SOL     OW14443   6.345   4.944   0.358
 4515SOL    HW114444   6.303   4.971   0.445
 4515SOL    HW214445   6.274   4.914   0.295
 4516SOL     OW14446   0.817   6.924   4.022
 4516SOL    HW114447   0.908   6.946   3.989
 4516SOL    HW214448   0.764   6.882   3.948
 4517SOL     OW14449   3.701   0.639   6.691
 4517SOL    HW114450   3.718   0.625   6.593
 4517SOL    HW214451   3.755   0.574   6.744
 4518SOL     OW14452   1.472   0.509   3.633
 4518SOL    HW114453   1.422   0.428   3.664
 4518SOL    HW214454   1.529   0.543   3.708
 4519SOL     OW14455   6.355   2.672   5.550
 4519SOL    HW114456   6.263   2.694   5.521
 4519SOL    HW214457   6.412   2.754   5.549
 4520SOL     OW14458   0.088   3.973   2.729
 4520SOL    HW114459   0.017   3.911   2.762
 4520SOL    HW214460   0.176   3.948   2.770
 4521SOL     OW14461   5.190   1.711   6.227
 4521SOL    HW114462   5.111   1.747   6.178
 4521SOL    HW214463   5.184   1.612   6.233
 4522SOL     OW14464   5.695   0.127   3.172
 4522SOL    HW114465   5.614   0.070   3.156
 4522SOL    HW214466   5.712   0.135   3.270
 4523SOL     OW14467   4.644   2.667   6.385
 4523SOL    HW114468   4.627   2.597   6.455
 4523SOL    HW214469   4.713   2.731   6.419
 4524SOL     OW14470   6.169   0.534   4.827
 4524SOL    HW114471   6.160   0.628   4.794
 4524SOL    HW214472   6.086   0.483   4.805
 4525SOL     OW14473   6.426   1.968   5.391
 4525SOL    HW114474   6.464   1.886   5.434
 4525SOL    HW214475   6.380   1.943   5.306
 4526SOL     OW14476   3.372   1.498   1.503
 4526SOL    HW114477   3.440   1.428   1.522
 4526SOL    HW214478   3.365   1.560   1.582
 4527SOL     OW14479   4.233   6.426   3.559
 4527SOL    HW114480   4.268   6.492   3.493
 4527SOL    HW214481   4.165   6.470   3.618
 4528SOL     OW14482   4.712   6.853   5.501
 4528SOL    HW114483   4.781   6.922   5.476
 4528SOL    HW214484   4.708   6.844   5.600
 4529SOL     OW14485   3.912   0.454   3.711
 4529SOL    HW114486   3.891   0.547   3.744
 4529SOL    HW214487   3.827   0.402   3.704
 4530SOL     OW14488   0.464   3.053   5.231
 4530SOL    HW114489   0.531   2.979   5.231
 4530SOL    HW214490   0.509   3.138   5.204
 4531SOL     OW14491   0.383   3.542   3.445
 4531SOL    HW114492   0.302   3.568   3.497
 4531SOL    HW214493   0.431   3.468   3.491
 4532SOL     OW14494   6.898   1.950   0.404
 4532SOL    HW114495   6.856   1.912   0.321
 4532SOL    HW214496   6.997   1.955   0.391
 4533SOL     OW14497   2.908   5.847   2.170
 4533SOL    HW114498   2.908   5.921   2.103
 4533SOL    HW214499   2.960   5.769   2.134
 4534SOL     OW14500   6.970   4.425   5.556
 4534SOL    HW114501   0.028   4.487   5.537
 4534SOL    HW214502   6.956   4.418   5.655
 4535SOL     OW14503   5.065   2.646   3.382
 4535SOL    HW114504   5.091   2.550   3.369
 4535SOL    HW214505   5.131   2.705   3.337
 4536SOL     OW14506   6.595   0.484   4.377
 4536SOL    HW114507   6.629   0.455   4.287
 4536SOL    HW214508   6.664   0.464   4.447
 4537SOL     OW14509   4.971   3.603   6.862
 4537SOL    HW114510   4.961   3.660   6.780
 4537SOL    HW214511   5.052   3.546   6.853
 4538SOL     OW14512   3.484   2.083   1.438
 4538SOL    HW114513   3.519   2.149   1.504
 4538SOL    HW214514   3.451   2.002   1.486
 4539SOL     OW14515   2.335   2.620   2.432
 4539SOL    HW114516   2.432   2.595   2.438
 4539SOL    HW214517   2.290   2.602   2.520
 4540SOL     OW14518   3.216   3.309   5.324
 4540SOL    HW114519   3.213   3.329   5.226
 4540SOL    HW214520   3.309   3.285   5.350
 4541SOL     OW14521   5.850   0.887   1.748
 4541SOL    HW114522   5.862   0.985   1.732
 4541SOL    HW214523   5.937   0.846   1.775
 4542SOL     OW14524   5.246   6.772   3.183
 4542SOL    HW114525   5.295   6.691   3.214
 4542SOL    HW214526   5.215   6.759   3.089
 4543SOL     OW14527   5.671   1.639   1.655
 4543SOL    HW114528   5.590   1.636   1.598
 4543SOL    HW214529   5.646   1.668   1.748
 4544SOL     OW14530   4.509   5.227   6.404
 4544SOL    HW114531   4.581   5.162   6.425
 4544SOL    HW214532   4.443   5.185   6.342
 4545SOL     OW14533   3.964   4.033   5.775
 4545SOL    HW114534   3.986   4.051   5.679
 4545SOL    HW214535   3.876   3.987   5.781
 4546SOL     OW14536   0.409   6.262   0.395
 4546SOL    HW114537   0.337   6.331   0.402
 4546SOL    HW214538   0.373   6.179   0.354
 4547SOL     OW14539   4.403   1.663   1.939
 4547SOL    HW114540   4.336   1.730   1.971
 4547SOL    HW214541   4.415   1.592   2.009
 4548SOL     OW14542   0.968   3.714   3.841
 4548SOL    HW114543   1.060   3.715   3.882
 4548SOL    HW214544   0.976   3.693   3.744
 4549SOL     OW14545   4.940   1.654   2.423
 4549SOL    HW114546   4.966   1.630   2.517
 4549SOL    HW214547   4.871   1.590   2.391
 4550SOL     OW14548   1.805   5.654   4.552
 4550SOL    HW114549   1.839   5.638   4.460
 4550SOL    HW214550   1.841   5.740   4.587
 4551SOL     OW14551   6.672   3.184   6.961
 4551SOL    HW114552   6.656   3.276   6.924
 4551SOL    HW214553   6.765   3.178   6.997
 4552SOL     OW14554   6.748   2.875   4.559
 4552SOL    HW114555   6.837   2.857   4.603
 4552SOL    HW214556   6.763   2.901   4.464
 4553SOL     OW14557   5.079   5.088   0.344
 4553SOL    HW114558   5.173   5.087   0.379
 4553SOL    HW214559   5.052   4.994   0.322
 4554SOL     OW14560   6.116   6.787   3.635
 4554SOL    HW114561   6.031   6.821   3.675
 4554SOL    HW214562   6.095   6.735   3.552
 4555SOL     OW14563   3.885   3.352   6.388
 4555SOL    HW114564   3.948   3.426   6.364
 4555SOL    HW214565   3.804   3.358   6.329
 4556SOL     OW14566   4.778   0.585   5.388
 4556SOL    HW114567   4.847   0.523   5.350
 4556SOL    HW214568   4.814   0.679   5.388
 4557SOL     OW14569   5.157   0.505   5.043
 4557SOL    HW114570   5.167   0.587   4.987
 4557SOL    HW214571   5.088   0.445   5.003
 4558SOL     OW14572   6.054   2.994   5.874
 4558SOL    HW114573   5.972   2.937   5.876
 4558SOL    HW214574   6.115   2.963   5.801
 4559SOL     OW14575   1.254   6.462   1.325
 4559SOL    HW114576   1.342   6.473   1.277
 4559SOL    HW214577   1.223   6.368   1.316
 4560SOL     OW14578   5.633   2.426   2.358
 4560SOL    HW114579   5.619   2.518   2.393
 4560SOL    HW214580   5.547   2.375   2.361
 4561SOL     OW14581   3.486   0.464   6.444
 4561SOL    HW114582   3.467   0.478   6.541
 4561SOL    HW214583   3.581   0.489   6.425
 4562SOL     OW14584   2.402   4.320   5.941
 4562SOL    HW114585   2.437   4.326   5.848
 4562SOL    HW214586   2.401   4.224   5.970
 4563SOL     OW14587   5.372   2.483   6.618
 4563SOL    HW114588   5.466   2.461   6.642
 4563SOL    HW214589   5.369   2.574   6.576
 4564SOL     OW14590   0.606   5.206   6.733
 4564SOL    HW114591   0.599   5.260   6.817
 4564SOL    HW214592   0.597   5.109   6.756
 4565SOL     OW14593   2.801   0.997   3.858
 4565SOL    HW114594   2.777   0.952   3.944
 4565SOL    HW214595   2.718   1.014   3.805
 4566SOL     OW14596   1.463   0.854   0.634
 4566SOL    HW114597   1.525   0.843   0.556
 4566SOL    HW214598   1.492   0.931   0.690
 4567SOL     OW14599   5.717   1.344   0.926
 4567SOL    HW114600   5.734   1.249   0.901
 4567SOL    HW214601   5.795   1.400   0.899
 4568SOL     OW14602   4.113   4.822   4.097
 4568SOL    HW114603   4.153   4.808   4.007
 4568SOL    HW214604   4.146   4.909   4.135
 4569SOL     OW14605   0.590   2.149   3.300
 4569SOL    HW114606   0.649   2.078   3.259
 4569SOL    HW214607   0.497   2.139   3.265
 4570SOL     OW14608   5.608   5.852   4.363
 4570SOL    HW114609   5.695   5.866   4.315
 4570SOL    HW214610   5.555   5.936   4.362
 4571SOL     OW14611   3.703   2.872   4.370
 4571SOL    HW114612   3.740   2.779   4.361
 4571SOL    HW214613   3.644   2.876   4.451
 4572SOL     OW14614   1.814   5.058   1.749
 4572SOL    HW114615   1.762   5.090   1.828
 4572SOL    HW214616   1.904   5.028   1.779
 4573SOL     OW14617   4.923   0.408   1.006
 4573SOL    HW114618   4.919   0.416   1.105
 4573SOL    HW214619   4.852   0.345   0.974
 4574SOL     OW14620   0.112   4.272   1.515
 4574SOL    HW114621   0.050   4.350   1.505
 4574SOL    HW214622   0.107   4.237   1.609
 4575SOL     OW14623   6.896   6.276   2.189
 4575SOL    HW114624   6.919   6.179   2.192
 4575SOL    HW214625   6.872   6.303   2.096
 4576SOL     OW14626   3.886   6.406   4.145
 4576SOL    HW114627   3.864   6.377   4.052
 4576SOL    HW214628   3.807   6.455   4.183
 4577SOL     OW14629   1.187   3.075   4.241
 4577SOL    HW114630   1.119   3.035   4.302
 4577SOL    HW214631   1.151   3.160   4.201
 4578SOL     OW14632   0.499   5.337   3.911
 4578SOL    HW114633   0.424   5.365   3.851
 4578SOL    HW214634   0.476   5.249   3.953
 4579SOL     OW14635   5.415   1.913   4.791
 4579SOL    HW114636   5.367   1.827   4.808
 4579SOL    HW214637   5.390   1.948   4.701
 4580SOL     OW14638   0.013   5.366   0.055
 4580SOL    HW114639   6.954   5.375   7.011
 4580SOL    HW214640   7.011   5.296   0.124
 4581SOL     OW14641   3.538   6.449   4.012
 4581SOL    HW114642   3.477   6.448   3.933
 4581SOL    HW214643   3.631   6.428   3.982
 4582SOL     OW14644   4.873   6.590   3.248
 4582SOL    HW114645   4.876   6.682   3.287
 4582SOL    HW214646   4.807   6.588   3.172
 4583SOL     OW14647   3.734   1.319   5.627
 4583SOL    HW114648   3.806   1.376   5.666
 4583SOL    HW214649   3.719   1.345   5.532
 4584SOL     OW14650   1.140   5.005   5.937
 4584SOL    HW114651   1.043   5.007   5.913
 4584SOL    HW214652   1.166   4.911   5.962
 4585SOL     OW14653   3.221   6.328   2.085
 4585SOL    HW114654   3.268   6.396   2.142
 4585SOL    HW214655   3.130   6.363   2.060
 4586SOL     OW14656   2.743   6.110   1.739
 4586SOL    HW114657   2.643   6.107   1.739
 4586SOL    HW214658   2.778   6.042   1.674
 4587SOL     OW14659   3.210   4.976   0.481
 4587SOL    HW114660   3.268   4.986   0.562
 4587SOL    HW214661   3.154   5.058   0.469
 4588SOL     OW14662   3.655   4.387   5.305
 4588SOL    HW114663   3.711   4.402   5.386
 4588SOL    HW214664   3.706   4.332   5.238
 4589SOL     OW14665   0.680   1.781   3.346
 4589SOL    HW114666   0.729   1.728   3.415
 4589SOL    HW214667   0.590   1.740   3.330
 4590SOL     OW14668   4.191   6.250   3.167
 4590SOL    HW114669   4.225   6.342   3.151
 4590SOL    HW214670   4.091   6.251   3.170
 4591SOL     OW14671   6.085   6.788   4.989
 4591SOL    HW114672   6.015   6.858   4.979
 4591SOL    HW214673   6.051   6.715   5.049
 4592SOL     OW14674   3.119   1.470   6.289
 4592SOL    HW114675   3.185   1.467   6.363
 4592SOL    HW214676   3.076   1.380   6.278
 4593SOL     OW14677   4.847   6.632   1.724
 4593SOL    HW114678   4.895   6.547   1.744
 4593SOL    HW214679   4.905   6.691   1.668
 4594SOL     OW14680   3.653   1.540   2.358
 4594SOL    HW114681   3.622   1.447   2.379
 4594SOL    HW214682   3.598   1.606   2.410
 4595SOL     OW14683   4.783   3.635   6.179
 4595SOL    HW114684   4.857   3.618   6.113
 4595SOL    HW214685   4.756   3.549   6.222
 4596SOL     OW14686   5.327   0.511   2.372
 4596SOL    HW114687   5.231   0.537   2.382
 4596SOL    HW214688   5.348   0.436   2.436
 4597SOL     OW14689   6.574   4.285   5.686
 4597SOL    HW114690   6.606   4.213   5.747
 4597SOL    HW214691   6.632   4.366   5.696
 4598SOL     OW14692   3.310   4.009   0.546
 4598SOL    HW114693   3.252   3.932   0.572
 4598SOL    HW214694   3.406   3.986   0.565
 4599SOL     OW14695   2.449   5.440   0.452
 4599SOL    HW114696   2.453   5.418   0.354
 4599SOL    HW214697   2.531   5.405   0.498
 4600SOL     OW14698   3.526   4.426   1.388
 4600SOL    HW114699   3.521   4.521   1.359
 4600SOL    HW214700   3.523   4.422   1.488
 4601SOL     OW14701   1.792   5.785   4.225
 4601SOL    HW114702   1.693   5.791   4.236
 4601SOL    HW214703   1.836   5.861   4.274
 4602SOL     OW14704   1.602   0.939   1.025
 4602SOL    HW114705   1.621   0.980   1.115
 4602SOL    HW214706   1.512   0.896   1.027
 4603SOL     OW14707   3.090   1.515   1.837
 4603SOL    HW114708   3.161   1.550   1.776
 4603SOL    HW214709   3.085   1.415   1.828
 4604SOL     OW14710   1.538   0.933   2.126
 4604SOL    HW114711   1.456   0.962   2.077
 4604SOL    HW214712   1.519   0.928   2.224
 4605SOL     OW14713   5.263   6.062   5.710
 4605SOL    HW114714   5.325   6.107   5.645
 4605SOL    HW214715   5.168   6.083   5.686
 4606SOL     OW14716   6.840   5.574   4.771
 4606SOL    HW114717   6.848   5.631   4.689
 4606SOL    HW214718   6.923   5.519   4.782
 4607SOL     OW14719   2.741   2.772   1.413
 4607SOL    HW114720   2.748   2.808   1.506
 4607SOL    HW214721   2.748   2.848   1.348
 4608SOL     OW14722   1.560   3.705   4.848
 4608SOL    HW114723   1.612   3.790   4.848
 4608SOL    HW214724   1.532   3.683   4.754
 4609SOL     OW14725   3.139   6.988   0.542
 4609SOL    HW114726   3.116   6.894   0.516
 4609SOL    HW214727   3.090   0.033   0.482
 4610SOL     OW14728   7.002   3.096   6.637
 4610SOL    HW114729   0.075   3.087   6.598
 4610SOL    HW214730   6.994   3.036   6.717
 4611SOL     OW14731   1.544   4.041   6.699
 4611SOL    HW114732   1.516   4.087   6.782
 4611SOL    HW214733   1.467   4.035   6.636
 4612SOL     OW14734   2.600   0.012   6.384
 4612SOL    HW114735   2.665   6.976   6.330
 4612SOL    HW214736   2.617   7.015   6.481
 4613SOL     OW14737   3.222   4.906   1.598
 4613SOL    HW114738   3.215   4.856   1.684
 4613SOL    HW214739   3.301   4.872   1.546
 4614SOL     OW14740   2.101   5.024   0.178
 4614SOL    HW114741   2.094   4.930   0.145
 4614SOL    HW214742   2.161   5.026   0.258
 4615SOL     OW14743   6.968   3.142   0.048
 4615SOL    HW114744   6.993   3.048   0.027
 4615SOL    HW214745   0.019   3.204   0.012
 4616SOL     OW14746   5.943   0.565   0.543
 4616SOL    HW114747   5.988   0.628   0.480
 4616SOL    HW214748   6.013   0.517   0.597
 4617SOL     OW14749   6.973   3.765   1.969
 4617SOL    HW114750   6.998   3.671   1.945
 4617SOL    HW214751   6.954   3.817   1.886
 4618SOL     OW14752   0.426   2.732   6.535
 4618SOL    HW114753   0.466   2.804   6.480
 4618SOL    HW214754   0.353   2.686   6.483
 4619SOL     OW14755   3.554   0.536   3.841
 4619SOL    HW114756   3.468   0.498   3.876
 4619SOL    HW214757   3.613   0.461   3.811
 4620SOL     OW14758   2.265   5.850   6.340
 4620SOL    HW114759   2.267   5.920   6.270
 4620SOL    HW214760   2.354   5.805   6.346
 4621SOL     OW14761   0.374   0.418   5.955
 4621SOL    HW114762   0.380   0.346   6.024
 4621SOL    HW214763   0.458   0.418   5.899
 4622SOL     OW14764   2.227   3.318   1.016
 4622SOL    HW114765   2.189   3.366   1.095
 4622SOL    HW214766   2.242   3.383   0.941
 4623SOL     OW14767   5.387   4.476   2.778
 4623SOL    HW114768   5.318   4.544   2.753
 4623SOL    HW214769   5.343   4.400   2.827
 4624SOL     OW14770   4.613   6.826   5.263
 4624SOL    HW114771   4.629   6.836   5.362
 4624SOL    HW214772   4.651   6.739   5.232
 4625SOL     OW14773   1.444   4.063   6.205
 4625SOL    HW114774   1.398   4.084   6.291
 4625SOL    HW214775   1.541   4.089   6.213
 4626SOL     OW14776   5.573   5.534   1.833
 4626SOL    HW114777   5.605   5.445   1.799
 4626SOL    HW214778   5.632   5.563   1.909
 4627SOL     OW14779   1.606   0.029   5.761
 4627SOL    HW114780   1.526   0.006   5.705
 4627SOL    HW214781   1.590   0.001   5.855
 4628SOL     OW14782   6.675   2.701   2.203
 4628SOL    HW114783   6.738   2.696   2.125
 4628SOL    HW214784   6.600   2.764   2.181
 4629SOL     OW14785   4.530   4.689   4.459
 4629SOL    HW114786   4.475   4.673   4.541
 4629SOL    HW214787   4.470   4.707   4.381
 4630SOL     OW14788   1.734   6.660   2.214
 4630SOL    HW114789   1.798   6.705   2.277
 4630SOL    HW214790   1.704   6.573   2.254
 4631SOL     OW14791   1.816   0.331   2.861
 4631SOL    HW114792   1.852   0.316   2.953
 4631SOL    HW214793   1.830   0.426   2.835
 4632SOL     OW14794   6.051   5.662   4.203
 4632SOL    HW114795   5.986   5.647   4.278
 4632SOL    HW214796   6.122   5.592   4.206
 4633SOL     OW14797   5.158   2.413   5.851
 4633SOL    HW114798   5.100   2.424   5.770
 4633SOL    HW214799   5.101   2.399   5.932
 4634SOL     OW14800   3.305   4.564   0.801
 4634SOL    HW114801   3.266   4.586   0.712
 4634SOL    HW214802   3.276   4.632   0.868
 4635SOL     OW14803   5.688   3.321   1.831
 4635SOL    HW114804   5.768   3.375   1.805
 4635SOL    HW214805   5.718   3.229   1.858
 4636SOL     OW14806   0.993   5.612   1.455
 4636SOL    HW114807   0.921   5.554   1.494
 4636SOL    HW214808   0.956   5.661   1.376
 4637SOL     OW14809   1.741   0.829   4.117
 4637SOL    HW114810   1.665   0.774   4.085
 4637SOL    HW214811   1.731   0.923   4.083
 4638SOL     OW14812   4.300   4.583   6.093
 4638SOL    HW114813   4.277   4.620   6.183
 4638SOL    HW214814   4.285   4.484   6.093
 4639SOL     OW14815   0.259   2.238   4.801
 4639SOL    HW114816   0.271   2.337   4.802
 4639SOL    HW214817   0.263   2.205   4.707
 4640SOL     OW14818   6.138   4.578   2.778
 4640SOL    HW114819   6.236   4.559   2.778
 4640SOL    HW214820   6.094   4.530   2.855
 4641SOL     OW14821   3.073   3.339   5.649
 4641SOL    HW114822   3.078   3.410   5.579
 4641SOL    HW214823   2.982   3.296   5.647
 4642SOL     OW14824   6.526   6.066   3.893
 4642SOL    HW114825   6.524   6.136   3.822
 4642SOL    HW214826   6.535   5.976   3.850
 4643SOL     OW14827   3.804   2.998   0.586
 4643SOL    HW114828   3.827   3.095   0.579
 4643SOL    HW214829   3.875   2.950   0.637
 4644SOL     OW14830   3.464   4.793   5.247
 4644SOL    HW114831   3.370   4.827   5.237
 4644SOL    HW214832   3.462   4.697   5.276
 4645SOL     OW14833   1.569   6.233   4.999
 4645SOL    HW114834   1.529   6.315   5.040
 4645SOL    HW214835   1.509   6.155   5.016
 4646SOL     OW14836   3.733   0.561   1.449
 4646SOL    HW114837   3.807   0.625   1.468
 4646SOL    HW214838   3.674   0.599   1.378
 4647SOL     OW14839   6.845   0.689   4.936
 4647SOL    HW114840   6.845   0.782   4.973
 4647SOL    HW214841   6.754   0.649   4.944
 4648SOL     OW14842   2.082   5.345   2.640
 4648SOL    HW114843   1.985   5.368   2.634
 4648SOL    HW214844   2.137   5.427   2.623
 4649SOL     OW14845   5.763   6.494   6.111
 4649SOL    HW114846   5.822   6.540   6.177
 4649SOL    HW214847   5.668   6.523   6.124
 4650SOL     OW14848   6.559   4.497   1.466
 4650SOL    HW114849   6.616   4.579   1.459
 4650SOL    HW214850   6.559   4.465   1.561
 4651SOL     OW14851   6.093   2.461   2.191
 4651SOL    HW114852   6.082   2.381   2.133
 4651SOL    HW214853   6.155   2.526   2.147
 4652SOL     OW14854   0.006   5.909   5.394
 4652SOL    HW114855   7.013   5.902   5.493
 4652SOL    HW214856   0.064   5.834   5.362
 4653SOL     OW14857   0.346   5.447   6.557
 4653SOL    HW114858   0.275   5.508   6.591
 4653SOL    HW214859   0.309   5.354   6.547
 4654SOL     OW14860   1.030   1.585   6.543
 4654SOL    HW114861   1.015   1.511   6.607
 4654SOL    HW214862   1.128   1.594   6.525
 4655SOL     OW14863   0.252   5.390   3.455
 4655SOL    HW114864   0.193   5.323   3.500
 4655SOL    HW214865   0.288   5.454   3.523
 4656SOL     OW14866   2.496   6.694   2.812
 4656SOL    HW114867   2.404   6.676   2.848
 4656SOL    HW214868   2.510   6.793   2.804
 4657SOL     OW14869   6.063   0.563   6.312
 4657SOL    HW114870   5.996   0.618   6.362
 4657SOL    HW214871   6.031   0.468   6.307
 4658SOL     OW14872   5.145   0.600   3.875
 4658SOL    HW114873   5.095   0.514   3.875
 4658SOL    HW214874   5.120   0.654   3.794
 4659SOL     OW14875   2.089   2.826   4.643
 4659SOL    HW114876   2.141   2.909   4.621
 4659SOL    HW214877   2.078   2.819   4.742
 4660SOL     OW14878   6.691   1.710   5.374
 4660SOL    HW114879   6.714   1.765   5.294
 4660SOL    HW214880   6.771   1.701   5.433
 4661SOL     OW14881   3.871   3.024   3.005
 4661SOL    HW114882   3.807   2.956   3.042
 4661SOL    HW214883   3.961   3.011   3.047
 4662SOL     OW14884   5.618   7.003   3.679
 4662SOL    HW114885   5.556   6.930   3.707
 4662SOL    HW214886   5.597   0.067   3.731
 4663SOL     OW14887   1.049   2.443   1.830
 4663SOL    HW114888   1.033   2.511   1.901
 4663SOL    HW214889   1.145   2.449   1.800
 4664SOL     OW14890   3.519   3.880   0.123
 4664SOL    HW114891   3.541   3.947   0.194
 4664SOL    HW214892   3.586   3.806   0.125
 4665SOL     OW14893   5.352   0.308   6.833
 4665SOL    HW114894   5.291   0.346   6.764
 4665SOL    HW214895   5.401   0.382   6.880
 4666SOL     OW14896   1.945   1.740   0.280
 4666SOL    HW114897   1.848   1.722   0.264
 4666SOL    HW214898   1.956   1.778   0.372
 4667SOL     OW14899   0.742   5.392   4.648
 4667SOL    HW114900   0.666   5.329   4.659
 4667SOL    HW214901   0.743   5.427   4.554
 4668SOL     OW14902   5.076   0.813   5.838
 4668SOL    HW114903   5.037   0.761   5.762
 4668SOL    HW214904   5.035   0.904   5.841
 4669SOL     OW14905   2.669   1.154   1.645
 4669SOL    HW114906   2.743   1.157   1.713
 4669SOL    HW214907   2.707   1.132   1.555
 4670SOL     OW14908   2.488   1.784   4.786
 4670SOL    HW114909   2.554   1.743   4.724
 4670SOL    HW214910   2.530   1.862   4.833
 4671SOL     OW14911   5.484   2.271   1.636
 4671SOL    HW114912   5.507   2.179   1.604
 4671SOL    HW214913   5.419   2.265   1.712
 4672SOL     OW14914   2.839   2.863   5.428
 4672SOL    HW114915   2.917   2.886   5.487
 4672SOL    HW214916   2.802   2.948   5.389
 4673SOL     OW14917   4.569   0.655   2.363
 4673SOL    HW114918   4.535   0.622   2.275
 4673SOL    HW214919   4.495   0.699   2.414
 4674SOL     OW14920   5.150   6.404   5.021
 4674SOL    HW114921   5.242   6.442   5.009
 4674SOL    HW214922   5.148   6.311   4.983
 4675SOL     OW14923   1.091   4.048   6.257
 4675SOL    HW114924   1.045   4.133   6.230
 4675SOL    HW214925   1.153   4.020   6.184
 4676SOL     OW14926   0.626   4.738   4.088
 4676SOL    HW114927   0.600   4.656   4.037
 4676SOL    HW214928   0.547   4.771   4.141
 4677SOL     OW14929   1.502   2.899   0.591
 4677SOL    HW114930   1.554   2.950   0.659
 4677SOL    HW214931   1.414   2.872   0.629
 4678SOL     OW14932   0.957   4.585   2.076
 4678SOL    HW114933   1.042   4.551   2.035
 4678SOL    HW214934   0.896   4.616   2.003
 4679SOL     OW14935   4.203   6.890   1.865
 4679SOL    HW114936   4.247   6.897   1.775
 4679SOL    HW214937   4.144   6.970   1.879
 4680SOL     OW14938   2.164   0.316   6.693
 4680SOL    HW114939   2.258   0.346   6.674
 4680SOL    HW214940   2.099   0.379   6.650
 4681SOL     OW14941   5.102   5.792   2.247
 4681SOL    HW114942   5.095   5.790   2.347
 4681SOL    HW214943   5.163   5.720   2.217
 4682SOL     OW14944   3.636   3.995   6.046
 4682SOL    HW114945   3.562   3.996   5.978
 4682SOL    HW214946   3.624   3.917   6.107
 4683SOL     OW14947   6.277   4.885   3.585
 4683SOL    HW114948   6.222   4.926   3.512
 4683SOL    HW214949   6.230   4.898   3.672
 4684SOL     OW14950   5.620   6.489   6.506
 4684SOL    HW114951   5.567   6.472   6.589
 4684SOL    HW214952   5.693   6.421   6.498
 4685SOL     OW14953   3.202   4.052   4.254
 4685SOL    HW114954   3.178   4.065   4.350
 4685SOL    HW214955   3.298   4.077   4.240
 4686SOL     OW14956   1.459   6.948   6.935
 4686SOL    HW114957   1.531   6.909   6.878
 4686SOL    HW214958   1.411   0.001   6.883
 4687SOL     OW14959   2.278   0.494   2.920
 4687SOL    HW114960   2.259   0.557   2.844
 4687SOL    HW214961   2.192   0.471   2.965
 4688SOL     OW14962   4.964   2.694   6.102
 4688SOL    HW114963   4.880   2.743   6.078
 4688SOL    HW214964   4.941   2.619   6.164
 4689SOL     OW14965   6.866   1.006   0.866
 4689SOL    HW114966   6.918   1.033   0.786
 4689SOL    HW214967   6.856   1.084   0.928
 4690SOL     OW14968   3.013   2.539   0.975
 4690SOL    HW114969   3.065   2.458   1.004
 4690SOL    HW214970   2.934   2.552   1.036
 4691SOL     OW14971   6.552   3.663   1.922
 4691SOL    HW114972   6.571   3.603   2.000
 4691SOL    HW214973   6.485   3.732   1.949
 4692SOL     OW14974   5.120   2.974   3.046
 4692SOL    HW114975   5.183   3.026   2.989
 4692SOL    HW214976   5.127   3.006   3.141
 4693SOL     OW14977   0.936   0.605   2.361
 4693SOL    HW114978   0.980   0.574   2.446
 4693SOL    HW214979   0.979   0.690   2.330
 4694SOL     OW14980   1.758   0.127   6.399
 4694SOL    HW114981   1.815   0.100   6.477
 4694SOL    HW214982   1.775   0.065   6.323
 4695SOL     OW14983   2.492   5.331   2.371
 4695SOL    HW114984   2.504   5.328   2.470
 4695SOL    HW214985   2.580   5.315   2.326
 4696SOL     OW14986   1.189   6.437   5.826
 4696SOL    HW114987   1.129   6.509   5.790
 4696SOL    HW214988   1.151   6.348   5.801
 4697SOL     OW14989   4.340   5.626   1.493
 4697SOL    HW114990   4.308   5.535   1.520
 4697SOL    HW214991   4.407   5.658   1.560
 4698SOL     OW14992   5.812   1.041   4.705
 4698SOL    HW114993   5.844   0.969   4.767
 4698SOL    HW214994   5.785   1.001   4.618
 4699SOL     OW14995   1.425   1.121   2.948
 4699SOL    HW114996   1.385   1.196   3.001
 4699SOL    HW214997   1.505   1.155   2.898
 4700SOL     OW14998   6.401   1.718   2.997
 4700SOL    HW114999   6.404   1.626   2.959
 4700SOL    HW215000   6.354   1.718   3.085
 4701SOL     OW15001   3.114   2.628   1.764
 4701SOL    HW115002   3.082   2.555   1.825
 4701SOL    HW215003   3.061   2.711   1.781
 4702SOL     OW15004   6.194   5.261   0.051
 4702SOL    HW115005   6.249   5.330   0.004
 4702SOL    HW215006   6.170   5.294   0.142
 4703SOL     OW15007   0.690   5.280   3.519
 4703SOL    HW115008   0.609   5.223   3.506
 4703SOL    HW215009   0.766   5.243   3.466
 4704SOL     OW15010   1.240   4.899   4.102
 4704SOL    HW115011   1.198   4.990   4.107
 4704SOL    HW215012   1.336   4.909   4.074
 4705SOL     OW15013   3.809   2.001   1.892
 4705SOL    HW115014   3.737   2.059   1.930
 4705SOL    HW215015   3.809   2.007   1.792
 4706SOL     OW15016   2.501   0.387   1.008
 4706SOL    HW115017   2.403   0.371   1.015
 4706SOL    HW215018   2.530   0.376   0.913
 4707SOL     OW15019   1.458   5.405   2.141
 4707SOL    HW115020   1.518   5.476   2.103
 4707SOL    HW215021   1.503   5.361   2.219
 4708SOL     OW15022   1.450   3.294   5.043
 4708SOL    HW115023   1.497   3.381   5.034
 4708SOL    HW215024   1.516   3.219   5.034
 4709SOL     OW15025   5.746   3.847   5.669
 4709SOL    HW115026   5.820   3.822   5.731
 4709SOL    HW215027   5.781   3.853   5.576
 4710SOL     OW15028   6.208   5.965   5.120
 4710SOL    HW115029   6.215   5.871   5.154
 4710SOL    HW215030   6.138   5.969   5.048
 4711SOL     OW15031   4.771   4.575   2.292
 4711SOL    HW115032   4.694   4.515   2.271
 4711SOL    HW215033   4.797   4.625   2.209
 4712SOL     OW15034   4.437   4.102   5.572
 4712SOL    HW115035   4.374   4.150   5.632
 4712SOL    HW215036   4.398   4.014   5.545
 4713SOL     OW15037   5.356   3.831   1.013
 4713SOL    HW115038   5.411   3.899   1.062
 4713SOL    HW215039   5.262   3.863   1.004
 4714SOL     OW15040   4.410   2.102   6.728
 4714SOL    HW115041   4.383   2.107   6.632
 4714SOL    HW215042   4.337   2.140   6.785
 4715SOL     OW15043   6.507   1.328   1.787
 4715SOL    HW115044   6.504   1.274   1.703
 4715SOL    HW215045   6.596   1.318   1.831
 4716SOL     OW15046   3.567   4.559   5.880
 4716SOL    HW115047   3.556   4.542   5.782
 4716SOL    HW215048   3.601   4.652   5.893
 4717SOL     OW15049   1.865   4.706   5.715
 4717SOL    HW115050   1.856   4.662   5.625
 4717SOL    HW215051   1.961   4.728   5.732
 4718SOL     OW15052   4.885   4.522   1.334
 4718SOL    HW115053   4.842   4.440   1.373
 4718SOL    HW215054   4.848   4.603   1.380
 4719SOL     OW15055   6.734   4.333   3.885
 4719SOL    HW115056   6.650   4.373   3.849
 4719SOL    HW215057   6.813   4.370   3.835
 4720SOL     OW15058   2.654   3.309   0.013
 4720SOL    HW115059   2.560   3.275   0.020
 4720SOL    HW215060   2.693   3.282   6.944
 4721SOL     OW15061   0.473   2.696   3.355
 4721SOL    HW115062   0.474   2.685   3.454
 4721SOL    HW215063   0.438   2.786   3.331
 4722SOL     OW15064   0.799   5.703   6.806
 4722SOL    HW115065   0.714   5.694   6.753
 4722SOL    HW215066   0.785   5.666   6.898
 4723SOL     OW15067   3.023   4.843   6.666
 4723SOL    HW115068   3.064   4.789   6.740
 4723SOL    HW215069   2.931   4.872   6.692
 4724SOL     OW15070   1.028   0.278   4.188
 4724SOL    HW115071   1.050   0.262   4.284
 4724SOL    HW215072   1.088   0.222   4.130
 4725SOL     OW15073   5.820   5.044   1.216
 4725SOL    HW115074   5.816   5.139   1.186
 4725SOL    HW215075   5.872   5.038   1.301
 4726SOL     OW15076   1.833   2.783   5.493
 4726SOL    HW115077   1.917   2.816   5.450
 4726SOL    HW215078   1.777   2.861   5.519
 4727SOL     OW15079   6.446   4.478   1.058
 4727SOL    HW115080   6.493   4.496   0.972
 4727SOL    HW215081   6.512   4.470   1.132
 4728SOL     OW15082   5.787   1.621   4.516
 4728SOL    HW115083   5.738   1.542   4.552
 4728SOL    HW215084   5.764   1.702   4.570
 4729SOL     OW15085   5.737   1.142   1.974
 4729SOL    HW115086   5.709   1.228   2.017
 4729SOL    HW215087   5.797   1.092   2.037
 4730SOL     OW15088   3.817   0.283   3.448
 4730SOL    HW115089   3.766   0.270   3.363
 4730SOL    HW215090   3.836   0.381   3.460
 4731SOL     OW15091   3.287   6.664   1.312
 4731SOL    HW115092   3.268   6.662   1.410
 4731SOL    HW215093   3.207   6.697   1.263
 4732SOL     OW15094   0.098   4.871   4.578
 4732SOL    HW115095   0.074   4.968   4.588
 4732SOL    HW215096   0.143   4.840   4.662
 4733SOL     OW15097   1.845   4.277   2.520
 4733SOL    HW115098   1.917   4.208   2.530
 4733SOL    HW215099   1.778   4.245   2.452
 4734SOL     OW15100   4.719   4.223   6.999
 4734SOL    HW115101   4.708   4.288   6.925
 4734SOL    HW215102   4.637   4.225   0.039
 4735SOL     OW15103   0.622   0.501   5.002
 4735SOL    HW115104   0.704   0.515   4.946
 4735SOL    HW215105   0.611   0.403   5.020
 4736SOL     OW15106   6.183   1.503   3.999
 4736SOL    HW115107   6.216   1.540   4.086
 4736SOL    HW215108   6.191   1.574   3.928
 4737SOL     OW15109   1.809   4.884   0.306
 4737SOL    HW115110   1.872   4.824   0.356
 4737SOL    HW215111   1.801   4.851   0.211
 4738SOL     OW15112   0.591   5.728   4.023
 4738SOL    HW115113   0.649   5.787   3.967
 4738SOL    HW215114   0.574   5.772   4.111
 4739SOL     OW15115   5.787   3.311   3.167
 4739SOL    HW115116   5.741   3.273   3.087
 4739SOL    HW215117   5.875   3.350   3.140
 4740SOL     OW15118   1.341   0.015   0.565
 4740SOL    HW115119   1.432   6.996   0.583
 4740SOL    HW215120   1.347   0.090   0.500
 4741SOL     OW15121   5.777   4.736   0.788
 4741SOL    HW115122   5.800   4.827   0.824
 4741SOL    HW215123   5.841   4.669   0.824
 4742SOL     OW15124   2.737   5.453   2.536
 4742SOL    HW115125   2.715   5.506   2.454
 4742SOL    HW215126   2.653   5.422   2.579
 4743SOL     OW15127   2.676   3.709   0.847
 4743SOL    HW115128   2.621   3.700   0.764
 4743SOL    HW215129   2.764   3.664   0.834
 4744SOL     OW15130   2.553   1.819   5.694
 4744SOL    HW115131   2.472   1.787   5.645
 4744SOL    HW215132   2.526   1.854   5.784
 4745SOL     OW15133   4.472   5.326   4.862
 4745SOL    HW115134   4.391   5.275   4.830
 4745SOL    HW215135   4.554   5.271   4.846
 4746SOL     OW15136   5.743   1.167   1.525
 4746SOL    HW115137   5.814   1.122   1.470
 4746SOL    HW215138   5.751   1.138   1.620
 4747SOL     OW15139   0.711   2.716   2.033
 4747SOL    HW115140   0.708   2.781   1.957
 4747SOL    HW215141   0.638   2.648   2.022
 4748SOL     OW15142   2.166   0.433   0.733
 4748SOL    HW115143   2.178   0.532   0.724
 4748SOL    HW215144   2.232   0.385   0.676
 4749SOL     OW15145   2.911   0.360   6.731
 4749SOL    HW115146   2.892   0.284   6.670
 4749SOL    HW215147   3.005   0.392   6.717
 4750SOL     OW15148   0.717   1.719   4.447
 4750SOL    HW115149   0.638   1.763   4.490
 4750SOL    HW215150   0.766   1.787   4.392
 4751SOL     OW15151   1.171   3.674   5.550
 4751SOL    HW115152   1.209   3.731   5.477
 4751SOL    HW215153   1.208   3.582   5.543
 4752SOL     OW15154   2.013   5.936   1.297
 4752SOL    HW115155   1.995   5.912   1.393
 4752SOL    HW215156   2.108   5.915   1.275
 4753SOL     OW15157   0.502   6.584   5.637
 4753SOL    HW115158   0.510   6.496   5.591
 4753SOL    HW215159   0.519   6.657   5.571
 4754SOL     OW15160   1.087   0.915   6.134
 4754SOL    HW115161   0.991   0.941   6.146
 4754SOL    HW215162   1.092   0.820   6.105
 4755SOL     OW15163   3.128   0.348   1.603
 4755SOL    HW115164   3.220   0.311   1.613
 4755SOL    HW215165   3.126   0.442   1.638
 4756SOL     OW15166   5.379   2.724   1.439
 4756SOL    HW115167   5.289   2.710   1.481
 4756SOL    HW215168   5.426   2.636   1.430
 4757SOL     OW15169   2.548   1.618   1.275
 4757SOL    HW115170   2.459   1.643   1.237
 4757SOL    HW215171   2.604   1.701   1.287
 4758SOL     OW15172   5.247   3.531   5.874
 4758SOL    HW115173   5.213   3.607   5.817
 4758SOL    HW215174   5.313   3.567   5.940
 4759SOL     OW15175   5.870   4.315   6.233
 4759SOL    HW115176   5.897   4.226   6.198
 4759SOL    HW215177   5.905   4.387   6.174
 4760SOL     OW15178   1.966   2.710   0.514
 4760SOL    HW115179   1.885   2.728   0.457
 4760SOL    HW215180   1.970   2.778   0.587
 4761SOL     OW15181   1.757   5.682   5.787
 4761SOL    HW115182   1.766   5.584   5.774
 4761SOL    HW215183   1.667   5.712   5.755
 4762SOL     OW15184   3.925   6.676   2.445
 4762SOL    HW115185   3.852   6.608   2.455
 4762SOL    HW215186   3.967   6.693   2.534
 4763SOL     OW15187   5.870   5.688   5.121
 4763SOL    HW115188   5.903   5.683   5.027
 4763SOL    HW215189   5.775   5.656   5.124
 4764SOL     OW15190   3.899   3.506   4.111
 4764SOL    HW115191   3.931   3.586   4.163
 4764SOL    HW215192   3.800   3.500   4.117
 4765SOL     OW15193   6.382   5.267   6.057
 4765SOL    HW115194   6.316   5.331   6.095
 4765SOL    HW215195   6.434   5.310   5.984
 4766SOL     OW15196   3.364   0.615   3.581
 4766SOL    HW115197   3.295   0.579   3.644
 4766SOL    HW215198   3.419   0.540   3.544
 4767SOL     OW15199   3.714   6.907   6.706
 4767SOL    HW115200   3.730   7.005   6.690
 4767SOL    HW215201   3.623   6.883   6.673
 4768SOL     OW15202   1.290   1.127   4.993
 4768SOL    HW115203   1.207   1.161   4.948
 4768SOL    HW215204   1.366   1.187   4.971
 4769SOL     OW15205   4.094   1.072   2.042
 4769SOL    HW115206   4.066   1.135   1.969
 4769SOL    HW215207   4.175   1.021   2.014
 4770SOL     OW15208   1.815   0.525   3.706
 4770SOL    HW115209   1.803   0.530   3.607
 4770SOL    HW215210   1.732   0.559   3.751
 4771SOL     OW15211   4.153   4.330   5.288
 4771SOL    HW115212   4.208   4.387   5.226
 4771SOL    HW215213   4.150   4.237   5.253
 4772SOL     OW15214   2.382   3.235   6.976
 4772SOL    HW115215   2.371   3.143   6.936
 4772SOL    HW215216   2.298   3.287   6.962
 4773SOL     OW15217   0.247   5.400   4.242
 4773SOL    HW115218   0.264   5.497   4.228
 4773SOL    HW215219   0.295   5.347   4.172
 4774SOL     OW15220   1.796   4.390   6.773
 4774SOL    HW115221   1.734   4.342   6.711
 4774SOL    HW215222   1.850   4.456   6.721
 4775SOL     OW15223   2.178   1.912   2.231
 4775SOL    HW115224   2.226   1.825   2.224
 4775SOL    HW215225   2.200   1.957   2.317
 4776SOL     OW15226   4.092   4.733   2.304
 4776SOL    HW115227   4.060   4.659   2.362
 4776SOL    HW215228   4.022   4.755   2.236
 4777SOL     OW15229   2.916   3.663   1.647
 4777SOL    HW115230   2.872   3.634   1.732
 4777SOL    HW215231   3.001   3.712   1.669
 4778SOL     OW15232   5.155   3.850   2.904
 4778SOL    HW115233   5.215   3.862   2.983
 4778SOL    HW215234   5.210   3.857   2.820
 4779SOL     OW15235   4.567   0.961   2.776
 4779SOL    HW115236   4.632   1.009   2.716
 4779SOL    HW215237   4.536   1.023   2.848
 4780SOL     OW15238   1.845   0.226   5.414
 4780SOL    HW115239   1.798   0.156   5.361
 4780SOL    HW215240   1.787   0.256   5.490
 4781SOL     OW15241   2.387   5.879   2.935
 4781SOL    HW115242   2.361   5.921   3.021
 4781SOL    HW215243   2.476   5.914   2.906
 4782SOL     OW15244   5.962   5.596   0.465
 4782SOL    HW115245   5.923   5.573   0.376
 4782SOL    HW215246   6.008   5.685   0.459
 4783SOL     OW15247   6.188   3.799   2.414
 4783SOL    HW115248   6.224   3.711   2.386
 4783SOL    HW215249   6.092   3.789   2.441
 4784SOL     OW15250   5.539   4.440   5.590
 4784SOL    HW115251   5.585   4.508   5.647
 4784SOL    HW215252   5.452   4.477   5.557
 4785SOL     OW15253   5.944   6.758   0.598
 4785SOL    HW115254   5.882   6.820   0.550
 4785SOL    HW215255   5.927   6.764   0.697
 4786SOL     OW15256   1.222   3.260   1.994
 4786SOL    HW115257   1.262   3.332   2.051
 4786SOL    HW215258   1.272   3.175   2.008
 4787SOL     OW15259   4.656   2.113   3.078
 4787SOL    HW115260   4.612   2.035   3.122
 4787SOL    HW215261   4.586   2.172   3.037
 4788SOL     OW15262   2.209   6.608   5.275
 4788SOL    HW115263   2.190   6.544   5.350
 4788SOL    HW215264   2.276   6.568   5.213
 4789SOL     OW15265   5.346   6.601   0.514
 4789SOL    HW115266   5.261   6.616   0.463
 4789SOL    HW215267   5.400   6.531   0.467
 4790SOL     OW15268   5.403   0.095   6.668
 4790SOL    HW115269   5.498   0.064   6.678
 4790SOL    HW215270   5.386   0.171   6.731
 4791SOL     OW15271   4.763   1.814   3.329
 4791SOL    HW115272   4.789   1.818   3.233
 4791SOL    HW215273   4.796   1.728   3.369
 4792SOL     OW15274   3.113   2.304   1.171
 4792SOL    HW115275   3.170   2.297   1.090
 4792SOL    HW215276   3.132   2.390   1.219
 4793SOL     OW15277   0.781   0.280   6.593
 4793SOL    HW115278   0.842   0.298   6.517
 4793SOL    HW215279   0.832   0.238   6.668
 4794SOL     OW15280   4.919   1.258   1.913
 4794SOL    HW115281   4.827   1.245   1.877
 4794SOL    HW215282   4.974   1.310   1.848
 4795SOL     OW15283   6.120   3.076   4.433
 4795SOL    HW115284   6.136   3.056   4.530
 4795SOL    HW215285   6.059   3.007   4.394
 4796SOL     OW15286   5.681   3.683   1.007
 4796SOL    HW115287   5.615   3.722   0.943
 4796SOL    HW215288   5.726   3.757   1.057
 4797SOL     OW15289   0.695   5.011   4.512
 4797SOL    HW115290   0.750   4.989   4.431
 4797SOL    HW215291   0.753   5.007   4.593
 4798SOL     OW15292   6.332   5.131   5.714
 4798SOL    HW115293   6.423   5.165   5.691
 4798SOL    HW215294   6.282   5.201   5.764
 4799SOL     OW15295   4.459   0.987   4.905
 4799SOL    HW115296   4.366   0.951   4.913
 4799SOL    HW215297   4.465   1.075   4.951
 4800SOL     OW15298   2.031   2.886   4.045
 4800SOL    HW115299   2.028   2.931   3.956
 4800SOL    HW215300   2.014   2.954   4.117
 4801SOL     OW15301   0.781   2.533   0.829
 4801SOL    HW115302   0.737   2.509   0.916
 4801SOL    HW215303   0.742   2.618   0.794
 4802SOL     OW15304   2.014   0.280   1.675
 4802SOL    HW115305   1.963   0.356   1.715
 4802SOL    HW215306   1.954   0.201   1.664
 4803SOL     OW15307   0.755   0.489   0.908
 4803SOL    HW115308   0.776   0.395   0.932
 4803SOL    HW215309   0.775   0.549   0.986
 4804SOL     OW15310   4.103   5.673   6.882
 4804SOL    HW115311   4.019   5.630   6.848
 4804SOL    HW215312   4.167   5.602   6.910
 4805SOL     OW15313   0.073   0.639   1.346
 4805SOL    HW115314   0.003   0.709   1.362
 4805SOL    HW215315   0.130   0.666   1.268
 4806SOL     OW15316   6.740   2.444   3.826
 4806SOL    HW115317   6.735   2.358   3.775
 4806SOL    HW215318   6.684   2.513   3.782
 4807SOL     OW15319   0.631   6.752   2.160
 4807SOL    HW115320   0.723   6.715   2.155
 4807SOL    HW215321   0.567   6.679   2.186
 4808SOL     OW15322   5.683   2.907   1.050
 4808SOL    HW115323   5.599   2.856   1.033
 4808SOL    HW215324   5.663   2.990   1.101
 4809SOL     OW15325   3.798   6.799   0.061
 4809SOL    HW115326   3.892   6.818   0.033
 4809SOL    HW215327   3.752   6.885   0.083
 4810SOL     OW15328   1.738   0.169   0.886
 4810SOL    HW115329   1.830   0.187   0.922
 4810SOL    HW215330   1.714   0.240   0.820
 4811SOL     OW15331   5.496   5.044   3.124
 4811SOL    HW115332   5.589   5.048   3.160
 4811SOL    HW215333   5.460   4.951   3.137
 4812SOL     OW15334   6.520   5.381   4.183
 4812SOL    HW115335   6.597   5.347   4.236
 4812SOL    HW215336   6.538   5.474   4.153
 4813SOL     OW15337   5.701   3.235   2.899
 4813SOL    HW115338   5.649   3.301   2.845
 4813SOL    HW215339   5.644   3.156   2.919
 4814SOL     OW15340   6.585   3.314   1.377
 4814SOL    HW115341   6.559   3.282   1.469
 4814SOL    HW215342   6.503   3.322   1.320
 4815SOL     OW15343   4.405   0.554   3.353
 4815SOL    HW115344   4.386   0.463   3.317
 4815SOL    HW215345   4.441   0.612   3.280
 4816SOL     OW15346   5.450   4.365   3.532
 4816SOL    HW115347   5.351   4.362   3.523
 4816SOL    HW215348   5.478   4.457   3.561
 4817SOL     OW15349   0.074   1.696   0.011
 4817SOL    HW115350   0.048   1.690   0.108
 4817SOL    HW215351   0.076   1.604   6.990
 4818SOL     OW15352   0.395   6.132   3.615
 4818SOL    HW115353   0.388   6.083   3.702
 4818SOL    HW215354   0.325   6.204   3.612
 4819SOL     OW15355   2.458   3.006   0.618
 4819SOL    HW115356   2.527   2.949   0.662
 4819SOL    HW215357   2.496   3.098   0.603
 4820SOL     OW15358   0.604   2.880   2.647
 4820SOL    HW115359   0.565   2.808   2.705
 4820SOL    HW215360   0.681   2.922   2.693
 4821SOL     OW15361   0.703   5.668   3.585
 4821SOL    HW115362   0.752   5.599   3.639
 4821SOL    HW215363   0.615   5.686   3.627
 4822SOL     OW15364   2.398   4.407   4.095
 4822SOL    HW115365   2.484   4.447   4.061
 4822SOL    HW215366   2.382   4.439   4.188
 4823SOL     OW15367   2.295   2.832   0.480
 4823SOL    HW115368   2.261   2.777   0.557
 4823SOL    HW215369   2.357   2.902   0.515
 4824SOL     OW15370   6.296   1.627   0.164
 4824SOL    HW115371   6.265   1.663   0.076
 4824SOL    HW215372   6.272   1.691   0.237
 4825SOL     OW15373   1.389   6.580   3.934
 4825SOL    HW115374   1.329   6.529   3.996
 4825SOL    HW215375   1.484   6.573   3.966
 4826SOL     OW15376   3.703   6.097   1.207
 4826SOL    HW115377   3.672   6.098   1.113
 4826SOL    HW215378   3.724   6.003   1.235
 4827SOL     OW15379   6.687   1.284   1.269
 4827SOL    HW115380   6.721   1.275   1.362
 4827SOL    HW215381   6.640   1.372   1.259
 4828SOL     OW15382   4.939   1.074   5.758
 4828SOL    HW115383   4.840   1.090   5.763
 4828SOL    HW215384   4.983   1.123   5.833
 4829SOL     OW15385   4.349   6.344   5.601
 4829SOL    HW115386   4.358   6.414   5.530
 4829SOL    HW215387   4.257   6.348   5.640
 4830SOL     OW15388   1.891   6.644   3.847
 4830SOL    HW115389   1.817   6.691   3.893
 4830SOL    HW215390   1.954   6.606   3.915
 4831SOL     OW15391   3.061   4.621   5.548
 4831SOL    HW115392   3.136   4.600   5.611
 4831SOL    HW215393   3.096   4.621   5.454
 4832SOL     OW15394   4.178   3.539   4.823
 4832SOL    HW115395   4.268   3.496   4.814
 4832SOL    HW215396   4.159   3.594   4.742
 4833SOL     OW15397   6.101   2.145   5.773
 4833SOL    HW115398   6.179   2.114   5.719
 4833SOL    HW215399   6.016   2.116   5.730
 4834SOL     OW15400   0.482   5.642   1.523
 4834SOL    HW115401   0.561   5.617   1.466
 4834SOL    HW215402   0.473   5.741   1.525
 4835SOL     OW15403   0.456   3.077   6.758
 4835SOL    HW115404   0.547   3.076   6.718
 4835SOL    HW215405   0.389   3.099   6.688
 4836SOL     OW15406   4.286   1.959   5.611
 4836SOL    HW115407   4.376   1.986   5.575
 4836SOL    HW215408   4.257   1.875   5.566
 4837SOL     OW15409   1.274   3.826   4.254
 4837SOL    HW115410   1.337   3.887   4.302
 4837SOL    HW215411   1.230   3.765   4.320
 4838SOL     OW15412   1.640   3.915   6.394
 4838SOL    HW115413   1.610   3.846   6.327
 4838SOL    HW215414   1.693   3.985   6.348
 4839SOL     OW15415   2.980   1.439   1.434
 4839SOL    HW115416   2.984   1.339   1.433
 4839SOL    HW215417   2.947   1.470   1.523
 4840SOL     OW15418   4.938   2.765   5.497
 4840SOL    HW115419   4.936   2.832   5.423
 4840SOL    HW215420   4.959   2.811   5.583
 4841SOL     OW15421   2.749   6.459   3.146
 4841SOL    HW115422   2.696   6.467   3.062
 4841SOL    HW215423   2.696   6.496   3.223
 4842SOL     OW15424   3.943   5.812   3.509
 4842SOL    HW115425   4.003   5.733   3.524
 4842SOL    HW215426   3.966   5.856   3.423
 4843SOL     OW15427   6.392   1.552   1.100
 4843SOL    HW115428   6.308   1.526   1.147
 4843SOL    HW215429   6.371   1.616   1.026
 4844SOL     OW15430   1.262   5.407   6.812
 4844SOL    HW115431   1.172   5.364   6.807
 4844SOL    HW215432   1.270   5.475   6.739
 4845SOL     OW15433   4.928   3.780   5.138
 4845SOL    HW115434   5.024   3.762   5.115
 4845SOL    HW215435   4.872   3.704   5.106
 4846SOL     OW15436   6.761   3.493   5.005
 4846SOL    HW115437   6.802   3.583   4.989
 4846SOL    HW215438   6.663   3.504   5.019
 4847SOL     OW15439   3.238   6.874   0.091
 4847SOL    HW115440   3.164   6.937   0.066
 4847SOL    HW215441   3.249   6.806   0.018
 4848SOL     OW15442   5.035   1.667   3.298
 4848SOL    HW115443   5.034   1.569   3.320
 4848SOL    HW215444   5.084   1.717   3.370
 4849SOL     OW15445   2.083   6.283   1.447
 4849SOL    HW115446   2.112   6.312   1.538
 4849SOL    HW215447   2.157   6.233   1.403
 4850SOL     OW15448   3.376   6.667   2.079
 4850SOL    HW115449   3.473   6.650   2.063
 4850SOL    HW215450   3.346   6.614   2.159
 4851SOL     OW15451   4.346   4.853   6.848
 4851SOL    HW115452   4.402   4.811   6.919
 4851SOL    HW215453   4.363   4.951   6.845
 4852SOL     OW15454   4.942   4.749   6.078
 4852SOL    HW115455   4.845   4.763   6.095
 4852SOL    HW215456   4.974   4.816   6.010
 4853SOL     OW15457   4.379   0.312   3.286
 4853SOL    HW115458   4.363   0.219   3.318
 4853SOL    HW215459   4.370   0.315   3.186
 4854SOL     OW15460   4.313   6.584   2.777
 4854SOL    HW115461   4.340   6.496   2.738
 4854SOL    HW215462   4.299   6.651   2.703
 4855SOL     OW15463   5.066   5.058   5.856
 4855SOL    HW115464   5.154   5.103   5.845
 4855SOL    HW215465   5.046   5.002   5.776
 4856SOL     OW15466   0.315   2.624   3.070
 4856SOL    HW115467   0.344   2.546   3.014
 4856SOL    HW215468   0.388   2.648   3.134
 4857SOL     OW15469   1.902   2.475   4.995
 4857SOL    HW115470   1.808   2.509   4.990
 4857SOL    HW215471   1.921   2.444   5.089
 4858SOL     OW15472   1.630   5.689   5.100
 4858SOL    HW115473   1.689   5.610   5.114
 4858SOL    HW215474   1.595   5.689   5.006
 4859SOL     OW15475   6.488   5.871   3.508
 4859SOL    HW115476   6.526   5.870   3.415
 4859SOL    HW215477   6.408   5.812   3.512
 4860SOL     OW15478   3.638   5.374   1.726
 4860SOL    HW115479   3.668   5.289   1.683
 4860SOL    HW215480   3.563   5.414   1.673
 4861SOL     OW15481   6.799   4.775   5.675
 4861SOL    HW115482   6.728   4.810   5.614
 4861SOL    HW215483   6.796   4.823   5.762
 4862SOL     OW15484   2.187   6.120   4.419
 4862SOL    HW115485   2.260   6.142   4.355
 4862SOL    HW215486   2.137   6.203   4.444
 4863SOL     OW15487   5.708   1.428   2.041
 4863SOL    HW115488   5.767   1.508   2.049
 4863SOL    HW215489   5.612   1.457   2.051
 4864SOL     OW15490   2.121   2.203   1.176
 4864SOL    HW115491   2.091   2.242   1.089
 4864SOL    HW215492   2.196   2.259   1.212
 4865SOL     OW15493   4.028   6.484   5.187
 4865SOL    HW115494   4.047   6.427   5.107
 4865SOL    HW215495   3.950   6.447   5.237
 4866SOL     OW15496   0.265   5.576   1.692
 4866SOL    HW115497   0.180   5.594   1.643
 4866SOL    HW215498   0.343   5.600   1.634
 4867SOL     OW15499   5.600   4.725   5.099
 4867SOL    HW115500   5.649   4.789   5.158
 4867SOL    HW215501   5.661   4.692   5.027
 4868SOL     OW15502   1.694   5.544   1.989
 4868SOL    HW115503   1.713   5.619   1.925
 4868SOL    HW215504   1.765   5.544   2.060
 4869SOL     OW15505   6.508   1.322   2.150
 4869SOL    HW115506   6.501   1.418   2.175
 4869SOL    HW215507   6.600   1.289   2.169
 4870SOL     OW15508   5.977   0.993   0.824
 4870SOL    HW115509   5.900   1.019   0.883
 4870SOL    HW215510   5.945   0.934   0.750
 4871SOL     OW15511   1.578   3.537   4.466
 4871SOL    HW115512   1.659   3.480   4.484
 4871SOL    HW215513   1.583   3.574   4.374
 4872SOL     OW15514   1.345   1.683   3.663
 4872SOL    HW115515   1.348   1.583   3.665
 4872SOL    HW215516   1.415   1.719   3.724
 4873SOL     OW15517   1.323   6.890   5.383
 4873SOL    HW115518   1.240   6.839   5.363
 4873SOL    HW215519   1.403   6.832   5.369
 4874SOL     OW15520   6.178   2.284   3.188
 4874SOL    HW115521   6.192   2.359   3.252
 4874SOL    HW215522   6.210   2.312   3.097
 4875SOL     OW15523   0.252   2.522   6.445
 4875SOL    HW115524   0.315   2.500   6.520
 4875SOL    HW215525   0.272   2.464   6.366
 4876SOL     OW15526   0.038   1.487   6.866
 4876SOL    HW115527   6.977   1.427   6.871
 4876SOL    HW215528   0.114   1.438   6.823
 4877SOL     OW15529   5.497   1.616   1.440
 4877SOL    HW115530   5.408   1.650   1.468
 4877SOL    HW215531   5.537   1.680   1.373
 4878SOL     OW15532   0.927   2.950   1.424
 4878SOL    HW115533   0.973   3.035   1.450
 4878SOL    HW215534   0.994   2.883   1.392
 4879SOL     OW15535   4.398   5.756   3.464
 4879SOL    HW115536   4.315   5.705   3.486
 4879SOL    HW215537   4.388   5.851   3.495
 4880SOL     OW15538   5.765   1.945   5.612
 4880SOL    HW115539   5.681   1.906   5.649
 4880SOL    HW215540   5.771   1.924   5.515
 4881SOL     OW15541   2.680   5.881   5.789
 4881SOL    HW115542   2.727   5.951   5.736
 4881SOL    HW215543   2.628   5.924   5.863
 4882SOL     OW15544   5.321   6.010   7.016
 4882SOL    HW115545   5.415   6.032   6.992
 4882SOL    HW215546   5.266   6.093   7.016
 4883SOL     OW15547   6.275   5.243   6.685
 4883SOL    HW115548   6.330   5.227   6.767
 4883SOL    HW215549   6.328   5.296   6.619
 4884SOL     OW15550   3.875   6.424   2.080
 4884SOL    HW115551   3.833   6.358   2.018
 4884SOL    HW215552   3.855   6.517   2.048
 4885SOL     OW15553   1.639   0.254   1.879
 4885SOL    HW115554   1.630   0.247   1.978
 4885SOL    HW215555   1.719   0.200   1.849
 4886SOL     OW15556   5.771   0.595   5.570
 4886SOL    HW115557   5.775   0.497   5.588
 4886SOL    HW215558   5.845   0.641   5.620
 4887SOL     OW15559   0.869   1.528   5.191
 4887SOL    HW115560   0.809   1.465   5.141
 4887SOL    HW215561   0.815   1.601   5.231
 4888SOL     OW15562   3.487   6.194   2.012
 4888SOL    HW115563   3.413   6.214   2.077
 4888SOL    HW215564   3.494   6.095   2.000
 4889SOL     OW15565   1.407   3.512   6.749
 4889SOL    HW115566   1.482   3.572   6.720
 4889SOL    HW215567   1.329   3.524   6.688
 4890SOL     OW15568   0.365   0.574   3.990
 4890SOL    HW115569   0.292   0.568   3.923
 4890SOL    HW215570   0.359   0.662   4.038
 4891SOL     OW15571   1.041   3.982   0.614
 4891SOL    HW115572   1.128   4.005   0.570
 4891SOL    HW215573   1.030   4.038   0.697
 4892SOL     OW15574   2.484   5.554   2.142
 4892SOL    HW115575   2.441   5.484   2.199
 4892SOL    HW215576   2.492   5.520   2.048
 4893SOL     OW15577   0.179   3.571   6.605
 4893SOL    HW115578   0.173   3.630   6.686
 4893SOL    HW215579   0.094   3.579   6.552
 4894SOL     OW15580   0.673   0.085   2.835
 4894SOL    HW115581   0.632   7.016   2.860
 4894SOL    HW215582   0.729   0.074   2.754
 4895SOL     OW15583   6.042   4.085   6.351
 4895SOL    HW115584   6.067   3.999   6.394
 4895SOL    HW215585   5.943   4.098   6.357
 4896SOL     OW15586   4.432   7.010   4.434
 4896SOL    HW115587   4.363   0.061   4.454
 4896SOL    HW215588   4.480   0.015   4.350
 4897SOL     OW15589   2.746   6.143   6.633
 4897SOL    HW115590   2.793   6.081   6.570
 4897SOL    HW215591   2.647   6.132   6.624
 4898SOL     OW15592   5.976   1.825   4.807
 4898SOL    HW115593   5.885   1.788   4.786
 4898SOL    HW215594   5.990   1.911   4.757
 4899SOL     OW15595   5.386   4.361   4.282
 4899SOL    HW115596   5.474   4.315   4.291
 4899SOL    HW215597   5.353   4.389   4.372
 4900SOL     OW15598   1.281   6.527   4.648
 4900SOL    HW115599   1.186   6.554   4.664
 4900SOL    HW215600   1.285   6.428   4.634
 4901SOL     OW15601   0.059   6.315   2.937
 4901SOL    HW115602   0.154   6.284   2.937
 4901SOL    HW215603   0.003   6.251   2.990
 4902SOL     OW15604   3.768   4.634   1.143
 4902SOL    HW115605   3.732   4.545   1.113
 4902SOL    HW215606   3.718   4.707   1.098
 4903SOL     OW15607   5.776   5.464   5.885
 4903SOL    HW115608   5.740   5.396   5.950
 4903SOL    HW215609   5.763   5.431   5.792
 4904SOL     OW15610   2.564   0.503   3.522
 4904SOL    HW115611   2.567   0.425   3.584
 4904SOL    HW215612   2.638   0.496   3.455
 4905SOL     OW15613   6.375   3.170   3.369
 4905SOL    HW115614   6.387   3.082   3.416
 4905SOL    HW215615   6.375   3.244   3.437
 4906SOL     OW15616   4.884   0.444   1.299
 4906SOL    HW115617   4.980   0.449   1.325
 4906SOL    HW215618   4.852   0.535   1.271
 4907SOL     OW15619   2.823   2.151   1.841
 4907SOL    HW115620   2.826   2.160   1.742
 4907SOL    HW215621   2.851   2.237   1.883
 4908SOL     OW15622   4.192   6.136   0.514
 4908SOL    HW115623   4.215   6.197   0.590
 4908SOL    HW215624   4.258   6.149   0.440
 4909SOL     OW15625   6.305   6.881   5.135
 4909SOL    HW115626   6.314   6.974   5.170
 4909SOL    HW215627   6.212   6.867   5.101
 4910SOL     OW15628   5.504   6.470   6.102
 4910SOL    HW115629   5.421   6.430   6.140
 4910SOL    HW215630   5.507   6.451   6.004
 4911SOL     OW15631   0.722   3.997   6.517
 4911SOL    HW115632   0.822   3.998   6.523
 4911SOL    HW215633   0.689   3.903   6.519
 4912SOL     OW15634   2.311   2.604   1.448
 4912SOL    HW115635   2.229   2.655   1.474
 4912SOL    HW215636   2.376   2.603   1.524
 4913SOL     OW15637   2.494   3.084   1.668
 4913SOL    HW115638   2.524   3.178   1.682
 4913SOL    HW215639   2.492   3.065   1.570
 4914SOL     OW15640   1.518   6.861   2.351
 4914SOL    HW115641   1.490   6.853   2.255
 4914SOL    HW215642   1.602   6.914   2.358
 4915SOL     OW15643   3.053   6.341   3.485
 4915SOL    HW115644   2.996   6.263   3.511
 4915SOL    HW215645   3.054   6.408   3.559
 4916SOL     OW15646   1.618   2.063   2.366
 4916SOL    HW115647   1.624   2.020   2.276
 4916SOL    HW215648   1.564   2.005   2.427
 4917SOL     OW15649   2.048   4.096   6.461
 4917SOL    HW115650   2.037   4.049   6.374
 4917SOL    HW215651   1.973   4.070   6.522
 4918SOL     OW15652   1.917   0.150   3.670
 4918SOL    HW115653   2.011   0.133   3.641
 4918SOL    HW215654   1.917   0.213   3.748
 4919SOL     OW15655   2.186   3.181   1.668
 4919SOL    HW115656   2.264   3.235   1.699
 4919SOL    HW215657   2.135   3.148   1.748
 4920SOL     OW15658   3.402   0.841   0.463
 4920SOL    HW115659   3.477   0.780   0.438
 4920SOL    HW215660   3.327   0.830   0.399
 4921SOL     OW15661   6.731   4.687   1.516
 4921SOL    HW115662   6.827   4.707   1.497
 4921SOL    HW215663   6.696   4.749   1.586
 4922SOL     OW15664   0.917   2.870   6.084
 4922SOL    HW115665   0.916   2.831   5.992
 4922SOL    HW215666   0.836   2.840   6.134
 4923SOL     OW15667   2.709   2.260   6.477
 4923SOL    HW115668   2.755   2.320   6.542
 4923SOL    HW215669   2.729   2.164   6.500
 4924SOL     OW15670   0.100   3.600   4.190
 4924SOL    HW115671   0.158   3.668   4.144
 4924SOL    HW215672   0.008   3.638   4.202
 4925SOL     OW15673   4.855   5.355   5.730
 4925SOL    HW115674   4.898   5.334   5.643
 4925SOL    HW215675   4.918   5.408   5.787
 4926SOL     OW15676   4.331   3.291   0.638
 4926SOL    HW115677   4.412   3.257   0.685
 4926SOL    HW215678   4.354   3.313   0.543
 4927SOL     OW15679   3.251   3.872   2.210
 4927SOL    HW115680   3.325   3.887   2.145
 4927SOL    HW215681   3.165   3.905   2.172
 4928SOL     OW15682   0.566   0.341   0.396
 4928SOL    HW115683   0.557   0.411   0.467
 4928SOL    HW215684   0.596   0.255   0.437
 4929SOL     OW15685   1.287   4.795   4.357
 4929SOL    HW115686   1.254   4.842   4.275
 4929SOL    HW215687   1.369   4.743   4.334
 4930SOL     OW15688   0.485   3.183   0.561
 4930SOL    HW115689   0.439   3.223   0.482
 4930SOL    HW215690   0.427   3.112   0.602
 4931SOL     OW15691   5.922   6.699   1.580
 4931SOL    HW115692   5.875   6.781   1.548
 4931SOL    HW215693   5.964   6.651   1.503
 4932SOL     OW15694   3.737   1.850   1.149
 4932SOL    HW115695   3.657   1.871   1.093
 4932SOL    HW215696   3.812   1.819   1.091
 4933SOL     OW15697   3.057   0.129   4.811
 4933SOL    HW115698   2.970   0.126   4.761
 4933SOL    HW215699   3.099   0.219   4.799
 4934SOL     OW15700   2.491   5.611   5.283
 4934SOL    HW115701   2.436   5.542   5.237
 4934SOL    HW215702   2.465   5.702   5.250
 4935SOL     OW15703   2.313   2.043   0.206
 4935SOL    HW115704   2.230   2.079   0.164
 4935SOL    HW215705   2.340   2.102   0.282
 4936SOL     OW15706   5.726   4.742   1.144
 4936SOL    HW115707   5.778   4.658   1.134
 4936SOL    HW215708   5.787   4.817   1.169
 4937SOL     OW15709   0.890   3.771   4.352
 4937SOL    HW115710   0.943   3.800   4.432
 4937SOL    HW215711   0.793   3.765   4.376
 4938SOL     OW15712   3.585   4.403   1.681
 4938SOL    HW115713   3.508   4.362   1.730
 4938SOL    HW215714   3.616   4.485   1.729
 4939SOL     OW15715   1.178   1.383   0.935
 4939SOL    HW115716   1.209   1.469   0.976
 4939SOL    HW215717   1.174   1.393   0.836
 4940SOL     OW15718   1.232   1.994   5.580
 4940SOL    HW115719   1.151   1.998   5.521
 4940SOL    HW215720   1.310   2.036   5.533
 4941SOL     OW15721   4.101   2.460   5.406
 4941SOL    HW115722   4.155   2.506   5.335
 4941SOL    HW215723   4.149   2.378   5.437
 4942SOL     OW15724   6.545   1.158   3.297
 4942SOL    HW115725   6.619   1.157   3.230
 4942SOL    HW215726   6.514   1.252   3.311
 4943SOL     OW15727   4.568   2.540   6.614
 4943SOL    HW115728   4.612   2.461   6.657
 4943SOL    HW215729   4.539   2.604   6.685
 4944SOL     OW15730   0.864   4.726   0.292
 4944SOL    HW115731   0.903   4.688   0.208
 4944SOL    HW215732   0.886   4.824   0.297
 4945SOL     OW15733   2.847   0.464   5.542
 4945SOL    HW115734   2.900   0.456   5.457
 4945SOL    HW215735   2.835   0.561   5.564
 4946SOL     OW15736   3.042   5.792   0.556
 4946SOL    HW115737   3.033   5.718   0.489
 4946SOL    HW215738   3.139   5.808   0.576
 4947SOL     OW15739   0.578   0.237   0.913
 4947SOL    HW115740   0.591   0.271   1.006
 4947SOL    HW215741   0.501   0.174   0.911
 4948SOL     OW15742   1.700   2.498   1.812
 4948SOL    HW115743   1.604   2.475   1.797
 4948SOL    HW215744   1.740   2.433   1.876
 4949SOL     OW15745   6.583   4.525   5.499
 4949SOL    HW115746   6.621   4.531   5.591
 4949SOL    HW215747   6.643   4.468   5.442
 4950SOL     OW15748   3.920   4.441   5.421
 4950SOL    HW115749   4.000   4.420   5.365
 4950SOL    HW215750   3.892   4.536   5.404
 4951SOL     OW15751   4.859   5.180   3.103
 4951SOL    HW115752   4.892   5.266   3.140
 4951SOL    HW215753   4.882   5.175   3.005
 4952SOL     OW15754   0.714   1.005   6.838
 4952SOL    HW115755   0.684   1.075   6.773
 4952SOL    HW215756   0.812   0.989   6.827
 4953SOL     OW15757   1.614   2.485   4.991
 4953SOL    HW115758   1.607   2.387   4.973
 4953SOL    HW215759   1.523   2.527   4.986
 4954SOL     OW15760   2.885   3.764   5.217
 4954SOL    HW115761   2.792   3.799   5.230
 4954SOL    HW215762   2.931   3.759   5.305
 4955SOL     OW15763   3.828   6.068   6.647
 4955SOL    HW115764   3.861   5.995   6.706
 4955SOL    HW215765   3.894   6.085   6.574
 4956SOL     OW15766   2.449   0.531   4.693
 4956SOL    HW115767   2.385   0.542   4.617
 4956SOL    HW215768   2.481   0.621   4.723
 4957SOL     OW15769   5.538   5.314   0.063
 4957SOL    HW115770   5.588   5.341   6.999
 4957SOL    HW215771   5.558   5.219   0.085
 4958SOL     OW15772   3.285   5.364   0.486
 4958SOL    HW115773   3.204   5.411   0.521
 4958SOL    HW215774   3.277   5.352   0.387
 4959SOL     OW15775   6.895   2.612   2.888
 4959SOL    HW115776   6.936   2.579   2.803
 4959SOL    HW215777   6.845   2.536   2.931
 4960SOL     OW15778   5.387   4.453   4.033
 4960SOL    HW115779   5.485   4.471   4.023
 4960SOL    HW215780   5.366   4.436   4.129
 4961SOL     OW15781   3.281   2.852   1.924
 4961SOL    HW115782   3.375   2.823   1.911
 4961SOL    HW215783   3.257   2.847   2.021
 4962SOL     OW15784   1.844   2.682   0.133
 4962SOL    HW115785   1.804   2.590   0.125
 4962SOL    HW215786   1.931   2.685   0.084
 4963SOL     OW15787   0.777   3.982   6.223
 4963SOL    HW115788   0.771   4.016   6.316
 4963SOL    HW215789   0.702   4.020   6.168
 4964SOL     OW15790   1.875   5.197   4.332
 4964SOL    HW115791   1.866   5.245   4.244
 4964SOL    HW215792   1.968   5.209   4.366
 4965SOL     OW15793   2.241   7.013   2.876
 4965SOL    HW115794   2.170   6.978   2.815
 4965SOL    HW215795   2.268   0.086   2.847
 4966SOL     OW15796   3.955   0.122   5.199
 4966SOL    HW115797   4.052   0.101   5.184
 4966SOL    HW215798   3.929   0.201   5.143
 4967SOL     OW15799   4.445   4.561   4.045
 4967SOL    HW115800   4.451   4.630   4.117
 4967SOL    HW215801   4.500   4.481   4.070
 4968SOL     OW15802   6.901   3.033   3.983
 4968SOL    HW115803   6.999   3.016   3.992
 4968SOL    HW215804   6.858   3.027   4.073
 4969SOL     OW15805   0.511   5.874   4.242
 4969SOL    HW115806   0.538   5.866   4.338
 4969SOL    HW215807   0.420   5.916   4.237
 4970SOL     OW15808   1.657   1.754   1.725
 4970SOL    HW115809   1.693   1.661   1.730
 4970SOL    HW215810   1.695   1.800   1.645
 4971SOL     OW15811   0.178   5.675   1.079
 4971SOL    HW115812   0.171   5.577   1.095
 4971SOL    HW215813   0.275   5.701   1.074
 4972SOL     OW15814   6.965   4.232   0.038
 4972SOL    HW115815   6.977   4.143   0.082
 4972SOL    HW215816   0.037   4.272   0.019
 4973SOL     OW15817   5.516   1.835   0.036
 4973SOL    HW115818   5.544   1.911   0.096
 4973SOL    HW215819   5.598   1.791   7.017
 4974SOL     OW15820   3.537   6.982   5.075
 4974SOL    HW115821   3.633   6.961   5.058
 4974SOL    HW215822   3.491   7.000   4.988
 4975SOL     OW15823   5.233   4.699   1.143
 4975SOL    HW115824   5.317   4.708   1.089
 4975SOL    HW215825   5.257   4.675   1.237
 4976SOL     OW15826   0.656   6.929   3.742
 4976SOL    HW115827   0.742   6.937   3.692
 4976SOL    HW215828   0.579   6.938   3.678
 4977SOL     OW15829   1.702   3.753   5.471
 4977SOL    HW115830   1.666   3.677   5.417
 4977SOL    HW215831   1.628   3.794   5.524
 4978SOL     OW15832   6.094   4.090   4.971
 4978SOL    HW115833   6.113   4.097   5.069
 4978SOL    HW215834   6.024   4.157   4.945
 4979SOL     OW15835   2.439   6.803   6.652
 4979SOL    HW115836   2.459   6.708   6.629
 4979SOL    HW215837   2.521   6.859   6.639
 4980SOL     OW15838   5.763   2.868   4.329
 4980SOL    HW115839   5.857   2.851   4.296
 4980SOL    HW215840   5.759   2.957   4.373
 4981SOL     OW15841   3.502   5.830   3.453
 4981SOL    HW115842   3.408   5.857   3.471
 4981SOL    HW215843   3.506   5.731   3.436
 4982SOL     OW15844   3.936   2.083   4.778
 4982SOL    HW115845   3.896   2.082   4.687
 4982SOL    HW215846   3.885   2.021   4.838
 4983SOL     OW15847   5.929   3.934   2.583
 4983SOL    HW115848   5.845   3.988   2.585
 4983SOL    HW215849   5.911   3.845   2.542
 4984SOL     OW15850   4.996   3.628   4.867
 4984SOL    HW115851   4.954   3.639   4.777
 4984SOL    HW215852   4.925   3.610   4.935
 4985SOL     OW15853   5.648   0.231   2.143
 4985SOL    HW115854   5.565   0.269   2.184
 4985SOL    HW215855   5.719   0.301   2.140
 4986SOL     OW15856   0.691   5.083   1.216
 4986SOL    HW115857   0.721   4.997   1.258
 4986SOL    HW215858   0.613   5.065   1.156
 4987SOL     OW15859   1.611   2.326   2.759
 4987SOL    HW115860   1.698   2.338   2.711
 4987SOL    HW215861   1.574   2.416   2.784
 4988SOL     OW15862   6.237   5.434   4.197
 4988SOL    HW115863   6.333   5.460   4.208
 4988SOL    HW215864   6.214   5.362   4.263
 4989SOL     OW15865   6.386   6.720   3.672
 4989SOL    HW115866   6.295   6.738   3.634
 4989SOL    HW215867   6.455   6.730   3.601
 4990SOL     OW15868   4.528   2.186   6.308
 4990SOL    HW115869   4.608   2.139   6.272
 4990SOL    HW215870   4.540   2.285   6.299
 4991SOL     OW15871   1.939   5.843   6.099
 4991SOL    HW115872   1.972   5.830   6.005
 4991SOL    HW215873   1.849   5.885   6.097
 4992SOL     OW15874   1.432   3.961   4.440
 4992SOL    HW115875   1.415   3.941   4.536
 4992SOL    HW215876   1.526   3.937   4.416
 4993SOL     OW15877   2.095   6.126   3.670
 4993SOL    HW115878   2.009   6.078   3.652
 4993SOL    HW215879   2.160   6.063   3.714
 4994SOL     OW15880   3.742   5.226   5.109
 4994SOL    HW115881   3.661   5.278   5.084
 4994SOL    HW215882   3.721   5.128   5.109
 4995SOL     OW15883   0.428   0.830   6.248
 4995SOL    HW115884   0.497   0.759   6.244
 4995SOL    HW215885   0.387   0.842   6.158
 4996SOL     OW15886   7.011   0.672   3.927
 4996SOL    HW115887   0.078   0.717   3.902
 4996SOL    HW215888   6.961   0.728   3.994
 4997SOL     OW15889   4.116   1.498   0.866
 4997SOL    HW115890   4.199   1.453   0.835
 4997SOL    HW215891   4.075   1.446   0.941
 4998SOL     OW15892   0.826   3.806   3.395
 4998SOL    HW115893   0.881   3.882   3.432
 4998SOL    HW215894   0.797   3.829   3.302
 4999SOL     OW15895   0.753   2.804   3.498
 4999SOL    HW115896   0.784   2.840   3.585
 4999SOL    HW215897   0.768   2.871   3.426
 5000SOL     OW15898   2.653   6.811   3.211
 5000SOL    HW115899   2.591   6.831   3.135
 5000SOL    HW215900   2.748   6.823   3.180
 5001SOL     OW15901   0.742   5.605   3.103
 5001SOL    HW115902   0.723   5.600   3.201
 5001SOL    HW215903   0.698   5.686   3.065
 5002SOL     OW15904   1.126   4.684   4.034
 5002SOL    HW115905   1.157   4.764   4.086
 5002SOL    HW215906   1.188   4.607   4.049
 5003SOL     OW15907   3.361   0.697   2.550
 5003SOL    HW115908   3.389   0.704   2.646
 5003SOL    HW215909   3.436   0.657   2.497
 5004SOL     OW15910   3.836   6.010   0.072
 5004SOL    HW115911   3.847   5.915   0.103
 5004SOL    HW215912   3.869   6.018   6.996
 5005SOL     OW15913   3.438   2.487   1.003
 5005SOL    HW115914   3.486   2.447   1.081
 5005SOL    HW215915   3.392   2.414   0.952
 5006SOL     OW15916   5.161   0.933   2.240
 5006SOL    HW115917   5.254   0.929   2.278
 5006SOL    HW215918   5.144   0.850   2.187
 5007SOL     OW15919   6.193   5.744   2.053
 5007SOL    HW115920   6.207   5.739   1.954
 5007SOL    HW215921   6.124   5.677   2.080
 5008SOL     OW15922   5.363   0.461   3.616
 5008SOL    HW115923   5.412   0.439   3.531
 5008SOL    HW215924   5.372   0.559   3.635
 5009SOL     OW15925   0.372   1.774   0.654
 5009SOL    HW115926   0.274   1.790   0.666
 5009SOL    HW215927   0.407   1.833   0.581
 5010SOL     OW15928   4.563   3.500   1.297
 5010SOL    HW115929   4.484   3.449   1.329
 5010SOL    HW215930   4.571   3.586   1.348
 5011SOL     OW15931   1.784   2.537   6.001
 5011SOL    HW115932   1.848   2.478   6.050
 5011SOL    HW215933   1.835   2.592   5.934
 5012SOL     OW15934   6.260   1.187   6.159
 5012SOL    HW115935   6.353   1.173   6.125
 5012SOL    HW215936   6.195   1.174   6.084
 5013SOL     OW15937   5.063   6.858   5.715
 5013SOL    HW115938   5.009   6.901   5.643
 5013SOL    HW215939   5.107   6.928   5.771
 5014SOL     OW15940   6.047   3.435   1.551
 5014SOL    HW115941   6.039   3.336   1.552
 5014SOL    HW215942   6.015   3.473   1.638
 5015SOL     OW15943   6.173   5.334   4.497
 5015SOL    HW115944   6.252   5.395   4.495
 5015SOL    HW215945   6.190   5.261   4.564
 5016SOL     OW15946   1.625   3.187   6.397
 5016SOL    HW115947   1.607   3.254   6.326
 5016SOL    HW215948   1.577   3.214   6.481
 5017SOL     OW15949   0.290   2.846   2.022
 5017SOL    HW115950   0.343   2.905   1.962
 5017SOL    HW215951   0.196   2.882   2.029
 5018SOL     OW15952   1.467   0.608   6.852
 5018SOL    HW115953   1.513   0.687   6.891
 5018SOL    HW215954   1.377   0.597   6.894
 5019SOL     OW15955   1.686   4.360   3.995
 5019SOL    HW115956   1.643   4.329   4.079
 5019SOL    HW215957   1.616   4.373   3.924
 5020SOL     OW15958   1.862   0.399   4.169
 5020SOL    HW115959   1.859   0.325   4.235
 5020SOL    HW215960   1.771   0.440   4.160
 5021SOL     OW15961   2.690   1.016   1.268
 5021SOL    HW115962   2.721   0.957   1.194
 5021SOL    HW215963   2.626   0.965   1.326
 5022SOL     OW15964   6.783   3.001   0.784
 5022SOL    HW115965   6.813   3.086   0.827
 5022SOL    HW215966   6.710   2.959   0.838
 5023SOL     OW15967   0.695   4.202   2.635
 5023SOL    HW115968   0.621   4.205   2.702
 5023SOL    HW215969   0.681   4.274   2.566
 5024SOL     OW15970   4.692   3.624   0.770
 5024SOL    HW115971   4.749   3.705   0.763
 5024SOL    HW215972   4.614   3.643   0.831
 5025SOL     OW15973   4.908   2.130   4.528
 5025SOL    HW115974   4.907   2.100   4.623
 5025SOL    HW215975   4.844   2.075   4.475
 5026SOL     OW15976   5.357   6.574   4.480
 5026SOL    HW115977   5.449   6.573   4.518
 5026SOL    HW215978   5.360   6.611   4.387
 5027SOL     OW15979   5.259   6.648   0.775
 5027SOL    HW115980   5.297   6.632   0.684
 5027SOL    HW215981   5.159   6.646   0.769
 5028SOL     OW15982   6.082   1.957   2.022
 5028SOL    HW115983   6.129   2.000   2.099
 5028SOL    HW215984   6.096   1.858   2.026
 5029SOL     OW15985   4.965   1.922   2.297
 5029SOL    HW115986   5.040   1.965   2.347
 5029SOL    HW215987   4.958   1.826   2.324
 5030SOL     OW15988   0.501   3.789   6.843
 5030SOL    HW115989   0.523   3.881   6.809
 5030SOL    HW215990   0.405   3.786   6.871
 5031SOL     OW15991   6.262   0.231   6.124
 5031SOL    HW115992   6.350   0.183   6.129
 5031SOL    HW215993   6.196   0.174   6.074
 5032SOL     OW15994   2.593   3.533   5.958
 5032SOL    HW115995   2.577   3.452   6.014
 5032SOL    HW215996   2.659   3.593   6.002
 5033SOL     OW15997   2.336   0.068   6.096
 5033SOL    HW115998   2.336   0.083   6.195
 5033SOL    HW215999   2.428   0.084   6.060
 5034SOL     OW16000   4.323   6.148   4.678
 5034SOL    HW116001   4.228   6.175   4.695
 5034SOL    HW216002   4.380   6.229   4.668
 5035SOL     OW16003   2.023   3.649   3.962
 5035SOL    HW116004   2.106   3.698   3.990
 5035SOL    HW216005   1.945   3.711   3.968
 5036SOL     OW16006   1.216   2.581   4.714
 5036SOL    HW116007   1.310   2.576   4.681
 5036SOL    HW216008   1.174   2.666   4.682
 5037SOL     OW16009   4.710   4.096   1.108
 5037SOL    HW116010   4.740   4.058   1.196
 5037SOL    HW216011   4.730   4.194   1.106
 5038SOL     OW16012   3.278   3.647   3.372
 5038SOL    HW116013   3.321   3.586   3.440
 5038SOL    HW216014   3.339   3.659   3.295
 5039SOL     OW16015   1.156   3.637   0.370
 5039SOL    HW116016   1.079   3.573   0.368
 5039SOL    HW216017   1.185   3.656   0.276
 5040SOL     OW16018   0.203   1.399   5.656
 5040SOL    HW116019   0.277   1.414   5.722
 5040SOL    HW216020   0.224   1.445   5.571
 5041SOL     OW16021   6.874   2.032   1.472
 5041SOL    HW116022   6.872   2.128   1.444
 5041SOL    HW216023   6.930   1.980   1.408
 5042SOL     OW16024   1.125   2.641   5.947
 5042SOL    HW116025   1.151   2.732   5.916
 5042SOL    HW216026   1.093   2.587   5.869
 5043SOL     OW16027   3.715   6.559   1.794
 5043SOL    HW116028   3.773   6.619   1.849
 5043SOL    HW216029   3.645   6.613   1.749
 5044SOL     OW16030   6.753   5.874   6.902
 5044SOL    HW116031   6.822   5.944   6.885
 5044SOL    HW216032   6.748   5.854   7.000
 5045SOL     OW16033   5.838   2.756   0.249
 5045SOL    HW116034   5.790   2.830   0.297
 5045SOL    HW216035   5.776   2.679   0.236
 5046SOL     OW16036   3.811   3.354   2.223
 5046SOL    HW116037   3.760   3.390   2.301
 5046SOL    HW216038   3.909   3.368   2.239
 5047SOL     OW16039   2.055   3.516   3.624
 5047SOL    HW116040   2.116   3.554   3.693
 5047SOL    HW216041   1.963   3.505   3.663
 5048SOL     OW16042   2.406   0.318   6.574
 5048SOL    HW116043   2.447   0.344   6.487
 5048SOL    HW216044   2.463   0.350   6.649
 5049SOL     OW16045   4.610   2.046   0.178
 5049SOL    HW116046   4.690   2.059   0.119
 5049SOL    HW216047   4.608   1.952   0.211
 5050SOL     OW16048   1.560   0.516   0.452
 5050SOL    HW116049   1.478   0.501   0.507
 5050SOL    HW216050   1.571   0.614   0.434
 5051SOL     OW16051   4.848   5.242   1.465
 5051SOL    HW116052   4.863   5.143   1.458
 5051SOL    HW216053   4.933   5.287   1.492
 5052SOL     OW16054   2.192   2.470   4.938
 5052SOL    HW116055   2.105   2.514   4.963
 5052SOL    HW216056   2.265   2.538   4.940
 5053SOL     OW16057   0.151   1.174   1.679
 5053SOL    HW116058   0.140   1.241   1.605
 5053SOL    HW216059   0.229   1.201   1.736
 5054SOL     OW16060   3.867   5.279   3.701
 5054SOL    HW116061   3.947   5.219   3.695
 5054SOL    HW216062   3.795   5.243   3.641
 5055SOL     OW16063   0.401   3.716   5.942
 5055SOL    HW116064   0.310   3.753   5.963
 5055SOL    HW216065   0.406   3.692   5.845
 5056SOL     OW16066   6.006   3.618   3.918
 5056SOL    HW116067   5.990   3.519   3.911
 5056SOL    HW216068   5.921   3.664   3.943
 5057SOL     OW16069   0.312   5.514   2.406
 5057SOL    HW116070   0.398   5.565   2.413
 5057SOL    HW216071   0.255   5.554   2.335
 5058SOL     OW16072   2.702   5.423   5.792
 5058SOL    HW116073   2.659   5.395   5.707
 5058SOL    HW216074   2.732   5.518   5.785
 5059SOL     OW16075   6.909   0.438   2.287
 5059SOL    HW116076   6.877   0.344   2.298
 5059SOL    HW216077   6.967   0.463   2.365
 5060SOL     OW16078   0.043   2.304   6.115
 5060SOL    HW116079   6.971   2.304   6.159
 5060SOL    HW216080   0.070   2.210   6.094
 5061SOL     OW16081   5.310   3.986   1.365
 5061SOL    HW116082   5.323   4.006   1.463
 5061SOL    HW216083   5.365   4.050   1.311
 5062SOL     OW16084   6.487   0.536   0.930
 5062SOL    HW116085   6.387   0.528   0.924
 5062SOL    HW216086   6.512   0.571   1.020
 5063SOL     OW16087   1.167   6.335   2.215
 5063SOL    HW116088   1.225   6.287   2.281
 5063SOL    HW216089   1.077   6.291   2.212
 5064SOL     OW16090   4.859   3.694   0.322
 5064SOL    HW116091   4.871   3.595   0.334
 5064SOL    HW216092   4.796   3.710   0.246
 5065SOL     OW16093   3.036   6.662   5.836
 5065SOL    HW116094   3.124   6.624   5.806
 5065SOL    HW216095   3.022   6.639   5.932
 5066SOL     OW16096   4.927   5.537   1.249
 5066SOL    HW116097   4.847   5.596   1.259
 5066SOL    HW216098   4.903   5.458   1.193
 5067SOL     OW16099   5.253   1.055   6.529
 5067SOL    HW116100   5.192   1.032   6.606
 5067SOL    HW216101   5.240   1.150   6.504
 5068SOL     OW16102   3.854   4.778   1.376
 5068SOL    HW116103   3.826   4.868   1.344
 5068SOL    HW216104   3.835   4.710   1.306
 5069SOL     OW16105   6.590   5.434   2.710
 5069SOL    HW116106   6.653   5.436   2.788
 5069SOL    HW216107   6.602   5.348   2.660
 5070SOL     OW16108   4.836   3.471   4.059
 5070SOL    HW116109   4.739   3.448   4.070
 5070SOL    HW216110   4.881   3.399   4.004
 5071SOL     OW16111   4.277   1.014   6.981
 5071SOL    HW116112   4.246   0.920   6.991
 5071SOL    HW216113   4.261   1.045   6.887
 5072SOL     OW16114   0.913   4.223   1.294
 5072SOL    HW116115   0.985   4.209   1.225
 5072SOL    HW216116   0.924   4.313   1.336
 5073SOL     OW16117   4.490   2.127   4.354
 5073SOL    HW116118   4.430   2.060   4.310
 5073SOL    HW216119   4.435   2.196   4.400
 5074SOL     OW16120   4.113   4.908   4.998
 5074SOL    HW116121   4.090   4.997   5.037
 5074SOL    HW216122   4.135   4.844   5.072
 5075SOL     OW16123   6.428   6.796   4.142
 5075SOL    HW116124   6.429   6.872   4.077
 5075SOL    HW216125   6.344   6.743   4.131
 5076SOL     OW16126   4.067   0.829   1.493
 5076SOL    HW116127   4.047   0.774   1.412
 5076SOL    HW216128   3.999   0.812   1.563
 5077SOL     OW16129   6.875   2.780   2.499
 5077SOL    HW116130   6.908   2.814   2.587
 5077SOL    HW216131   6.914   2.689   2.483
 5078SOL     OW16132   0.073   1.018   4.048
 5078SOL    HW116133   0.057   0.923   4.074
 5078SOL    HW216134   7.006   1.058   4.014
 5079SOL     OW16135   4.489   4.811   4.998
 5079SOL    HW116136   4.502   4.844   4.904
 5079SOL    HW216137   4.419   4.740   4.999
 5080SOL     OW16138   5.887   0.104   5.775
 5080SOL    HW116139   5.856   0.177   5.837
 5080SOL    HW216140   5.974   0.131   5.734
 5081SOL     OW16141   3.431   3.836   2.947
 5081SOL    HW116142   3.343   3.790   2.936
 5081SOL    HW216143   3.444   3.902   2.873
 5082SOL     OW16144   0.068   0.177   5.807
 5082SOL    HW116145   0.108   0.112   5.872
 5082SOL    HW216146   7.008   0.222   5.849
 5083SOL     OW16147   1.359   6.028   2.107
 5083SOL    HW116148   1.290   5.956   2.093
 5083SOL    HW216149   1.379   6.073   2.021
 5084SOL     OW16150   1.560   5.941   2.287
 5084SOL    HW116151   1.626   6.013   2.309
 5084SOL    HW216152   1.531   5.950   2.192
 5085SOL     OW16153   6.266   3.225   6.739
 5085SOL    HW116154   6.361   3.247   6.714
 5085SOL    HW216155   6.248   3.256   6.832
 5086SOL     OW16156   6.953   5.138   4.438
 5086SOL    HW116157   6.888   5.196   4.390
 5086SOL    HW216158   0.002   5.102   4.373
 5087SOL     OW16159   6.682   5.375   5.111
 5087SOL    HW116160   6.668   5.297   5.172
 5087SOL    HW216161   6.672   5.345   5.016
 5088SOL     OW16162   6.101   0.772   0.485
 5088SOL    HW116163   6.123   0.868   0.470
 5088SOL    HW216164   6.185   0.721   0.506
 5089SOL     OW16165   5.584   2.645   4.358
 5089SOL    HW116166   5.493   2.659   4.397
 5089SOL    HW216167   5.637   2.729   4.367
 5090SOL     OW16168   0.868   5.290   0.657
 5090SOL    HW116169   0.803   5.225   0.618
 5090SOL    HW216170   0.938   5.312   0.588
 5091SOL     OW16171   1.488   6.405   3.661
 5091SOL    HW116172   1.505   6.496   3.622
 5091SOL    HW216173   1.574   6.365   3.692
 5092SOL     OW16174   3.391   2.982   1.184
 5092SOL    HW116175   3.299   3.016   1.168
 5092SOL    HW216176   3.387   2.910   1.254
 5093SOL     OW16177   0.980   1.929   1.395
 5093SOL    HW116178   0.998   2.025   1.375
 5093SOL    HW216179   0.988   1.876   1.310
 5094SOL     OW16180   6.824   0.433   6.920
 5094SOL    HW116181   6.810   0.357   6.983
 5094SOL    HW216182   6.807   0.519   6.968
 5095SOL     OW16183   3.348   0.075   5.239
 5095SOL    HW116184   3.390   0.069   5.330
 5095SOL    HW216185   3.415   0.046   5.170
 5096SOL     OW16186   3.479   5.961   3.026
 5096SOL    HW116187   3.457   6.059   3.033
 5096SOL    HW216188   3.568   5.951   2.980
 5097SOL     OW16189   1.033   1.533   6.093
 5097SOL    HW116190   1.024   1.501   5.999
 5097SOL    HW216191   1.061   1.457   6.152
 5098SOL     OW16192   6.900   2.848   2.776
 5098SOL    HW116193   6.879   2.774   2.840
 5098SOL    HW216194   6.970   2.908   2.815
 5099SOL     OW16195   1.312   0.497   3.983
 5099SOL    HW116196   1.239   0.507   3.915
 5099SOL    HW216197   1.317   0.401   4.012
 5100SOL     OW16198   4.685   5.182   6.107
 5100SOL    HW116199   4.618   5.256   6.116
 5100SOL    HW216200   4.638   5.094   6.111
 5101SOL     OW16201   4.499   6.137   0.524
 5101SOL    HW116202   4.528   6.043   0.542
 5101SOL    HW216203   4.552   6.174   0.447
 5102SOL     OW16204   3.844   5.601   4.056
 5102SOL    HW116205   3.756   5.601   4.103
 5102SOL    HW216206   3.891   5.687   4.073
 5103SOL     OW16207   1.408   1.391   4.101
 5103SOL    HW116208   1.423   1.374   4.198
 5103SOL    HW216209   1.323   1.442   4.088
 5104SOL     OW16210   1.132   0.619   1.136
 5104SOL    HW116211   1.161   0.598   1.230
 5104SOL    HW216212   1.035   0.645   1.137
 5105SOL     OW16213   1.847   3.155   6.100
 5105SOL    HW116214   1.832   3.094   6.178
 5105SOL    HW216215   1.763   3.161   6.046
 5106SOL     OW16216   2.481   0.040   2.603
 5106SOL    HW116217   2.539   7.012   2.670
 5106SOL    HW216218   2.527   0.041   2.514
 5107SOL     OW16219   1.964   0.074   6.588
 5107SOL    HW116220   2.055   0.032   6.581
 5107SOL    HW216221   1.974   0.173   6.597
 5108SOL     OW16222   3.128   3.813   3.818
 5108SOL    HW116223   3.083   3.866   3.890
 5108SOL    HW216224   3.077   3.822   3.733
 5109SOL     OW16225   6.837   1.885   2.166
 5109SOL    HW116226   6.810   1.830   2.245
 5109SOL    HW216227   6.935   1.903   2.170
 5110SOL     OW16228   2.226   5.689   5.495
 5110SOL    HW116229   2.234   5.715   5.399
 5110SOL    HW216230   2.307   5.638   5.523
 5111SOL     OW16231   1.730   1.100   0.466
 5111SOL    HW116232   1.648   1.154   0.448
 5111SOL    HW216233   1.809   1.160   0.472
 5112SOL     OW16234   0.086   0.113   3.326
 5112SOL    HW116235   0.017   0.048   3.359
 5112SOL    HW216236   0.134   0.074   3.247
 5113SOL     OW16237   0.439   0.237   6.166
 5113SOL    HW116238   0.448   0.304   6.240
 5113SOL    HW216239   0.528   0.221   6.124
 5114SOL     OW16240   3.963   5.752   6.460
 5114SOL    HW116241   3.878   5.773   6.507
 5114SOL    HW216242   4.041   5.780   6.517
 5115SOL     OW16243   2.118   3.938   4.891
 5115SOL    HW116244   2.098   3.850   4.935
 5115SOL    HW216245   2.192   3.984   4.940
 5116SOL     OW16246   6.759   3.403   0.372
 5116SOL    HW116247   6.707   3.406   0.457
 5116SOL    HW216248   6.704   3.443   0.298
 5117SOL     OW16249   2.794   4.986   2.943
 5117SOL    HW116250   2.799   4.886   2.954
 5117SOL    HW216251   2.734   5.024   3.014
 5118SOL     OW16252   3.869   6.675   1.958
 5118SOL    HW116253   3.967   6.698   1.962
 5118SOL    HW216254   3.815   6.758   1.974
 5119SOL     OW16255   6.150   0.209   2.603
 5119SOL    HW116256   6.124   0.118   2.568
 5119SOL    HW216257   6.233   0.200   2.658
 5120SOL     OW16258   3.320   1.468   2.500
 5120SOL    HW116259   3.260   1.519   2.439
 5120SOL    HW216260   3.366   1.396   2.449
 5121SOL     OW16261   0.816   3.280   3.777
 5121SOL    HW116262   0.897   3.263   3.721
 5121SOL    HW216263   0.844   3.318   3.865
 5122SOL     OW16264   2.246   5.505   3.242
 5122SOL    HW116265   2.259   5.411   3.275
 5122SOL    HW216266   2.327   5.559   3.264
 5123SOL     OW16267   6.405   3.403   2.039
 5123SOL    HW116268   6.432   3.432   2.131
 5123SOL    HW216269   6.375   3.482   1.986
 5124SOL     OW16270   2.312   6.464   0.610
 5124SOL    HW116271   2.311   6.377   0.560
 5124SOL    HW216272   2.227   6.513   0.594
 5125SOL     OW16273   6.880   2.088   5.704
 5125SOL    HW116274   6.810   2.159   5.697
 5125SOL    HW216275   6.876   2.030   5.623
 5126SOL     OW16276   4.433   2.279   0.257
 5126SOL    HW116277   4.498   2.211   0.292
 5126SOL    HW216278   4.398   2.334   0.332
 5127SOL     OW16279   5.629   3.357   6.596
 5127SOL    HW116280   5.539   3.328   6.565
 5127SOL    HW216281   5.620   3.428   6.665
 5128SOL     OW16282   6.725   0.083   6.366
 5128SOL    HW116283   6.739   0.066   6.463
 5128SOL    HW216284   6.793   0.149   6.333
 5129SOL     OW16285   4.914   2.510   3.583
 5129SOL    HW116286   4.839   2.450   3.558
 5129SOL    HW216287   4.927   2.579   3.512
 5130SOL     OW16288   1.631   6.670   5.077
 5130SOL    HW116289   1.542   6.624   5.083
 5130SOL    HW216290   1.702   6.603   5.058
 5131SOL     OW16291   3.722   4.876   3.466
 5131SOL    HW116292   3.706   4.781   3.492
 5131SOL    HW216293   3.677   4.895   3.379
 5132SOL     OW16294   4.258   2.293   6.897
 5132SOL    HW116295   4.350   2.286   6.935
 5132SOL    HW216296   4.229   2.389   6.898
 5133SOL     OW16297   4.947   4.874   6.862
 5133SOL    HW116298   4.900   4.814   6.797
 5133SOL    HW216299   4.986   4.819   6.936
 5134SOL     OW16300   6.042   5.662   0.061
 5134SOL    HW116301   6.109   5.616   0.120
 5134SOL    HW216302   6.076   5.753   0.038
 5135SOL     OW16303   6.773   2.980   2.327
 5135SOL    HW116304   6.840   2.923   2.374
 5135SOL    HW216305   6.682   2.964   2.366
 5136SOL     OW16306   0.768   0.979   4.616
 5136SOL    HW116307   0.721   0.923   4.684
 5136SOL    HW216308   0.865   0.985   4.639
 5137SOL     OW16309   5.417   0.355   3.324
 5137SOL    HW116310   5.504   0.310   3.307
 5137SOL    HW216311   5.350   0.326   3.256
 5138SOL     OW16312   3.110   2.947   2.456
 5138SOL    HW116313   3.084   2.882   2.384
 5138SOL    HW216314   3.081   3.039   2.429
 5139SOL     OW16315   4.473   0.475   4.947
 5139SOL    HW116316   4.492   0.506   5.040
 5139SOL    HW216317   4.504   0.543   4.882
 5140SOL     OW16318   3.357   3.683   6.362
 5140SOL    HW116319   3.361   3.783   6.366
 5140SOL    HW216320   3.368   3.646   6.455
 5141SOL     OW16321   1.459   2.757   1.480
 5141SOL    HW116322   1.498   2.685   1.423
 5141SOL    HW216323   1.371   2.726   1.517
 5142SOL     OW16324   0.884   0.204   2.532
 5142SOL    HW116325   0.839   0.292   2.550
 5142SOL    HW216326   0.973   0.203   2.578
 5143SOL     OW16327   0.040   5.986   1.996
 5143SOL    HW116328   7.013   5.947   2.076
 5143SOL    HW216329   0.079   6.075   2.019
 5144SOL     OW16330   2.162   3.070   4.898
 5144SOL    HW116331   2.197   3.047   4.988
 5144SOL    HW216332   2.071   3.111   4.907
 5145SOL     OW16333   2.387   5.547   5.664
 5145SOL    HW116334   2.331   5.588   5.737
 5145SOL    HW216335   2.458   5.612   5.637
 5146SOL     OW16336   6.037   5.548   6.515
 5146SOL    HW116337   5.938   5.561   6.507
 5146SOL    HW216338   6.058   5.502   6.601
 5147SOL     OW16339   5.726   2.359   3.540
 5147SOL    HW116340   5.807   2.346   3.596
 5147SOL    HW216341   5.699   2.272   3.498
 5148SOL     OW16342   6.641   1.319   0.276
 5148SOL    HW116343   6.637   1.282   0.368
 5148SOL    HW216344   6.736   1.324   0.246
 5149SOL     OW16345   4.378   5.626   4.259
 5149SOL    HW116346   4.459   5.645   4.315
 5149SOL    HW216347   4.405   5.572   4.180
 5150SOL     OW16348   6.603   0.557   3.718
 5150SOL    HW116349   6.578   0.509   3.802
 5150SOL    HW216350   6.529   0.620   3.692
 5151SOL     OW16351   5.429   5.239   1.466
 5151SOL    HW116352   5.507   5.177   1.483
 5151SOL    HW216353   5.397   5.276   1.553
 5152SOL     OW16354   2.546   1.918   0.131
 5152SOL    HW116355   2.581   1.877   0.215
 5152SOL    HW216356   2.462   1.970   0.151
 5153SOL     OW16357   2.580   2.191   0.303
 5153SOL    HW116358   2.556   2.222   0.211
 5153SOL    HW216359   2.676   2.163   0.305
 5154SOL     OW16360   0.533   2.454   0.350
 5154SOL    HW116361   0.441   2.419   0.370
 5154SOL    HW216362   0.595   2.432   0.425
 5155SOL     OW16363   1.457   1.343   0.617
 5155SOL    HW116364   1.442   1.322   0.520
 5155SOL    HW216365   1.485   1.438   0.628
 5156SOL     OW16366   5.559   4.953   6.176
 5156SOL    HW116367   5.530   4.914   6.263
 5156SOL    HW216368   5.657   4.935   6.162
 5157SOL     OW16369   3.614   1.073   2.044
 5157SOL    HW116370   3.650   1.010   2.112
 5157SOL    HW216371   3.671   1.155   2.040
 5158SOL     OW16372   1.407   2.092   1.593
 5158SOL    HW116373   1.405   1.993   1.579
 5158SOL    HW216374   1.361   2.114   1.679
 5159SOL     OW16375   6.572   3.018   5.888
 5159SOL    HW116376   6.497   2.976   5.836
 5159SOL    HW216377   6.594   2.961   5.967
 5160SOL     OW16378   6.802   6.973   3.065
 5160SOL    HW116379   6.778   0.050   3.048
 5160SOL    HW216380   6.855   6.966   3.150
 5161SOL     OW16381   1.335   2.563   6.104
 5161SOL    HW116382   1.255   2.595   6.054
 5161SOL    HW216383   1.408   2.541   6.038
 5162SOL     OW16384   0.113   6.638   4.914
 5162SOL    HW116385   0.187   6.598   4.859
 5162SOL    HW216386   0.138   6.636   5.010
 5163SOL     OW16387   2.969   0.641   1.686
 5163SOL    HW116388   2.960   0.736   1.713
 5163SOL    HW216389   2.888   0.612   1.635
 5164SOL     OW16390   2.856   3.780   0.290
 5164SOL    HW116391   2.944   3.734   0.279
 5164SOL    HW216392   2.782   3.715   0.274
 5165SOL     OW16393   1.631   5.190   6.176
 5165SOL    HW116394   1.668   5.113   6.227
 5165SOL    HW216395   1.537   5.207   6.207
 5166SOL     OW16396   0.235   5.146   6.129
 5166SOL    HW116397   0.229   5.241   6.097
 5166SOL    HW216398   0.148   5.119   6.170
 5167SOL     OW16399   5.599   3.692   5.991
 5167SOL    HW116400   5.536   3.770   5.993
 5167SOL    HW216401   5.562   3.619   6.049
 5168SOL     OW16402   4.404   1.713   3.428
 5168SOL    HW116403   4.375   1.644   3.362
 5168SOL    HW216404   4.455   1.669   3.502
 5169SOL     OW16405   5.329   5.896   4.076
 5169SOL    HW116406   5.335   5.825   4.146
 5169SOL    HW216407   5.245   5.949   4.089
 5170SOL     OW16408   2.118   4.170   6.098
 5170SOL    HW116409   2.185   4.127   6.038
 5170SOL    HW216410   2.098   4.110   6.175
 5171SOL     OW16411   2.153   6.551   6.065
 5171SOL    HW116412   2.056   6.575   6.067
 5171SOL    HW216413   2.174   6.492   6.143
 5172SOL     OW16414   5.782   5.544   6.461
 5172SOL    HW116415   5.790   5.505   6.369
 5172SOL    HW216416   5.687   5.541   6.490
 5173SOL     OW16417   4.423   5.555   4.603
 5173SOL    HW116418   4.345   5.504   4.566
 5173SOL    HW216419   4.395   5.605   4.685
 5174SOL     OW16420   1.397   6.661   2.922
 5174SOL    HW116421   1.299   6.664   2.942
 5174SOL    HW216422   1.447   6.710   2.993
 5175SOL     OW16423   2.564   2.460   6.335
 5175SOL    HW116424   2.616   2.394   6.389
 5175SOL    HW216425   2.530   2.416   6.252
 5176SOL     OW16426   6.208   5.893   6.583
 5176SOL    HW116427   6.289   5.855   6.538
 5176SOL    HW216428   6.207   5.992   6.571
 5177SOL     OW16429   5.124   6.227   0.376
 5177SOL    HW116430   5.080   6.163   0.312
 5177SOL    HW216431   5.223   6.223   0.364
 5178SOL     OW16432   0.606   4.298   0.989
 5178SOL    HW116433   0.628   4.238   1.066
 5178SOL    HW216434   0.531   4.258   0.936
 5179SOL     OW16435   5.189   5.611   3.352
 5179SOL    HW116436   5.242   5.574   3.275
 5179SOL    HW216437   5.093   5.588   3.339
 5180SOL     OW16438   1.607   4.832   2.102
 5180SOL    HW116439   1.628   4.741   2.137
 5180SOL    HW216440   1.670   4.899   2.143
 5181SOL     OW16441   0.007   1.238   5.555
 5181SOL    HW116442   0.071   1.299   5.601
 5181SOL    HW216443   0.057   1.164   5.511
 5182SOL     OW16444   2.499   6.565   2.274
 5182SOL    HW116445   2.557   6.511   2.336
 5182SOL    HW216446   2.499   6.661   2.303
 5183SOL     OW16447   4.557   2.556   3.418
 5183SOL    HW116448   4.579   2.476   3.362
 5183SOL    HW216449   4.458   2.568   3.419
 5184SOL     OW16450   2.186   1.834   2.754
 5184SOL    HW116451   2.184   1.924   2.799
 5184SOL    HW216452   2.272   1.825   2.702
 5185SOL     OW16453   6.504   6.776   2.070
 5185SOL    HW116454   6.493   6.839   2.147
 5185SOL    HW216455   6.583   6.805   2.016
 5186SOL     OW16456   5.955   2.350   6.828
 5186SOL    HW116457   6.029   2.395   6.778
 5186SOL    HW216458   5.891   2.419   6.862
 5187SOL     OW16459   1.391   4.555   4.887
 5187SOL    HW116460   1.333   4.598   4.957
 5187SOL    HW216461   1.449   4.625   4.845
 5188SOL     OW16462   6.924   0.918   1.733
 5188SOL    HW116463   7.016   0.936   1.698
 5188SOL    HW216464   6.929   0.896   1.831
 5189SOL     OW16465   4.844   6.086   6.926
 5189SOL    HW116466   4.853   6.175   6.883
 5189SOL    HW216467   4.920   6.027   6.897
 5190SOL     OW16468   1.552   4.789   0.806
 5190SOL    HW116469   1.528   4.841   0.888
 5190SOL    HW216470   1.567   4.851   0.730
 5191SOL     OW16471   2.760   4.366   1.664
 5191SOL    HW116472   2.671   4.391   1.702
 5191SOL    HW216473   2.830   4.430   1.697
 5192SOL     OW16474   0.937   4.733   2.768
 5192SOL    HW116475   0.889   4.646   2.780
 5192SOL    HW216476   1.025   4.716   2.723
 5193SOL     OW16477   4.405   1.222   5.644
 5193SOL    HW116478   4.356   1.183   5.565
 5193SOL    HW216479   4.499   1.188   5.645
 5194SOL     OW16480   4.569   1.858   4.679
 5194SOL    HW116481   4.602   1.938   4.730
 5194SOL    HW216482   4.474   1.839   4.705
 5195SOL     OW16483   1.507   0.605   5.351
 5195SOL    HW116484   1.591   0.632   5.304
 5195SOL    HW216485   1.493   0.663   5.431
 5196SOL     OW16486   5.632   6.571   3.239
 5196SOL    HW116487   5.566   6.532   3.304
 5196SOL    HW216488   5.725   6.557   3.273
 5197SOL     OW16489   1.209   3.120   4.536
 5197SOL    HW116490   1.237   3.186   4.605
 5197SOL    HW216491   1.269   3.127   4.457
 5198SOL     OW16492   5.826   4.948   3.024
 5198SOL    HW116493   5.819   5.033   3.076
 5198SOL    HW216494   5.856   4.875   3.085
 5199SOL     OW16495   0.109   4.685   1.045
 5199SOL    HW116496   0.050   4.735   1.108
 5199SOL    HW216497   0.058   4.607   1.007
 5200SOL     OW16498   6.365   3.522   5.237
 5200SOL    HW116499   6.271   3.544   5.262
 5200SOL    HW216500   6.409   3.473   5.312
 5201SOL     OW16501   0.819   6.260   4.568
 5201SOL    HW116502   0.790   6.337   4.511
 5201SOL    HW216503   0.842   6.182   4.510
 5202SOL     OW16504   0.571   4.323   1.922
 5202SOL    HW116505   0.526   4.240   1.889
 5202SOL    HW216506   0.518   4.403   1.893
 5203SOL     OW16507   6.210   3.263   7.001
 5203SOL    HW116508   6.247   3.327   0.049
 5203SOL    HW216509   6.117   3.291   6.975
 5204SOL     OW16510   5.111   5.366   6.117
 5204SOL    HW116511   5.069   5.275   6.116
 5204SOL    HW216512   5.205   5.359   6.149
 5205SOL     OW16513   2.486   6.482   0.363
 5205SOL    HW116514   2.440   6.444   0.283
 5205SOL    HW216515   2.420   6.499   0.435
 5206SOL     OW16516   0.181   4.082   4.602
 5206SOL    HW116517   0.274   4.056   4.576
 5206SOL    HW216518   0.166   4.178   4.580
 5207SOL     OW16519   1.920   4.678   3.381
 5207SOL    HW116520   1.957   4.614   3.449
 5207SOL    HW216521   1.950   4.650   3.289
 5208SOL     OW16522   5.470   0.963   0.003
 5208SOL    HW116523   5.548   0.923   0.050
 5208SOL    HW216524   5.388   0.956   0.061
 5209SOL     OW16525   5.738   5.316   3.289
 5209SOL    HW116526   5.794   5.399   3.294
 5209SOL    HW216527   5.725   5.279   3.380
 5210SOL     OW16528   4.745   4.658   3.029
 5210SOL    HW116529   4.664   4.599   3.020
 5210SOL    HW216530   4.770   4.665   3.125
 5211SOL     OW16531   3.225   3.494   2.274
 5211SOL    HW116532   3.323   3.474   2.269
 5211SOL    HW216533   3.208   3.555   2.352
 5212SOL     OW16534   0.517   0.230   6.550
 5212SOL    HW116535   0.491   0.260   6.458
 5212SOL    HW216536   0.612   0.257   6.568
 5213SOL     OW16537   4.318   2.103   6.475
 5213SOL    HW116538   4.242   2.166   6.458
 5213SOL    HW216539   4.391   2.120   6.408
 5214SOL     OW16540   4.958   1.700   0.225
 5214SOL    HW116541   5.016   1.634   0.177
 5214SOL    HW216542   4.930   1.772   0.162
 5215SOL     OW16543   5.640   5.022   3.763
 5215SOL    HW116544   5.609   5.021   3.668
 5215SOL    HW216545   5.673   4.931   3.788
 5216SOL     OW16546   4.330   5.988   1.817
 5216SOL    HW116547   4.236   5.974   1.787
 5216SOL    HW216548   4.376   5.900   1.825
 5217SOL     OW16549   3.133   4.957   3.528
 5217SOL    HW116550   3.205   4.969   3.597
 5217SOL    HW216551   3.067   4.890   3.560
 5218SOL     OW16552   2.328   6.998   4.179
 5218SOL    HW116553   2.330   6.937   4.100
 5218SOL    HW216554   2.236   0.017   4.189
 5219SOL     OW16555   2.152   6.913   0.764
 5219SOL    HW116556   2.185   6.827   0.804
 5219SOL    HW216557   2.179   6.989   0.823
 5220SOL     OW16558   1.242   6.560   1.767
 5220SOL    HW116559   1.249   6.656   1.739
 5220SOL    HW216560   1.208   6.555   1.861
 5221SOL     OW16561   4.275   1.359   6.818
 5221SOL    HW116562   4.292   1.278   6.762
 5221SOL    HW216563   4.227   1.428   6.764
 5222SOL     OW16564   0.487   6.924   2.601
 5222SOL    HW116565   0.538   6.943   2.517
 5222SOL    HW216566   0.389   6.940   2.584
 5223SOL     OW16567   4.845   6.618   1.070
 5223SOL    HW116568   4.745   6.609   1.078
 5223SOL    HW216569   4.869   6.715   1.064
 5224SOL     OW16570   5.575   1.157   2.995
 5224SOL    HW116571   5.633   1.076   2.991
 5224SOL    HW216572   5.623   1.234   2.954
 5225SOL     OW16573   6.840   6.686   5.669
 5225SOL    HW116574   6.839   6.587   5.663
 5225SOL    HW216575   6.753   6.719   5.703
 5226SOL     OW16576   2.887   6.172   4.156
 5226SOL    HW116577   2.836   6.108   4.213
 5226SOL    HW216578   2.827   6.208   4.084
 5227SOL     OW16579   5.182   3.602   3.819
 5227SOL    HW116580   5.211   3.584   3.912
 5227SOL    HW216581   5.190   3.519   3.764
 5228SOL     OW16582   4.982   0.909   1.345
 5228SOL    HW116583   4.998   0.854   1.427
 5228SOL    HW216584   4.974   0.849   1.265
 5229SOL     OW16585   1.251   4.039   3.724
 5229SOL    HW116586   1.298   4.043   3.636
 5229SOL    HW216587   1.165   4.091   3.718
 5230SOL     OW16588   1.389   6.948   5.649
 5230SOL    HW116589   1.373   6.873   5.713
 5230SOL    HW216590   1.379   6.915   5.555
 5231SOL     OW16591   3.412   3.063   2.786
 5231SOL    HW116592   3.459   2.982   2.821
 5231SOL    HW216593   3.478   3.138   2.777
 5232SOL     OW16594   5.278   2.596   5.188
 5232SOL    HW116595   5.320   2.518   5.141
 5232SOL    HW216596   5.348   2.665   5.207
 5233SOL     OW16597   0.520   0.310   2.961
 5233SOL    HW116598   0.566   0.242   2.903
 5233SOL    HW216599   0.578   0.391   2.968
 5234SOL     OW16600   3.757   5.387   1.439
 5234SOL    HW116601   3.732   5.318   1.506
 5234SOL    HW216602   3.855   5.407   1.447
 5235SOL     OW16603   0.484   3.325   1.075
 5235SOL    HW116604   0.496   3.226   1.063
 5235SOL    HW216605   0.527   3.373   0.999
 5236SOL     OW16606   6.146   3.169   0.918
 5236SOL    HW116607   6.125   3.123   0.831
 5236SOL    HW216608   6.180   3.261   0.899
 5237SOL     OW16609   1.755   1.901   3.829
 5237SOL    HW116610   1.855   1.905   3.817
 5237SOL    HW216611   1.712   1.973   3.774
 5238SOL     OW16612   2.291   3.702   1.118
 5238SOL    HW116613   2.252   3.703   1.026
 5238SOL    HW216614   2.219   3.718   1.185
 5239SOL     OW16615   2.946   3.292   4.575
 5239SOL    HW116616   2.851   3.263   4.563
 5239SOL    HW216617   2.950   3.392   4.580
 5240SOL     OW16618   3.762   1.901   4.906
 5240SOL    HW116619   3.702   1.858   4.839
 5240SOL    HW216620   3.718   1.984   4.942
 5241SOL     OW16621   3.019   5.836   5.615
 5241SOL    HW116622   2.979   5.834   5.524
 5241SOL    HW216623   3.081   5.914   5.622
 5242SOL     OW16624   4.680   0.813   5.210
 5242SOL    HW116625   4.604   0.756   5.242
 5242SOL    HW216626   4.681   0.815   5.110
 5243SOL     OW16627   0.820   4.225   0.353
 5243SOL    HW116628   0.918   4.228   0.374
 5243SOL    HW216629   0.771   4.289   0.412
 5244SOL     OW16630   5.960   3.331   6.986
 5244SOL    HW116631   5.891   3.281   6.932
 5244SOL    HW216632   5.951   3.429   6.970
 5245SOL     OW16633   4.555   4.833   6.345
 5245SOL    HW116634   4.508   4.762   6.397
 5245SOL    HW216635   4.645   4.850   6.387
 5246SOL     OW16636   1.053   3.529   3.054
 5246SOL    HW116637   1.005   3.560   2.972
 5246SOL    HW216638   1.094   3.608   3.101
 5247SOL     OW16639   0.056   4.516   0.729
 5247SOL    HW116640   0.150   4.510   0.696
 5247SOL    HW216641   0.028   4.612   0.733
 5248SOL     OW16642   4.878   0.585   0.342
 5248SOL    HW116643   4.937   0.549   0.269
 5248SOL    HW216644   4.888   0.529   0.424
 5249SOL     OW16645   1.396   5.641   6.230
 5249SOL    HW116646   1.302   5.619   6.201
 5249SOL    HW216647   1.437   5.704   6.165
 5250SOL     OW16648   1.344   1.536   5.596
 5250SOL    HW116649   1.359   1.624   5.641
 5250SOL    HW216650   1.355   1.547   5.497
 5251SOL     OW16651   1.024   2.872   0.544
 5251SOL    HW116652   1.082   2.860   0.624
 5251SOL    HW216653   1.045   2.801   0.476
 5252SOL     OW16654   5.135   6.637   1.334
 5252SOL    HW116655   5.084   6.714   1.296
 5252SOL    HW216656   5.117   6.555   1.280
 5253SOL     OW16657   5.868   2.736   3.356
 5253SOL    HW116658   5.926   2.698   3.427
 5253SOL    HW216659   5.920   2.803   3.303
 5254SOL     OW16660   4.684   0.900   4.313
 5254SOL    HW116661   4.627   0.848   4.250
 5254SOL    HW216662   4.776   0.907   4.277
 5255SOL     OW16663   3.242   6.217   4.624
 5255SOL    HW116664   3.147   6.211   4.657
 5255SOL    HW216665   3.264   6.135   4.571
 5256SOL     OW16666   5.055   6.545   2.303
 5256SOL    HW116667   5.046   6.634   2.347
 5256SOL    HW216668   5.121   6.489   2.354
 5257SOL     OW16669   3.150   1.228   3.245
 5257SOL    HW116670   3.247   1.244   3.223
 5257SOL    HW216671   3.112   1.311   3.286
 5258SOL     OW16672   6.083   2.270   1.994
 5258SOL    HW116673   5.997   2.218   1.992
 5258SOL    HW216674   6.092   2.323   1.909
 5259SOL     OW16675   5.362   4.630   1.675
 5259SOL    HW116676   5.289   4.585   1.726
 5259SOL    HW216677   5.413   4.562   1.622
 5260SOL     OW16678   5.118   2.666   2.084
 5260SOL    HW116679   5.087   2.716   2.165
 5260SOL    HW216680   5.164   2.582   2.113
 5261SOL     OW16681   2.624   2.346   4.590
 5261SOL    HW116682   2.720   2.365   4.613
 5261SOL    HW216683   2.612   2.353   4.491
 5262SOL     OW16684   1.634   0.181   1.602
 5262SOL    HW116685   1.644   0.207   1.698
 5262SOL    HW216686   1.537   0.187   1.576
 5263SOL     OW16687   1.046   6.364   0.152
 5263SOL    HW116688   1.006   6.325   0.236
 5263SOL    HW216689   0.973   6.401   0.094
 5264SOL     OW16690   1.023   1.757   1.153
 5264SOL    HW116691   0.956   1.754   1.078
 5264SOL    HW216692   1.082   1.676   1.147
 5265SOL     OW16693   5.514   5.010   3.500
 5265SOL    HW116694   5.572   4.999   3.419
 5265SOL    HW216695   5.492   5.107   3.513
 5266SOL     OW16696   1.149   6.938   1.275
 5266SOL    HW116697   1.108   6.881   1.204
 5266SOL    HW216698   1.081   7.002   1.311
 5267SOL     OW16699   4.505   3.734   5.357
 5267SOL    HW116700   4.571   3.774   5.420
 5267SOL    HW216701   4.555   3.691   5.281
 5268SOL     OW16702   5.768   5.259   5.435
 5268SOL    HW116703   5.712   5.281   5.355
 5268SOL    HW216704   5.804   5.166   5.426
 5269SOL     OW16705   2.144   4.476   5.846
 5269SOL    HW116706   2.236   4.451   5.876
 5269SOL    HW216707   2.094   4.519   5.921
 5270SOL     OW16708   6.488   2.587   3.090
 5270SOL    HW116709   6.393   2.615   3.072
 5270SOL    HW216710   6.495   2.487   3.082
 5271SOL     OW16711   5.383   3.671   5.473
 5271SOL    HW116712   5.443   3.636   5.545
 5271SOL    HW216713   5.416   3.761   5.443
 5272SOL     OW16714   1.626   1.420   3.944
 5272SOL    HW116715   1.540   1.425   3.995
 5272SOL    HW216716   1.688   1.491   3.975
 5273SOL     OW16717   0.399   0.094   4.912
 5273SOL    HW116718   0.394   0.189   4.880
 5273SOL    HW216719   0.319   0.044   4.879
 5274SOL     OW16720   0.587   5.747   4.581
 5274SOL    HW116721   0.678   5.718   4.612
 5274SOL    HW216722   0.559   5.690   4.504
 5275SOL     OW16723   1.393   6.481   6.891
 5275SOL    HW116724   1.491   6.483   6.912
 5275SOL    HW216725   1.343   6.533   6.960
 5276SOL     OW16726   7.010   0.356   0.393
 5276SOL    HW116727   6.969   0.310   0.471
 5276SOL    HW216728   0.022   0.447   0.419
 5277SOL     OW16729   0.822   1.447   2.711
 5277SOL    HW116730   0.882   1.452   2.632
 5277SOL    HW216731   0.736   1.404   2.685
 5278SOL     OW16732   0.742   3.709   6.234
 5278SOL    HW116733   0.772   3.800   6.205
 5278SOL    HW216734   0.734   3.649   6.155
 5279SOL     OW16735   2.611   6.501   6.887
 5279SOL    HW116736   2.583   6.562   6.812
 5279SOL    HW216737   2.587   6.543   6.974
 5280SOL     OW16738   4.742   6.354   5.009
 5280SOL    HW116739   4.824   6.322   4.961
 5280SOL    HW216740   4.747   6.453   5.020
 5281SOL     OW16741   2.737   0.059   5.108
 5281SOL    HW116742   2.638   0.063   5.124
 5281SOL    HW216743   2.783   0.032   5.193
 5282SOL     OW16744   0.456   6.886   0.677
 5282SOL    HW116745   0.418   6.795   0.664
 5282SOL    HW216746   0.419   6.927   0.760
 5283SOL     OW16747   1.043   1.160   3.824
 5283SOL    HW116748   1.136   1.122   3.819
 5283SOL    HW216749   0.977   1.092   3.793
 5284SOL     OW16750   4.847   3.488   1.977
 5284SOL    HW116751   4.825   3.571   1.926
 5284SOL    HW216752   4.875   3.417   1.914
 5285SOL     OW16753   1.421   2.152   3.830
 5285SOL    HW116754   1.365   2.081   3.788
 5285SOL    HW216755   1.393   2.241   3.794
 5286SOL     OW16756   6.495   2.964   1.621
 5286SOL    HW116757   6.526   2.890   1.680
 5286SOL    HW216758   6.430   2.929   1.554
 5287SOL     OW16759   1.236   5.229   1.362
 5287SOL    HW116760   1.266   5.323   1.344
 5287SOL    HW216761   1.173   5.200   1.289
 5288SOL     OW16762   3.865   0.833   1.880
 5288SOL    HW116763   3.826   0.756   1.930
 5288SOL    HW216764   3.913   0.893   1.943
 5289SOL     OW16765   2.371   4.604   6.017
 5289SOL    HW116766   2.414   4.662   5.948
 5289SOL    HW216767   2.399   4.509   6.002
 5290SOL     OW16768   1.947   3.359   4.650
 5290SOL    HW116769   1.933   3.440   4.592
 5290SOL    HW216770   1.859   3.314   4.666
 5291SOL     OW16771   3.228   4.904   4.497
 5291SOL    HW116772   3.202   4.945   4.410
 5291SOL    HW216773   3.166   4.829   4.519
 5292SOL     OW16774   0.301   3.693   4.924
 5292SOL    HW116775   0.341   3.776   4.886
 5292SOL    HW216776   0.346   3.613   4.884
 5293SOL     OW16777   2.009   0.024   4.692
 5293SOL    HW116778   1.930   6.983   4.703
 5293SOL    HW216779   2.072   0.010   4.768
 5294SOL     OW16780   5.014   6.865   5.051
 5294SOL    HW116781   4.925   6.908   5.039
 5294SOL    HW216782   5.085   6.935   5.050
 5295SOL     OW16783   2.066   0.849   2.632
 5295SOL    HW116784   2.118   0.925   2.594
 5295SOL    HW216785   2.069   0.771   2.570
 5296SOL     OW16786   4.544   4.614   1.469
 5296SOL    HW116787   4.556   4.521   1.505
 5296SOL    HW216788   4.528   4.610   1.371
 5297SOL     OW16789   2.512   5.940   5.998
 5297SOL    HW116790   2.489   5.850   6.036
 5297SOL    HW216791   2.587   5.980   6.051
 5298SOL     OW16792   2.364   1.509   0.455
 5298SOL    HW116793   2.311   1.439   0.409
 5298SOL    HW216794   2.369   1.591   0.397
 5299SOL     OW16795   2.175   1.187   1.659
 5299SOL    HW116796   2.177   1.285   1.636
 5299SOL    HW216797   2.264   1.146   1.639
 5300SOL     OW16798   2.914   5.164   6.894
 5300SOL    HW116799   3.010   5.188   6.909
 5300SOL    HW216800   2.900   5.138   6.799
 5301SOL     OW16801   5.861   0.060   6.218
 5301SOL    HW116802   5.923   0.030   6.146
 5301SOL    HW216803   5.769   0.071   6.181
 5302SOL     OW16804   5.326   5.986   2.517
 5302SOL    HW116805   5.273   6.070   2.524
 5302SOL    HW216806   5.422   6.009   2.500
 5303SOL     OW16807   1.117   5.263   5.351
 5303SOL    HW116808   1.199   5.254   5.408
 5303SOL    HW216809   1.107   5.358   5.322
 5304SOL     OW16810   0.253   0.422   3.047
 5304SOL    HW116811   0.344   0.388   3.024
 5304SOL    HW216812   0.243   0.423   3.147
 5305SOL     OW16813   0.082   5.011   3.876
 5305SOL    HW116814   0.125   5.002   3.785
 5305SOL    HW216815   0.102   4.930   3.931
 5306SOL     OW16816   0.556   2.378   5.894
 5306SOL    HW116817   0.470   2.382   5.945
 5306SOL    HW216818   0.632   2.371   5.959
 5307SOL     OW16819   6.689   1.725   1.582
 5307SOL    HW116820   6.714   1.632   1.555
 5307SOL    HW216821   6.731   1.746   1.670
 5308SOL     OW16822   1.886   4.078   2.978
 5308SOL    HW116823   1.950   4.152   3.000
 5308SOL    HW216824   1.837   4.050   3.060
 5309SOL     OW16825   6.200   5.206   3.263
 5309SOL    HW116826   6.201   5.210   3.363
 5309SOL    HW216827   6.106   5.214   3.230
 5310SOL     OW16828   6.026   2.714   3.008
 5310SOL    HW116829   5.990   2.782   3.073
 5310SOL    HW216830   5.972   2.630   3.015
 5311SOL     OW16831   5.947   0.208   0.783
 5311SOL    HW116832   6.032   0.233   0.736
 5311SOL    HW216833   5.871   0.209   0.718
 5312SOL     OW16834   6.383   6.471   0.616
 5312SOL    HW116835   6.462   6.416   0.644
 5312SOL    HW216836   6.365   6.540   0.685
 5313SOL     OW16837   0.958   6.413   5.477
 5313SOL    HW116838   0.921   6.389   5.566
 5313SOL    HW216839   0.996   6.330   5.434
 5314SOL     OW16840   6.135   0.966   1.879
 5314SOL    HW116841   6.128   1.064   1.863
 5314SOL    HW216842   6.215   0.947   1.936
 5315SOL     OW16843   4.250   1.887   3.970
 5315SOL    HW116844   4.267   1.818   3.899
 5315SOL    HW216845   4.190   1.848   4.040
 5316SOL     OW16846   0.915   2.204   4.836
 5316SOL    HW116847   0.930   2.299   4.863
 5316SOL    HW216848   0.842   2.164   4.893
 5317SOL     OW16849   5.920   2.734   6.995
 5317SOL    HW116850   6.017   2.753   7.009
 5317SOL    HW216851   5.869   2.759   0.058
 5318SOL     OW16852   0.282   4.003   6.584
 5318SOL    HW116853   0.348   3.943   6.629
 5318SOL    HW216854   0.317   4.029   6.494
 5319SOL     OW16855   4.089   6.345   2.216
 5319SOL    HW116856   4.162   6.392   2.166
 5319SOL    HW216857   4.000   6.371   2.178
 5320SOL     OW16858   4.007   5.615   0.960
 5320SOL    HW116859   4.072   5.547   0.926
 5320SOL    HW216860   4.003   5.611   1.060
 5321SOL     OW16861   2.013   4.282   5.609
 5321SOL    HW116862   1.974   4.211   5.550
 5321SOL    HW216863   2.112   4.283   5.600
 5322SOL     OW16864   4.725   6.844   2.121
 5322SOL    HW116865   4.720   6.757   2.073
 5322SOL    HW216866   4.634   6.885   2.124
 5323SOL     OW16867   4.618   0.519   5.879
 5323SOL    HW116868   4.637   0.617   5.874
 5323SOL    HW216869   4.535   0.498   5.827
 5324SOL     OW16870   2.376   1.908   1.034
 5324SOL    HW116871   2.278   1.911   1.054
 5324SOL    HW216872   2.427   1.905   1.120
 5325SOL     OW16873   2.253   2.190   4.807
 5325SOL    HW116874   2.208   2.280   4.811
 5325SOL    HW216875   2.267   2.155   4.900
 5326SOL     OW16876   6.279   6.561   1.834
 5326SOL    HW116877   6.267   6.652   1.793
 5326SOL    HW216878   6.365   6.521   1.802
 5327SOL     OW16879   0.236   2.951   5.607
 5327SOL    HW116880   0.265   3.038   5.646
 5327SOL    HW216881   0.307   2.918   5.545
 5328SOL     OW16882   4.505   5.518   0.082
 5328SOL    HW116883   4.515   5.604   0.032
 5328SOL    HW216884   4.581   5.457   0.058
 5329SOL     OW16885   1.138   6.519   6.098
 5329SOL    HW116886   1.069   6.589   6.114
 5329SOL    HW216887   1.137   6.493   6.001
 5330SOL     OW16888   2.079   4.789   1.051
 5330SOL    HW116889   2.077   4.875   0.999
 5330SOL    HW216890   2.008   4.792   1.121
 5331SOL     OW16891   6.428   0.902   6.185
 5331SOL    HW116892   6.420   0.946   6.274
 5331SOL    HW216893   6.338   0.893   6.144
 5332SOL     OW16894   0.204   4.854   1.797
 5332SOL    HW116895   0.225   4.814   1.708
 5332SOL    HW216896   0.108   4.839   1.818
 5333SOL     OW16897   1.190   6.258   4.614
 5333SOL    HW116898   1.127   6.199   4.664
 5333SOL    HW216899   1.148   6.286   4.528
 5334SOL     OW16900   3.779   0.535   4.592
 5334SOL    HW116901   3.846   0.604   4.566
 5334SOL    HW216902   3.714   0.574   4.657
 5335SOL     OW16903   0.013   5.985   6.845
 5335SOL    HW116904   0.017   6.028   6.935
 5335SOL    HW216905   0.098   6.001   6.796
 5336SOL     OW16906   1.132   3.731   1.743
 5336SOL    HW116907   1.049   3.785   1.724
 5336SOL    HW216908   1.205   3.792   1.774
 5337SOL     OW16909   5.633   3.897   1.373
 5337SOL    HW116910   5.708   3.833   1.389
 5337SOL    HW216911   5.658   3.987   1.410
 5338SOL     OW16912   6.169   1.477   6.891
 5338SOL    HW116913   6.167   1.569   6.930
 5338SOL    HW216914   6.192   1.482   6.794
 5339SOL     OW16915   6.677   0.572   2.149
 5339SOL    HW116916   6.605   0.551   2.215
 5339SOL    HW216917   6.753   0.509   2.161
 5340SOL     OW16918   5.142   2.736   5.904
 5340SOL    HW116919   5.222   2.686   5.937
 5340SOL    HW216920   5.067   2.727   5.970
 5341SOL     OW16921   3.645   0.430   0.632
 5341SOL    HW116922   3.640   0.351   0.692
 5341SOL    HW216923   3.681   0.403   0.543
 5342SOL     OW16924   2.505   0.789   6.225
 5342SOL    HW116925   2.580   0.776   6.289
 5342SOL    HW216926   2.459   0.876   6.245
 5343SOL     OW16927   3.738   4.091   2.126
 5343SOL    HW116928   3.655   4.139   2.100
 5343SOL    HW216929   3.781   4.137   2.204
 5344SOL     OW16930   2.249   2.253   3.025
 5344SOL    HW116931   2.195   2.278   2.945
 5344SOL    HW216932   2.230   2.318   3.099
 5345SOL     OW16933   4.742   0.231   2.222
 5345SOL    HW116934   4.803   0.306   2.246
 5345SOL    HW216935   4.715   0.240   2.126
 5346SOL     OW16936   2.453   6.649   3.295
 5346SOL    HW116937   2.546   6.685   3.293
 5346SOL    HW216938   2.388   6.724   3.279
 5347SOL     OW16939   0.164   2.193   2.153
 5347SOL    HW116940   0.125   2.106   2.124
 5347SOL    HW216941   0.091   2.257   2.175
 5348SOL     OW16942   6.793   0.657   0.102
 5348SOL    HW116943   6.800   0.575   0.159
 5348SOL    HW216944   6.878   0.710   0.110
 5349SOL     OW16945   6.599   0.198   1.590
 5349SOL    HW116946   6.577   0.152   1.677
 5349SOL    HW216947   6.683   0.252   1.602
 5350SOL     OW16948   2.517   0.707   6.939
 5350SOL    HW116949   2.492   0.757   6.856
 5350SOL    HW216950   2.435   0.667   6.980
 5351SOL     OW16951   4.191   0.271   2.017
 5351SOL    HW116952   4.238   0.242   1.933
 5351SOL    HW216953   4.259   0.290   2.088
 5352SOL     OW16954   3.303   6.259   3.515
 5352SOL    HW116955   3.209   6.276   3.487
 5352SOL    HW216956   3.348   6.199   3.449
 5353SOL     OW16957   5.740   0.302   5.537
 5353SOL    HW116958   5.645   0.284   5.562
 5353SOL    HW216959   5.792   0.217   5.541
 5354SOL     OW16960   1.345   3.550   1.562
 5354SOL    HW116961   1.442   3.576   1.559
 5354SOL    HW216962   1.302   3.590   1.643
 5355SOL     OW16963   4.245   1.624   4.967
 5355SOL    HW116964   4.180   1.691   5.001
 5355SOL    HW216965   4.298   1.587   5.044
 5356SOL     OW16966   5.831   3.454   0.893
 5356SOL    HW116967   5.775   3.516   0.949
 5356SOL    HW216968   5.844   3.495   0.802
 5357SOL     OW16969   3.591   6.758   0.654
 5357SOL    HW116970   3.512   6.705   0.623
 5357SOL    HW216971   3.559   6.837   0.706
 5358SOL     OW16972   4.675   3.184   1.422
 5358SOL    HW116973   4.687   3.198   1.520
 5358SOL    HW216974   4.613   3.107   1.406
 5359SOL     OW16975   2.660   6.948   6.660
 5359SOL    HW116976   2.742   6.902   6.692
 5359SOL    HW216977   2.615   6.995   6.736
 5360SOL     OW16978   3.991   0.182   6.405
 5360SOL    HW116979   3.964   0.097   6.360
 5360SOL    HW216980   4.066   0.224   6.353
 5361SOL     OW16981   2.003   0.579   5.980
 5361SOL    HW116982   1.987   0.502   6.041
 5361SOL    HW216983   2.095   0.615   5.996
 5362SOL     OW16984   4.287   6.069   3.963
 5362SOL    HW116985   4.249   5.983   3.928
 5362SOL    HW216986   4.213   6.122   4.006
 5363SOL     OW16987   0.833   5.199   5.350
 5363SOL    HW116988   0.834   5.254   5.266
 5363SOL    HW216989   0.919   5.211   5.399
 5364SOL     OW16990   0.546   6.390   6.845
 5364SOL    HW116991   0.528   6.478   6.890
 5364SOL    HW216992   0.570   6.405   6.749
 5365SOL     OW16993   3.932   1.785   6.652
 5365SOL    HW116994   3.928   1.692   6.688
 5365SOL    HW216995   3.841   1.827   6.656
 5366SOL     OW16996   3.650   4.167   6.738
 5366SOL    HW116997   3.705   4.092   6.775
 5366SOL    HW216998   3.553   4.143   6.745
 5367SOL     OW16999   0.484   4.594   0.761
 5367SOL    HW117000   0.421   4.596   0.684
 5367SOL    HW217001   0.441   4.548   0.839
 5368SOL     OW17002   6.430   0.810   3.718
 5368SOL    HW117003   6.417   0.818   3.817
 5368SOL    HW217004   6.451   0.900   3.680
 5369SOL     OW17005   1.819   3.878   2.402
 5369SOL    HW117006   1.786   3.797   2.354
 5369SOL    HW217007   1.860   3.851   2.489
 5370SOL     OW17008   3.916   2.914   1.425
 5370SOL    HW117009   3.952   2.826   1.394
 5370SOL    HW217010   3.849   2.948   1.359
 5371SOL     OW17011   1.481   4.438   5.142
 5371SOL    HW117012   1.487   4.458   5.044
 5371SOL    HW217013   1.572   4.445   5.183
 5372SOL     OW17014   2.902   5.487   3.036
 5372SOL    HW117015   2.815   5.537   3.033
 5372SOL    HW217016   2.887   5.393   3.004
 5373SOL     OW17017   1.819   4.957   3.972
 5373SOL    HW117018   1.835   4.873   4.024
 5373SOL    HW217019   1.749   4.940   3.901
 5374SOL     OW17020   3.270   2.362   0.652
 5374SOL    HW117021   3.364   2.340   0.627
 5374SOL    HW217022   3.254   2.460   0.640
 5375SOL     OW17023   1.908   4.234   4.618
 5375SOL    HW117024   1.866   4.245   4.528
 5375SOL    HW217025   1.897   4.139   4.648
 5376SOL     OW17026   2.961   4.030   0.284
 5376SOL    HW117027   2.906   3.951   0.257
 5376SOL    HW217028   3.055   4.003   0.299
 5377SOL     OW17029   0.801   1.593   1.461
 5377SOL    HW117030   0.894   1.599   1.426
 5377SOL    HW217031   0.803   1.558   1.555
 5378SOL     OW17032   4.316   0.063   0.133
 5378SOL    HW117033   4.292   6.984   0.135
 5378SOL    HW217034   4.240   0.117   0.169
 5379SOL     OW17035   6.531   6.548   1.341
 5379SOL    HW117036   6.613   6.603   1.352
 5379SOL    HW217037   6.456   6.588   1.395
 5380SOL     OW17038   2.432   0.336   4.402
 5380SOL    HW117039   2.403   0.310   4.494
 5380SOL    HW217040   2.398   0.427   4.381
 5381SOL     OW17041   5.555   3.473   1.647
 5381SOL    HW117042   5.461   3.501   1.628
 5381SOL    HW217043   5.555   3.393   1.707
 5382SOL     OW17044   2.122   0.741   1.436
 5382SOL    HW117045   2.149   0.645   1.443
 5382SOL    HW217046   2.040   0.756   1.491
 5383SOL     OW17047   1.966   2.036   4.609
 5383SOL    HW117048   1.935   2.111   4.667
 5383SOL    HW217049   2.047   1.994   4.649
 5384SOL     OW17050   6.009   6.785   4.022
 5384SOL    HW117051   5.955   6.744   4.096
 5384SOL    HW217052   5.950   6.799   3.942
 5385SOL     OW17053   3.373   3.980   2.727
 5385SOL    HW117054   3.337   3.938   2.644
 5385SOL    HW217055   3.459   4.026   2.706
 5386SOL     OW17056   5.472   6.953   5.900
 5386SOL    HW117057   5.481   0.026   5.940
 5386SOL    HW217058   5.483   6.958   5.801
 5387SOL     OW17059   3.410   5.429   1.458
 5387SOL    HW117060   3.392   5.330   1.455
 5387SOL    HW217061   3.417   5.458   1.553
 5388SOL     OW17062   6.233   6.596   2.623
 5388SOL    HW117063   6.253   6.626   2.530
 5388SOL    HW217064   6.291   6.518   2.645
 5389SOL     OW17065   5.096   1.961   1.027
 5389SOL    HW117066   5.001   1.969   0.997
 5389SOL    HW217067   5.150   2.035   0.988
 5390SOL     OW17068   6.523   4.711   5.931
 5390SOL    HW117069   6.526   4.687   6.028
 5390SOL    HW217070   6.573   4.796   5.916
 5391SOL     OW17071   2.845   3.690   6.995
 5391SOL    HW117072   2.754   3.650   7.009
 5391SOL    HW217073   2.887   3.649   6.914
 5392SOL     OW17074   6.267   2.893   2.551
 5392SOL    HW117075   6.209   2.859   2.625
 5392SOL    HW217076   6.343   2.829   2.537
 5393SOL     OW17077   5.942   6.726   6.263
 5393SOL    HW117078   5.989   6.682   6.186
 5393SOL    HW217079   5.988   6.812   6.285
 5394SOL     OW17080   1.800   3.813   5.725
 5394SOL    HW117081   1.789   3.797   5.627
 5394SOL    HW217082   1.759   3.901   5.749
 5395SOL     OW17083   4.532   0.633   0.258
 5395SOL    HW117084   4.592   0.604   0.333
 5395SOL    HW217085   4.477   0.711   0.287
 5396SOL     OW17086   5.072   2.797   2.325
 5396SOL    HW117087   5.002   2.854   2.283
 5396SOL    HW217088   5.157   2.848   2.334
 5397SOL     OW17089   0.657   3.021   1.363
 5397SOL    HW117090   0.749   2.986   1.381
 5397SOL    HW217091   0.600   3.009   1.445
 5398SOL     OW17092   3.376   3.429   1.786
 5398SOL    HW117093   3.433   3.510   1.796
 5398SOL    HW217094   3.340   3.403   1.876
 5399SOL     OW17095   0.795   6.553   0.585
 5399SOL    HW117096   0.821   6.545   0.489
 5399SOL    HW217097   0.784   6.462   0.624
 5400SOL     OW17098   2.345   4.169   6.876
 5400SOL    HW117099   2.436   4.188   6.841
 5400SOL    HW217100   2.290   4.123   6.806
 5401SOL     OW17101   6.344   1.811   1.656
 5401SOL    HW117102   6.423   1.777   1.605
 5401SOL    HW217103   6.282   1.736   1.676
 5402SOL     OW17104   1.646   6.300   2.534
 5402SOL    HW117105   1.654   6.213   2.487
 5402SOL    HW217106   1.695   6.295   2.622
 5403SOL     OW17107   5.950   3.590   6.899
 5403SOL    HW117108   6.019   3.659   6.877
 5403SOL    HW217109   5.911   3.552   6.815
 5404SOL     OW17110   1.183   3.251   3.046
 5404SOL    HW117111   1.223   3.337   3.012
 5404SOL    HW217112   1.130   3.209   2.972
 5405SOL     OW17113   6.868   3.830   5.820
 5405SOL    HW117114   6.822   3.901   5.873
 5405SOL    HW217115   6.916   3.769   5.882
 5406SOL     OW17116   1.850   0.206   4.373
 5406SOL    HW117117   1.807   0.116   4.365
 5406SOL    HW217118   1.886   0.217   4.465
 5407SOL     OW17119   4.192   3.110   6.919
 5407SOL    HW117120   4.196   3.209   6.931
 5407SOL    HW217121   4.160   3.089   6.826
 5408SOL     OW17122   3.014   1.473   0.546
 5408SOL    HW117123   2.950   1.525   0.602
 5408SOL    HW217124   3.062   1.535   0.484
 5409SOL     OW17125   3.872   0.613   2.462
 5409SOL    HW117126   3.874   0.711   2.483
 5409SOL    HW217127   3.915   0.597   2.374
 5410SOL     OW17128   1.518   2.596   2.780
 5410SOL    HW117129   1.511   2.611   2.681
 5410SOL    HW217130   1.593   2.652   2.817
 5411SOL     OW17131   1.499   5.057   4.334
 5411SOL    HW117132   1.561   4.979   4.327
 5411SOL    HW217133   1.451   5.053   4.422
 5412SOL     OW17134   5.794   2.789   1.694
 5412SOL    HW117135   5.884   2.816   1.660
 5412SOL    HW217136   5.802   2.759   1.789
 5413SOL     OW17137   2.683   0.409   2.103
 5413SOL    HW117138   2.668   0.490   2.045
 5413SOL    HW217139   2.647   0.428   2.195
 5414SOL     OW17140   4.989   0.644   5.610
 5414SOL    HW117141   4.986   0.716   5.540
 5414SOL    HW217142   4.912   0.582   5.598
 5415SOL     OW17143   6.058   3.935   2.204
 5415SOL    HW117144   6.091   3.849   2.242
 5415SOL    HW217145   6.047   4.002   2.277
 5416SOL     OW17146   4.273   5.060   4.184
 5416SOL    HW117147   4.204   5.126   4.212
 5416SOL    HW217148   4.346   5.107   4.133
 5417SOL     OW17149   3.890   0.017   5.441
 5417SOL    HW117150   3.955   6.963   5.466
 5417SOL    HW217151   3.905   0.043   5.346
 5418SOL     OW17152   3.463   0.849   3.160
 5418SOL    HW117153   3.432   0.931   3.208
 5418SOL    HW217154   3.411   0.770   3.191
 5419SOL     OW17155   3.275   4.366   6.952
 5419SOL    HW117156   3.177   4.382   6.943
 5419SOL    HW217157   3.292   4.271   6.977
 5420SOL     OW17158   1.276   2.319   2.622
 5420SOL    HW117159   1.272   2.233   2.572
 5420SOL    HW217160   1.308   2.302   2.715
 5421SOL     OW17161   1.472   3.045   1.215
 5421SOL    HW117162   1.498   2.968   1.156
 5421SOL    HW217163   1.516   3.034   1.304
 5422SOL     OW17164   1.837   3.876   0.244
 5422SOL    HW117165   1.786   3.962   0.249
 5422SOL    HW217166   1.780   3.802   0.279
 5423SOL     OW17167   5.469   3.520   6.151
 5423SOL    HW117168   5.515   3.431   6.163
 5423SOL    HW217169   5.387   3.522   6.208
 5424SOL     OW17170   5.300   3.340   5.695
 5424SOL    HW117171   5.260   3.395   5.622
 5424SOL    HW217172   5.323   3.400   5.773
 5425SOL     OW17173   5.434   0.316   4.773
 5425SOL    HW117174   5.413   0.414   4.773
 5425SOL    HW217175   5.460   0.287   4.865
 5426SOL     OW17176   7.013   6.967   5.038
 5426SOL    HW117177   0.073   6.949   4.979
 5426SOL    HW217178   0.014   6.932   5.130
 5427SOL     OW17179   4.072   6.735   6.858
 5427SOL    HW117180   4.006   6.668   6.826
 5427SOL    HW217181   4.143   6.748   6.788
 5428SOL     OW17182   1.892   0.518   6.735
 5428SOL    HW117183   1.854   0.573   6.809
 5428SOL    HW217184   1.847   0.429   6.733
 5429SOL     OW17185   1.471   2.650   6.587
 5429SOL    HW117186   1.486   2.622   6.681
 5429SOL    HW217187   1.444   2.571   6.532
 5430SOL     OW17188   1.830   1.960   5.162
 5430SOL    HW117189   1.785   2.045   5.139
 5430SOL    HW217190   1.926   1.978   5.186
 5431SOL     OW17191   3.734   6.089   4.430
 5431SOL    HW117192   3.824   6.051   4.451
 5431SOL    HW217193   3.714   6.076   4.332
 5432SOL     OW17194   5.934   6.384   1.603
 5432SOL    HW117195   5.946   6.455   1.534
 5432SOL    HW217196   5.965   6.417   1.692
 5433SOL     OW17197   0.065   2.172   4.322
 5433SOL    HW117198   0.065   2.110   4.243
 5433SOL    HW217199   0.031   2.262   4.294
 5434SOL     OW17200   2.625   0.003   5.445
 5434SOL    HW117201   2.635   0.100   5.421
 5434SOL    HW217202   2.528   6.999   5.454
 5435SOL     OW17203   4.391   1.236   1.954
 5435SOL    HW117204   4.310   1.293   1.967
 5435SOL    HW217205   4.447   1.274   1.880
 5436SOL     OW17206   4.894   3.986   2.385
 5436SOL    HW117207   4.830   4.057   2.356
 5436SOL    HW217208   4.946   4.018   2.464
 5437SOL     OW17209   3.297   4.312   6.656
 5437SOL    HW117210   3.304   4.380   6.583
 5437SOL    HW217211   3.331   4.352   6.742
 5438SOL     OW17212   6.763   1.214   1.558
 5438SOL    HW117213   6.732   1.123   1.584
 5438SOL    HW217214   6.824   1.251   1.628
 5439SOL     OW17215   1.940   2.606   1.015
 5439SOL    HW117216   1.974   2.559   1.096
 5439SOL    HW217217   2.010   2.668   0.981
 5440SOL     OW17218   1.581   1.890   0.673
 5440SOL    HW117219   1.530   1.974   0.692
 5440SOL    HW217220   1.677   1.913   0.656
 5441SOL     OW17221   3.929   1.879   4.094
 5441SOL    HW117222   3.859   1.865   4.023
 5441SOL    HW217223   3.939   1.977   4.111
 5442SOL     OW17224   3.425   0.770   2.852
 5442SOL    HW117225   3.499   0.711   2.883
 5442SOL    HW217226   3.341   0.747   2.901
 5443SOL     OW17227   2.927   6.871   5.677
 5443SOL    HW117228   2.966   6.797   5.733
 5443SOL    HW217229   2.838   6.843   5.642
 5444SOL     OW17230   0.168   0.425   3.848
 5444SOL    HW117231   0.100   0.499   3.851
 5444SOL    HW217232   0.135   0.348   3.902
 5445SOL     OW17233   5.928   3.537   1.768
 5445SOL    HW117234   5.904   3.625   1.726
 5445SOL    HW217235   5.959   3.551   1.862
 5446SOL     OW17236   0.110   6.019   5.866
 5446SOL    HW117237   0.019   6.061   5.859
 5446SOL    HW217238   0.134   6.009   5.963
 5447SOL     OW17239   2.821   2.349   1.094
 5447SOL    HW117240   2.884   2.276   1.070
 5447SOL    HW217241   2.870   2.420   1.144
 5448SOL     OW17242   5.466   2.152   6.323
 5448SOL    HW117243   5.415   2.125   6.405
 5448SOL    HW217244   5.492   2.248   6.330
 5449SOL     OW17245   0.439   3.368   6.584
 5449SOL    HW117246   0.341   3.386   6.588
 5449SOL    HW217247   0.469   3.366   6.489
 5450SOL     OW17248   2.074   6.647   0.593
 5450SOL    HW117249   2.013   6.606   0.662
 5450SOL    HW217250   2.026   6.653   0.506
 5451SOL     OW17251   1.560   0.209   2.413
 5451SOL    HW117252   1.567   0.309   2.410
 5451SOL    HW217253   1.624   0.174   2.481
 5452SOL     OW17254   2.650   3.574   5.471
 5452SOL    HW117255   2.682   3.499   5.413
 5452SOL    HW217256   2.672   3.552   5.567
 5453SOL     OW17257   0.013   5.040   6.249
 5453SOL    HW117258   6.978   4.955   6.259
 5453SOL    HW217259   7.000   5.106   6.318
 5454SOL     OW17260   0.582   3.827   5.141
 5454SOL    HW117261   0.641   3.813   5.222
 5454SOL    HW217262   0.487   3.833   5.170
 5455SOL     OW17263   0.329   3.095   0.764
 5455SOL    HW117264   0.369   3.008   0.795
 5455SOL    HW217265   0.265   3.077   0.689
 5456SOL     OW17266   3.214   6.700   1.835
 5456SOL    HW117267   3.273   6.679   1.912
 5456SOL    HW217268   3.168   6.787   1.850
 5457SOL     OW17269   5.754   3.833   0.273
 5457SOL    HW117270   5.750   3.905   0.341
 5457SOL    HW217271   5.777   3.872   0.184
 5458SOL     OW17272   2.184   4.660   6.498
 5458SOL    HW117273   2.235   4.738   6.536
 5458SOL    HW217274   2.242   4.612   6.432
 5459SOL     OW17275   2.267   4.832   6.125
 5459SOL    HW117276   2.276   4.738   6.094
 5459SOL    HW217277   2.193   4.837   6.193
 5460SOL     OW17278   3.451   6.849   2.793
 5460SOL    HW117279   3.354   6.823   2.799
 5460SOL    HW217280   3.465   6.938   2.837
 5461SOL     OW17281   4.588   6.545   4.726
 5461SOL    HW117282   4.687   6.561   4.732
 5461SOL    HW217283   4.569   6.448   4.739
 5462SOL     OW17284   0.759   0.250   1.555
 5462SOL    HW117285   0.670   0.292   1.537
 5462SOL    HW217286   0.807   0.237   1.468
 5463SOL     OW17287   0.127   2.982   0.647
 5463SOL    HW117288   0.076   2.947   0.726
 5463SOL    HW217289   0.159   2.906   0.591
 5464SOL     OW17290   2.217   6.413   4.155
 5464SOL    HW117291   2.176   6.411   4.246
 5464SOL    HW217292   2.317   6.405   4.164
 5465SOL     OW17293   1.981   6.240   6.188
 5465SOL    HW117294   1.957   6.329   6.227
 5465SOL    HW217295   1.926   6.223   6.106
 5466SOL     OW17296   5.335   4.825   5.066
 5466SOL    HW117297   5.363   4.902   5.008
 5466SOL    HW217298   5.414   4.765   5.081
 5467SOL     OW17299   6.013   1.669   2.566
 5467SOL    HW117300   5.946   1.743   2.566
 5467SOL    HW217301   5.991   1.603   2.494
 5468SOL     OW17302   4.243   1.663   5.577
 5468SOL    HW117303   4.298   1.581   5.562
 5468SOL    HW217304   4.197   1.688   5.492
 5469SOL     OW17305   4.544   4.541   0.936
 5469SOL    HW117306   4.596   4.591   0.867
 5469SOL    HW217307   4.517   4.452   0.900
 5470SOL     OW17308   0.321   5.292   3.176
 5470SOL    HW117309   0.419   5.311   3.170
 5470SOL    HW217310   0.282   5.342   3.254
 5471SOL     OW17311   6.464   5.013   2.481
 5471SOL    HW117312   6.541   4.984   2.425
 5471SOL    HW217313   6.392   4.943   2.477
 5472SOL     OW17314   3.707   5.263   5.886
 5472SOL    HW117315   3.667   5.348   5.921
 5472SOL    HW217316   3.694   5.191   5.954
 5473SOL     OW17317   1.201   3.778   3.460
 5473SOL    HW117318   1.270   3.768   3.531
 5473SOL    HW217319   1.149   3.863   3.475
 5474SOL     OW17320   1.779   6.316   3.757
 5474SOL    HW117321   1.793   6.414   3.742
 5474SOL    HW217322   1.866   6.268   3.743
 5475SOL     OW17323   3.139   2.553   1.294
 5475SOL    HW117324   3.158   2.547   1.392
 5475SOL    HW217325   3.048   2.592   1.280
 5476SOL     OW17326   1.851   3.567   6.808
 5476SOL    HW117327   1.867   3.636   6.738
 5476SOL    HW217328   1.883   3.601   6.897
 5477SOL     OW17329   1.684   2.996   2.400
 5477SOL    HW117330   1.675   3.095   2.405
 5477SOL    HW217331   1.595   2.954   2.414
 5478SOL     OW17332   0.156   5.734   6.236
 5478SOL    HW117333   0.100   5.719   6.318
 5478SOL    HW217334   0.252   5.743   6.262
 5479SOL     OW17335   4.571   6.947   4.648
 5479SOL    HW117336   4.523   6.959   4.561
 5479SOL    HW217337   4.589   0.018   4.688
 5480SOL     OW17338   0.961   2.462   5.331
 5480SOL    HW117339   0.941   2.543   5.385
 5480SOL    HW217340   1.058   2.460   5.308
 5481SOL     OW17341   4.648   6.562   3.678
 5481SOL    HW117342   4.667   6.464   3.674
 5481SOL    HW217343   4.556   6.580   3.644
 5482SOL     OW17344   1.481   4.914   1.885
 5482SOL    HW117345   1.534   4.994   1.857
 5482SOL    HW217346   1.511   4.884   1.975
 5483SOL     OW17347   0.545   3.173   6.085
 5483SOL    HW117348   0.593   3.121   6.014
 5483SOL    HW217349   0.492   3.110   6.143
 5484SOL     OW17350   5.120   0.400   4.711
 5484SOL    HW117351   5.207   0.447   4.723
 5484SOL    HW217352   5.128   0.329   4.641
 5485SOL     OW17353   3.747   0.534   4.985
 5485SOL    HW117354   3.683   0.585   4.927
 5485SOL    HW217355   3.712   0.530   5.078
 5486SOL     OW17356   2.734   5.392   4.197
 5486SOL    HW117357   2.737   5.466   4.264
 5486SOL    HW217358   2.820   5.341   4.200
 5487SOL     OW17359   3.269   5.356   5.387
 5487SOL    HW117360   3.350   5.365   5.444
 5487SOL    HW217361   3.200   5.422   5.416
 5488SOL     OW17362   4.832   1.840   0.021
 5488SOL    HW117363   4.873   1.780   6.970
 5488SOL    HW217364   4.857   1.935   0.001
 5489SOL     OW17365   0.199   3.603   3.644
 5489SOL    HW117366   0.218   3.534   3.714
 5489SOL    HW217367   0.101   3.609   3.629
 5490SOL     OW17368   1.214   5.691   2.789
 5490SOL    HW117369   1.175   5.660   2.703
 5490SOL    HW217370   1.144   5.693   2.860
 5491SOL     OW17371   6.010   3.951   0.556
 5491SOL    HW117372   5.915   3.948   0.524
 5491SOL    HW217373   6.013   3.981   0.651
 5492SOL     OW17374   0.289   1.807   6.014
 5492SOL    HW117375   0.246   1.735   6.069
 5492SOL    HW217376   0.381   1.779   5.989
 5493SOL     OW17377   4.424   3.995   0.698
 5493SOL    HW117378   4.420   4.021   0.795
 5493SOL    HW217379   4.336   4.014   0.655
 5494SOL     OW17380   5.800   3.276   5.615
 5494SOL    HW117381   5.885   3.224   5.604
 5494SOL    HW217382   5.770   3.270   5.710
 5495SOL     OW17383   5.646   6.847   0.269
 5495SOL    HW117384   5.648   6.935   0.220
 5495SOL    HW217385   5.564   6.797   0.243
 5496SOL     OW17386   4.378   0.064   5.412
 5496SOL    HW117387   4.325   7.007   5.372
 5496SOL    HW217388   4.472   0.061   5.376
 5497SOL     OW17389   0.707   0.184   4.572
 5497SOL    HW117390   0.666   0.167   4.662
 5497SOL    HW217391   0.745   0.099   4.536
 5498SOL     OW17392   0.219   5.401   1.063
 5498SOL    HW117393   0.244   5.379   0.969
 5498SOL    HW217394   0.282   5.355   1.126
 5499SOL     OW17395   2.101   0.077   4.260
 5499SOL    HW117396   2.121   0.101   4.354
 5499SOL    HW217397   2.001   0.069   4.248
 5500SOL     OW17398   2.307   0.262   1.305
 5500SOL    HW117399   2.345   0.321   1.233
 5500SOL    HW217400   2.376   0.248   1.376
 5501SOL     OW17401   4.274   3.337   0.031
 5501SOL    HW117402   4.302   3.274   0.103
 5501SOL    HW217403   4.186   3.379   0.055
 5502SOL     OW17404   4.721   3.654   0.078
 5502SOL    HW117405   4.747   3.715   0.003
 5502SOL    HW217406   4.666   3.579   0.042
 5503SOL     OW17407   6.196   3.079   0.652
 5503SOL    HW117408   6.124   3.121   0.598
 5503SOL    HW217409   6.201   2.981   0.631
 5504SOL     OW17410   4.213   2.144   0.152
 5504SOL    HW117411   4.259   2.088   0.082
 5504SOL    HW217412   4.280   2.206   0.193
 5505SOL     OW17413   2.930   4.883   2.713
 5505SOL    HW117414   2.878   4.798   2.716
 5505SOL    HW217415   2.902   4.942   2.788
 5506SOL     OW17416   6.189   2.469   6.263
 5506SOL    HW117417   6.281   2.501   6.288
 5506SOL    HW217418   6.121   2.532   6.300
 5507SOL     OW17419   3.776   6.910   0.366
 5507SOL    HW117420   3.784   6.813   0.344
 5507SOL    HW217421   3.751   6.960   0.283
 5508SOL     OW17422   0.782   1.280   6.228
 5508SOL    HW117423   0.815   1.360   6.178
 5508SOL    HW217424   0.704   1.306   6.285
 5509SOL     OW17425   6.525   4.171   0.255
 5509SOL    HW117426   6.438   4.170   0.305
 5509SOL    HW217427   6.596   4.211   0.313
 5510SOL     OW17428   5.029   5.217   6.606
 5510SOL    HW117429   5.064   5.303   6.569
 5510SOL    HW217430   4.994   5.160   6.532
 5511SOL     OW17431   0.712   2.727   6.230
 5511SOL    HW117432   0.628   2.780   6.221
 5511SOL    HW217433   0.694   2.644   6.283
 5512SOL     OW17434   1.655   0.198   2.136
 5512SOL    HW117435   1.670   0.101   2.119
 5512SOL    HW217436   1.615   0.210   2.227
 5513SOL     OW17437   3.642   4.746   6.913
 5513SOL    HW117438   3.725   4.706   6.873
 5513SOL    HW217439   3.562   4.706   6.868
 5514SOL     OW17440   3.230   0.900   0.256
 5514SOL    HW117441   3.264   0.939   0.170
 5514SOL    HW217442   3.152   0.954   0.288
 5515SOL     OW17443   3.286   5.263   2.400
 5515SOL    HW117444   3.372   5.264   2.348
 5515SOL    HW217445   3.213   5.232   2.339
 5516SOL     OW17446   1.852   2.056   5.483
 5516SOL    HW117447   1.837   2.122   5.409
 5516SOL    HW217448   1.896   2.102   5.560
 5517SOL     OW17449   1.097   2.400   3.431
 5517SOL    HW117450   1.163   2.473   3.446
 5517SOL    HW217451   1.005   2.438   3.430
 5518SOL     OW17452   4.623   4.922   6.973
 5518SOL    HW117453   4.719   4.949   6.983
 5518SOL    HW217454   4.613   4.827   7.002
 5519SOL     OW17455   5.466   2.390   5.282
 5519SOL    HW117456   5.436   2.377   5.188
 5519SOL    HW217457   5.401   2.450   5.330
 5520SOL     OW17458   4.794   0.121   1.461
 5520SOL    HW117459   4.817   0.142   1.367
 5520SOL    HW217460   4.746   0.033   1.465
 5521SOL     OW17461   4.750   6.552   2.395
 5521SOL    HW117462   4.660   6.596   2.393
 5521SOL    HW217463   4.782   6.536   2.302
 5522SOL     OW17464   5.754   6.270   0.478
 5522SOL    HW117465   5.770   6.180   0.439
 5522SOL    HW217466   5.800   6.278   0.566
 5523SOL     OW17467   5.196   1.715   0.909
 5523SOL    HW117468   5.170   1.792   0.966
 5523SOL    HW217469   5.138   1.636   0.930
 5524SOL     OW17470   2.265   1.197   3.182
 5524SOL    HW117471   2.214   1.282   3.193
 5524SOL    HW217472   2.330   1.187   3.257
 5525SOL     OW17473   6.800   1.476   0.972
 5525SOL    HW117474   6.748   1.518   1.047
 5525SOL    HW217475   6.765   1.510   0.884
 5526SOL     OW17476   5.713   4.386   4.110
 5526SOL    HW117477   5.765   4.458   4.157
 5526SOL    HW217478   5.775   4.312   4.085
 5527SOL     OW17479   6.579   0.361   2.939
 5527SOL    HW117480   6.579   0.311   2.852
 5527SOL    HW217481   6.625   0.307   3.009
 5528SOL     OW17482   1.256   1.984   0.003
 5528SOL    HW117483   1.239   2.082   0.013
 5528SOL    HW217484   1.206   1.950   6.941
 5529SOL     OW17485   3.106   0.473   2.530
 5529SOL    HW117486   3.142   0.565   2.514
 5529SOL    HW217487   3.020   0.479   2.582
 5530SOL     OW17488   0.149   1.755   0.832
 5530SOL    HW117489   0.089   1.684   0.796
 5530SOL    HW217490   0.142   1.758   0.931
 5531SOL     OW17491   1.363   4.381   1.792
 5531SOL    HW117492   1.456   4.344   1.793
 5531SOL    HW217493   1.297   4.306   1.800
 5532SOL     OW17494   0.678   3.507   6.713
 5532SOL    HW117495   0.654   3.596   6.673
 5532SOL    HW217496   0.604   3.442   6.696
 5533SOL     OW17497   3.907   1.133   2.854
 5533SOL    HW117498   3.947   1.207   2.908
 5533SOL    HW217499   3.814   1.114   2.885
 5534SOL     OW17500   1.180   0.206   4.490
 5534SOL    HW117501   1.118   0.142   4.536
 5534SOL    HW217502   1.274   0.186   4.516
 5535SOL     OW17503   6.856   1.967   2.979
 5535SOL    HW117504   6.926   1.913   3.024
 5535SOL    HW217505   6.783   1.990   3.045
 5536SOL     OW17506   4.770   6.503   4.447
 5536SOL    HW117507   4.728   6.591   4.466
 5536SOL    HW217508   4.823   6.473   4.527
 5537SOL     OW17509   2.637   2.339   3.471
 5537SOL    HW117510   2.685   2.377   3.550
 5537SOL    HW217511   2.639   2.405   3.396
 5538SOL     OW17512   4.584   5.345   4.287
 5538SOL    HW117513   4.674   5.379   4.263
 5538SOL    HW217514   4.576   5.337   4.387
 5539SOL     OW17515   2.164   4.467   6.800
 5539SOL    HW117516   2.087   4.466   6.735
 5539SOL    HW217517   2.160   4.551   6.855
 5540SOL     OW17518   3.784   5.558   1.855
 5540SOL    HW117519   3.740   5.476   1.818
 5540SOL    HW217520   3.777   5.633   1.790
 5541SOL     OW17521   4.443   0.804   6.009
 5541SOL    HW117522   4.449   0.715   6.054
 5541SOL    HW217523   4.347   0.834   6.007
 5542SOL     OW17524   5.225   4.513   6.506
 5542SOL    HW117525   5.257   4.490   6.414
 5542SOL    HW217526   5.179   4.602   6.503
 5543SOL     OW17527   0.501   1.483   5.099
 5543SOL    HW117528   0.521   1.522   5.009
 5543SOL    HW217529   0.554   1.531   5.169
 5544SOL     OW17530   5.418   0.604   6.809
 5544SOL    HW117531   5.373   0.676   6.757
 5544SOL    HW217532   5.512   0.593   6.777
 5545SOL     OW17533   2.242   2.778   1.956
 5545SOL    HW117534   2.261   2.815   1.865
 5545SOL    HW217535   2.321   2.726   1.988
 5546SOL     OW17536   3.954   5.146   5.800
 5546SOL    HW117537   3.999   5.185   5.719
 5546SOL    HW217538   3.887   5.211   5.835
 5547SOL     OW17539   3.611   5.616   4.246
 5547SOL    HW117540   3.561   5.702   4.259
 5547SOL    HW217541   3.548   5.540   4.257
 5548SOL     OW17542   0.534   1.892   4.558
 5548SOL    HW117543   0.512   1.971   4.501
 5548SOL    HW217544   0.481   1.895   4.643
 5549SOL     OW17545   3.179   5.221   6.911
 5549SOL    HW117546   3.170   5.283   6.833
 5549SOL    HW217547   3.210   5.272   6.991
 5550SOL     OW17548   2.725   6.244   2.254
 5550SOL    HW117549   2.752   6.167   2.312
 5550SOL    HW217550   2.698   6.321   2.313
 5551SOL     OW17551   0.292   1.117   2.847
 5551SOL    HW117552   0.321   1.041   2.788
 5551SOL    HW217553   0.209   1.159   2.809
 5552SOL     OW17554   1.373   2.625   2.503
 5552SOL    HW117555   1.317   2.587   2.430
 5552SOL    HW217556   1.454   2.568   2.517
 5553SOL     OW17557   4.736   5.929   6.281
 5553SOL    HW117558   4.698   6.014   6.317
 5553SOL    HW217559   4.713   5.920   6.184
 5554SOL     OW17560   3.468   1.072   4.406
 5554SOL    HW117561   3.431   0.999   4.464
 5554SOL    HW217562   3.405   1.150   4.406
 5555SOL     OW17563   1.162   6.091   1.452
 5555SOL    HW117564   1.155   6.023   1.525
 5555SOL    HW217565   1.219   6.055   1.378
 5556SOL     OW17566   0.272   0.730   4.596
 5556SOL    HW117567   0.217   0.667   4.650
 5556SOL    HW217568   0.297   0.809   4.652
 5557SOL     OW17569   2.660   0.409   2.834
 5557SOL    HW117570   2.658   0.507   2.854
 5557SOL    HW217571   2.587   0.386   2.770
 5558SOL     OW17572   5.074   1.830   5.381
 5558SOL    HW117573   5.034   1.896   5.444
 5558SOL    HW217574   5.173   1.826   5.395
 5559SOL     OW17575   1.922   1.017   1.103
 5559SOL    HW117576   1.998   1.068   1.143
 5559SOL    HW217577   1.938   0.919   1.113
 5560SOL     OW17578   0.307   1.353   4.603
 5560SOL    HW117579   0.328   1.450   4.607
 5560SOL    HW217580   0.378   1.302   4.654
 5561SOL     OW17581   1.650   4.104   2.335
 5561SOL    HW117582   1.562   4.061   2.354
 5561SOL    HW217583   1.722   4.034   2.333
 5562SOL     OW17584   3.389   2.085   6.702
 5562SOL    HW117585   3.377   2.160   6.767
 5562SOL    HW217586   3.375   2.119   6.609
 5563SOL     OW17587   3.978   4.305   1.359
 5563SOL    HW117588   3.918   4.231   1.390
 5563SOL    HW217589   3.972   4.313   1.260
 5564SOL     OW17590   5.638   1.738   1.253
 5564SOL    HW117591   5.640   1.835   1.276
 5564SOL    HW217592   5.722   1.714   1.203
 5565SOL     OW17593   2.477   2.430   5.120
 5565SOL    HW117594   2.416   2.379   5.059
 5565SOL    HW217595   2.444   2.524   5.128
 5566SOL     OW17596   2.497   3.940   0.621
 5566SOL    HW117597   2.553   3.970   0.545
 5566SOL    HW217598   2.401   3.960   0.602
 5567SOL     OW17599   1.445   5.438   3.025
 5567SOL    HW117600   1.358   5.486   3.038
 5567SOL    HW217601   1.474   5.395   3.110
 5568SOL     OW17602   3.676   2.438   0.183
 5568SOL    HW117603   3.762   2.473   0.220
 5568SOL    HW217604   3.599   2.490   0.223
 5569SOL     OW17605   4.624   1.788   0.216
 5569SOL    HW117606   4.692   1.796   0.143
 5569SOL    HW217607   4.596   1.692   0.224
 5570SOL     OW17608   1.089   2.908   5.594
 5570SOL    HW117609   1.153   2.853   5.650
 5570SOL    HW217610   1.119   2.907   5.499
 5571SOL     OW17611   6.692   4.612   6.470
 5571SOL    HW117612   6.682   4.689   6.407
 5571SOL    HW217613   6.602   4.576   6.493
 5572SOL     OW17614   0.514   3.049   5.573
 5572SOL    HW117615   0.561   2.961   5.575
 5572SOL    HW217616   0.474   3.064   5.483
 5573SOL     OW17617   6.452   3.986   6.629
 5573SOL    HW117618   6.409   3.908   6.675
 5573SOL    HW217619   6.551   3.972   6.624
 5574SOL     OW17620   1.665   6.769   3.984
 5574SOL    HW117621   1.726   6.846   4.005
 5574SOL    HW217622   1.671   6.701   4.056
 5575SOL     OW17623   1.036   1.486   2.878
 5575SOL    HW117624   0.996   1.462   2.967
 5575SOL    HW217625   0.967   1.475   2.807
 5576SOL     OW17626   5.500   6.312   5.473
 5576SOL    HW117627   5.559   6.391   5.494
 5576SOL    HW217628   5.530   6.233   5.527
 5577SOL     OW17629   2.378   4.331   4.669
 5577SOL    HW117630   2.457   4.275   4.696
 5577SOL    HW217631   2.304   4.318   4.736
 5578SOL     OW17632   3.709   2.366   6.039
 5578SOL    HW117633   3.805   2.362   6.013
 5578SOL    HW217634   3.661   2.432   5.982
 5579SOL     OW17635   5.185   4.894   1.857
 5579SOL    HW117636   5.265   4.898   1.797
 5579SOL    HW217637   5.102   4.889   1.802
 5580SOL     OW17638   5.324   1.192   1.509
 5580SOL    HW117639   5.375   1.269   1.471
 5580SOL    HW217640   5.352   1.176   1.603
 5581SOL     OW17641   3.202   2.628   0.594
 5581SOL    HW117642   3.249   2.716   0.606
 5581SOL    HW217643   3.103   2.642   0.603
 5582SOL     OW17644   3.349   3.025   3.099
 5582SOL    HW117645   3.406   3.074   3.033
 5582SOL    HW217646   3.253   3.035   3.075
 5583SOL     OW17647   3.769   0.319   0.376
 5583SOL    HW117648   3.865   0.295   0.387
 5583SOL    HW217649   3.725   0.256   0.312
 5584SOL     OW17650   4.921   3.682   3.827
 5584SOL    HW117651   5.007   3.656   3.871
 5584SOL    HW217652   4.844   3.643   3.878
 5585SOL     OW17653   0.584   0.163   3.470
 5585SOL    HW117654   0.641   0.241   3.495
 5585SOL    HW217655   0.544   0.179   3.379
 5586SOL     OW17656   2.101   0.690   6.688
 5586SOL    HW117657   2.132   0.718   6.780
 5586SOL    HW217658   2.027   0.624   6.696
 5587SOL     OW17659   3.693   6.145   3.628
 5587SOL    HW117660   3.752   6.120   3.704
 5587SOL    HW217661   3.601   6.164   3.662
 5588SOL     OW17662   5.373   6.435   6.643
 5588SOL    HW117663   5.324   6.348   6.645
 5588SOL    HW217664   5.311   6.508   6.613
 5589SOL     OW17665   2.084   3.861   0.428
 5589SOL    HW117666   2.017   3.846   0.356
 5589SOL    HW217667   2.175   3.867   0.388
 5590SOL     OW17668   6.909   0.336   3.511
 5590SOL    HW117669   6.896   0.245   3.552
 5590SOL    HW217670   6.922   0.403   3.584
 5591SOL     OW17671   5.769   0.171   0.585
 5591SOL    HW117672   5.734   0.212   0.501
 5591SOL    HW217673   5.789   0.074   0.569
 5592SOL     OW17674   1.396   2.944   2.852
 5592SOL    HW117675   1.397   3.037   2.816
 5592SOL    HW217676   1.330   2.888   2.801
 5593SOL     OW17677   2.236   4.295   4.898
 5593SOL    HW117678   2.141   4.321   4.914
 5593SOL    HW217679   2.255   4.208   4.942
 5594SOL     OW17680   2.314   1.471   6.243
 5594SOL    HW117681   2.404   1.429   6.229
 5594SOL    HW217682   2.249   1.401   6.272
 5595SOL     OW17683   0.838   3.046   6.763
 5595SOL    HW117684   0.853   2.947   6.763
 5595SOL    HW217685   0.773   3.070   6.691
 5596SOL     OW17686   4.947   3.626   4.240
 5596SOL    HW117687   4.912   3.582   4.157
 5596SOL    HW217688   4.950   3.559   4.314
 5597SOL     OW17689   6.842   1.748   6.727
 5597SOL    HW117690   6.811   1.765   6.634
 5597SOL    HW217691   6.799   1.813   6.790
 5598SOL     OW17692   6.206   0.951   3.885
 5598SOL    HW117693   6.223   0.951   3.787
 5598SOL    HW217694   6.199   1.045   3.918
 5599SOL     OW17695   5.507   3.100   3.067
 5599SOL    HW117696   5.550   3.022   3.112
 5599SOL    HW217697   5.457   3.154   3.134
 5600SOL     OW17698   2.007   2.628   1.978
 5600SOL    HW117699   2.076   2.695   2.003
 5600SOL    HW217700   2.031   2.539   2.018
 5601SOL     OW17701   5.804   2.699   6.560
 5601SOL    HW117702   5.735   2.693   6.633
 5601SOL    HW217703   5.763   2.742   6.479
 5602SOL     OW17704   6.289   1.975   2.968
 5602SOL    HW117705   6.282   2.048   2.901
 5602SOL    HW217706   6.300   1.887   2.921
 5603SOL     OW17707   3.709   2.155   6.263
 5603SOL    HW117708   3.726   2.197   6.173
 5603SOL    HW217709   3.677   2.061   6.250
 5604SOL     OW17710   1.230   5.561   3.170
 5604SOL    HW117711   1.167   5.630   3.206
 5604SOL    HW217712   1.324   5.587   3.191
 5605SOL     OW17713   3.935   6.891   4.119
 5605SOL    HW117714   4.027   6.917   4.151
 5605SOL    HW217715   3.896   6.824   4.182
 5606SOL     OW17716   4.367   3.290   1.065
 5606SOL    HW117717   4.465   3.282   1.085
 5606SOL    HW217718   4.332   3.376   1.102
 5607SOL     OW17719   0.427   2.428   2.913
 5607SOL    HW117720   0.500   2.384   2.966
 5607SOL    HW217721   0.407   2.374   2.832
 5608SOL     OW17722   6.163   0.194   3.807
 5608SOL    HW117723   6.180   0.129   3.733
 5608SOL    HW217724   6.159   0.287   3.770
 5609SOL     OW17725   6.403   0.614   6.980
 5609SOL    HW117726   6.463   0.538   7.006
 5609SOL    HW217727   6.459   0.695   6.961
 5610SOL     OW17728   5.960   6.081   5.848
 5610SOL    HW117729   5.935   6.010   5.782
 5610SOL    HW217730   5.884   6.146   5.856
 5611SOL     OW17731   6.754   3.739   1.413
 5611SOL    HW117732   6.828   3.800   1.385
 5611SOL    HW217733   6.735   3.751   1.511
 5612SOL     OW17734   4.482   2.099   1.427
 5612SOL    HW117735   4.513   2.004   1.437
 5612SOL    HW217736   4.441   2.129   1.514
 5613SOL     OW17737   6.613   5.178   5.275
 5613SOL    HW117738   6.514   5.169   5.267
 5613SOL    HW217739   6.647   5.117   5.347
 5614SOL     OW17740   5.136   2.135   5.071
 5614SOL    HW117741   5.105   2.049   5.110
 5614SOL    HW217742   5.235   2.132   5.055
 5615SOL     OW17743   0.452   3.321   2.882
 5615SOL    HW117744   0.522   3.289   2.818
 5615SOL    HW217745   0.465   3.418   2.900
 5616SOL     OW17746   1.566   3.299   1.608
 5616SOL    HW117747   1.602   3.369   1.546
 5616SOL    HW217748   1.563   3.334   1.701
 5617SOL     OW17749   0.835   5.016   5.812
 5617SOL    HW117750   0.758   5.009   5.875
 5617SOL    HW217751   0.860   4.925   5.779
 5618SOL     OW17752   4.820   6.994   2.774
 5618SOL    HW117753   4.735   6.964   2.818
 5618SOL    HW217754   4.875   0.026   2.841
 5619SOL     OW17755   2.990   3.415   3.447
 5619SOL    HW117756   2.942   3.460   3.522
 5619SOL    HW217757   3.069   3.366   3.482
 5620SOL     OW17758   5.030   4.929   5.573
 5620SOL    HW117759   4.967   4.851   5.569
 5620SOL    HW217760   5.122   4.897   5.597
 5621SOL     OW17761   1.291   3.224   6.247
 5621SOL    HW117762   1.378   3.228   6.297
 5621SOL    HW217763   1.258   3.129   6.245
 5622SOL     OW17764   5.852   5.691   3.323
 5622SOL    HW117765   5.866   5.617   3.256
 5622SOL    HW217766   5.756   5.689   3.354
 5623SOL     OW17767   4.659   4.704   3.902
 5623SOL    HW117768   4.576   4.660   3.935
 5623SOL    HW217769   4.737   4.642   3.914
 5624SOL     OW17770   5.063   3.900   3.706
 5624SOL    HW117771   5.022   3.813   3.732
 5624SOL    HW217772   5.090   3.951   3.788
 5625SOL     OW17773   2.888   6.473   6.330
 5625SOL    HW117774   2.817   6.403   6.323
 5625SOL    HW217775   2.902   6.497   6.426
 5626SOL     OW17776   1.718   5.347   6.669
 5626SOL    HW117777   1.669   5.311   6.748
 5626SOL    HW217778   1.723   5.276   6.598
 5627SOL     OW17779   1.098   5.281   0.812
 5627SOL    HW117780   1.012   5.254   0.769
 5627SOL    HW217781   1.174   5.231   0.770
 5628SOL     OW17782   1.809   3.036   0.150
 5628SOL    HW117783   1.784   3.127   0.118
 5628SOL    HW217784   1.908   3.030   0.161
 5629SOL     OW17785   6.970   3.411   4.527
 5629SOL    HW117786   6.984   3.385   4.623
 5629SOL    HW217787   6.906   3.488   4.522
 5630SOL     OW17788   1.779   4.412   0.443
 5630SOL    HW117789   1.730   4.379   0.523
 5630SOL    HW217790   1.852   4.474   0.472
 5631SOL     OW17791   4.015   0.378   2.527
 5631SOL    HW117792   4.101   0.424   2.502
 5631SOL    HW217793   3.942   0.446   2.535
 5632SOL     OW17794   3.614   6.604   6.530
 5632SOL    HW117795   3.524   6.617   6.570
 5632SOL    HW217796   3.605   6.583   6.433
 5633SOL     OW17797   1.404   5.440   5.343
 5633SOL    HW117798   1.402   5.429   5.243
 5633SOL    HW217799   1.497   5.460   5.372
 5634SOL     OW17800   2.689   0.589   1.912
 5634SOL    HW117801   2.637   0.649   1.851
 5634SOL    HW217802   2.716   0.506   1.863
 5635SOL     OW17803   3.560   0.458   2.458
 5635SOL    HW117804   3.474   0.418   2.426
 5635SOL    HW217805   3.627   0.386   2.471
 5636SOL     OW17806   5.165   0.119   5.058
 5636SOL    HW117807   5.192   0.182   5.130
 5636SOL    HW217808   5.100   0.163   4.997
 5637SOL     OW17809   5.083   6.700   5.258
 5637SOL    HW117810   5.044   6.743   5.339
 5637SOL    HW217811   5.058   6.754   5.177
 5638SOL     OW17812   0.062   5.626   0.113
 5638SOL    HW117813   0.081   5.648   0.209
 5638SOL    HW217814   0.038   5.529   0.105
 5639SOL     OW17815   3.111   0.013   2.333
 5639SOL    HW117816   3.194   6.989   2.370
 5639SOL    HW217817   3.059   6.963   2.282
 5640SOL     OW17818   3.695   0.315   3.728
 5640SOL    HW117819   3.659   0.248   3.663
 5640SOL    HW217820   3.757   0.269   3.791
 5641SOL     OW17821   6.478   4.496   3.862
 5641SOL    HW117822   6.396   4.479   3.808
 5641SOL    HW217823   6.496   4.594   3.865
 5642SOL     OW17824   2.564   2.758   6.256
 5642SOL    HW117825   2.474   2.781   6.219
 5642SOL    HW217826   2.561   2.667   6.297
 5643SOL     OW17827   5.866   3.188   3.861
 5643SOL    HW117828   5.768   3.173   3.871
 5643SOL    HW217829   5.916   3.113   3.904
 5644SOL     OW17830   3.534   0.630   6.111
 5644SOL    HW117831   3.589   0.577   6.046
 5644SOL    HW217832   3.462   0.571   6.148
 5645SOL     OW17833   5.888   6.697   2.734
 5645SOL    HW117834   5.982   6.729   2.748
 5645SOL    HW217835   5.829   6.776   2.711
 5646SOL     OW17836   6.341   0.194   3.378
 5646SOL    HW117837   6.283   0.124   3.418
 5646SOL    HW217838   6.379   0.252   3.450
 5647SOL     OW17839   5.823   3.698   6.577
 5647SOL    HW117840   5.758   3.660   6.643
 5647SOL    HW217841   5.904   3.640   6.573
 5648SOL     OW17842   2.467   1.689   4.153
 5648SOL    HW117843   2.398   1.638   4.101
 5648SOL    HW217844   2.423   1.757   4.210
 5649SOL     OW17845   0.746   0.356   5.302
 5649SOL    HW117846   0.796   0.308   5.230
 5649SOL    HW217847   0.696   0.434   5.263
 5650SOL     OW17848   0.060   4.875   5.037
 5650SOL    HW117849   0.001   4.807   5.081
 5650SOL    HW217850   0.124   4.911   5.105
 5651SOL     OW17851   5.984   0.639   2.479
 5651SOL    HW117852   6.059   0.608   2.536
 5651SOL    HW217853   5.900   0.641   2.533
 5652SOL     OW17854   5.065   4.505   6.991
 5652SOL    HW117855   5.141   4.491   6.927
 5652SOL    HW217856   5.054   4.603   7.007
 5653SOL     OW17857   1.781   5.998   6.840
 5653SOL    HW117858   1.872   5.963   6.823
 5653SOL    HW217859   1.765   6.007   6.938
 5654SOL     OW17860   1.679   0.109   0.068
 5654SOL    HW117861   1.639   0.098   0.159
 5654SOL    HW217862   1.623   0.060   0.001
 5655SOL     OW17863   6.391   5.039   3.118
 5655SOL    HW117864   6.326   5.101   3.161
 5655SOL    HW217865   6.465   5.092   3.075
 5656SOL     OW17866   3.627   5.433   6.409
 5656SOL    HW117867   3.631   5.448   6.508
 5656SOL    HW217868   3.643   5.520   6.362
 5657SOL     OW17869   4.698   5.112   1.876
 5657SOL    HW117870   4.756   5.192   1.862
 5657SOL    HW217871   4.662   5.080   1.788
 5658SOL     OW17872   4.466   6.345   5.915
 5658SOL    HW117873   4.380   6.386   5.946
 5658SOL    HW217874   4.518   6.411   5.861
 5659SOL     OW17875   3.384   4.108   3.211
 5659SOL    HW117876   3.462   4.114   3.148
 5659SOL    HW217877   3.409   4.148   3.299
 5660SOL     OW17878   6.965   5.656   1.607
 5660SOL    HW117879   6.866   5.646   1.609
 5660SOL    HW217880   6.990   5.748   1.638
 5661SOL     OW17881   6.223   5.817   4.651
 5661SOL    HW117882   6.255   5.870   4.729
 5661SOL    HW217883   6.302   5.787   4.596
 5662SOL     OW17884   1.797   4.913   4.322
 5662SOL    HW117885   1.811   5.011   4.335
 5662SOL    HW217886   1.810   4.866   4.410
 5663SOL     OW17887   2.579   3.772   1.096
 5663SOL    HW117888   2.480   3.770   1.077
 5663SOL    HW217889   2.629   3.749   1.013
 5664SOL     OW17890   6.553   5.952   2.049
 5664SOL    HW117891   6.574   6.003   1.965
 5664SOL    HW217892   6.496   6.008   2.109
 5665SOL     OW17893   1.497   0.973   5.754
 5665SOL    HW117894   1.567   0.992   5.822
 5665SOL    HW217895   1.539   0.968   5.664
 5666SOL     OW17896   5.669   5.429   6.865
 5666SOL    HW117897   5.621   5.456   6.781
 5666SOL    HW217898   5.696   5.510   6.916
 5667SOL     OW17899   5.676   4.488   2.114
 5667SOL    HW117900   5.607   4.518   2.180
 5667SOL    HW217901   5.764   4.530   2.137
 5668SOL     OW17902   6.329   2.245   6.685
 5668SOL    HW117903   6.413   2.294   6.662
 5668SOL    HW217904   6.251   2.308   6.677
 5669SOL     OW17905   0.304   3.101   4.838
 5669SOL    HW117906   0.361   3.035   4.788
 5669SOL    HW217907   0.280   3.063   4.927
 5670SOL     OW17908   1.858   3.578   2.300
 5670SOL    HW117909   1.947   3.541   2.274
 5670SOL    HW217910   1.833   3.543   2.390
 5671SOL     OW17911   1.103   0.813   4.849
 5671SOL    HW117912   1.097   0.744   4.777
 5671SOL    HW217913   1.074   0.901   4.813
 5672SOL     OW17914   4.688   4.194   6.033
 5672SOL    HW117915   4.597   4.236   6.031
 5672SOL    HW217916   4.703   4.152   6.123
 5673SOL     OW17917   1.792   0.071   0.512
 5673SOL    HW117918   1.842   0.006   0.570
 5673SOL    HW217919   1.776   0.155   0.564
 5674SOL     OW17920   0.182   2.871   1.357
 5674SOL    HW117921   0.110   2.932   1.390
 5674SOL    HW217922   0.143   2.781   1.338
 5675SOL     OW17923   3.946   1.183   5.798
 5675SOL    HW117924   3.970   1.224   5.710
 5675SOL    HW217925   3.926   1.255   5.864
 5676SOL     OW17926   2.735   6.986   2.073
 5676SOL    HW117927   2.661   6.922   2.052
 5676SOL    HW217928   2.727   0.048   2.014
 5677SOL     OW17929   6.378   0.158   2.727
 5677SOL    HW117930   6.366   0.163   2.826
 5677SOL    HW217931   6.427   0.075   2.703
 5678SOL     OW17932   1.019   5.386   3.103
 5678SOL    HW117933   1.004   5.370   3.006
 5678SOL    HW217934   1.090   5.456   3.115
 5679SOL     OW17935   3.561   5.834   5.294
 5679SOL    HW117936   3.623   5.878   5.358
 5679SOL    HW217937   3.483   5.893   5.276
 5680SOL     OW17938   1.619   6.754   6.824
 5680SOL    HW117939   1.630   6.687   6.898
 5680SOL    HW217940   1.710   6.781   6.790
 5681SOL     OW17941   2.812   4.400   6.582
 5681SOL    HW117942   2.797   4.380   6.485
 5681SOL    HW217943   2.874   4.331   6.621
 5682SOL     OW17944   2.020   2.769   4.396
 5682SOL    HW117945   2.106   2.786   4.348
 5682SOL    HW217946   2.027   2.803   4.490
 5683SOL     OW17947   4.105   3.556   5.193
 5683SOL    HW117948   4.021   3.502   5.200
 5683SOL    HW217949   4.127   3.572   5.097
 5684SOL     OW17950   2.880   3.545   3.229
 5684SOL    HW117951   2.918   3.479   3.294
 5684SOL    HW217952   2.913   3.637   3.251
 5685SOL     OW17953   0.327   6.101   1.343
 5685SOL    HW117954   0.409   6.138   1.299
 5685SOL    HW217955   0.289   6.027   1.287
 5686SOL     OW17956   3.475   4.461   0.113
 5686SOL    HW117957   3.414   4.424   0.042
 5686SOL    HW217958   3.556   4.500   0.070
 5687SOL     OW17959   4.288   5.592   6.519
 5687SOL    HW117960   4.298   5.533   6.598
 5687SOL    HW217961   4.209   5.563   6.465
 5688SOL     OW17962   5.236   1.489   1.877
 5688SOL    HW117963   5.314   1.553   1.877
 5688SOL    HW217964   5.186   1.498   1.963
 5689SOL     OW17965   4.248   3.896   5.795
 5689SOL    HW117966   4.149   3.902   5.784
 5689SOL    HW217967   4.290   3.889   5.704
 5690SOL     OW17968   4.059   6.735   3.178
 5690SOL    HW117969   3.986   6.799   3.200
 5690SOL    HW217970   4.043   6.696   3.087
 5691SOL     OW17971   3.682   0.286   4.503
 5691SOL    HW117972   3.712   0.362   4.561
 5691SOL    HW217973   3.704   0.199   4.547
 5692SOL     OW17974   5.453   2.735   6.478
 5692SOL    HW117975   5.464   2.709   6.382
 5692SOL    HW217976   5.453   2.834   6.486
 5693SOL     OW17977   4.991   2.461   2.545
 5693SOL    HW117978   4.910   2.484   2.490
 5693SOL    HW217979   5.025   2.371   2.517
 5694SOL     OW17980   1.805   1.848   4.188
 5694SOL    HW117981   1.770   1.894   4.106
 5694SOL    HW217982   1.810   1.913   4.263
 5695SOL     OW17983   2.198   3.911   3.321
 5695SOL    HW117984   2.235   3.973   3.251
 5695SOL    HW217985   2.202   3.956   3.410
 5696SOL     OW17986   2.836   0.537   6.020
 5696SOL    HW117987   2.865   0.475   5.947
 5696SOL    HW217988   2.806   0.624   5.980
 5697SOL     OW17989   5.957   3.971   0.084
 5697SOL    HW117990   5.956   4.037   0.009
 5697SOL    HW217991   6.050   3.964   0.121
 5698SOL     OW17992   1.278   4.556   3.629
 5698SOL    HW117993   1.220   4.636   3.643
 5698SOL    HW217994   1.367   4.585   3.594
 5699SOL     OW17995   0.225   2.322   5.155
 5699SOL    HW117996   0.173   2.265   5.218
 5699SOL    HW217997   0.309   2.275   5.129
 5700SOL     OW17998   1.126   5.397   3.670
 5700SOL    HW117999   1.160   5.323   3.728
 5700SOL    HW218000   1.044   5.436   3.711
 5701SOL     OW18001   4.968   4.096   2.679
 5701SOL    HW118002   4.901   4.102   2.753
 5701SOL    HW218003   5.060   4.100   2.718
 5702SOL     OW18004   3.233   0.403   6.621
 5702SOL    HW118005   3.173   0.480   6.645
 5702SOL    HW218006   3.317   0.410   6.674
 5703SOL     OW18007   4.498   4.508   1.840
 5703SOL    HW118008   4.508   4.422   1.889
 5703SOL    HW218009   4.463   4.491   1.748
 5704SOL     OW18010   5.194   4.115   3.297
 5704SOL    HW118011   5.105   4.073   3.281
 5704SOL    HW218012   5.192   4.211   3.270
 5705SOL     OW18013   6.430   1.683   3.813
 5705SOL    HW118014   6.399   1.765   3.860
 5705SOL    HW218015   6.512   1.647   3.857
 5706SOL     OW18016   1.884   1.173   6.595
 5706SOL    HW118017   1.882   1.189   6.496
 5706SOL    HW218018   1.898   1.075   6.612
 5707SOL     OW18019   3.682   1.523   0.270
 5707SOL    HW118020   3.590   1.560   0.282
 5707SOL    HW218021   3.746   1.597   0.251
 5708SOL     OW18022   6.591   0.083   0.972
 5708SOL    HW118023   6.649   0.042   1.042
 5708SOL    HW218024   6.614   0.180   0.962
 5709SOL     OW18025   1.286   2.541   0.997
 5709SOL    HW118026   1.365   2.480   0.990
 5709SOL    HW218027   1.282   2.601   0.917
 5710SOL     OW18028   3.457   4.363   0.376
 5710SOL    HW118029   3.468   4.418   0.294
 5710SOL    HW218030   3.536   4.376   0.436
 5711SOL     OW18031   5.336   1.610   5.091
 5711SOL    HW118032   5.302   1.621   4.998
 5711SOL    HW218033   5.400   1.533   5.094
 5712SOL     OW18034   6.355   6.572   0.089
 5712SOL    HW118035   6.281   6.634   0.115
 5712SOL    HW218036   6.382   6.518   0.169
 5713SOL     OW18037   0.118   2.573   2.715
 5713SOL    HW118038   0.201   2.582   2.660
 5713SOL    HW218039   0.130   2.497   2.780
 5714SOL     OW18040   1.959   0.387   6.507
 5714SOL    HW118041   1.890   0.343   6.450
 5714SOL    HW218042   1.924   0.475   6.540
 5715SOL     OW18043   1.598   0.220   3.403
 5715SOL    HW118044   1.679   0.279   3.394
 5715SOL    HW218045   1.538   0.234   3.324
 5716SOL     OW18046   1.864   2.248   5.267
 5716SOL    HW118047   1.787   2.247   5.203
 5716SOL    HW218048   1.892   2.342   5.284
 5717SOL     OW18049   0.719   3.395   5.855
 5717SOL    HW118050   0.715   3.479   5.910
 5717SOL    HW218051   0.813   3.363   5.851
 5718SOL     OW18052   2.498   4.955   6.119
 5718SOL    HW118053   2.490   5.046   6.079
 5718SOL    HW218054   2.408   4.911   6.123
 5719SOL     OW18055   2.235   0.712   0.736
 5719SOL    HW118056   2.257   0.748   0.827
 5719SOL    HW218057   2.310   0.734   0.673
 5720SOL     OW18058   1.756   5.881   3.935
 5720SOL    HW118059   1.712   5.970   3.950
 5720SOL    HW218060   1.854   5.890   3.954
 5721SOL     OW18061   6.515   3.912   0.165
 5721SOL    HW118062   6.538   3.990   0.223
 5721SOL    HW218063   6.423   3.923   0.128
 5722SOL     OW18064   5.534   1.248   4.010
 5722SOL    HW118065   5.481   1.232   3.926
 5722SOL    HW218066   5.565   1.343   4.011
 5723SOL     OW18067   0.677   4.548   1.347
 5723SOL    HW118068   0.597   4.488   1.347
 5723SOL    HW218069   0.655   4.633   1.299
 5724SOL     OW18070   4.762   2.846   5.763
 5724SOL    HW118071   4.761   2.827   5.861
 5724SOL    HW218072   4.851   2.885   5.738
 5725SOL     OW18073   5.290   6.511   5.523
 5725SOL    HW118074   5.382   6.474   5.536
 5725SOL    HW218075   5.242   6.459   5.453
 5726SOL     OW18076   4.229   4.500   5.823
 5726SOL    HW118077   4.289   4.541   5.892
 5726SOL    HW218078   4.134   4.505   5.854
 5727SOL     OW18079   5.471   2.481   4.161
 5727SOL    HW118080   5.392   2.426   4.188
 5727SOL    HW218081   5.515   2.518   4.242
 5728SOL     OW18082   4.564   0.533   5.526
 5728SOL    HW118083   4.520   0.609   5.477
 5728SOL    HW218084   4.660   0.527   5.500
 5729SOL     OW18085   1.116   2.963   3.980
 5729SOL    HW118086   1.023   2.999   3.994
 5729SOL    HW218087   1.171   2.979   4.063
 5730SOL     OW18088   4.028   4.818   0.318
 5730SOL    HW118089   3.953   4.785   0.375
 5730SOL    HW218090   4.090   4.873   0.374
 5731SOL     OW18091   4.420   1.427   4.804
 5731SOL    HW118092   4.491   1.497   4.791
 5731SOL    HW218093   4.349   1.463   4.864
 5732SOL     OW18094   5.559   4.540   4.647
 5732SOL    HW118095   5.606   4.457   4.617
 5732SOL    HW218096   5.538   4.597   4.568
 5733SOL     OW18097   2.706   0.191   1.863
 5733SOL    HW118098   2.768   0.269   1.874
 5733SOL    HW218099   2.612   0.223   1.866
 5734SOL     OW18100   1.863   6.608   6.070
 5734SOL    HW118101   1.825   6.573   5.985
 5734SOL    HW218102   1.873   6.708   6.064
 5735SOL     OW18103   5.404   0.880   1.601
 5735SOL    HW118104   5.408   0.907   1.505
 5735SOL    HW218105   5.466   0.937   1.655
 5736SOL     OW18106   5.361   3.554   6.509
 5736SOL    HW118107   5.335   3.507   6.593
 5736SOL    HW218108   5.459   3.573   6.511
 5737SOL     OW18109   5.594   5.917   2.094
 5737SOL    HW118110   5.530   5.982   2.136
 5737SOL    HW218111   5.624   5.851   2.163
 5738SOL     OW18112   2.389   0.682   1.008
 5738SOL    HW118113   2.439   0.600   0.979
 5738SOL    HW218114   2.443   0.763   0.985
 5739SOL     OW18115   2.404   0.789   5.109
 5739SOL    HW118116   2.439   0.738   5.031
 5739SOL    HW218117   2.479   0.831   5.159
 5740SOL     OW18118   4.909   3.545   2.235
 5740SOL    HW118119   4.917   3.509   2.142
 5740SOL    HW218120   4.920   3.644   2.234
 5741SOL     OW18121   1.375   3.327   4.368
 5741SOL    HW118122   1.415   3.418   4.376
 5741SOL    HW218123   1.310   3.326   4.293
 5742SOL     OW18124   5.929   5.826   2.395
 5742SOL    HW118125   5.897   5.884   2.470
 5742SOL    HW218126   5.969   5.742   2.432
 5743SOL     OW18127   3.552   5.855   0.372
 5743SOL    HW118128   3.609   5.936   0.388
 5743SOL    HW218129   3.598   5.774   0.408
 5744SOL     OW18130   5.242   6.111   3.505
 5744SOL    HW118131   5.268   6.019   3.536
 5744SOL    HW218132   5.145   6.126   3.526
 5745SOL     OW18133   1.393   3.185   2.720
 5745SOL    HW118134   1.475   3.225   2.678
 5745SOL    HW218135   1.321   3.176   2.651
 5746SOL     OW18136   5.387   0.508   3.027
 5746SOL    HW118137   5.485   0.494   3.021
 5746SOL    HW218138   5.343   0.423   3.058
 5747SOL     OW18139   2.180   7.003   1.660
 5747SOL    HW118140   2.103   7.017   1.598
 5747SOL    HW218141   2.265   7.001   1.608
 5748SOL     OW18142   5.829   6.567   0.132
 5748SOL    HW118143   5.848   6.570   0.230
 5748SOL    HW218144   5.867   6.483   0.093
 5749SOL     OW18145   1.689   6.016   6.066
 5749SOL    HW118146   1.677   6.078   6.143
 5749SOL    HW218147   1.747   6.059   5.997
 5750SOL     OW18148   6.598   2.949   4.122
 5750SOL    HW118149   6.589   2.858   4.082
 5750SOL    HW218150   6.672   2.948   4.189
 5751SOL     OW18151   0.399   3.605   4.613
 5751SOL    HW118152   0.410   3.687   4.670
 5751SOL    HW218153   0.355   3.630   4.527
 5752SOL     OW18154   5.127   0.776   0.353
 5752SOL    HW118155   5.195   0.843   0.383
 5752SOL    HW218156   5.079   0.739   0.432
 5753SOL     OW18157   3.854   4.032   4.482
 5753SOL    HW118158   3.815   4.040   4.574
 5753SOL    HW218159   3.830   3.942   4.444
 5754SOL     OW18160   6.552   5.833   1.174
 5754SOL    HW118161   6.628   5.894   1.200
 5754SOL    HW218162   6.473   5.888   1.146
 5755SOL     OW18163   1.348   3.120   6.976
 5755SOL    HW118164   1.389   3.035   7.009
 5755SOL    HW218165   1.323   3.110   6.880
 5756SOL     OW18166   6.611   6.354   2.000
 5756SOL    HW118167   6.618   6.315   1.909
 5756SOL    HW218168   6.553   6.295   2.057
 5757SOL     OW18169   0.305   1.358   3.676
 5757SOL    HW118170   0.260   1.447   3.670
 5757SOL    HW218171   0.244   1.293   3.722
 5758SOL     OW18172   6.108   6.738   3.038
 5758SOL    HW118173   6.063   6.651   3.017
 5758SOL    HW218174   6.093   6.762   3.134
 5759SOL     OW18175   2.236   7.013   2.476
 5759SOL    HW118176   2.202   0.071   2.422
 5759SOL    HW218177   2.327   0.015   2.510
 5760SOL     OW18178   0.967   1.885   6.578
 5760SOL    HW118179   1.011   1.941   6.507
 5760SOL    HW218180   0.981   1.788   6.557
 5761SOL     OW18181   6.763   6.343   4.807
 5761SOL    HW118182   6.817   6.372   4.887
 5761SOL    HW218183   6.705   6.420   4.777
 5762SOL     OW18184   0.939   5.566   5.760
 5762SOL    HW118185   1.028   5.609   5.773
 5762SOL    HW218186   0.945   5.469   5.783
 5763SOL     OW18187   5.467   0.345   0.522
 5763SOL    HW118188   5.516   0.425   0.557
 5763SOL    HW218189   5.442   0.285   0.598
 5764SOL     OW18190   4.797   6.408   4.182
 5764SOL    HW118191   4.725   6.443   4.123
 5764SOL    HW218192   4.786   6.445   4.274
 5765SOL     OW18193   6.664   4.919   2.322
 5765SOL    HW118194   6.617   4.846   2.273
 5765SOL    HW218195   6.688   4.992   2.258
 5766SOL     OW18196   0.746   1.468   3.975
 5766SOL    HW118197   0.662   1.485   4.027
 5766SOL    HW218198   0.726   1.412   3.895
 5767SOL     OW18199   3.899   6.632   0.292
 5767SOL    HW118200   3.999   6.630   0.281
 5767SOL    HW218201   3.855   6.599   0.208
 5768SOL     OW18202   1.322   0.886   5.125
 5768SOL    HW118203   1.272   0.807   5.091
 5768SOL    HW218204   1.304   0.965   5.065
 5769SOL     OW18205   0.674   3.058   5.799
 5769SOL    HW118206   0.620   3.033   5.718
 5769SOL    HW218207   0.679   3.157   5.806
 5770SOL     OW18208   1.974   4.565   2.075
 5770SOL    HW118209   2.038   4.504   2.122
 5770SOL    HW218210   1.887   4.517   2.063
 5771SOL     OW18211   2.598   4.955   3.618
 5771SOL    HW118212   2.520   4.898   3.648
 5771SOL    HW218213   2.582   5.050   3.645
 5772SOL     OW18214   3.195   0.407   3.122
 5772SOL    HW118215   3.217   0.438   3.214
 5772SOL    HW218216   3.097   0.388   3.115
 5773SOL     OW18217   5.677   1.045   3.444
 5773SOL    HW118218   5.627   1.132   3.443
 5773SOL    HW218219   5.696   1.019   3.538
 5774SOL     OW18220   1.074   6.977   3.119
 5774SOL    HW118221   1.075   7.012   3.025
 5774SOL    HW218222   1.167   6.953   3.146
 5775SOL     OW18223   6.162   4.921   2.183
 5775SOL    HW118224   6.071   4.942   2.219
 5775SOL    HW218225   6.154   4.898   2.086
 5776SOL     OW18226   2.954   1.167   4.409
 5776SOL    HW118227   2.934   1.265   4.404
 5776SOL    HW218228   3.010   1.140   4.332
 5777SOL     OW18229   1.207   0.351   1.601
 5777SOL    HW118230   1.123   0.320   1.647
 5777SOL    HW218231   1.276   0.373   1.669
 5778SOL     OW18232   6.864   0.502   0.739
 5778SOL    HW118233   6.811   0.580   0.706
 5778SOL    HW218234   6.957   0.532   0.762
 5779SOL     OW18235   5.654   1.374   6.899
 5779SOL    HW118236   5.720   1.343   6.831
 5779SOL    HW218237   5.652   1.309   6.975
 5780SOL     OW18238   5.113   4.860   4.137
 5780SOL    HW118239   5.176   4.913   4.080
 5780SOL    HW218240   5.033   4.916   4.159
 5781SOL     OW18241   1.634   5.389   5.987
 5781SOL    HW118242   1.629   5.325   6.065
 5781SOL    HW218243   1.667   5.478   6.019
 5782SOL     OW18244   0.167   0.877   6.865
 5782SOL    HW118245   0.130   0.785   6.849
 5782SOL    HW218246   0.101   0.931   6.917
 5783SOL     OW18247   2.523   2.619   0.001
 5783SOL    HW118248   2.430   2.632   0.034
 5783SOL    HW218249   2.522   2.600   6.921
 5784SOL     OW18250   6.872   6.584   6.739
 5784SOL    HW118251   6.810   6.642   6.686
 5784SOL    HW218252   6.967   6.602   6.711
 5785SOL     OW18253   1.440   1.116   0.783
 5785SOL    HW118254   1.475   1.193   0.729
 5785SOL    HW218255   1.487   1.114   0.871
 5786SOL     OW18256   6.262   5.360   1.315
 5786SOL    HW118257   6.276   5.400   1.225
 5786SOL    HW218258   6.313   5.274   1.321
 5787SOL     OW18259   2.157   3.085   5.810
 5787SOL    HW118260   2.246   3.116   5.843
 5787SOL    HW218261   2.121   3.149   5.742
 5788SOL     OW18262   3.218   0.585   3.827
 5788SOL    HW118263   3.144   0.652   3.827
 5788SOL    HW218264   3.243   0.562   3.922
 5789SOL     OW18265   3.499   5.069   6.614
 5789SOL    HW118266   3.480   5.137   6.685
 5789SOL    HW218267   3.459   5.099   6.528
 5790SOL     OW18268   0.984   3.633   3.581
 5790SOL    HW118269   0.907   3.653   3.520
 5790SOL    HW218270   1.067   3.677   3.545
 5791SOL     OW18271   2.054   0.483   3.035
 5791SOL    HW118272   2.021   0.573   3.005
 5791SOL    HW218273   2.074   0.487   3.133
 5792SOL     OW18274   0.066   2.270   2.827
 5792SOL    HW118275   7.016   2.229   2.766
 5792SOL    HW218276   0.157   2.262   2.786
 5793SOL     OW18277   6.474   0.690   4.685
 5793SOL    HW118278   6.389   0.659   4.642
 5793SOL    HW218279   6.531   0.736   4.616
 5794SOL     OW18280   6.100   4.756   6.297
 5794SOL    HW118281   6.126   4.701   6.218
 5794SOL    HW218282   6.029   4.821   6.271
 5795SOL     OW18283   5.656   3.984   6.608
 5795SOL    HW118284   5.564   4.020   6.616
 5795SOL    HW218285   5.686   3.988   6.513
 5796SOL     OW18286   3.073   2.175   0.553
 5796SOL    HW118287   3.153   2.231   0.574
 5796SOL    HW218288   2.995   2.234   0.533
 5797SOL     OW18289   2.997   2.448   5.646
 5797SOL    HW118290   2.931   2.374   5.631
 5797SOL    HW218291   2.954   2.535   5.623
 5798SOL     OW18292   6.679   5.435   4.486
 5798SOL    HW118293   6.586   5.401   4.490
 5798SOL    HW218294   6.737   5.384   4.550
 5799SOL     OW18295   5.109   1.082   3.970
 5799SOL    HW118296   5.063   1.161   4.012
 5799SOL    HW218297   5.040   1.018   3.937
 5800SOL     OW18298   6.329   5.706   6.823
 5800SOL    HW118299   6.265   5.756   6.764
 5800SOL    HW218300   6.366   5.768   6.892
 5801SOL     OW18301   1.903   1.093   2.776
 5801SOL    HW118302   1.942   1.132   2.692
 5801SOL    HW218303   1.971   1.098   2.849
 5802SOL     OW18304   0.951   2.458   4.848
 5802SOL    HW118305   0.961   2.490   4.754
 5802SOL    HW218306   0.973   2.532   4.912
 5803SOL     OW18307   1.493   4.541   0.732
 5803SOL    HW118308   1.488   4.522   0.830
 5803SOL    HW218309   1.532   4.632   0.717
 5804SOL     OW18310   6.543   2.918   6.156
 5804SOL    HW118311   6.595   2.832   6.156
 5804SOL    HW218312   6.536   2.952   6.250
 5805SOL     OW18313   6.017   3.491   6.640
 5805SOL    HW118314   6.099   3.469   6.587
 5805SOL    HW218315   5.973   3.406   6.668
 5806SOL     OW18316   0.097   6.752   6.563
 5806SOL    HW118317   0.095   6.852   6.559
 5806SOL    HW218318   0.008   6.716   6.534
 5807SOL     OW18319   2.217   3.773   1.906
 5807SOL    HW118320   2.209   3.678   1.937
 5807SOL    HW218321   2.294   3.780   1.843
 5808SOL     OW18322   6.329   1.919   3.428
 5808SOL    HW118323   6.261   1.958   3.490
 5808SOL    HW218324   6.369   1.991   3.371
 5809SOL     OW18325   0.259   3.190   4.179
 5809SOL    HW118326   0.353   3.224   4.171
 5809SOL    HW218327   0.208   3.247   4.242
 5810SOL     OW18328   2.331   2.075   2.831
 5810SOL    HW118329   2.427   2.053   2.848
 5810SOL    HW218330   2.296   2.131   2.906
 5811SOL     OW18331   2.941   0.713   2.324
 5811SOL    HW118332   2.998   0.717   2.406
 5811SOL    HW218333   2.844   0.720   2.351
 5812SOL     OW18334   4.694   0.733   4.552
 5812SOL    HW118335   4.778   0.695   4.590
 5812SOL    HW218336   4.715   0.818   4.503
 5813SOL     OW18337   1.581   1.326   5.107
 5813SOL    HW118338   1.548   1.306   5.199
 5813SOL    HW218339   1.604   1.423   5.100
 5814SOL     OW18340   0.044   5.021   0.688
 5814SOL    HW118341   0.086   4.953   0.629
 5814SOL    HW218342   6.993   5.072   0.637
 5815SOL     OW18343   3.376   1.255   3.519
 5815SOL    HW118344   3.368   1.286   3.424
 5815SOL    HW218345   3.323   1.316   3.578
 5816SOL     OW18346   4.998   6.847   1.264
 5816SOL    HW118347   4.898   6.845   1.270
 5816SOL    HW218348   5.027   6.927   1.213
 5817SOL     OW18349   5.770   2.178   6.025
 5817SOL    HW118350   5.807   2.236   6.097
 5817SOL    HW218351   5.829   2.099   6.011
 5818SOL     OW18352   5.869   6.426   5.679
 5818SOL    HW118353   5.957   6.417   5.632
 5818SOL    HW218354   5.879   6.490   5.755
 5819SOL     OW18355   5.237   0.420   1.105
 5819SOL    HW118356   5.239   0.508   1.058
 5819SOL    HW218357   5.173   0.359   1.058
 5820SOL     OW18358   5.888   5.345   2.564
 5820SOL    HW118359   5.790   5.361   2.573
 5820SOL    HW218360   5.904   5.271   2.499
 5821SOL     OW18361   3.365   6.954   2.440
 5821SOL    HW118362   3.313   6.874   2.469
 5821SOL    HW218363   3.402   7.001   2.519
 5822SOL     OW18364   0.819   1.280   2.318
 5822SOL    HW118365   0.743   1.300   2.256
 5822SOL    HW218366   0.891   1.231   2.268
 5823SOL     OW18367   2.287   2.882   4.332
 5823SOL    HW118368   2.325   2.839   4.414
 5823SOL    HW218369   2.266   2.978   4.352
 5824SOL     OW18370   4.077   0.410   3.250
 5824SOL    HW118371   3.979   0.417   3.231
 5824SOL    HW218372   4.105   0.314   3.246
 5825SOL     OW18373   3.013   1.059   1.199
 5825SOL    HW118374   3.068   1.023   1.275
 5825SOL    HW218375   2.951   1.129   1.232
 5826SOL     OW18376   6.528   6.815   4.397
 5826SOL    HW118377   6.452   6.831   4.460
 5826SOL    HW218378   6.496   6.830   4.303
 5827SOL     OW18379   1.815   4.964   5.346
 5827SOL    HW118380   1.723   4.987   5.380
 5827SOL    HW218381   1.842   4.874   5.381
 5828SOL     OW18382   6.501   2.375   1.808
 5828SOL    HW118383   6.482   2.307   1.737
 5828SOL    HW218384   6.573   2.437   1.777
 5829SOL     OW18385   1.362   1.646   2.096
 5829SOL    HW118386   1.327   1.724   2.148
 5829SOL    HW218387   1.461   1.641   2.106
 5830SOL     OW18388   2.179   1.250   5.413
 5830SOL    HW118389   2.244   1.224   5.341
 5830SOL    HW218390   2.086   1.241   5.378
 5831SOL     OW18391   5.809   6.200   3.142
 5831SOL    HW118392   5.904   6.201   3.109
 5831SOL    HW218393   5.799   6.268   3.216
 5832SOL     OW18394   3.487   3.597   4.673
 5832SOL    HW118395   3.515   3.509   4.711
 5832SOL    HW218396   3.496   3.669   4.742
 5833SOL     OW18397   3.628   3.281   5.062
 5833SOL    HW118398   3.602   3.377   5.069
 5833SOL    HW218399   3.641   3.243   5.154
 5834SOL     OW18400   6.410   0.857   0.276
 5834SOL    HW118401   6.359   0.910   0.344
 5834SOL    HW218402   6.376   0.880   0.184
 5835SOL     OW18403   5.343   2.811   4.278
 5835SOL    HW118404   5.303   2.784   4.365
 5835SOL    HW218405   5.270   2.830   4.212
 5836SOL     OW18406   3.205   6.723   2.749
 5836SOL    HW118407   3.178   6.627   2.753
 5836SOL    HW218408   3.183   6.759   2.659
 5837SOL     OW18409   4.845   4.705   6.616
 5837SOL    HW118410   4.759   4.753   6.631
 5837SOL    HW218411   4.826   4.614   6.581
 5838SOL     OW18412   0.326   1.229   5.407
 5838SOL    HW118413   0.303   1.324   5.388
 5838SOL    HW218414   0.253   1.170   5.374
 5839SOL     OW18415   0.237   2.833   2.446
 5839SOL    HW118416   0.301   2.781   2.503
 5839SOL    HW218417   0.218   2.782   2.362
 5840SOL     OW18418   2.592   5.656   0.197
 5840SOL    HW118419   2.691   5.647   0.204
 5840SOL    HW218420   2.561   5.626   0.107
 5841SOL     OW18421   6.347   2.185   2.567
 5841SOL    HW118422   6.441   2.184   2.601
 5841SOL    HW218423   6.337   2.117   2.494
 5842SOL     OW18424   3.985   3.390   0.077
 5842SOL    HW118425   3.955   3.442   7.015
 5842SOL    HW218426   3.976   3.446   0.159
 5843SOL     OW18427   1.159   3.004   1.175
 5843SOL    HW118428   1.211   2.950   1.108
 5843SOL    HW218429   1.217   3.022   1.255
 5844SOL     OW18430   1.428   5.793   6.459
 5844SOL    HW118431   1.513   5.782   6.511
 5844SOL    HW218432   1.425   5.727   6.384
 5845SOL     OW18433   1.132   2.278   4.679
 5845SOL    HW118434   1.156   2.368   4.713
 5845SOL    HW218435   1.049   2.246   4.726
 5846SOL     OW18436   0.864   3.449   6.418
 5846SOL    HW118437   0.928   3.432   6.344
 5846SOL    HW218438   0.773   3.417   6.391
 5847SOL     OW18439   1.313   2.371   3.724
 5847SOL    HW118440   1.225   2.326   3.707
 5847SOL    HW218441   1.298   2.466   3.749
 5848SOL     OW18442   1.252   5.169   3.786
 5848SOL    HW118443   1.316   5.092   3.783
 5848SOL    HW218444   1.213   5.176   3.877
 5849SOL     OW18445   3.180   6.891   5.550
 5849SOL    HW118446   3.104   6.872   5.612
 5849SOL    HW218447   3.152   6.960   5.483
 5850SOL     OW18448   1.009   4.401   3.343
 5850SOL    HW118449   0.945   4.421   3.269
 5850SOL    HW218450   0.960   4.357   3.418
 5851SOL     OW18451   5.345   3.135   2.143
 5851SOL    HW118452   5.289   3.156   2.062
 5851SOL    HW218453   5.435   3.177   2.133
 5852SOL     OW18454   4.060   5.583   2.883
 5852SOL    HW118455   3.974   5.547   2.847
 5852SOL    HW218456   4.053   5.682   2.893
 5853SOL     OW18457   4.563   4.311   5.704
 5853SOL    HW118458   4.556   4.219   5.666
 5853SOL    HW218459   4.589   4.376   5.632
 5854SOL     OW18460   0.980   0.994   6.804
 5854SOL    HW118461   1.018   0.940   6.879
 5854SOL    HW218462   1.036   1.076   6.789
 5855SOL     OW18463   2.012   1.168   4.909
 5855SOL    HW118464   2.051   1.101   4.971
 5855SOL    HW218465   2.081   1.238   4.888
 5856SOL     OW18466   2.291   5.070   3.215
 5856SOL    HW118467   2.330   5.145   3.269
 5856SOL    HW218468   2.249   5.107   3.132
 5857SOL     OW18469   0.285   2.217   5.594
 5857SOL    HW118470   0.316   2.174   5.679
 5857SOL    HW218471   0.361   2.222   5.530
 5858SOL     OW18472   3.754   6.593   3.487
 5858SOL    HW118473   3.730   6.566   3.581
 5858SOL    HW218474   3.718   6.525   3.423
 5859SOL     OW18475   6.711   5.669   1.625
 5859SOL    HW118476   6.652   5.592   1.601
 5859SOL    HW218477   6.693   5.697   1.719
 5860SOL     OW18478   0.586   3.483   0.885
 5860SOL    HW118479   0.605   3.581   0.887
 5860SOL    HW218480   0.672   3.433   0.875
 5861SOL     OW18481   5.975   2.117   4.111
 5861SOL    HW118482   5.989   2.196   4.170
 5861SOL    HW218483   5.894   2.132   4.054
 5862SOL     OW18484   4.827   4.259   3.538
 5862SOL    HW118485   4.907   4.276   3.597
 5862SOL    HW218486   4.826   4.162   3.512
 5863SOL     OW18487   1.965   1.655   1.225
 5863SOL    HW118488   1.865   1.662   1.228
 5863SOL    HW218489   2.002   1.732   1.173
 5864SOL     OW18490   4.145   5.461   0.668
 5864SOL    HW118491   4.156   5.423   0.576
 5864SOL    HW218492   4.194   5.548   0.674
 5865SOL     OW18493   4.472   0.843   3.551
 5865SOL    HW118494   4.472   0.831   3.452
 5865SOL    HW218495   4.378   0.841   3.585
 5866SOL     OW18496   3.127   1.477   6.754
 5866SOL    HW118497   3.107   1.525   6.839
 5866SOL    HW218498   3.058   1.406   6.738
 5867SOL     OW18499   0.266   2.927   1.104
 5867SOL    HW118500   0.225   2.902   1.192
 5867SOL    HW218501   0.359   2.961   1.120
 5868SOL     OW18502   1.556   6.912   4.514
 5868SOL    HW118503   1.604   6.853   4.579
 5868SOL    HW218504   1.615   6.932   4.436
 5869SOL     OW18505   3.018   4.939   3.820
 5869SOL    HW118506   2.988   5.032   3.840
 5869SOL    HW218507   3.106   4.942   3.772
 5870SOL     OW18508   5.368   5.167   4.306
 5870SOL    HW118509   5.468   5.160   4.303
 5870SOL    HW218510   5.332   5.176   4.214
 5871SOL     OW18511   2.502   3.564   0.660
 5871SOL    HW118512   2.575   3.509   0.621
 5871SOL    HW218513   2.464   3.625   0.590
 5872SOL     OW18514   4.007   5.860   4.112
 5872SOL    HW118515   4.033   5.822   4.024
 5872SOL    HW218516   4.041   5.800   4.185
 5873SOL     OW18517   1.952   3.502   0.072
 5873SOL    HW118518   1.985   3.444   0.147
 5873SOL    HW218519   1.986   3.595   0.084
 5874SOL     OW18520   1.315   4.254   6.694
 5874SOL    HW118521   1.290   4.187   6.764
 5874SOL    HW218522   1.327   4.343   6.736
 5875SOL     OW18523   4.449   2.136   0.591
 5875SOL    HW118524   4.357   2.171   0.574
 5875SOL    HW218525   4.457   2.043   0.554
 5876SOL     OW18526   3.862   4.175   6.132
 5876SOL    HW118527   3.784   4.113   6.128
 5876SOL    HW218528   3.935   4.134   6.187
 5877SOL     OW18529   5.954   0.349   2.457
 5877SOL    HW118530   5.943   0.443   2.488
 5877SOL    HW218531   6.035   0.309   2.500
 5878SOL     OW18532   5.006   4.503   2.050
 5878SOL    HW118533   4.906   4.492   2.051
 5878SOL    HW218534   5.030   4.595   2.082
 5879SOL     OW18535   3.260   3.889   5.228
 5879SOL    HW118536   3.357   3.884   5.206
 5879SOL    HW218537   3.225   3.797   5.245
 5880SOL     OW18538   5.765   2.511   6.946
 5880SOL    HW118539   5.821   2.593   6.960
 5880SOL    HW218540   5.670   2.539   6.927
 5881SOL     OW18541   1.788   6.715   2.780
 5881SOL    HW118542   1.840   6.631   2.764
 5881SOL    HW218543   1.816   6.755   2.868
 5882SOL     OW18544   1.349   4.877   5.519
 5882SOL    HW118545   1.355   4.922   5.608
 5882SOL    HW218546   1.254   4.875   5.489
 5883SOL     OW18547   6.793   5.469   0.292
 5883SOL    HW118548   6.780   5.485   0.194
 5883SOL    HW218549   6.769   5.553   0.342
 5884SOL     OW18550   6.910   1.019   2.271
 5884SOL    HW118551   7.006   1.012   2.298
 5884SOL    HW218552   6.862   0.934   2.294
 5885SOL     OW18553   0.225   5.330   0.785
 5885SOL    HW118554   0.214   5.369   0.694
 5885SOL    HW218555   0.149   5.269   0.805
 5886SOL     OW18556   1.783   4.890   3.468
 5886SOL    HW118557   1.837   4.960   3.423
 5886SOL    HW218558   1.816   4.799   3.442
 5887SOL     OW18559   3.031   2.730   0.320
 5887SOL    HW118560   3.129   2.748   0.313
 5887SOL    HW218561   3.017   2.643   0.367
 5888SOL     OW18562   2.754   6.206   1.385
 5888SOL    HW118563   2.704   6.150   1.319
 5888SOL    HW218564   2.692   6.274   1.424
 5889SOL     OW18565   5.903   1.090   2.172
 5889SOL    HW118566   5.940   1.182   2.181
 5889SOL    HW218567   5.887   1.051   2.263
 5890SOL     OW18568   2.546   5.204   3.703
 5890SOL    HW118569   2.611   5.267   3.660
 5890SOL    HW218570   2.458   5.250   3.713
 5891SOL     OW18571   2.665   3.942   6.709
 5891SOL    HW118572   2.620   3.978   6.628
 5891SOL    HW218573   2.640   3.846   6.721
 5892SOL     OW18574   1.243   2.745   0.650
 5892SOL    HW118575   1.268   2.694   0.567
 5892SOL    HW218576   1.175   2.692   0.702
 5893SOL     OW18577   0.882   6.472   1.315
 5893SOL    HW118578   0.906   6.416   1.394
 5893SOL    HW218579   0.957   6.469   1.248
 5894SOL     OW18580   2.030   5.905   6.772
 5894SOL    HW118581   2.015   5.807   6.781
 5894SOL    HW218582   2.009   5.933   6.678
 5895SOL     OW18583   5.656   4.199   3.141
 5895SOL    HW118584   5.594   4.207   3.063
 5895SOL    HW218585   5.640   4.113   3.188
 5896SOL     OW18586   5.630   2.010   2.145
 5896SOL    HW118587   5.598   1.925   2.187
 5896SOL    HW218588   5.552   2.061   2.108
 5897SOL     OW18589   3.514   2.309   0.558
 5897SOL    HW118590   3.564   2.283   0.475
 5897SOL    HW218591   3.533   2.405   0.579
 5898SOL     OW18592   2.164   0.827   6.920
 5898SOL    HW118593   2.109   0.887   6.978
 5898SOL    HW218594   2.214   0.762   6.978
 5899SOL     OW18595   0.268   6.552   6.908
 5899SOL    HW118596   0.365   6.578   6.902
 5899SOL    HW218597   0.211   6.625   6.871
 5900SOL     OW18598   6.154   6.400   2.356
 5900SOL    HW118599   6.210   6.482   2.345
 5900SOL    HW218600   6.193   6.326   2.301
 5901SOL     OW18601   2.708   0.444   5.071
 5901SOL    HW118602   2.710   0.520   5.136
 5901SOL    HW218603   2.790   0.388   5.083
 5902SOL     OW18604   3.977   4.182   5.534
 5902SOL    HW118605   3.960   4.270   5.489
 5902SOL    HW218606   3.922   4.111   5.489
 5903SOL     OW18607   6.563   2.217   5.297
 5903SOL    HW118608   6.495   2.146   5.317
 5903SOL    HW218609   6.589   2.212   5.200
 5904SOL     OW18610   0.239   4.764   1.516
 5904SOL    HW118611   0.177   4.710   1.459
 5904SOL    HW218612   0.332   4.758   1.480
 5905SOL     OW18613   5.964   2.267   4.870
 5905SOL    HW118614   5.937   2.245   4.964
 5905SOL    HW218615   5.940   2.362   4.850
 5906SOL     OW18616   4.190   1.393   5.856
 5906SOL    HW118617   4.211   1.395   5.954
 5906SOL    HW218618   4.275   1.392   5.804
 5907SOL     OW18619   1.319   3.369   5.899
 5907SOL    HW118620   1.404   3.380   5.849
 5907SOL    HW218621   1.316   3.435   5.975
 5908SOL     OW18622   4.294   4.372   6.701
 5908SOL    HW118623   4.385   4.339   6.674
 5908SOL    HW218624   4.297   4.471   6.713
 5909SOL     OW18625   6.374   5.121   4.175
 5909SOL    HW118626   6.440   5.193   4.193
 5909SOL    HW218627   6.320   5.103   4.257
 5910SOL     OW18628   3.299   4.872   0.941
 5910SOL    HW118629   3.291   4.968   0.970
 5910SOL    HW218630   3.223   4.819   0.980
 5911SOL     OW18631   6.233   0.250   6.759
 5911SOL    HW118632   6.332   0.236   6.751
 5911SOL    HW218633   6.204   0.226   6.851
 5912SOL     OW18634   0.801   3.233   5.298
 5912SOL    HW118635   0.710   3.263   5.267
 5912SOL    HW218636   0.868   3.253   5.226
 5913SOL     OW18637   1.696   2.363   4.305
 5913SOL    HW118638   1.599   2.378   4.324
 5913SOL    HW218639   1.728   2.430   4.238
 5914SOL     OW18640   1.276   5.943   1.052
 5914SOL    HW118641   1.368   5.955   1.017
 5914SOL    HW218642   1.276   5.959   1.151
 5915SOL     OW18643   5.853   3.627   4.550
 5915SOL    HW118644   5.921   3.697   4.571
 5915SOL    HW218645   5.779   3.631   4.617
 5916SOL     OW18646   3.150   0.057   6.033
 5916SOL    HW118647   3.245   0.058   6.063
 5916SOL    HW218648   3.096   0.120   6.090
 5917SOL     OW18649   3.901   3.930   2.674
 5917SOL    HW118650   3.879   3.834   2.654
 5917SOL    HW218651   3.959   3.935   2.755
 5918SOL     OW18652   2.583   2.034   4.249
 5918SOL    HW118653   2.556   2.021   4.344
 5918SOL    HW218654   2.653   1.966   4.225
 5919SOL     OW18655   1.337   2.231   6.677
 5919SOL    HW118656   1.403   2.179   6.732
 5919SOL    HW218657   1.348   2.205   6.581
 5920SOL     OW18658   2.386   5.352   0.171
 5920SOL    HW118659   2.467   5.342   0.114
 5920SOL    HW218660   2.312   5.395   0.119
 5921SOL     OW18661   3.895   5.578   5.655
 5921SOL    HW118662   3.815   5.579   5.716
 5921SOL    HW218663   3.970   5.529   5.700
 5922SOL     OW18664   6.066   4.602   1.257
 5922SOL    HW118665   6.051   4.664   1.180
 5922SOL    HW218666   6.161   4.609   1.286
 5923SOL     OW18667   0.479   0.831   3.562
 5923SOL    HW118668   0.386   0.863   3.542
 5923SOL    HW218669   0.501   0.754   3.502
 5924SOL     OW18670   6.218   1.756   4.905
 5924SOL    HW118671   6.223   1.660   4.934
 5924SOL    HW218672   6.126   1.775   4.872
 5925SOL     OW18673   6.386   6.016   0.598
 5925SOL    HW118674   6.413   6.026   0.693
 5925SOL    HW218675   6.303   6.070   0.581
 5926SOL     OW18676   3.098   5.270   2.188
 5926SOL    HW118677   3.083   5.369   2.188
 5926SOL    HW218678   3.133   5.241   2.099
 5927SOL     OW18679   2.092   5.339   1.928
 5927SOL    HW118680   2.183   5.379   1.917
 5927SOL    HW218681   2.062   5.300   1.841
 5928SOL     OW18682   0.960   6.075   1.045
 5928SOL    HW118683   1.033   6.142   1.031
 5928SOL    HW218684   0.993   5.984   1.020
 5929SOL     OW18685   0.662   6.656   5.172
 5929SOL    HW118686   0.619   6.720   5.107
 5929SOL    HW218687   0.604   6.575   5.182
 5930SOL     OW18688   6.461   1.444   4.944
 5930SOL    HW118689   6.510   1.523   4.907
 5930SOL    HW218690   6.510   1.408   5.023
 5931SOL     OW18691   5.883   5.014   0.953
 5931SOL    HW118692   5.958   5.078   0.933
 5931SOL    HW218693   5.870   5.010   1.052
 5932SOL     OW18694   2.437   0.020   0.277
 5932SOL    HW118695   2.417   6.959   0.219
 5932SOL    HW218696   2.402   0.003   0.369
 5933SOL     OW18697   6.172   3.642   3.042
 5933SOL    HW118698   6.206   3.710   3.107
 5933SOL    HW218699   6.156   3.686   2.953
 5934SOL     OW18700   3.727   3.810   2.213
 5934SOL    HW118701   3.680   3.792   2.299
 5934SOL    HW218702   3.706   3.902   2.182
 5935SOL     OW18703   3.939   3.202   2.803
 5935SOL    HW118704   3.911   3.188   2.708
 5935SOL    HW218705   3.919   3.120   2.857
 5936SOL     OW18706   6.319   6.218   6.639
 5936SOL    HW118707   6.257   6.180   6.571
 5936SOL    HW218708   6.267   6.272   6.705
 5937SOL     OW18709   1.324   4.427   0.382
 5937SOL    HW118710   1.360   4.509   0.428
 5937SOL    HW218711   1.275   4.371   0.449
 5938SOL     OW18712   2.165   4.534   1.132
 5938SOL    HW118713   2.115   4.499   1.212
 5938SOL    HW218714   2.133   4.626   1.111
 5939SOL     OW18715   1.869   1.414   2.738
 5939SOL    HW118716   1.893   1.512   2.738
 5939SOL    HW218717   1.879   1.378   2.646
 5940SOL     OW18718   4.078   5.151   3.011
 5940SOL    HW118719   4.121   5.240   2.995
 5940SOL    HW218720   4.002   5.161   3.075
 5941SOL     OW18721   6.994   3.260   3.218
 5941SOL    HW118722   6.894   3.269   3.220
 5941SOL    HW218723   0.007   3.222   3.305
 5942SOL     OW18724   6.910   2.087   4.631
 5942SOL    HW118725   6.971   2.053   4.703
 5942SOL    HW218726   6.964   2.132   4.560
 5943SOL     OW18727   1.359   4.879   0.371
 5943SOL    HW118728   1.341   4.841   0.281
 5943SOL    HW218729   1.346   4.809   0.441
 5944SOL     OW18730   5.042   2.163   3.505
 5944SOL    HW118731   5.005   2.256   3.505
 5944SOL    HW218732   5.053   2.132   3.411
 5945SOL     OW18733   6.591   5.018   5.948
 5945SOL    HW118734   6.565   5.003   6.043
 5945SOL    HW218735   6.604   5.115   5.932
 5946SOL     OW18736   3.771   2.688   5.256
 5946SOL    HW118737   3.815   2.740   5.183
 5946SOL    HW218738   3.675   2.713   5.262
 5947SOL     OW18739   4.591   4.071   1.683
 5947SOL    HW118740   4.526   4.132   1.729
 5947SOL    HW218741   4.663   4.127   1.641
 5948SOL     OW18742   3.446   5.091   3.414
 5948SOL    HW118743   3.497   5.027   3.357
 5948SOL    HW218744   3.348   5.078   3.400
 5949SOL     OW18745   4.572   4.366   2.529
 5949SOL    HW118746   4.547   4.427   2.454
 5949SOL    HW218747   4.495   4.356   2.591
 5950SOL     OW18748   6.037   2.952   4.018
 5950SOL    HW118749   5.992   2.865   3.998
 5950SOL    HW218750   6.100   2.974   3.944
 5951SOL     OW18751   2.057   6.620   4.053
 5951SOL    HW118752   2.015   6.648   4.139
 5951SOL    HW218753   2.111   6.536   4.069
 5952SOL     OW18754   0.025   5.406   4.832
 5952SOL    HW118755   0.125   5.399   4.830
 5952SOL    HW218756   7.008   5.347   4.904
 5953SOL     OW18757   1.056   3.384   6.226
 5953SOL    HW118758   1.079   3.480   6.211
 5953SOL    HW218759   1.139   3.332   6.242
 5954SOL     OW18760   0.936   4.904   6.676
 5954SOL    HW118761   0.939   4.939   6.770
 5954SOL    HW218762   0.990   4.964   6.616
 5955SOL     OW18763   4.625   5.090   2.818
 5955SOL    HW118764   4.690   5.023   2.856
 5955SOL    HW218765   4.670   5.142   2.746
 5956SOL     OW18766   0.016   2.214   6.858
 5956SOL    HW118767   0.092   2.151   6.849
 5956SOL    HW218768   6.949   2.168   6.831
 5957SOL     OW18769   4.711   6.571   5.459
 5957SOL    HW118770   4.766   6.511   5.517
 5957SOL    HW218771   4.725   6.666   5.486
 5958SOL     OW18772   1.216   5.126   2.538
 5958SOL    HW118773   1.255   5.213   2.509
 5958SOL    HW218774   1.249   5.103   2.630
 5959SOL     OW18775   1.919   0.917   6.645
 5959SOL    HW118776   1.846   0.854   6.619
 5959SOL    HW218777   2.001   0.865   6.667
 5960SOL     OW18778   3.761   6.610   4.993
 5960SOL    HW118779   3.664   6.595   4.971
 5960SOL    HW218780   3.793   6.537   5.053
 5961SOL     OW18781   2.445   0.907   5.504
 5961SOL    HW118782   2.359   0.929   5.549
 5961SOL    HW218783   2.496   0.841   5.561
 5962SOL     OW18784   5.118   4.314   2.775
 5962SOL    HW118785   5.040   4.367   2.742
 5962SOL    HW218786   5.087   4.247   2.843
 5963SOL     OW18787   3.935   4.014   1.920
 5963SOL    HW118788   3.879   4.063   1.987
 5963SOL    HW218789   3.988   4.079   1.866
 5964SOL     OW18790   1.977   3.531   5.549
 5964SOL    HW118791   1.930   3.616   5.571
 5964SOL    HW218792   2.014   3.490   5.632
 5965SOL     OW18793   2.483   1.551   3.772
 5965SOL    HW118794   2.479   1.460   3.731
 5965SOL    HW218795   2.579   1.574   3.791
 5966SOL     OW18796   2.021   5.872   3.966
 5966SOL    HW118797   2.053   5.855   4.060
 5966SOL    HW218798   2.099   5.868   3.904
 5967SOL     OW18799   4.631   6.206   2.256
 5967SOL    HW118800   4.561   6.141   2.226
 5967SOL    HW218801   4.633   6.284   2.193
 5968SOL     OW18802   0.327   1.956   4.158
 5968SOL    HW118803   0.227   1.963   4.152
 5968SOL    HW218804   0.362   1.910   4.076
 5969SOL     OW18805   5.498   2.721   2.860
 5969SOL    HW118806   5.489   2.746   2.763
 5969SOL    HW218807   5.561   2.644   2.869
 5970SOL     OW18808   1.857   3.171   3.531
 5970SOL    HW118809   1.803   3.093   3.563
 5970SOL    HW218810   1.853   3.176   3.431
 5971SOL     OW18811   2.795   6.725   2.777
 5971SOL    HW118812   2.864   6.756   2.842
 5971SOL    HW218813   2.743   6.650   2.817
 5972SOL     OW18814   4.976   0.012   1.873
 5972SOL    HW118815   5.001   6.987   1.787
 5972SOL    HW218816   4.901   0.076   1.859
 5973SOL     OW18817   1.345   4.188   2.729
 5973SOL    HW118818   1.253   4.224   2.714
 5973SOL    HW218819   1.339   4.097   2.772
 5974SOL     OW18820   1.335   3.787   6.339
 5974SOL    HW118821   1.417   3.835   6.308
 5974SOL    HW218822   1.321   3.804   6.437
 5975SOL     OW18823   2.489   3.056   6.780
 5975SOL    HW118824   2.452   2.987   6.718
 5975SOL    HW218825   2.589   3.057   6.773
 5976SOL     OW18826   3.545   2.992   4.572
 5976SOL    HW118827   3.455   2.983   4.529
 5976SOL    HW218828   3.570   3.088   4.576
 5977SOL     OW18829   0.852   3.778   3.107
 5977SOL    HW118830   0.798   3.694   3.107
 5977SOL    HW218831   0.849   3.821   3.016
 5978SOL     OW18832   5.089   5.109   2.892
 5978SOL    HW118833   5.137   5.045   2.831
 5978SOL    HW218834   5.137   5.197   2.892
 5979SOL     OW18835   1.011   1.217   1.872
 5979SOL    HW118836   0.957   1.294   1.907
 5979SOL    HW218837   1.073   1.249   1.801
 5980SOL     OW18838   6.433   3.320   6.239
 5980SOL    HW118839   6.505   3.369   6.289
 5980SOL    HW218840   6.468   3.288   6.152
 5981SOL     OW18841   4.068   2.055   1.200
 5981SOL    HW118842   3.988   2.056   1.259
 5981SOL    HW218843   4.052   2.113   1.120
 5982SOL     OW18844   5.642   2.312   0.145
 5982SOL    HW118845   5.590   2.269   0.071
 5982SOL    HW218846   5.606   2.403   0.164
 5983SOL     OW18847   0.899   0.585   4.938
 5983SOL    HW118848   0.971   0.639   4.895
 5983SOL    HW218849   0.880   0.505   4.881
 5984SOL     OW18850   0.824   6.932   5.818
 5984SOL    HW118851   0.733   6.896   5.800
 5984SOL    HW218852   0.889   6.891   5.754
 5985SOL     OW18853   5.222   3.128   4.274
 5985SOL    HW118854   5.182   3.179   4.198
 5985SOL    HW218855   5.175   3.041   4.283
 5986SOL     OW18856   3.432   2.867   2.563
 5986SOL    HW118857   3.340   2.893   2.536
 5986SOL    HW218858   3.443   2.880   2.662
 5987SOL     OW18859   4.629   6.553   5.773
 5987SOL    HW118860   4.665   6.646   5.775
 5987SOL    HW218861   4.703   6.489   5.753
 5988SOL     OW18862   3.601   0.282   5.136
 5988SOL    HW118863   3.687   0.279   5.084
 5988SOL    HW218864   3.622   0.293   5.233
 5989SOL     OW18865   2.818   1.567   6.622
 5989SOL    HW118866   2.845   1.618   6.540
 5989SOL    HW218867   2.800   1.632   6.696
 5990SOL     OW18868   3.410   4.967   2.233
 5990SOL    HW118869   3.321   4.956   2.190
 5990SOL    HW218870   3.409   4.927   2.324
 5991SOL     OW18871   2.975   5.192   3.820
 5991SOL    HW118872   2.903   5.252   3.855
 5991SOL    HW218873   3.062   5.218   3.861
 5992SOL     OW18874   4.453   2.429   4.236
 5992SOL    HW118875   4.391   2.404   4.311
 5992SOL    HW218876   4.421   2.387   4.151
 5993SOL     OW18877   3.382   5.624   3.847
 5993SOL    HW118878   3.391   5.724   3.846
 5993SOL    HW218879   3.451   5.584   3.787
 5994SOL     OW18880   6.486   2.603   1.369
 5994SOL    HW118881   6.418   2.637   1.434
 5994SOL    HW218882   6.476   2.651   1.282
 5995SOL     OW18883   0.948   4.475   1.374
 5995SOL    HW118884   0.854   4.508   1.363
 5995SOL    HW218885   1.004   4.505   1.297
 5996SOL     OW18886   0.614   5.427   5.411
 5996SOL    HW118887   0.689   5.490   5.427
 5996SOL    HW218888   0.641   5.358   5.344
 5997SOL     OW18889   0.565   0.349   1.171
 5997SOL    HW118890   0.549   0.428   1.111
 5997SOL    HW218891   0.613   0.379   1.253
 5998SOL     OW18892   4.303   2.120   3.379
 5998SOL    HW118893   4.341   2.029   3.396
 5998SOL    HW218894   4.370   2.189   3.402
 5999SOL     OW18895   2.199   2.727   3.332
 5999SOL    HW118896   2.276   2.714   3.395
 5999SOL    HW218897   2.198   2.822   3.301
 6000SOL     OW18898   5.007   0.529   3.338
 6000SOL    HW118899   5.027   0.442   3.294
 6000SOL    HW218900   4.965   0.591   3.271
 6001SOL     OW18901   6.199   1.743   6.953
 6001SOL    HW118902   6.175   1.743   6.856
 6001SOL    HW218903   6.183   1.834   6.991
 6002SOL     OW18904   1.712   0.761   1.999
 6002SOL    HW118905   1.654   0.814   2.061
 6002SOL    HW218906   1.657   0.730   1.921
 6003SOL     OW18907   5.726   3.959   3.788
 6003SOL    HW118908   5.705   3.967   3.885
 6003SOL    HW218909   5.641   3.956   3.735
 6004SOL     OW18910   0.162   3.135   1.917
 6004SOL    HW118911   0.105   3.147   1.998
 6004SOL    HW218912   0.230   3.208   1.913
 6005SOL     OW18913   2.222   6.177   2.304
 6005SOL    HW118914   2.157   6.177   2.228
 6005SOL    HW218915   2.315   6.191   2.269
 6006SOL     OW18916   1.590   5.803   0.144
 6006SOL    HW118917   1.542   5.781   0.229
 6006SOL    HW218918   1.531   5.859   0.086
 6007SOL     OW18919   5.077   3.044   5.036
 6007SOL    HW118920   5.163   3.052   4.984
 6007SOL    HW218921   5.013   3.114   5.004
 6008SOL     OW18922   4.799   3.958   1.329
 6008SOL    HW118923   4.871   3.937   1.263
 6008SOL    HW218924   4.841   3.988   1.415
 6009SOL     OW18925   3.975   1.647   4.789
 6009SOL    HW118926   3.928   1.693   4.714
 6009SOL    HW218927   4.011   1.715   4.852
 6010SOL     OW18928   1.123   3.759   3.190
 6010SOL    HW118929   1.142   3.780   3.285
 6010SOL    HW218930   1.032   3.792   3.166
 6011SOL     OW18931   6.558   2.713   1.805
 6011SOL    HW118932   6.614   2.691   1.885
 6011SOL    HW218933   6.604   2.682   1.722
 6012SOL     OW18934   0.343   3.121   1.516
 6012SOL    HW118935   0.319   3.151   1.424
 6012SOL    HW218936   0.263   3.083   1.561
 6013SOL     OW18937   6.093   0.635   2.223
 6013SOL    HW118938   6.050   0.619   2.312
 6013SOL    HW218939   6.056   0.719   2.183
 6014SOL     OW18940   5.736   0.650   0.906
 6014SOL    HW118941   5.686   0.713   0.966
 6014SOL    HW218942   5.736   0.559   0.947
 6015SOL     OW18943   5.627   0.619   4.654
 6015SOL    HW118944   5.713   0.656   4.688
 6015SOL    HW218945   5.568   0.596   4.731
 6016SOL     OW18946   2.009   6.820   5.240
 6016SOL    HW118947   1.955   6.832   5.157
 6016SOL    HW218948   2.046   6.727   5.242
 6017SOL     OW18949   6.896   3.622   2.529
 6017SOL    HW118950   6.961   3.625   2.453
 6017SOL    HW218951   6.946   3.622   2.615
 6018SOL     OW18952   2.324   5.293   1.243
 6018SOL    HW118953   2.399   5.249   1.193
 6018SOL    HW218954   2.342   5.288   1.341
 6019SOL     OW18955   5.791   6.321   3.390
 6019SOL    HW118956   5.849   6.401   3.405
 6019SOL    HW218957   5.710   6.327   3.448
 6020SOL     OW18958   2.647   6.939   2.787
 6020SOL    HW118959   2.690   0.010   2.800
 6020SOL    HW218960   2.718   6.870   2.774
 6021SOL     OW18961   4.085   1.187   3.899
 6021SOL    HW118962   4.173   1.169   3.855
 6021SOL    HW218963   4.093   1.173   3.998
 6022SOL     OW18964   4.753   0.995   6.106
 6022SOL    HW118965   4.836   0.940   6.116
 6022SOL    HW218966   4.673   0.936   6.106
 6023SOL     OW18967   0.549   1.813   2.687
 6023SOL    HW118968   0.622   1.823   2.754
 6023SOL    HW218969   0.568   1.872   2.608
 6024SOL     OW18970   0.109   5.692   2.600
 6024SOL    HW118971   0.027   5.635   2.603
 6024SOL    HW218972   0.150   5.687   2.509
 6025SOL     OW18973   4.291   1.850   2.323
 6025SOL    HW118974   4.233   1.931   2.332
 6025SOL    HW218975   4.242   1.770   2.357
 6026SOL     OW18976   0.580   4.249   5.663
 6026SOL    HW118977   0.522   4.262   5.583
 6026SOL    HW218978   0.620   4.157   5.661
 6027SOL     OW18979   3.302   2.826   0.277
 6027SOL    HW118980   3.386   2.880   0.269
 6027SOL    HW218981   3.230   2.867   0.220
 6028SOL     OW18982   1.075   4.456   0.242
 6028SOL    HW118983   1.075   4.357   0.245
 6028SOL    HW218984   1.152   4.491   0.296
 6029SOL     OW18985   0.669   4.926   2.090
 6029SOL    HW118986   0.683   5.001   2.026
 6029SOL    HW218987   0.641   4.844   2.041
 6030SOL     OW18988   1.955   0.253   1.056
 6030SOL    HW118989   1.981   0.169   1.105
 6030SOL    HW218990   1.965   0.332   1.117
 6031SOL     OW18991   5.089   0.728   4.126
 6031SOL    HW118992   5.087   0.694   4.032
 6031SOL    HW218993   5.180   0.711   4.165
 6032SOL     OW18994   0.269   3.612   2.722
 6032SOL    HW118995   0.172   3.635   2.712
 6032SOL    HW218996   0.296   3.552   2.647
 6033SOL     OW18997   7.014   6.754   4.688
 6033SOL    HW118998   6.946   6.697   4.641
 6033SOL    HW218999   0.044   6.700   4.756
 6034SOL     OW19000   2.333   4.270   5.204
 6034SOL    HW119001   2.317   4.193   5.141
 6034SOL    HW219002   2.429   4.271   5.230
 6035SOL     OW19003   5.511   6.774   3.773
 6035SOL    HW119004   5.471   6.730   3.692
 6035SOL    HW219005   5.464   6.742   3.855
 6036SOL     OW19006   0.371   0.831   4.088
 6036SOL    HW119007   0.381   0.800   4.183
 6036SOL    HW219008   0.286   0.884   4.080
 6037SOL     OW19009   0.412   5.647   4.747
 6037SOL    HW119010   0.344   5.718   4.764
 6037SOL    HW219011   0.479   5.680   4.680
 6038SOL     OW19012   5.745   4.045   6.332
 6038SOL    HW119013   5.682   3.972   6.304
 6038SOL    HW219014   5.716   4.132   6.292
 6039SOL     OW19015   3.961   3.140   4.226
 6039SOL    HW119016   3.950   3.112   4.322
 6039SOL    HW219017   3.931   3.066   4.166
 6040SOL     OW19018   1.469   1.259   0.317
 6040SOL    HW119019   1.454   1.341   0.262
 6040SOL    HW219020   1.381   1.215   0.336
 6041SOL     OW19021   0.728   2.376   0.571
 6041SOL    HW119022   0.812   2.402   0.523
 6041SOL    HW219023   0.701   2.449   0.633
 6042SOL     OW19024   5.543   5.919   4.831
 6042SOL    HW119025   5.455   5.942   4.789
 6042SOL    HW219026   5.535   5.925   4.930
 6043SOL     OW19027   0.072   4.550   4.040
 6043SOL    HW119028   0.016   4.536   3.958
 6043SOL    HW219029   0.038   4.631   4.090
 6044SOL     OW19030   1.160   0.562   1.450
 6044SOL    HW119031   1.243   0.613   1.425
 6044SOL    HW219032   1.185   0.480   1.501
 6045SOL     OW19033   0.055   4.198   1.075
 6045SOL    HW119034   7.011   4.122   1.056
 6045SOL    HW219035   0.020   4.281   1.034
 6046SOL     OW19036   2.736   3.440   0.580
 6046SOL    HW119037   2.747   3.353   0.629
 6046SOL    HW219038   2.818   3.496   0.593
 6047SOL     OW19039   0.317   6.119   4.710
 6047SOL    HW119040   0.250   6.156   4.774
 6047SOL    HW219041   0.389   6.186   4.694
 6048SOL     OW19042   5.065   5.940   4.586
 6048SOL    HW119043   5.029   5.850   4.563
 6048SOL    HW219044   4.992   5.996   4.626
 6049SOL     OW19045   6.340   5.965   0.336
 6049SOL    HW119046   6.257   5.909   0.336
 6049SOL    HW219047   6.383   5.960   0.426
 6050SOL     OW19048   5.911   4.134   5.751
 6050SOL    HW119049   5.818   4.128   5.714
 6050SOL    HW219050   5.915   4.211   5.816
 6051SOL     OW19051   2.951   2.014   2.997
 6051SOL    HW119052   2.890   1.957   2.941
 6051SOL    HW219053   2.996   1.956   3.066
 6052SOL     OW19054   6.628   1.191   0.522
 6052SOL    HW119055   6.642   1.097   0.489
 6052SOL    HW219056   6.540   1.196   0.569
 6053SOL     OW19057   1.965   0.314   6.101
 6053SOL    HW119058   2.043   0.290   6.043
 6053SOL    HW219059   1.984   0.289   6.196
 6054SOL     OW19060   1.964   4.529   6.592
 6054SOL    HW119061   2.044   4.587   6.576
 6054SOL    HW219062   1.949   4.471   6.512
 6055SOL     OW19063   4.970   0.376   3.731
 6055SOL    HW119064   5.019   0.455   3.695
 6055SOL    HW219065   5.000   0.293   3.684
 6056SOL     OW19066   5.108   3.771   6.212
 6056SOL    HW119067   5.061   3.783   6.300
 6056SOL    HW219068   5.048   3.725   6.148
 6057SOL     OW19069   3.716   0.774   6.234
 6057SOL    HW119070   3.645   0.719   6.191
 6057SOL    HW219071   3.674   0.852   6.282
 6058SOL     OW19072   5.206   1.563   4.578
 6058SOL    HW119073   5.153   1.630   4.525
 6058SOL    HW219074   5.220   1.598   4.670
 6059SOL     OW19075   6.466   6.691   6.017
 6059SOL    HW119076   6.421   6.729   6.097
 6059SOL    HW219077   6.557   6.732   6.007
 6060SOL     OW19078   3.049   6.503   6.652
 6060SOL    HW119079   2.961   6.460   6.631
 6060SOL    HW219080   3.075   6.481   6.746
 6061SOL     OW19081   1.931   1.750   6.937
 6061SOL    HW119082   1.889   1.675   6.988
 6061SOL    HW219083   2.025   1.763   6.967
 6062SOL     OW19084   1.515   0.196   4.232
 6062SOL    HW119085   1.558   0.169   4.319
 6062SOL    HW219086   1.533   0.126   4.163
 6063SOL     OW19087   5.367   5.939   0.262
 6063SOL    HW119088   5.463   5.914   0.259
 6063SOL    HW219089   5.339   5.974   0.172
 6064SOL     OW19090   0.772   5.269   3.180
 6064SOL    HW119091   0.858   5.295   3.137
 6064SOL    HW219092   0.696   5.312   3.132
 6065SOL     OW19093   5.870   6.755   1.887
 6065SOL    HW119094   5.917   6.746   1.800
 6065SOL    HW219095   5.929   6.804   1.952
 6066SOL     OW19096   4.828   2.083   6.060
 6066SOL    HW119097   4.923   2.115   6.064
 6066SOL    HW219098   4.767   2.161   6.052
 6067SOL     OW19099   5.074   2.197   6.373
 6067SOL    HW119100   5.166   2.181   6.410
 6067SOL    HW219101   5.063   2.146   6.288
 6068SOL     OW19102   4.905   1.545   5.679
 6068SOL    HW119103   4.962   1.618   5.641
 6068SOL    HW219104   4.946   1.509   5.762
 6069SOL     OW19105   5.902   4.313   4.746
 6069SOL    HW119106   5.820   4.260   4.721
 6069SOL    HW219107   5.923   4.378   4.673
 6070SOL     OW19108   4.273   2.955   6.393
 6070SOL    HW119109   4.190   3.008   6.376
 6070SOL    HW219110   4.270   2.870   6.340
 6071SOL     OW19111   4.796   6.367   5.671
 6071SOL    HW119112   4.775   6.306   5.594
 6071SOL    HW219113   4.885   6.409   5.656
 6072SOL     OW19114   0.052   1.465   0.726
 6072SOL    HW119115   0.029   1.371   0.702
 6072SOL    HW219116   0.015   1.527   0.657
 6073SOL     OW19117   6.634   1.560   1.185
 6073SOL    HW119118   6.546   1.532   1.145
 6073SOL    HW219119   6.618   1.634   1.250
 6074SOL     OW19120   0.885   0.025   5.365
 6074SOL    HW119121   0.921   0.111   5.402
 6074SOL    HW219122   0.788   0.036   5.345
 6075SOL     OW19123   5.045   4.341   6.219
 6075SOL    HW119124   5.058   4.242   6.214
 6075SOL    HW219125   5.128   4.383   6.256
 6076SOL     OW19126   2.806   0.327   4.130
 6076SOL    HW119127   2.743   0.305   4.055
 6076SOL    HW219128   2.765   0.396   4.189
 6077SOL     OW19129   5.476   5.108   2.858
 6077SOL    HW119130   5.505   5.065   2.944
 6077SOL    HW219131   5.544   5.089   2.787
 6078SOL     OW19132   2.226   4.750   3.504
 6078SOL    HW119133   2.282   4.744   3.421
 6078SOL    HW219134   2.155   4.820   3.492
 6079SOL     OW19135   2.673   1.568   0.924
 6079SOL    HW119136   2.575   1.589   0.923
 6079SOL    HW219137   2.719   1.626   0.991
 6080SOL     OW19138   5.612   2.475   2.920
 6080SOL    HW119139   5.668   2.408   2.870
 6080SOL    HW219140   5.571   2.431   3.000
 6081SOL     OW19141   0.961   3.986   2.664
 6081SOL    HW119142   0.896   3.968   2.591
 6081SOL    HW219143   1.040   3.925   2.656
 6082SOL     OW19144   3.438   1.947   4.271
 6082SOL    HW119145   3.374   1.973   4.198
 6082SOL    HW219146   3.405   1.981   4.359
 6083SOL     OW19147   2.017   0.145   0.320
 6083SOL    HW119148   1.931   0.120   0.364
 6083SOL    HW219149   2.046   0.235   0.351
 6084SOL     OW19150   0.370   4.988   5.849
 6084SOL    HW119151   0.353   5.026   5.758
 6084SOL    HW219152   0.350   5.057   5.919
 6085SOL     OW19153   5.154   5.602   1.607
 6085SOL    HW119154   5.244   5.621   1.646
 6085SOL    HW219155   5.148   5.505   1.583
 6086SOL     OW19156   2.816   1.851   2.858
 6086SOL    HW119157   2.895   1.815   2.808
 6086SOL    HW219158   2.736   1.793   2.842
 6087SOL     OW19159   3.549   0.361   1.070
 6087SOL    HW119160   3.518   0.348   0.976
 6087SOL    HW219161   3.481   0.324   1.133
 6088SOL     OW19162   0.343   6.929   5.821
 6088SOL    HW119163   0.325   6.901   5.915
 6088SOL    HW219164   0.279   6.881   5.760
 6089SOL     OW19165   6.097   3.561   0.346
 6089SOL    HW119166   6.176   3.501   0.338
 6089SOL    HW219167   6.106   3.637   0.282
 6090SOL     OW19168   0.326   5.615   4.046
 6090SOL    HW119169   0.274   5.699   4.027
 6090SOL    HW219170   0.423   5.632   4.028
 6091SOL     OW19171   6.332   2.119   1.430
 6091SOL    HW119172   6.310   2.110   1.527
 6091SOL    HW219173   6.280   2.052   1.377
 6092SOL     OW19174   1.627   2.981   0.870
 6092SOL    HW119175   1.687   3.051   0.907
 6092SOL    HW219176   1.673   2.892   0.873
 6093SOL     OW19177   1.249   3.696   0.628
 6093SOL    HW119178   1.200   3.645   0.698
 6093SOL    HW219179   1.215   3.670   0.538
 6094SOL     OW19180   0.717   0.996   0.876
 6094SOL    HW119181   0.805   1.002   0.923
 6094SOL    HW219182   0.683   1.088   0.856
 6095SOL     OW19183   6.396   3.746   5.424
 6095SOL    HW119184   6.469   3.685   5.455
 6095SOL    HW219185   6.309   3.713   5.461
 6096SOL     OW19186   4.567   1.514   2.948
 6096SOL    HW119187   4.659   1.537   2.978
 6096SOL    HW219188   4.531   1.588   2.891
 6097SOL     OW19189   3.323   1.875   2.212
 6097SOL    HW119190   3.270   1.898   2.131
 6097SOL    HW219191   3.362   1.783   2.201
 6098SOL     OW19192   1.524   0.981   6.516
 6098SOL    HW119193   1.585   0.993   6.595
 6098SOL    HW219194   1.573   0.931   6.445
 6099SOL     OW19195   5.886   4.423   5.432
 6099SOL    HW119196   5.819   4.494   5.411
 6099SOL    HW219197   5.873   4.392   5.526
 6100SOL     OW19198   6.895   2.351   0.091
 6100SOL    HW119199   6.917   2.446   0.111
 6100SOL    HW219200   6.795   2.339   0.093
 6101SOL     OW19201   6.190   0.028   3.573
 6101SOL    HW119202   6.132   0.038   3.493
 6101SOL    HW219203   6.183   6.952   3.608
 6102SOL     OW19204   3.164   0.183   5.070
 6102SOL    HW119205   3.248   0.161   5.120
 6102SOL    HW219206   3.156   0.124   4.990
 6103SOL     OW19207   5.963   1.160   5.504
 6103SOL    HW119208   5.986   1.064   5.519
 6103SOL    HW219209   5.942   1.203   5.592
 6104SOL     OW19210   1.483   3.559   0.960
 6104SOL    HW119211   1.474   3.515   1.050
 6104SOL    HW219212   1.580   3.565   0.936
 6105SOL     OW19213   3.507   4.918   4.602
 6105SOL    HW119214   3.415   4.897   4.568
 6105SOL    HW219215   3.549   4.987   4.544
 6106SOL     OW19216   2.989   4.896   4.106
 6106SOL    HW119217   2.999   4.861   4.013
 6106SOL    HW219218   3.071   4.873   4.159
 6107SOL     OW19219   2.104   4.901   5.531
 6107SOL    HW119220   2.154   4.814   5.523
 6107SOL    HW219221   2.048   4.900   5.614
 6108SOL     OW19222   5.603   1.382   4.347
 6108SOL    HW119223   5.578   1.478   4.331
 6108SOL    HW219224   5.689   1.362   4.300
 6109SOL     OW19225   6.512   4.400   1.747
 6109SOL    HW119226   6.548   4.328   1.806
 6109SOL    HW219227   6.414   4.412   1.763
 6110SOL     OW19228   3.571   2.140   3.331
 6110SOL    HW119229   3.612   2.134   3.240
 6110SOL    HW219230   3.624   2.085   3.395
 6111SOL     OW19231   0.191   4.364   3.250
 6111SOL    HW119232   0.203   4.284   3.191
 6111SOL    HW219233   0.260   4.362   3.323
 6112SOL     OW19234   0.962   2.228   1.307
 6112SOL    HW119235   1.009   2.278   1.234
 6112SOL    HW219236   0.998   2.257   1.396
 6113SOL     OW19237   1.735   5.221   5.545
 6113SOL    HW119238   1.823   5.228   5.497
 6113SOL    HW219239   1.716   5.126   5.568
 6114SOL     OW19240   5.515   5.344   0.944
 6114SOL    HW119241   5.531   5.337   1.042
 6114SOL    HW219242   5.417   5.334   0.925
 6115SOL     OW19243   6.438   4.413   2.170
 6115SOL    HW119244   6.391   4.367   2.095
 6115SOL    HW219245   6.379   4.414   2.250
 6116SOL     OW19246   3.573   1.995   0.988
 6116SOL    HW119247   3.585   2.076   0.931
 6116SOL    HW219248   3.497   2.010   1.052
 6117SOL     OW19249   5.852   6.835   3.784
 6117SOL    HW119250   5.812   6.743   3.791
 6117SOL    HW219251   5.784   6.898   3.747
 6118SOL     OW19252   6.270   0.342   3.157
 6118SOL    HW119253   6.304   0.295   3.075
 6118SOL    HW219254   6.273   0.279   3.234
 6119SOL     OW19255   6.194   5.878   4.136
 6119SOL    HW119256   6.203   5.923   4.225
 6119SOL    HW219257   6.131   5.801   4.145
 6120SOL     OW19258   2.621   1.603   3.468
 6120SOL    HW119259   2.618   1.559   3.378
 6120SOL    HW219260   2.689   1.556   3.525
 6121SOL     OW19261   6.528   1.932   4.428
 6121SOL    HW119262   6.550   1.845   4.384
 6121SOL    HW219263   6.528   1.921   4.527
 6122SOL     OW19264   4.276   6.424   4.201
 6122SOL    HW119265   4.360   6.461   4.162
 6122SOL    HW219266   4.224   6.498   4.244
 6123SOL     OW19267   6.239   1.793   2.686
 6123SOL    HW119268   6.215   1.884   2.654
 6123SOL    HW219269   6.168   1.728   2.657
 6124SOL     OW19270   2.910   0.251   5.128
 6124SOL    HW119271   2.997   0.243   5.079
 6124SOL    HW219272   2.851   0.175   5.102
 6125SOL     OW19273   0.639   5.140   2.274
 6125SOL    HW119274   0.634   5.108   2.369
 6125SOL    HW219275   0.642   5.061   2.213
 6126SOL     OW19276   4.202   6.089   2.342
 6126SOL    HW119277   4.266   6.084   2.266
 6126SOL    HW219278   4.166   6.182   2.351
 6127SOL     OW19279   2.035   4.953   1.849
 6127SOL    HW119280   2.053   4.855   1.843
 6127SOL    HW219281   2.085   4.992   1.927
 6128SOL     OW19282   5.111   3.029   1.360
 6128SOL    HW119283   5.201   2.998   1.330
 6128SOL    HW219284   5.087   2.984   1.446
 6129SOL     OW19285   6.297   3.983   3.538
 6129SOL    HW119286   6.377   3.932   3.506
 6129SOL    HW219287   6.325   4.076   3.561
 6130SOL     OW19288   5.288   4.668   1.996
 6130SOL    HW119289   5.377   4.666   1.951
 6130SOL    HW219290   5.235   4.746   1.963
 6131SOL     OW19291   6.683   1.490   5.191
 6131SOL    HW119292   6.705   1.405   5.240
 6131SOL    HW219293   6.703   1.568   5.250
 6132SOL     OW19294   6.865   2.893   0.556
 6132SOL    HW119295   6.850   2.935   0.646
 6132SOL    HW219296   6.813   2.944   0.487
 6133SOL     OW19297   0.947   4.202   0.817
 6133SOL    HW119298   0.876   4.270   0.798
 6133SOL    HW219299   0.971   4.204   0.914
 6134SOL     OW19300   4.297   3.778   0.026
 6134SOL    HW119301   4.328   3.719   6.970
 6134SOL    HW219302   4.372   3.793   0.091
 6135SOL     OW19303   5.610   0.326   2.814
 6135SOL    HW119304   5.616   0.227   2.800
 6135SOL    HW219305   5.632   0.348   2.910
 6136SOL     OW19306   0.481   1.536   2.691
 6136SOL    HW119307   0.524   1.468   2.632
 6136SOL    HW219308   0.509   1.628   2.663
 6137SOL     OW19309   3.130   6.852   6.308
 6137SOL    HW119310   3.196   6.780   6.328
 6137SOL    HW219311   3.178   6.939   6.294
 6138SOL     OW19312   5.280   0.273   3.111
 6138SOL    HW119313   5.210   0.231   3.169
 6138SOL    HW219314   5.316   0.205   3.047
 6139SOL     OW19315   2.460   5.665   3.298
 6139SOL    HW119316   2.476   5.726   3.221
 6139SOL    HW219317   2.517   5.693   3.375
 6140SOL     OW19318   1.033   5.135   1.171
 6140SOL    HW119319   0.969   5.210   1.153
 6140SOL    HW219320   0.982   5.053   1.197
 6141SOL     OW19321   6.844   5.862   6.101
 6141SOL    HW119322   6.837   5.918   6.184
 6141SOL    HW219323   6.898   5.780   6.121
 6142SOL     OW19324   1.169   4.105   3.228
 6142SOL    HW119325   1.195   4.026   3.171
 6142SOL    HW219326   1.238   4.176   3.220
 6143SOL     OW19327   6.266   4.200   6.669
 6143SOL    HW119328   6.220   4.213   6.581
 6143SOL    HW219329   6.321   4.116   6.666
 6144SOL     OW19330   6.863   4.574   4.356
 6144SOL    HW119331   6.837   4.653   4.412
 6144SOL    HW219332   6.962   4.563   4.357
 6145SOL     OW19333   5.859   5.504   3.120
 6145SOL    HW119334   5.821   5.558   3.045
 6145SOL    HW219335   5.822   5.411   3.116
 6146SOL     OW19336   5.626   2.759   3.513
 6146SOL    HW119337   5.706   2.761   3.454
 6146SOL    HW219338   5.570   2.680   3.491
 6147SOL     OW19339   1.061   4.120   2.885
 6147SOL    HW119340   1.117   4.064   2.946
 6147SOL    HW219341   1.035   4.067   2.804
 6148SOL     OW19342   6.372   5.483   3.218
 6148SOL    HW119343   6.347   5.386   3.227
 6148SOL    HW219344   6.332   5.521   3.135
 6149SOL     OW19345   2.064   6.424   4.846
 6149SOL    HW119346   2.108   6.357   4.905
 6149SOL    HW219347   2.008   6.377   4.778
 6150SOL     OW19348   4.355   5.862   6.146
 6150SOL    HW119349   4.442   5.821   6.122
 6150SOL    HW219350   4.348   5.873   6.245
 6151SOL     OW19351   4.649   0.215   5.593
 6151SOL    HW119352   4.615   0.161   5.517
 6151SOL    HW219353   4.592   0.200   5.674
 6152SOL     OW19354   6.876   4.758   5.184
 6152SOL    HW119355   6.844   4.825   5.252
 6152SOL    HW219356   6.802   4.695   5.162
 6153SOL     OW19357   4.572   4.744   6.654
 6153SOL    HW119358   4.562   4.821   6.717
 6153SOL    HW219359   4.491   4.686   6.659
 6154SOL     OW19360   5.315   2.793   3.853
 6154SOL    HW119361   5.346   2.839   3.770
 6154SOL    HW219362   5.289   2.862   3.922
 6155SOL     OW19363   2.437   4.569   4.314
 6155SOL    HW119364   2.395   4.550   4.403
 6155SOL    HW219365   2.424   4.665   4.290
 6156SOL     OW19366   5.848   0.736   4.749
 6156SOL    HW119367   5.843   0.781   4.839
 6156SOL    HW219368   5.943   0.736   4.717
 6157SOL     OW19369   1.003   1.472   3.652
 6157SOL    HW119370   1.005   1.376   3.680
 6157SOL    HW219371   1.005   1.531   3.733
 6158SOL     OW19372   5.144   6.881   0.359
 6158SOL    HW119373   5.111   6.915   0.271
 6158SOL    HW219374   5.106   6.938   0.432
 6159SOL     OW19375   5.315   3.432   6.735
 6159SOL    HW119376   5.327   3.416   6.833
 6159SOL    HW219377   5.272   3.352   6.694
 6160SOL     OW19378   6.518   4.566   0.758
 6160SOL    HW119379   6.464   4.650   0.757
 6160SOL    HW219380   6.484   4.504   0.687
 6161SOL     OW19381   5.716   0.291   6.533
 6161SOL    HW119382   5.736   0.194   6.522
 6161SOL    HW219383   5.741   0.320   6.626
 6162SOL     OW19384   5.667   5.245   4.378
 6162SOL    HW119385   5.666   5.202   4.469
 6162SOL    HW219386   5.752   5.297   4.366
 6163SOL     OW19387   6.703   4.113   2.086
 6163SOL    HW119388   6.648   4.134   2.005
 6163SOL    HW219389   6.796   4.147   2.072
 6164SOL     OW19390   4.812   2.643   0.594
 6164SOL    HW119391   4.832   2.730   0.548
 6164SOL    HW219392   4.853   2.568   0.543
 6165SOL     OW19393   4.101   0.237   1.678
 6165SOL    HW119394   4.053   0.214   1.594
 6165SOL    HW219395   4.036   0.241   1.754
 6166SOL     OW19396   3.997   1.356   0.658
 6166SOL    HW119397   4.009   1.418   0.735
 6166SOL    HW219398   3.914   1.382   0.607
 6167SOL     OW19399   0.053   5.301   3.633
 6167SOL    HW119400   0.036   5.395   3.663
 6167SOL    HW219401   7.000   5.241   3.668
 6168SOL     OW19402   0.762   3.003   1.009
 6168SOL    HW119403   0.763   2.916   1.058
 6168SOL    HW219404   0.826   3.066   1.052
 6169SOL     OW19405   1.953   4.556   1.608
 6169SOL    HW119406   1.868   4.566   1.659
 6169SOL    HW219407   1.998   4.471   1.634
 6170SOL     OW19408   6.888   1.847   3.726
 6170SOL    HW119409   6.902   1.866   3.629
 6170SOL    HW219410   6.791   1.856   3.749
 6171SOL     OW19411   5.886   0.836   6.017
 6171SOL    HW119412   5.856   0.862   5.925
 6171SOL    HW219413   5.837   0.892   6.084
 6172SOL     OW19414   1.087   4.546   4.378
 6172SOL    HW119415   1.019   4.587   4.318
 6172SOL    HW219416   1.119   4.614   4.444
 6173SOL     OW19417   5.603   6.068   3.037
 6173SOL    HW119418   5.627   6.071   2.940
 6173SOL    HW219419   5.680   6.103   3.091
 6174SOL     OW19420   6.584   2.749   2.805
 6174SOL    HW119421   6.618   2.795   2.723
 6174SOL    HW219422   6.609   2.802   2.886
 6175SOL     OW19423   3.923   1.978   6.989
 6175SOL    HW119424   3.947   1.997   0.066
 6175SOL    HW219425   3.989   2.022   6.929
 6176SOL     OW19426   3.010   3.555   5.928
 6176SOL    HW119427   3.072   3.607   5.870
 6176SOL    HW219428   3.049   3.464   5.945
 6177SOL     OW19429   6.156   5.597   1.456
 6177SOL    HW119430   6.125   5.645   1.374
 6177SOL    HW219431   6.207   5.515   1.430
 6178SOL     OW19432   4.203   4.909   1.943
 6178SOL    HW119433   4.106   4.901   1.918
 6178SOL    HW219434   4.238   4.819   1.968
 6179SOL     OW19435   5.830   5.037   5.004
 6179SOL    HW119436   5.838   5.079   4.913
 6179SOL    HW219437   5.914   5.053   5.055
 6180SOL     OW19438   2.309   4.010   6.370
 6180SOL    HW119439   2.221   4.008   6.418
 6180SOL    HW219440   2.380   4.043   6.432
 6181SOL     OW19441   6.190   6.282   0.003
 6181SOL    HW119442   6.252   6.203   0.004
 6181SOL    HW219443   6.235   6.357   6.973
 6182SOL     OW19444   2.900   2.460   6.497
 6182SOL    HW119445   2.993   2.478   6.527
 6182SOL    HW219446   2.899   2.379   6.438
 6183SOL     OW19447   0.105   0.607   0.471
 6183SOL    HW119448   0.151   0.682   0.424
 6183SOL    HW219449   0.041   0.644   0.538
 6184SOL     OW19450   3.351   6.653   5.279
 6184SOL    HW119451   3.274   6.698   5.233
 6184SOL    HW219452   3.406   6.722   5.327
 6185SOL     OW19453   3.463   3.158   5.316
 6185SOL    HW119454   3.529   3.183   5.387
 6185SOL    HW219455   3.494   3.076   5.269
 6186SOL     OW19456   1.341   1.914   2.805
 6186SOL    HW119457   1.419   1.909   2.867
 6186SOL    HW219458   1.326   2.009   2.778
 6187SOL     OW19459   2.883   1.943   6.291
 6187SOL    HW119460   2.880   2.042   6.276
 6187SOL    HW219461   2.809   1.916   6.353
 6188SOL     OW19462   2.228   1.416   5.637
 6188SOL    HW119463   2.192   1.399   5.545
 6188SOL    HW219464   2.328   1.417   5.633
 6189SOL     OW19465   6.647   5.286   0.592
 6189SOL    HW119466   6.599   5.210   0.638
 6189SOL    HW219467   6.587   5.326   0.523
 6190SOL     OW19468   0.194   3.183   3.746
 6190SOL    HW119469   0.241   3.164   3.660
 6190SOL    HW219470   0.220   3.273   3.779
 6191SOL     OW19471   2.314   4.093   1.139
 6191SOL    HW119472   2.360   4.067   1.054
 6191SOL    HW219473   2.225   4.048   1.144
 6192SOL     OW19474   2.956   1.870   1.327
 6192SOL    HW119475   2.989   1.795   1.269
 6192SOL    HW219476   3.026   1.893   1.394
 6193SOL     OW19477   4.067   6.230   6.881
 6193SOL    HW119478   4.101   6.319   6.852
 6193SOL    HW219479   3.967   6.231   6.883
 6194SOL     OW19480   5.475   6.920   6.328
 6194SOL    HW119481   5.554   6.909   6.268
 6194SOL    HW219482   5.472   6.845   6.395
 6195SOL     OW19483   4.985   6.117   6.141
 6195SOL    HW119484   5.009   6.086   6.233
 6195SOL    HW219485   5.059   6.093   6.078
 6196SOL     OW19486   5.795   3.469   3.482
 6196SOL    HW119487   5.842   3.398   3.430
 6196SOL    HW219488   5.698   3.470   3.457
 6197SOL     OW19489   0.939   5.417   1.155
 6197SOL    HW119490   0.952   5.516   1.148
 6197SOL    HW219491   0.904   5.381   1.069
 6198SOL     OW19492   5.800   1.182   6.467
 6198SOL    HW119493   5.855   1.264   6.455
 6198SOL    HW219494   5.858   1.101   6.460
 6199SOL     OW19495   2.198   6.397   6.281
 6199SOL    HW119496   2.149   6.310   6.276
 6199SOL    HW219497   2.164   6.450   6.359
 6200SOL     OW19498   1.334   0.307   0.787
 6200SOL    HW119499   1.336   0.224   0.731
 6200SOL    HW219500   1.380   0.381   0.739
 6201SOL     OW19501   0.516   4.793   3.220
 6201SOL    HW119502   0.565   4.783   3.133
 6201SOL    HW219503   0.458   4.875   3.216
 6202SOL     OW19504   5.761   0.466   2.199
 6202SOL    HW119505   5.801   0.450   2.290
 6202SOL    HW219506   5.684   0.529   2.207
 6203SOL     OW19507   6.525   0.290   1.904
 6203SOL    HW119508   6.564   0.361   1.845
 6203SOL    HW219509   6.556   0.200   1.873
 6204SOL     OW19510   1.512   5.678   4.811
 6204SOL    HW119511   1.423   5.646   4.777
 6204SOL    HW219512   1.527   5.772   4.781
 6205SOL     OW19513   5.931   4.791   3.636
 6205SOL    HW119514   6.020   4.782   3.681
 6205SOL    HW219515   5.864   4.734   3.683
 6206SOL     OW19516   5.641   2.123   3.428
 6206SOL    HW119517   5.581   2.130   3.508
 6206SOL    HW219518   5.620   2.039   3.378
 6207SOL     OW19519   1.744   5.762   3.683
 6207SOL    HW119520   1.789   5.675   3.665
 6207SOL    HW219521   1.747   5.782   3.781
 6208SOL     OW19522   3.987   4.525   6.338
 6208SOL    HW119523   3.958   4.576   6.257
 6208SOL    HW219524   4.032   4.440   6.310
 6209SOL     OW19525   3.759   1.305   2.005
 6209SOL    HW119526   3.783   1.328   2.100
 6209SOL    HW219527   3.739   1.388   1.954
 6210SOL     OW19528   5.714   1.046   4.179
 6210SOL    HW119529   5.694   0.981   4.105
 6210SOL    HW219530   5.695   1.139   4.148
 6211SOL     OW19531   5.327   3.472   5.098
 6211SOL    HW119532   5.278   3.406   5.154
 6211SOL    HW219533   5.362   3.427   5.016
 6212SOL     OW19534   5.256   4.539   5.148
 6212SOL    HW119535   5.219   4.447   5.136
 6212SOL    HW219536   5.307   4.565   5.066
 6213SOL     OW19537   4.872   6.079   0.451
 6213SOL    HW119538   4.801   6.068   0.520
 6213SOL    HW219539   4.831   6.114   0.367
 6214SOL     OW19540   5.964   0.171   6.738
 6214SOL    HW119541   5.905   0.251   6.730
 6214SOL    HW219542   6.060   0.199   6.739
 6215SOL     OW19543   5.743   1.880   5.322
 6215SOL    HW119544   5.664   1.827   5.289
 6215SOL    HW219545   5.823   1.859   5.266
 6216SOL     OW19546   4.670   1.706   5.115
 6216SOL    HW119547   4.697   1.758   5.034
 6216SOL    HW219548   4.615   1.764   5.175
 6217SOL     OW19549   0.294   4.098   2.287
 6217SOL    HW119550   0.212   4.099   2.345
 6217SOL    HW219551   0.303   4.186   2.240
 6218SOL     OW19552   4.435   6.367   1.133
 6218SOL    HW119553   4.353   6.393   1.082
 6218SOL    HW219554   4.455   6.437   1.201
 6219SOL     OW19555   2.061   0.338   6.995
 6219SOL    HW119556   2.101   0.261   0.027
 6219SOL    HW219557   2.052   0.314   6.899
 6220SOL     OW19558   3.420   6.929   2.005
 6220SOL    HW119559   3.404   6.833   2.028
 6220SOL    HW219560   3.373   6.988   2.070
 6221SOL     OW19561   4.693   5.136   5.795
 6221SOL    HW119562   4.632   5.147   5.874
 6221SOL    HW219563   4.746   5.219   5.782
 6222SOL     OW19564   6.883   1.454   2.335
 6222SOL    HW119565   6.829   1.369   2.342
 6222SOL    HW219566   6.821   1.532   2.334
 6223SOL     OW19567   6.628   4.602   4.583
 6223SOL    HW119568   6.624   4.563   4.675
 6223SOL    HW219569   6.717   4.647   4.570
 6224SOL     OW19570   3.600   6.496   0.077
 6224SOL    HW119571   3.589   6.583   0.125
 6224SOL    HW219572   3.606   6.513   6.997
 6225SOL     OW19573   4.864   6.363   6.253
 6225SOL    HW119574   4.923   6.297   6.207
 6225SOL    HW219575   4.769   6.344   6.230
 6226SOL     OW19576   0.855   0.813   4.049
 6226SOL    HW119577   0.757   0.802   4.034
 6226SOL    HW219578   0.901   0.725   4.035
 6227SOL     OW19579   2.652   5.225   5.951
 6227SOL    HW119580   2.676   5.310   5.904
 6227SOL    HW219581   2.626   5.156   5.884
 6228SOL     OW19582   0.852   3.064   3.378
 6228SOL    HW119583   0.866   3.153   3.422
 6228SOL    HW219584   0.940   3.017   3.370
 6229SOL     OW19585   0.432   4.003   4.285
 6229SOL    HW119586   0.496   4.008   4.208
 6229SOL    HW219587   0.361   3.936   4.264
 6230SOL     OW19588   0.622   0.613   1.659
 6230SOL    HW119589   0.547   0.558   1.695
 6230SOL    HW219590   0.705   0.595   1.711
 6231SOL     OW19591   2.364   5.358   5.868
 6231SOL    HW119592   2.399   5.267   5.844
 6231SOL    HW219593   2.395   5.425   5.801
 6232SOL     OW19594   4.346   0.493   6.676
 6232SOL    HW119595   4.249   0.510   6.696
 6232SOL    HW219596   4.395   0.474   6.761
 6233SOL     OW19597   0.137   3.519   0.973
 6233SOL    HW119598   0.201   3.495   1.045
 6233SOL    HW219599   0.165   3.476   0.887
 6234SOL     OW19600   5.000   5.317   3.986
 6234SOL    HW119601   5.076   5.256   4.007
 6234SOL    HW219602   5.012   5.356   3.895
 6235SOL     OW19603   0.614   0.997   1.962
 6235SOL    HW119604   0.706   0.996   1.922
 6235SOL    HW219605   0.559   0.924   1.920
 6236SOL     OW19606   6.521   5.790   1.459
 6236SOL    HW119607   6.529   5.843   1.374
 6236SOL    HW219608   6.612   5.773   1.497
 6237SOL     OW19609   3.356   0.955   2.415
 6237SOL    HW119610   3.390   0.883   2.475
 6237SOL    HW219611   3.305   1.023   2.469
 6238SOL     OW19612   2.523   0.979   3.353
 6238SOL    HW119613   2.616   1.005   3.331
 6238SOL    HW219614   2.524   0.908   3.424
 6239SOL     OW19615   4.585   1.645   4.394
 6239SOL    HW119616   4.662   1.637   4.457
 6239SOL    HW219617   4.601   1.587   4.314
 6240SOL     OW19618   4.127   3.373   4.100
 6240SOL    HW119619   4.044   3.429   4.098
 6240SOL    HW219620   4.102   3.277   4.107
 6241SOL     OW19621   3.723   0.052   3.577
 6241SOL    HW119622   3.807   7.016   3.582
 6241SOL    HW219623   3.745   0.146   3.553
 6242SOL     OW19624   3.305   2.064   4.048
 6242SOL    HW119625   3.334   2.126   3.975
 6242SOL    HW219626   3.246   1.993   4.010
 6243SOL     OW19627   4.354   1.426   0.043
 6243SOL    HW119628   4.369   1.337   0.086
 6243SOL    HW219629   4.325   1.413   6.966
 6244SOL     OW19630   4.508   2.541   1.945
 6244SOL    HW119631   4.486   2.491   2.028
 6244SOL    HW219632   4.595   2.590   1.958
 6245SOL     OW19633   0.088   5.248   2.238
 6245SOL    HW119634   0.185   5.265   2.256
 6245SOL    HW219635   0.032   5.297   2.305
 6246SOL     OW19636   0.473   6.697   4.946
 6246SOL    HW119637   0.505   6.769   4.885
 6246SOL    HW219638   0.450   6.616   4.893
 6247SOL     OW19639   5.627   5.377   2.952
 6247SOL    HW119640   5.581   5.376   3.042
 6247SOL    HW219641   5.597   5.298   2.899
 6248SOL     OW19642   4.271   2.726   5.662
 6248SOL    HW119643   4.352   2.740   5.604
 6248SOL    HW219644   4.296   2.740   5.758
 6249SOL     OW19645   5.576   3.703   3.502
 6249SOL    HW119646   5.664   3.737   3.471
 6249SOL    HW219647   5.543   3.758   3.578
 6250SOL     OW19648   5.670   6.914   6.082
 6250SOL    HW119649   5.734   6.855   6.033
 6250SOL    HW219650   5.595   6.940   6.021
 6251SOL     OW19651   2.860   0.754   4.467
 6251SOL    HW119652   2.908   0.808   4.535
 6251SOL    HW219653   2.925   0.720   4.399
 6252SOL     OW19654   2.735   5.567   0.548
 6252SOL    HW119655   2.750   5.534   0.641
 6252SOL    HW219656   2.667   5.641   0.550
 6253SOL     OW19657   4.882   6.242   3.915
 6253SOL    HW119658   4.795   6.193   3.910
 6253SOL    HW219659   4.866   6.340   3.922
 6254SOL     OW19660   0.484   0.149   1.397
 6254SOL    HW119661   0.443   0.156   1.488
 6254SOL    HW219662   0.513   0.240   1.366
 6255SOL     OW19663   1.778   1.480   0.890
 6255SOL    HW119664   1.854   1.418   0.874
 6255SOL    HW219665   1.758   1.531   0.806
 6256SOL     OW19666   5.995   5.573   2.163
 6256SOL    HW119667   5.950   5.587   2.252
 6256SOL    HW219668   6.040   5.484   2.162
 6257SOL     OW19669   3.522   3.658   0.867
 6257SOL    HW119670   3.515   3.715   0.949
 6257SOL    HW219671   3.601   3.597   0.875
 6258SOL     OW19672   4.234   5.184   4.763
 6258SOL    HW119673   4.251   5.085   4.757
 6258SOL    HW219674   4.143   5.200   4.800
 6259SOL     OW19675   4.202   0.871   4.917
 6259SOL    HW119676   4.113   0.867   4.872
 6259SOL    HW219677   4.193   0.844   5.013
 6260SOL     OW19678   2.854   1.868   0.691
 6260SOL    HW119679   2.787   1.804   0.727
 6260SOL    HW219680   2.808   1.945   0.648
 6261SOL     OW19681   3.752   0.191   0.774
 6261SOL    HW119682   3.783   0.195   0.679
 6261SOL    HW219683   3.747   0.095   0.803
 6262SOL     OW19684   6.215   0.870   2.457
 6262SOL    HW119685   6.171   0.898   2.542
 6262SOL    HW219686   6.304   0.916   2.449
 6263SOL     OW19687   6.013   5.990   6.314
 6263SOL    HW119688   5.949   5.924   6.275
 6263SOL    HW219689   6.026   5.970   6.411
 6264SOL     OW19690   1.275   5.975   0.562
 6264SOL    HW119691   1.286   5.994   0.465
 6264SOL    HW219692   1.359   6.000   0.611
 6265SOL     OW19693   3.476   0.165   6.900
 6265SOL    HW119694   3.412   0.091   6.921
 6265SOL    HW219695   3.532   0.140   6.822
 6266SOL     OW19696   3.654   5.272   2.900
 6266SOL    HW119697   3.641   5.261   2.998
 6266SOL    HW219698   3.623   5.189   2.853
 6267SOL     OW19699   0.549   6.212   4.369
 6267SOL    HW119700   0.598   6.138   4.414
 6267SOL    HW219701   0.450   6.197   4.377
 6268SOL     OW19702   3.602   1.717   1.368
 6268SOL    HW119703   3.576   1.629   1.327
 6268SOL    HW219704   3.662   1.766   1.304
 6269SOL     OW19705   6.600   6.301   6.802
 6269SOL    HW119706   6.637   6.366   6.869
 6269SOL    HW219707   6.651   6.308   6.717
 6270SOL     OW19708   1.402   6.306   0.852
 6270SOL    HW119709   1.457   6.319   0.935
 6270SOL    HW219710   1.456   6.336   0.773
 6271SOL     OW19711   6.582   2.986   6.413
 6271SOL    HW119712   6.679   2.986   6.389
 6271SOL    HW219713   6.569   3.036   6.499
 6272SOL     OW19714   0.667   1.356   6.847
 6272SOL    HW119715   0.729   1.317   6.915
 6272SOL    HW219716   0.666   1.456   6.857
 6273SOL     OW19717   0.313   6.173   2.891
 6273SOL    HW119718   0.401   6.202   2.854
 6273SOL    HW219719   0.248   6.159   2.816
 6274SOL     OW19720   2.818   6.017   3.769
 6274SOL    HW119721   2.898   6.045   3.716
 6274SOL    HW219722   2.777   5.936   3.728
 6275SOL     OW19723   2.383   5.852   0.259
 6275SOL    HW119724   2.391   5.899   0.171
 6275SOL    HW219725   2.441   5.771   0.259
 6276SOL     OW19726   2.035   5.557   2.364
 6276SOL    HW119727   1.982   5.473   2.380
 6276SOL    HW219728   2.132   5.538   2.379
 6277SOL     OW19729   5.104   2.422   1.160
 6277SOL    HW119730   5.083   2.375   1.245
 6277SOL    HW219731   5.088   2.521   1.171
 6278SOL     OW19732   3.864   2.419   0.568
 6278SOL    HW119733   3.931   2.479   0.611
 6278SOL    HW219734   3.874   2.326   0.606
 6279SOL     OW19735   2.370   6.445   2.045
 6279SOL    HW119736   2.449   6.384   2.055
 6279SOL    HW219737   2.383   6.526   2.102
 6280SOL     OW19738   5.153   1.312   6.080
 6280SOL    HW119739   5.221   1.312   6.007
 6280SOL    HW219740   5.061   1.316   6.041
 6281SOL     OW19741   5.065   4.074   6.225
 6281SOL    HW119742   5.117   4.030   6.298
 6281SOL    HW219743   5.121   4.076   6.141
 6282SOL     OW19744   0.901   3.616   5.537
 6282SOL    HW119745   0.886   3.518   5.550
 6282SOL    HW219746   0.996   3.638   5.557
 6283SOL     OW19747   2.691   0.212   4.394
 6283SOL    HW119748   2.622   0.155   4.438
 6283SOL    HW219749   2.656   0.305   4.383
 6284SOL     OW19750   1.506   3.310   5.498
 6284SOL    HW119751   1.603   3.288   5.493
 6284SOL    HW219752   1.455   3.255   5.432
 6285SOL     OW19753   1.182   3.835   2.676
 6285SOL    HW119754   1.204   3.823   2.773
 6285SOL    HW219755   1.266   3.857   2.626
 6286SOL     OW19756   0.645   2.318   6.704
 6286SOL    HW119757   0.587   2.296   6.782
 6286SOL    HW219758   0.698   2.238   6.677
 6287SOL     OW19759   4.743   4.687   4.697
 6287SOL    HW119760   4.682   4.763   4.719
 6287SOL    HW219761   4.790   4.656   4.780
 6288SOL     OW19762   2.965   3.253   6.219
 6288SOL    HW119763   3.024   3.288   6.147
 6288SOL    HW219764   2.923   3.167   6.189
 6289SOL     OW19765   2.065   4.578   4.509
 6289SOL    HW119766   2.159   4.581   4.542
 6289SOL    HW219767   2.065   4.560   4.410
 6290SOL     OW19768   6.555   6.894   3.806
 6290SOL    HW119769   6.500   6.811   3.793
 6290SOL    HW219770   6.504   6.960   3.860
 6291SOL     OW19771   3.591   3.582   1.835
 6291SOL    HW119772   3.612   3.588   1.933
 6291SOL    HW219773   3.648   3.511   1.794
 6292SOL     OW19774   1.544   4.773   4.909
 6292SOL    HW119775   1.557   4.779   5.008
 6292SOL    HW219776   1.572   4.860   4.867
 6293SOL     OW19777   2.765   1.259   6.324
 6293SOL    HW119778   2.718   1.344   6.302
 6293SOL    HW219779   2.701   1.182   6.316
 6294SOL     OW19780   1.884   1.289   2.418
 6294SOL    HW119781   1.867   1.191   2.419
 6294SOL    HW219782   1.981   1.307   2.433
 6295SOL     OW19783   4.666   3.683   6.705
 6295SOL    HW119784   4.684   3.587   6.726
 6295SOL    HW219785   4.752   3.733   6.700
 6296SOL     OW19786   0.811   2.832   0.098
 6296SOL    HW119787   0.752   2.911   0.080
 6296SOL    HW219788   0.907   2.862   0.097
 6297SOL     OW19789   6.508   1.337   3.933
 6297SOL    HW119790   6.526   1.259   3.992
 6297SOL    HW219791   6.465   1.306   3.848
 6298SOL     OW19792   0.035   6.742   0.308
 6298SOL    HW119793   0.115   6.758   0.367
 6298SOL    HW219794   6.995   6.824   0.309
 6299SOL     OW19795   3.619   2.111   3.974
 6299SOL    HW119796   3.648   2.035   3.915
 6299SOL    HW219797   3.519   2.114   3.978
 6300SOL     OW19798   2.964   2.155   0.851
 6300SOL    HW119799   2.868   2.126   0.850
 6300SOL    HW219800   3.001   2.150   0.758
 6301SOL     OW19801   3.500   6.171   0.319
 6301SOL    HW119802   3.595   6.158   0.291
 6301SOL    HW219803   3.440   6.121   0.256
 6302SOL     OW19804   1.525   3.321   0.297
 6302SOL    HW119805   1.509   3.223   0.287
 6302SOL    HW219806   1.478   3.354   0.379
 6303SOL     OW19807   6.869   4.769   4.553
 6303SOL    HW119808   6.807   4.845   4.536
 6303SOL    HW219809   6.963   4.799   4.538
 6304SOL     OW19810   2.747   0.859   4.099
 6304SOL    HW119811   2.816   0.890   4.165
 6304SOL    HW219812   2.759   0.762   4.081
 6305SOL     OW19813   0.687   5.698   5.770
 6305SOL    HW119814   0.593   5.663   5.766
 6305SOL    HW219815   0.750   5.626   5.738
 6306SOL     OW19816   0.729   4.405   4.308
 6306SOL    HW119817   0.770   4.354   4.384
 6306SOL    HW219818   0.782   4.389   4.225
 6307SOL     OW19819   3.163   3.051   2.708
 6307SOL    HW119820   3.174   3.002   2.622
 6307SOL    HW219821   3.253   3.065   2.750
 6308SOL     OW19822   1.097   2.012   1.028
 6308SOL    HW119823   0.999   2.026   1.019
 6308SOL    HW219824   1.115   1.941   1.096
 6309SOL     OW19825   1.857   5.913   4.656
 6309SOL    HW119826   1.950   5.924   4.692
 6309SOL    HW219827   1.791   5.940   4.726
 6310SOL     OW19828   0.438   6.976   3.582
 6310SOL    HW119829   0.342   6.986   3.605
 6310SOL    HW219830   0.458   0.011   3.499
 6311SOL     OW19831   6.469   1.087   6.716
 6311SOL    HW119832   6.451   1.002   6.766
 6311SOL    HW219833   6.566   1.109   6.722
 6312SOL     OW19834   3.177   5.504   1.218
 6312SOL    HW119835   3.274   5.527   1.206
 6312SOL    HW219836   3.122   5.559   1.156
 6313SOL     OW19837   5.680   5.173   3.987
 6313SOL    HW119838   5.683   5.127   3.898
 6313SOL    HW219839   5.659   5.107   4.058
 6314SOL     OW19840   2.067   6.582   3.153
 6314SOL    HW119841   2.075   6.620   3.246
 6314SOL    HW219842   1.973   6.594   3.121
 6315SOL     OW19843   2.417   2.296   3.721
 6315SOL    HW119844   2.377   2.242   3.795
 6315SOL    HW219845   2.422   2.241   3.638
 6316SOL     OW19846   4.607   0.459   5.186
 6316SOL    HW119847   4.675   0.446   5.113
 6316SOL    HW219848   4.651   0.499   5.266
 6317SOL     OW19849   4.644   4.666   2.681
 6317SOL    HW119850   4.742   4.654   2.661
 6317SOL    HW219851   4.634   4.703   2.773
 6318SOL     OW19852   6.711   0.022   0.365
 6318SOL    HW119853   6.720   0.113   0.405
 6318SOL    HW219854   6.782   0.010   0.295
 6319SOL     OW19855   4.801   2.377   4.561
 6319SOL    HW119856   4.741   2.390   4.483
 6319SOL    HW219857   4.852   2.292   4.551
 6320SOL     OW19858   6.500   1.845   6.075
 6320SOL    HW119859   6.428   1.862   6.009
 6320SOL    HW219860   6.560   1.772   6.042
 6321SOL     OW19861   0.807   2.994   0.454
 6321SOL    HW119862   0.896   2.958   0.480
 6321SOL    HW219863   0.820   3.075   0.397
 6322SOL     OW19864   1.536   1.644   2.974
 6322SOL    HW119865   1.446   1.681   2.998
 6322SOL    HW219866   1.555   1.565   3.032
 6323SOL     OW19867   1.759   5.594   1.194
 6323SOL    HW119868   1.734   5.685   1.162
 6323SOL    HW219869   1.692   5.562   1.261
 6324SOL     OW19870   4.649   2.855   1.381
 6324SOL    HW119871   4.626   2.764   1.414
 6324SOL    HW219872   4.574   2.890   1.324
 6325SOL     OW19873   1.391   3.466   3.310
 6325SOL    HW119874   1.333   3.385   3.319
 6325SOL    HW219875   1.442   3.480   3.395
 6326SOL     OW19876   4.978   5.085   5.376
 6326SOL    HW119877   4.966   5.176   5.414
 6326SOL    HW219878   5.026   5.027   5.442
 6327SOL     OW19879   0.608   1.012   2.992
 6327SOL    HW119880   0.629   0.921   2.956
 6327SOL    HW219881   0.664   1.080   2.946
 6328SOL     OW19882   4.205   3.337   5.376
 6328SOL    HW119883   4.193   3.365   5.281
 6328SOL    HW219884   4.283   3.386   5.416
 6329SOL     OW19885   0.634   2.841   5.215
 6329SOL    HW119886   0.717   2.874   5.171
 6329SOL    HW219887   0.645   2.745   5.241
 6330SOL     OW19888   4.377   2.055   3.720
 6330SOL    HW119889   4.321   1.974   3.739
 6330SOL    HW219890   4.438   2.036   3.643
 6331SOL     OW19891   1.517   3.710   4.025
 6331SOL    HW119892   1.548   3.719   3.930
 6331SOL    HW219893   1.559   3.783   4.080
 6332SOL     OW19894   4.196   1.567   0.582
 6332SOL    HW119895   4.151   1.488   0.540
 6332SOL    HW219896   4.196   1.556   0.682
 6333SOL     OW19897   5.410   0.688   0.587
 6333SOL    HW119898   5.421   0.685   0.487
 6333SOL    HW219899   5.495   0.657   0.630
 6334SOL     OW19900   2.256   1.040   1.922
 6334SOL    HW119901   2.288   0.957   1.877
 6334SOL    HW219902   2.240   1.111   1.853
 6335SOL     OW19903   6.709   3.213   6.183
 6335SOL    HW119904   6.743   3.201   6.276
 6335SOL    HW219905   6.651   3.136   6.158
 6336SOL     OW19906   1.133   4.372   5.491
 6336SOL    HW119907   1.128   4.317   5.574
 6336SOL    HW219908   1.044   4.415   5.474
 6337SOL     OW19909   6.111   0.039   4.779
 6337SOL    HW119910   6.049   0.021   4.702
 6337SOL    HW219911   6.090   0.129   4.817
 6338SOL     OW19912   0.659   0.536   2.999
 6338SOL    HW119913   0.696   0.556   3.090
 6338SOL    HW219914   0.654   0.620   2.945
 6339SOL     OW19915   0.361   3.623   3.199
 6339SOL    HW119916   0.387   3.599   3.293
 6339SOL    HW219917   0.261   3.627   3.193
 6340SOL     OW19918   2.691   5.414   6.741
 6340SOL    HW119919   2.685   5.506   6.703
 6340SOL    HW219920   2.751   5.357   6.685
 6341SOL     OW19921   0.516   4.651   2.588
 6341SOL    HW119922   0.507   4.615   2.681
 6341SOL    HW219923   0.613   4.666   2.568
 6342SOL     OW19924   2.193   0.831   1.691
 6342SOL    HW119925   2.205   0.798   1.597
 6342SOL    HW219926   2.095   0.837   1.712
 6343SOL     OW19927   1.187   5.785   6.938
 6343SOL    HW119928   1.181   5.693   6.975
 6343SOL    HW219929   1.282   5.817   6.943
 6344SOL     OW19930   1.144   1.284   4.692
 6344SOL    HW119931   1.132   1.325   4.602
 6344SOL    HW219932   1.112   1.347   4.762
 6345SOL     OW19933   6.420   3.090   2.677
 6345SOL    HW119934   6.514   3.062   2.697
 6345SOL    HW219935   6.383   3.031   2.605
 6346SOL     OW19936   0.572   4.624   5.038
 6346SOL    HW119937   0.542   4.606   4.944
 6346SOL    HW219938   0.494   4.660   5.091
 6347SOL     OW19939   2.040   2.494   3.748
 6347SOL    HW119940   2.098   2.504   3.829
 6347SOL    HW219941   2.001   2.402   3.746
 6348SOL     OW19942   0.840   2.512   6.641
 6348SOL    HW119943   0.928   2.497   6.595
 6348SOL    HW219944   0.796   2.423   6.656
 6349SOL     OW19945   5.584   0.735   1.135
 6349SOL    HW119946   5.527   0.816   1.119
 6349SOL    HW219947   5.526   0.659   1.166
 6350SOL     OW19948   0.553   6.088   0.976
 6350SOL    HW119949   0.550   6.004   0.921
 6350SOL    HW219950   0.631   6.143   0.948
 6351SOL     OW19951   6.004   2.958   2.017
 6351SOL    HW119952   6.033   2.915   2.102
 6351SOL    HW219953   6.057   2.919   1.941
 6352SOL     OW19954   4.333   0.816   4.293
 6352SOL    HW119955   4.302   0.777   4.379
 6352SOL    HW219956   4.256   0.824   4.230
 6353SOL     OW19957   3.413   6.765   5.617
 6353SOL    HW119958   3.329   6.802   5.577
 6353SOL    HW219959   3.450   6.830   5.683
 6354SOL     OW19960   5.391   4.876   2.332
 6354SOL    HW119961   5.425   4.783   2.322
 6354SOL    HW219962   5.337   4.901   2.252
 6355SOL     OW19963   4.379   5.880   0.545
 6355SOL    HW119964   4.311   5.949   0.570
 6355SOL    HW219965   4.411   5.896   0.451
 6356SOL     OW19966   6.730   6.764   5.969
 6356SOL    HW119967   6.763   6.828   6.038
 6356SOL    HW219968   6.789   6.684   5.966
 6357SOL     OW19969   4.872   1.802   3.080
 6357SOL    HW119970   4.961   1.772   3.046
 6357SOL    HW219971   4.850   1.892   3.042
 6358SOL     OW19972   1.239   1.628   4.275
 6358SOL    HW119973   1.253   1.719   4.315
 6358SOL    HW219974   1.248   1.633   4.176
 6359SOL     OW19975   6.010   5.256   0.700
 6359SOL    HW119976   5.958   5.198   0.637
 6359SOL    HW219977   5.976   5.349   0.696
 6360SOL     OW19978   2.103   2.776   0.890
 6360SOL    HW119979   2.181   2.755   0.832
 6360SOL    HW219980   2.103   2.873   0.913
 6361SOL     OW19981   0.439   2.089   1.819
 6361SOL    HW119982   0.463   2.105   1.915
 6361SOL    HW219983   0.363   2.149   1.793
 6362SOL     OW19984   1.413   5.295   0.245
 6362SOL    HW119985   1.343   5.263   0.310
 6362SOL    HW219986   1.501   5.251   0.267
 6363SOL     OW19987   0.978   2.598   2.065
 6363SOL    HW119988   1.018   2.631   2.150
 6363SOL    HW219989   0.882   2.624   2.061
 6364SOL     OW19990   3.021   1.392   4.093
 6364SOL    HW119991   3.024   1.312   4.032
 6364SOL    HW219992   2.981   1.365   4.180
 6365SOL     OW19993   6.345   6.792   2.949
 6365SOL    HW119994   6.392   6.853   3.013
 6365SOL    HW219995   6.265   6.752   2.994
 6366SOL     OW19996   5.833   1.421   5.400
 6366SOL    HW119997   5.921   1.380   5.375
 6366SOL    HW219998   5.764   1.349   5.408
 6367SOL     OW19999   1.093   2.193   4.426
 6367SOL    HW120000   1.126   2.232   4.512
 6367SOL    HW220001   1.078   2.095   4.438
 6368SOL     OW20002   4.887   3.318   4.978
 6368SOL    HW120003   4.974   3.338   4.934
 6368SOL    HW220004   4.838   3.403   4.997
 6369SOL     OW20005   3.976   4.202   0.934
 6369SOL    HW120006   4.011   4.267   1.002
 6369SOL    HW220007   3.888   4.235   0.899
 6370SOL     OW20008   5.761   4.012   4.946
 6370SOL    HW120009   5.725   4.091   4.995
 6370SOL    HW220010   5.754   4.028   4.848
 6371SOL     OW20011   5.418   4.108   0.802
 6371SOL    HW120012   5.402   4.154   0.890
 6371SOL    HW220013   5.330   4.078   0.764
 6372SOL     OW20014   6.858   1.206   1.075
 6372SOL    HW120015   6.792   1.222   1.148
 6372SOL    HW220016   6.870   1.290   1.022
 6373SOL     OW20017   5.095   2.791   1.835
 6373SOL    HW120018   5.160   2.753   1.901
 6373SOL    HW220019   5.021   2.726   1.820
 6374SOL     OW20020   4.231   3.982   6.174
 6374SOL    HW120021   4.320   4.008   6.212
 6374SOL    HW220022   4.201   3.896   6.216
 6375SOL     OW20023   4.563   1.136   1.527
 6375SOL    HW120024   4.516   1.167   1.609
 6375SOL    HW220025   4.661   1.153   1.536
 6376SOL     OW20026   2.790   6.938   0.145
 6376SOL    HW120027   2.776   6.943   0.244
 6376SOL    HW220028   2.718   6.881   0.104
 6377SOL     OW20029   0.013   0.602   6.824
 6377SOL    HW120030   6.969   0.528   6.849
 6377SOL    HW220031   6.986   0.663   6.759
 6378SOL     OW20032   5.633   3.999   2.327
 6378SOL    HW120033   5.654   4.055   2.247
 6378SOL    HW220034   5.540   3.962   2.319
 6379SOL     OW20035   2.243   5.780   6.948
 6379SOL    HW120036   2.341   5.780   6.964
 6379SOL    HW220037   2.224   5.754   6.853
 6380SOL     OW20038   2.067   2.777   4.932
 6380SOL    HW120039   2.154   2.734   4.907
 6380SOL    HW220040   2.082   2.844   5.004
 6381SOL     OW20041   3.604   4.043   0.600
 6381SOL    HW120042   3.617   4.075   0.694
 6381SOL    HW220043   3.618   3.945   0.595
 6382SOL     OW20044   1.194   1.118   0.906
 6382SOL    HW120045   1.189   1.216   0.924
 6382SOL    HW220046   1.279   1.096   0.859
 6383SOL     OW20047   2.564   2.500   2.440
 6383SOL    HW120048   2.632   2.445   2.391
 6383SOL    HW220049   2.584   2.499   2.538
 6384SOL     OW20050   6.489   1.942   2.079
 6384SOL    HW120051   6.482   2.004   2.000
 6384SOL    HW220052   6.584   1.937   2.109
 6385SOL     OW20053   6.815   3.478   0.837
 6385SOL    HW120054   6.853   3.487   0.745
 6385SOL    HW220055   6.890   3.462   0.902
 6386SOL     OW20056   3.475   3.530   0.253
 6386SOL    HW120057   3.477   3.497   0.159
 6386SOL    HW220058   3.383   3.560   0.276
 6387SOL     OW20059   6.476   0.570   6.284
 6387SOL    HW120060   6.394   0.539   6.237
 6387SOL    HW220061   6.451   0.607   6.374
 6388SOL     OW20062   6.007   5.258   1.405
 6388SOL    HW120063   6.106   5.267   1.400
 6388SOL    HW220064   5.963   5.323   1.343
 6389SOL     OW20065   6.727   6.637   0.926
 6389SOL    HW120066   6.676   6.717   0.960
 6389SOL    HW220067   6.784   6.601   1.000
 6390SOL     OW20068   5.185   6.668   6.519
 6390SOL    HW120069   5.117   6.680   6.446
 6390SOL    HW220070   5.143   6.689   6.607
 6391SOL     OW20071   1.770   2.042   4.398
 6391SOL    HW120072   1.767   2.136   4.366
 6391SOL    HW220073   1.835   2.035   4.474
 6392SOL     OW20074   4.907   0.038   4.241
 6392SOL    HW120075   4.887   0.054   4.144
 6392SOL    HW220076   4.821   0.017   4.289
 6393SOL     OW20077   2.115   5.248   0.506
 6393SOL    HW120078   2.192   5.192   0.476
 6393SOL    HW220079   2.108   5.329   0.448
 6394SOL     OW20080   1.667   5.154   1.953
 6394SOL    HW120081   1.585   5.135   2.007
 6394SOL    HW220082   1.736   5.198   2.011
 6395SOL     OW20083   1.453   4.360   4.620
 6395SOL    HW120084   1.509   4.443   4.624
 6395SOL    HW220085   1.472   4.312   4.535
 6396SOL     OW20086   1.912   3.156   4.970
 6396SOL    HW120087   1.931   3.148   5.068
 6396SOL    HW220088   1.857   3.079   4.940
 6397SOL     OW20089   6.509   3.170   5.108
 6397SOL    HW120090   6.416   3.167   5.144
 6397SOL    HW220091   6.564   3.097   5.149
 6398SOL     OW20092   1.683   0.099   2.614
 6398SOL    HW120093   1.697   0.101   2.713
 6398SOL    HW220094   1.727   0.018   2.575
 6399SOL     OW20095   2.541   0.060   6.875
 6399SOL    HW120096   2.532   6.983   6.903
 6399SOL    HW220097   2.585   0.112   6.948
 6400SOL     OW20098   0.608   6.706   2.701
 6400SOL    HW120099   0.691   6.699   2.646
 6400SOL    HW220100   0.561   6.792   2.680
 6401SOL     OW20101   3.987   5.108   1.990
 6401SOL    HW120102   3.916   5.163   2.035
 6401SOL    HW220103   3.959   5.012   1.987
 6402SOL     OW20104   3.628   4.316   6.152
 6402SOL    HW120105   3.562   4.389   6.132
 6402SOL    HW220106   3.717   4.341   6.115
 6403SOL     OW20107   4.675   5.566   5.658
 6403SOL    HW120108   4.716   5.486   5.700
 6403SOL    HW220109   4.633   5.541   5.571
 6404SOL     OW20110   4.563   5.580   6.693
 6404SOL    HW120111   4.523   5.625   6.772
 6404SOL    HW220112   4.643   5.632   6.662
 6405SOL     OW20113   4.359   0.798   2.510
 6405SOL    HW120114   4.334   0.885   2.468
 6405SOL    HW220115   4.311   0.788   2.597
 6406SOL     OW20116   0.346   3.191   2.413
 6406SOL    HW120117   0.277   3.262   2.427
 6406SOL    HW220118   0.313   3.125   2.346
 6407SOL     OW20119   0.471   0.121   2.150
 6407SOL    HW120120   0.537   0.197   2.150
 6407SOL    HW220121   0.493   0.058   2.075
 6408SOL     OW20122   0.506   1.495   1.823
 6408SOL    HW120123   0.471   1.542   1.742
 6408SOL    HW220124   0.451   1.413   1.840
 6409SOL     OW20125   6.020   4.129   3.401
 6409SOL    HW120126   5.994   4.132   3.498
 6409SOL    HW220127   6.115   4.160   3.391
 6410SOL     OW20128   1.883   0.884   0.558
 6410SOL    HW120129   1.890   0.906   0.656
 6410SOL    HW220130   1.812   0.940   0.516
 6411SOL     OW20131   0.798   2.194   3.476
 6411SOL    HW120132   0.791   2.268   3.543
 6411SOL    HW220133   0.731   2.208   3.403
 6412SOL     OW20134   3.473   0.422   6.727
 6412SOL    HW120135   3.534   0.501   6.727
 6412SOL    HW220136   3.526   0.339   6.744
 6413SOL     OW20137   4.534   6.023   2.816
 6413SOL    HW120138   4.579   6.106   2.849
 6413SOL    HW220139   4.593   5.979   2.748
 6414SOL     OW20140   2.980   0.289   6.994
 6414SOL    HW120141   2.969   0.299   6.895
 6414SOL    HW220142   3.070   0.323   0.003
 6415SOL     OW20143   0.627   1.555   3.545
 6415SOL    HW120144   0.578   1.469   3.558
 6415SOL    HW220145   0.725   1.540   3.552
 6416SOL     OW20146   3.222   4.992   0.153
 6416SOL    HW120147   3.247   4.939   0.234
 6416SOL    HW220148   3.276   4.961   0.075
 6417SOL     OW20149   4.323   3.583   6.834
 6417SOL    HW120150   4.395   3.527   6.794
 6417SOL    HW220151   4.234   3.542   6.814
 6418SOL     OW20152   4.943   5.342   0.498
 6418SOL    HW120153   5.039   5.363   0.479
 6418SOL    HW220154   4.897   5.319   0.412
 6419SOL     OW20155   0.639   6.743   6.693
 6419SOL    HW120156   0.621   6.726   6.596
 6419SOL    HW220157   0.623   6.839   6.713
 6420SOL     OW20158   2.463   4.686   3.706
 6420SOL    HW120159   2.381   4.737   3.731
 6420SOL    HW220160   2.438   4.591   3.686
 6421SOL     OW20161   5.359   6.774   2.083
 6421SOL    HW120162   5.372   6.754   2.180
 6421SOL    HW220163   5.372   6.871   2.067
 6422SOL     OW20164   0.684   2.025   4.917
 6422SOL    HW120165   0.592   2.059   4.901
 6422SOL    HW220166   0.694   1.934   4.877
 6423SOL     OW20167   0.885   4.424   4.719
 6423SOL    HW120168   0.874   4.426   4.818
 6423SOL    HW220169   0.982   4.434   4.696
 6424SOL     OW20170   6.643   4.083   6.122
 6424SOL    HW120171   6.686   4.096   6.212
 6424SOL    HW220172   6.709   4.102   6.050
 6425SOL     OW20173   0.507   6.593   4.524
 6425SOL    HW120174   0.426   6.651   4.529
 6425SOL    HW220175   0.499   6.530   4.447
 6426SOL     OW20176   4.413   5.501   4.009
 6426SOL    HW120177   4.415   5.401   4.002
 6426SOL    HW220178   4.499   5.539   3.976
 6427SOL     OW20179   3.962   3.067   3.863
 6427SOL    HW120180   4.014   3.149   3.839
 6427SOL    HW220181   3.945   3.013   3.781
 6428SOL     OW20182   6.019   2.562   0.353
 6428SOL    HW120183   5.948   2.631   0.338
 6428SOL    HW220184   5.977   2.471   0.354
 6429SOL     OW20185   2.327   1.550   5.187
 6429SOL    HW120186   2.378   1.472   5.225
 6429SOL    HW220187   2.231   1.525   5.175
 6430SOL     OW20188   5.564   1.442   5.004
 6430SOL    HW120189   5.618   1.510   5.054
 6430SOL    HW220190   5.623   1.368   4.973
 6431SOL     OW20191   3.388   5.163   2.636
 6431SOL    HW120192   3.471   5.215   2.658
 6431SOL    HW220193   3.342   5.205   2.558
 6432SOL     OW20194   4.338   3.684   6.264
 6432SOL    HW120195   4.375   3.641   6.182
 6432SOL    HW220196   4.393   3.658   6.343
 6433SOL     OW20197   3.568   5.305   6.145
 6433SOL    HW120198   3.623   5.222   6.138
 6433SOL    HW220199   3.585   5.348   6.234
 6434SOL     OW20200   6.168   5.385   5.892
 6434SOL    HW120201   6.102   5.369   5.818
 6434SOL    HW220202   6.238   5.449   5.861
 6435SOL     OW20203   4.423   1.093   0.949
 6435SOL    HW120204   4.388   1.141   0.869
 6435SOL    HW220205   4.481   1.155   1.003
 6436SOL     OW20206   0.278   3.435   3.847
 6436SOL    HW120207   0.365   3.400   3.882
 6436SOL    HW220208   0.209   3.434   3.920
 6437SOL     OW20209   1.735   2.908   5.800
 6437SOL    HW120210   1.780   2.820   5.783
 6437SOL    HW220211   1.690   2.905   5.889
 6438SOL     OW20212   0.294   4.960   0.789
 6438SOL    HW120213   0.209   4.997   0.826
 6438SOL    HW220214   0.335   4.897   0.856
 6439SOL     OW20215   5.149   6.752   2.662
 6439SOL    HW120216   5.218   6.686   2.633
 6439SOL    HW220217   5.132   6.741   2.760
 6440SOL     OW20218   2.299   1.694   6.056
 6440SOL    HW120219   2.208   1.700   6.016
 6440SOL    HW220220   2.299   1.625   6.129
 6441SOL     OW20221   0.502   2.495   1.933
 6441SOL    HW120222   0.539   2.491   1.840
 6441SOL    HW220223   0.418   2.441   1.938
 6442SOL     OW20224   2.212   1.831   4.302
 6442SOL    HW120225   2.285   1.859   4.363
 6442SOL    HW220226   2.164   1.912   4.267
 6443SOL     OW20227   3.146   2.745   6.530
 6443SOL    HW120228   3.091   2.828   6.518
 6443SOL    HW220229   3.205   2.732   6.451
 6444SOL     OW20230   6.969   3.487   5.186
 6444SOL    HW120231   6.953   3.473   5.283
 6444SOL    HW220232   6.881   3.499   5.139
 6445SOL     OW20233   3.268   2.946   3.640
 6445SOL    HW120234   3.202   2.950   3.715
 6445SOL    HW220235   3.341   3.012   3.657
 6446SOL     OW20236   1.037   1.268   1.161
 6446SOL    HW120237   1.086   1.184   1.182
 6446SOL    HW220238   1.090   1.323   1.096
 6447SOL     OW20239   6.139   3.681   1.223
 6447SOL    HW120240   6.189   3.709   1.305
 6447SOL    HW220241   6.199   3.628   1.163
 6448SOL     OW20242   4.177   4.858   1.325
 6448SOL    HW120243   4.147   4.951   1.307
 6448SOL    HW220244   4.124   4.820   1.401
 6449SOL     OW20245   3.705   5.346   0.187
 6449SOL    HW120246   3.708   5.246   0.191
 6449SOL    HW220247   3.672   5.383   0.274
 6450SOL     OW20248   5.480   3.733   0.067
 6450SOL    HW120249   5.572   3.693   0.076
 6450SOL    HW220250   5.447   3.719   6.992
 6451SOL     OW20251   4.474   2.753   1.614
 6451SOL    HW120252   4.395   2.702   1.582
 6451SOL    HW220253   4.444   2.838   1.658
 6452SOL     OW20254   4.262   2.064   4.701
 6452SOL    HW120255   4.349   2.069   4.750
 6452SOL    HW220256   4.192   2.115   4.752
 6453SOL     OW20257   2.495   0.651   2.906
 6453SOL    HW120258   2.412   0.595   2.910
 6453SOL    HW220259   2.534   0.659   2.998
 6454SOL     OW20260   5.167   3.376   4.525
 6454SOL    HW120261   5.235   3.308   4.499
 6454SOL    HW220262   5.086   3.366   4.467
 6455SOL     OW20263   0.480   2.955   4.277
 6455SOL    HW120264   0.491   3.044   4.232
 6455SOL    HW220265   0.398   2.910   4.242
 6456SOL     OW20266   6.748   1.744   2.624
 6456SOL    HW120267   6.686   1.758   2.700
 6456SOL    HW220268   6.841   1.769   2.651
 6457SOL     OW20269   2.219   6.606   2.368
 6457SOL    HW120270   2.312   6.588   2.398
 6457SOL    HW220271   2.157   6.537   2.407
 6458SOL     OW20272   0.664   7.007   4.237
 6458SOL    HW120273   0.632   0.083   4.237
 6458SOL    HW220274   0.720   6.991   4.156
 6459SOL     OW20275   0.363   3.127   3.103
 6459SOL    HW120276   0.408   3.166   3.023
 6459SOL    HW220277   0.352   3.197   3.172
 6460SOL     OW20278   1.361   5.211   6.250
 6460SOL    HW120279   1.309   5.275   6.306
 6460SOL    HW220280   1.306   5.129   6.234
 6461SOL     OW20281   0.392   6.428   0.830
 6461SOL    HW120282   0.332   6.384   0.897
 6461SOL    HW220283   0.413   6.363   0.757
 6462SOL     OW20284   2.048   4.198   5.325
 6462SOL    HW120285   2.067   4.102   5.343
 6462SOL    HW220286   2.131   4.244   5.295
 6463SOL     OW20287   4.472   2.592   1.180
 6463SOL    HW120288   4.425   2.636   1.104
 6463SOL    HW220289   4.543   2.654   1.216
 6464SOL     OW20290   0.673   3.567   3.117
 6464SOL    HW120291   0.579   3.594   3.098
 6464SOL    HW220292   0.706   3.507   3.044
 6465SOL     OW20293   2.834   0.816   3.641
 6465SOL    HW120294   2.802   0.738   3.694
 6465SOL    HW220295   2.798   0.900   3.682
 6466SOL     OW20296   6.579   5.133   6.463
 6466SOL    HW120297   6.532   5.217   6.488
 6466SOL    HW220298   6.660   5.122   6.520
 6467SOL     OW20299   2.739   2.947   5.881
 6467SOL    HW120300   2.744   3.047   5.872
 6467SOL    HW220301   2.649   2.915   5.851
 6468SOL     OW20302   0.988   0.764   1.350
 6468SOL    HW120303   0.889   0.750   1.347
 6468SOL    HW220304   1.030   0.694   1.408
 6469SOL     OW20305   1.674   1.037   1.276
 6469SOL    HW120306   1.687   1.134   1.298
 6469SOL    HW220307   1.758   1.001   1.234
 6470SOL     OW20308   6.157   1.626   6.356
 6470SOL    HW120309   6.244   1.670   6.379
 6470SOL    HW220310   6.116   1.670   6.277
 6471SOL     OW20311   0.292   6.419   6.201
 6471SOL    HW120312   0.254   6.439   6.291
 6471SOL    HW220313   0.357   6.490   6.176
 6472SOL     OW20314   0.467   6.126   1.729
 6472SOL    HW120315   0.520   6.172   1.658
 6472SOL    HW220316   0.471   6.179   1.814
 6473SOL     OW20317   2.745   1.617   3.170
 6473SOL    HW120318   2.682   1.695   3.167
 6473SOL    HW220319   2.818   1.636   3.237
 6474SOL     OW20320   4.063   6.582   4.278
 6474SOL    HW120321   4.012   6.509   4.231
 6474SOL    HW220322   4.024   6.596   4.369
 6475SOL     OW20323   4.945   6.041   2.914
 6475SOL    HW120324   4.861   6.082   2.877
 6475SOL    HW220325   4.930   6.011   3.008
 6476SOL     OW20326   4.749   4.145   6.491
 6476SOL    HW120327   4.745   4.098   6.403
 6476SOL    HW220328   4.825   4.109   6.545
 6477SOL     OW20329   0.777   6.290   0.944
 6477SOL    HW120330   0.840   6.365   0.966
 6477SOL    HW220331   0.815   6.204   0.978
 6478SOL     OW20332   1.615   6.473   0.674
 6478SOL    HW120333   1.607   6.571   0.694
 6478SOL    HW220334   1.632   6.461   0.577
 6479SOL     OW20335   4.787   5.491   3.483
 6479SOL    HW120336   4.792   5.574   3.538
 6479SOL    HW220337   4.761   5.414   3.542
 6480SOL     OW20338   3.435   1.419   5.527
 6480SOL    HW120339   3.364   1.350   5.542
 6480SOL    HW220340   3.520   1.373   5.501
 6481SOL     OW20341   4.321   3.276   1.653
 6481SOL    HW120342   4.355   3.182   1.662
 6481SOL    HW220343   4.249   3.292   1.721
 6482SOL     OW20344   4.778   3.183   5.220
 6482SOL    HW120345   4.724   3.107   5.184
 6482SOL    HW220346   4.816   3.235   5.144
 6483SOL     OW20347   1.844   5.819   5.477
 6483SOL    HW120348   1.812   5.844   5.568
 6483SOL    HW220349   1.791   5.869   5.408
 6484SOL     OW20350   3.544   1.701   3.004
 6484SOL    HW120351   3.601   1.619   3.002
 6484SOL    HW220352   3.602   1.782   3.008
 6485SOL     OW20353   2.183   4.988   5.297
 6485SOL    HW120354   2.254   5.054   5.322
 6485SOL    HW220355   2.135   4.957   5.379
 6486SOL     OW20356   6.989   3.895   2.266
 6486SOL    HW120357   6.975   3.939   2.177
 6486SOL    HW220358   0.038   3.948   2.319
 6487SOL     OW20359   6.181   5.037   4.389
 6487SOL    HW120360   6.186   5.036   4.489
 6487SOL    HW220361   6.221   4.953   4.352
 6488SOL     OW20362   3.833   5.343   3.999
 6488SOL    HW120363   3.874   5.325   3.910
 6488SOL    HW220364   3.842   5.440   4.021
 6489SOL     OW20365   6.260   3.028   5.215
 6489SOL    HW120366   6.176   2.976   5.223
 6489SOL    HW220367   6.240   3.121   5.182
 6490SOL     OW20368   2.076   2.200   0.440
 6490SOL    HW120369   2.054   2.222   0.535
 6490SOL    HW220370   2.175   2.191   0.431
 6491SOL     OW20371   1.549   0.726   1.787
 6491SOL    HW120372   1.538   0.819   1.750
 6491SOL    HW220373   1.583   0.665   1.715
 6492SOL     OW20374   4.134   3.621   3.937
 6492SOL    HW120375   4.072   3.560   3.986
 6492SOL    HW220376   4.228   3.587   3.944
 6493SOL     OW20377   0.763   4.945   3.739
 6493SOL    HW120378   0.839   4.885   3.764
 6493SOL    HW220379   0.795   5.039   3.734
 6494SOL     OW20380   6.616   0.871   1.431
 6494SOL    HW120381   6.603   0.937   1.505
 6494SOL    HW220382   6.552   0.795   1.442
 6495SOL     OW20383   6.788   6.590   3.112
 6495SOL    HW120384   6.758   6.682   3.137
 6495SOL    HW220385   6.718   6.547   3.055
 6496SOL     OW20386   2.887   2.410   1.643
 6496SOL    HW120387   2.928   2.362   1.566
 6496SOL    HW220388   2.933   2.385   1.728
 6497SOL     OW20389   0.693   2.134   0.658
 6497SOL    HW120390   0.739   2.215   0.622
 6497SOL    HW220391   0.625   2.160   0.726
 6498SOL     OW20392   1.831   4.713   4.126
 6498SOL    HW120393   1.758   4.685   4.064
 6498SOL    HW220394   1.799   4.789   4.183
 6499SOL     OW20395   5.061   2.406   3.238
 6499SOL    HW120396   5.001   2.474   3.196
 6499SOL    HW220397   5.057   2.321   3.185
 6500SOL     OW20398   1.618   3.745   2.968
 6500SOL    HW120399   1.703   3.734   3.019
 6500SOL    HW220400   1.554   3.673   2.995
 6501SOL     OW20401   6.629   0.690   2.830
 6501SOL    HW120402   6.623   0.781   2.871
 6501SOL    HW220403   6.630   0.621   2.903
 6502SOL     OW20404   0.940   2.934   1.864
 6502SOL    HW120405   0.845   2.917   1.839
 6502SOL    HW220406   1.000   2.901   1.791
 6503SOL     OW20407   6.908   2.711   5.774
 6503SOL    HW120408   6.891   2.807   5.752
 6503SOL    HW220409   6.897   2.655   5.692
 6504SOL     OW20410   3.993   0.053   6.136
 6504SOL    HW120411   3.907   0.065   6.087
 6504SOL    HW220412   4.068   0.090   6.081
 6505SOL     OW20413   0.355   6.640   0.644
 6505SOL    HW120414   0.428   6.610   0.583
 6505SOL    HW220415   0.339   6.570   0.714
 6506SOL     OW20416   6.900   3.516   1.648
 6506SOL    HW120417   6.805   3.535   1.672
 6506SOL    HW220418   6.953   3.502   1.732
 6507SOL     OW20419   3.768   5.649   1.402
 6507SOL    HW120420   3.835   5.684   1.468
 6507SOL    HW220421   3.755   5.551   1.417
 6508SOL     OW20422   6.620   0.213   4.071
 6508SOL    HW120423   6.660   0.142   4.013
 6508SOL    HW220424   6.693   0.274   4.103
 6509SOL     OW20425   1.906   1.286   0.387
 6509SOL    HW120426   1.873   1.222   0.318
 6509SOL    HW220427   1.840   1.361   0.396
 6510SOL     OW20428   3.288   4.965   4.206
 6510SOL    HW120429   3.377   4.919   4.202
 6510SOL    HW220430   3.296   5.055   4.164
 6511SOL     OW20431   3.276   2.581   7.017
 6511SOL    HW120432   3.352   2.562   0.061
 6511SOL    HW220433   3.282   2.674   6.983
 6512SOL     OW20434   4.680   0.612   0.601
 6512SOL    HW120435   4.666   0.649   0.693
 6512SOL    HW220436   4.604   0.551   0.578
 6513SOL     OW20437   3.286   4.891   2.779
 6513SOL    HW120438   3.242   4.975   2.813
 6513SOL    HW220439   3.230   4.853   2.705
 6514SOL     OW20440   5.532   5.769   5.463
 6514SOL    HW120441   5.540   5.846   5.400
 6514SOL    HW220442   5.442   5.770   5.506
 6515SOL     OW20443   0.370   4.952   2.178
 6515SOL    HW120444   0.380   5.044   2.217
 6515SOL    HW220445   0.460   4.914   2.158
 6516SOL     OW20446   6.238   1.591   3.642
 6516SOL    HW120447   6.323   1.602   3.693
 6516SOL    HW220448   6.252   1.527   3.567
 6517SOL     OW20449   6.703   3.712   0.681
 6517SOL    HW120450   6.656   3.788   0.727
 6517SOL    HW220451   6.801   3.728   0.680
 6518SOL     OW20452   0.601   1.657   2.272
 6518SOL    HW120453   0.670   1.639   2.342
 6518SOL    HW220454   0.628   1.737   2.218
 6519SOL     OW20455   1.362   1.445   3.343
 6519SOL    HW120456   1.357   1.427   3.245
 6519SOL    HW220457   1.277   1.417   3.386
 6520SOL     OW20458   6.255   5.575   0.238
 6520SOL    HW120459   6.343   5.575   0.191
 6520SOL    HW220460   6.270   5.581   0.337
 6521SOL     OW20461   1.878   4.799   4.540
 6521SOL    HW120462   1.951   4.731   4.534
 6521SOL    HW220463   1.889   4.851   4.625
 6522SOL     OW20464   2.162   2.948   5.141
 6522SOL    HW120465   2.135   2.919   5.233
 6522SOL    HW220466   2.262   2.940   5.131
 6523SOL     OW20467   5.886   6.328   0.716
 6523SOL    HW120468   5.811   6.390   0.739
 6523SOL    HW220469   5.973   6.377   0.727
 6524SOL     OW20470   3.430   2.769   1.374
 6524SOL    HW120471   3.416   2.773   1.473
 6524SOL    HW220472   3.367   2.703   1.334
 6525SOL     OW20473   1.688   4.967   3.730
 6525SOL    HW120474   1.648   5.057   3.711
 6525SOL    HW220475   1.726   4.929   3.646
 6526SOL     OW20476   6.385   6.693   0.808
 6526SOL    HW120477   6.434   6.745   0.879
 6526SOL    HW220478   6.312   6.750   0.770
 6527SOL     OW20479   5.232   1.269   0.704
 6527SOL    HW120480   5.156   1.292   0.765
 6527SOL    HW220481   5.286   1.351   0.685
 6528SOL     OW20482   4.288   6.667   0.033
 6528SOL    HW120483   4.227   6.719   6.991
 6528SOL    HW220484   4.234   6.621   0.103
 6529SOL     OW20485   4.363   0.129   1.776
 6529SOL    HW120486   4.342   0.050   1.718
 6529SOL    HW220487   4.387   0.207   1.719
 6530SOL     OW20488   6.725   2.918   3.808
 6530SOL    HW120489   6.787   2.952   3.878
 6530SOL    HW220490   6.751   2.956   3.719
 6531SOL     OW20491   3.816   3.345   3.770
 6531SOL    HW120492   3.911   3.314   3.775
 6531SOL    HW220493   3.812   3.444   3.775
 6532SOL     OW20494   0.523   5.777   0.180
 6532SOL    HW120495   0.436   5.729   0.183
 6532SOL    HW220496   0.570   5.769   0.268
 6533SOL     OW20497   5.079   5.374   1.473
 6533SOL    HW120498   5.050   5.435   1.399
 6533SOL    HW220499   5.133   5.299   1.434
 6534SOL     OW20500   6.641   3.479   3.899
 6534SOL    HW120501   6.694   3.564   3.904
 6534SOL    HW220502   6.600   3.460   3.989
 6535SOL     OW20503   5.214   3.768   5.726
 6535SOL    HW120504   5.303   3.775   5.680
 6535SOL    HW220505   5.176   3.860   5.738
 6536SOL     OW20506   0.441   4.977   5.573
 6536SOL    HW120507   0.433   4.883   5.603
 6536SOL    HW220508   0.506   4.983   5.497
 6537SOL     OW20509   7.002   5.451   3.953
 6537SOL    HW120510   6.998   5.493   4.044
 6537SOL    HW220511   0.022   5.516   3.888
 6538SOL     OW20512   1.480   3.166   3.465
 6538SOL    HW120513   1.476   3.232   3.540
 6538SOL    HW220514   1.414   3.192   3.394
 6539SOL     OW20515   4.639   6.715   6.787
 6539SOL    HW120516   4.692   6.689   6.707
 6539SOL    HW220517   4.684   6.790   6.835
 6540SOL     OW20518   0.514   2.598   4.997
 6540SOL    HW120519   0.555   2.525   5.051
 6540SOL    HW220520   0.585   2.663   4.970
 6541SOL     OW20521   4.099   1.767   5.314
 6541SOL    HW120522   4.029   1.837   5.323
 6541SOL    HW220523   4.165   1.795   5.244
 6542SOL     OW20524   1.647   4.598   2.252
 6542SOL    HW120525   1.580   4.528   2.229
 6542SOL    HW220526   1.691   4.575   2.339
 6543SOL     OW20527   4.204   1.384   4.328
 6543SOL    HW120528   4.204   1.450   4.404
 6543SOL    HW220529   4.211   1.292   4.365
 6544SOL     OW20530   0.452   0.509   0.778
 6544SOL    HW120531   0.471   0.582   0.844
 6544SOL    HW220532   0.522   0.438   0.786
 6545SOL     OW20533   5.394   6.237   0.816
 6545SOL    HW120534   5.326   6.288   0.763
 6545SOL    HW220535   5.378   6.251   0.914
 6546SOL     OW20536   4.389   5.128   5.551
 6546SOL    HW120537   4.312   5.192   5.548
 6546SOL    HW220538   4.450   5.147   5.474
 6547SOL     OW20539   0.820   6.203   5.194
 6547SOL    HW120540   0.894   6.167   5.251
 6547SOL    HW220541   0.787   6.289   5.233
 6548SOL     OW20542   1.242   1.720   6.176
 6548SOL    HW120543   1.248   1.809   6.130
 6548SOL    HW220544   1.171   1.665   6.133
 6549SOL     OW20545   3.760   1.452   2.693
 6549SOL    HW120546   3.754   1.354   2.679
 6549SOL    HW220547   3.668   1.491   2.695
 6550SOL     OW20548   6.121   6.601   2.126
 6550SOL    HW120549   6.157   6.562   2.041
 6550SOL    HW220550   6.068   6.531   2.175
 6551SOL     OW20551   2.577   4.942   0.889
 6551SOL    HW120552   2.595   4.846   0.908
 6551SOL    HW220553   2.647   4.999   0.932
 6552SOL     OW20554   2.085   4.291   0.087
 6552SOL    HW120555   2.098   4.263   0.182
 6552SOL    HW220556   2.005   4.351   0.080
 6553SOL     OW20557   0.068   2.016   4.089
 6553SOL    HW120558   0.076   1.973   3.999
 6553SOL    HW220559   6.990   2.016   4.118
 6554SOL     OW20560   1.074   2.283   3.681
 6554SOL    HW120561   1.059   2.305   3.585
 6554SOL    HW220562   1.078   2.184   3.692
 6555SOL     OW20563   1.503   3.757   3.309
 6555SOL    HW120564   1.496   3.755   3.209
 6555SOL    HW220565   1.417   3.727   3.350
 6556SOL     OW20566   5.024   3.324   3.201
 6556SOL    HW120567   4.982   3.290   3.117
 6556SOL    HW220568   5.043   3.247   3.262
 6557SOL     OW20569   2.280   0.626   2.693
 6557SOL    HW120570   2.213   0.622   2.619
 6557SOL    HW220571   2.314   0.720   2.703
 6558SOL     OW20572   5.607   5.867   0.562
 6558SOL    HW120573   5.551   5.950   0.562
 6558SOL    HW220574   5.564   5.798   0.621
 6559SOL     OW20575   0.428   2.059   5.838
 6559SOL    HW120576   0.443   2.075   5.936
 6559SOL    HW220577   0.337   2.019   5.825
 6560SOL     OW20578   6.906   4.800   6.605
 6560SOL    HW120579   6.975   4.843   6.664
 6560SOL    HW220580   6.833   4.762   6.662
 6561SOL     OW20581   2.420   5.283   0.689
 6561SOL    HW120582   2.406   5.323   0.598
 6561SOL    HW220583   2.504   5.321   0.729
 6562SOL     OW20584   4.869   2.531   1.876
 6562SOL    HW120585   4.949   2.550   1.934
 6562SOL    HW220586   4.810   2.611   1.873
 6563SOL     OW20587   6.110   5.339   5.345
 6563SOL    HW120588   6.035   5.406   5.351
 6563SOL    HW220589   6.153   5.345   5.255
 6564SOL     OW20590   5.172   3.302   2.344
 6564SOL    HW120591   5.080   3.280   2.312
 6564SOL    HW220592   5.239   3.281   2.272
 6565SOL     OW20593   5.163   6.200   2.561
 6565SOL    HW120594   5.172   6.189   2.660
 6565SOL    HW220595   5.152   6.298   2.540
 6566SOL     OW20596   5.441   5.254   3.670
 6566SOL    HW120597   5.478   5.272   3.761
 6566SOL    HW220598   5.431   5.341   3.621
 6567SOL     OW20599   3.146   0.914   2.772
 6567SOL    HW120600   3.206   0.835   2.786
 6567SOL    HW220601   3.109   0.944   2.860
 6568SOL     OW20602   5.019   0.788   1.080
 6568SOL    HW120603   5.040   0.882   1.051
 6568SOL    HW220604   5.098   0.730   1.065
 6569SOL     OW20605   1.419   4.931   3.732
 6569SOL    HW120606   1.330   4.905   3.694
 6569SOL    HW220607   1.488   4.930   3.660
 6570SOL     OW20608   4.252   0.191   2.431
 6570SOL    HW120609   4.166   0.218   2.474
 6570SOL    HW220610   4.249   0.093   2.411
 6571SOL     OW20611   2.603   6.477   2.911
 6571SOL    HW120612   2.527   6.414   2.893
 6571SOL    HW220613   2.585   6.565   2.866
 6572SOL     OW20614   2.105   5.847   3.493
 6572SOL    HW120615   2.044   5.916   3.532
 6572SOL    HW220616   2.090   5.842   3.394
 6573SOL     OW20617   0.149   2.021   3.446
 6573SOL    HW120618   0.201   1.951   3.495
 6573SOL    HW220619   0.175   2.020   3.349
 6574SOL     OW20620   0.426   5.281   1.967
 6574SOL    HW120621   0.366   5.353   2.003
 6574SOL    HW220622   0.373   5.221   1.906
 6575SOL     OW20623   0.157   1.589   3.686
 6575SOL    HW120624   0.058   1.601   3.678
 6575SOL    HW220625   0.199   1.677   3.711
 6576SOL     OW20626   3.952   6.818   1.629
 6576SOL    HW120627   3.868   6.850   1.584
 6576SOL    HW220628   4.028   6.822   1.565
 6577SOL     OW20629   3.574   0.956   4.847
 6577SOL    HW120630   3.626   1.036   4.879
 6577SOL    HW220631   3.518   0.921   4.923
 6578SOL     OW20632   0.773   5.459   0.296
 6578SOL    HW120633   0.844   5.400   0.334
 6578SOL    HW220634   0.806   5.501   0.211
 6579SOL     OW20635   1.707   1.665   3.571
 6579SOL    HW120636   1.668   1.678   3.662
 6579SOL    HW220637   1.685   1.744   3.514
 6580SOL     OW20638   3.233   2.233   0.051
 6580SOL    HW120639   3.331   2.222   0.039
 6580SOL    HW220640   3.207   2.204   0.143
 6581SOL     OW20641   0.457   2.558   2.328
 6581SOL    HW120642   0.395   2.586   2.254
 6581SOL    HW220643   0.535   2.620   2.331
 6582SOL     OW20644   5.002   0.756   2.882
 6582SOL    HW120645   5.028   0.686   2.815
 6582SOL    HW220646   4.982   0.842   2.835
 6583SOL     OW20647   2.619   4.701   1.011
 6583SOL    HW120648   2.633   4.765   1.087
 6583SOL    HW220649   2.664   4.614   1.032
 6584SOL     OW20650   4.443   3.319   6.063
 6584SOL    HW120651   4.399   3.322   6.153
 6584SOL    HW220652   4.413   3.237   6.014
 6585SOL     OW20653   5.072   6.748   1.580
 6585SOL    HW120654   5.056   6.845   1.566
 6585SOL    HW220655   5.084   6.703   1.492
 6586SOL     OW20656   6.805   1.312   6.439
 6586SOL    HW120657   6.762   1.368   6.369
 6586SOL    HW220658   6.898   1.344   6.456
 6587SOL     OW20659   3.634   4.938   5.070
 6587SOL    HW120660   3.566   4.880   5.115
 6587SOL    HW220661   3.597   4.971   4.983
 6588SOL     OW20662   1.059   1.240   0.209
 6588SOL    HW120663   1.131   1.176   0.183
 6588SOL    HW220664   1.006   1.201   0.285
 6589SOL     OW20665   6.262   6.823   1.679
 6589SOL    HW120666   6.181   6.881   1.668
 6589SOL    HW220667   6.316   6.854   1.757
 6590SOL     OW20668   1.308   6.016   4.500
 6590SOL    HW120669   1.407   6.002   4.498
 6590SOL    HW220670   1.287   6.091   4.563
 6591SOL     OW20671   6.204   3.066   3.799
 6591SOL    HW120672   6.304   3.069   3.797
 6591SOL    HW220673   6.168   3.158   3.814
 6592SOL     OW20674   6.747   0.448   4.129
 6592SOL    HW120675   6.724   0.528   4.073
 6592SOL    HW220676   6.846   0.440   4.137
 6593SOL     OW20677   1.888   0.587   2.740
 6593SOL    HW120678   1.881   0.683   2.768
 6593SOL    HW220679   1.868   0.580   2.642
 6594SOL     OW20680   5.348   0.120   0.013
 6594SOL    HW120681   5.420   0.131   0.081
 6594SOL    HW220682   5.358   0.189   6.959
 6595SOL     OW20683   1.092   1.717   4.945
 6595SOL    HW120684   1.003   1.748   4.978
 6595SOL    HW220685   1.165   1.763   4.996
 6596SOL     OW20686   5.850   0.761   2.877
 6596SOL    HW120687   5.835   0.699   2.800
 6596SOL    HW220688   5.861   0.708   2.961
 6597SOL     OW20689   0.973   4.742   0.763
 6597SOL    HW120690   0.961   4.828   0.813
 6597SOL    HW220691   0.975   4.666   0.828
 6598SOL     OW20692   0.869   5.322   2.499
 6598SOL    HW120693   0.813   5.309   2.417
 6598SOL    HW220694   0.862   5.240   2.556
 6599SOL     OW20695   0.697   5.385   6.119
 6599SOL    HW120696   0.740   5.474   6.129
 6599SOL    HW220697   0.601   5.390   6.148
 6600SOL     OW20698   4.554   6.302   4.816
 6600SOL    HW120699   4.469   6.266   4.856
 6600SOL    HW220700   4.625   6.304   4.886
 6601SOL     OW20701   1.187   2.910   1.718
 6601SOL    HW120702   1.258   2.857   1.765
 6601SOL    HW220703   1.226   2.995   1.683
 6602SOL     OW20704   6.649   5.359   0.880
 6602SOL    HW120705   6.563   5.406   0.899
 6602SOL    HW220706   6.665   5.356   0.782
 6603SOL     OW20707   0.088   4.094   2.455
 6603SOL    HW120708   0.064   4.049   2.542
 6603SOL    HW220709   0.013   4.154   2.428
 6604SOL     OW20710   1.384   5.376   2.557
 6604SOL    HW120711   1.452   5.359   2.486
 6604SOL    HW220712   1.335   5.460   2.537
 6605SOL     OW20713   0.154   5.043   1.046
 6605SOL    HW120714   0.166   5.046   1.145
 6605SOL    HW220715   0.057   5.030   1.024
 6606SOL     OW20716   1.981   4.347   2.799
 6606SOL    HW120717   1.961   4.332   2.702
 6606SOL    HW220718   1.898   4.379   2.845
 6607SOL     OW20719   6.395   3.364   4.255
 6607SOL    HW120720   6.376   3.363   4.157
 6607SOL    HW220721   6.343   3.437   4.298
 6608SOL     OW20722   0.963   0.488   5.423
 6608SOL    HW120723   0.891   0.424   5.397
 6608SOL    HW220724   0.997   0.535   5.341
 6609SOL     OW20725   3.087   2.389   6.905
 6609SOL    HW120726   3.149   2.335   6.960
 6609SOL    HW220727   3.119   2.484   6.902
 6610SOL     OW20728   3.040   6.944   1.461
 6610SOL    HW120729   3.034   7.012   1.534
 6610SOL    HW220730   2.969   6.875   1.474
 6611SOL     OW20731   3.455   1.379   4.617
 6611SOL    HW120732   3.463   1.339   4.525
 6611SOL    HW220733   3.543   1.416   4.645
 6612SOL     OW20734   0.309   7.013   6.926
 6612SOL    HW120735   0.245   0.060   6.884
 6612SOL    HW220736   0.324   6.937   6.863
 6613SOL     OW20737   3.887   6.632   1.264
 6613SOL    HW120738   3.897   6.639   1.165
 6613SOL    HW220739   3.971   6.663   1.308
 6614SOL     OW20740   3.805   4.783   0.758
 6614SOL    HW120741   3.849   4.704   0.800
 6614SOL    HW220742   3.717   4.755   0.720
 6615SOL     OW20743   3.144   5.582   6.161
 6615SOL    HW120744   3.207   5.514   6.124
 6615SOL    HW220745   3.184   5.622   6.244
 6616SOL     OW20746   4.455   1.711   6.858
 6616SOL    HW120747   4.497   1.797   6.885
 6616SOL    HW220748   4.356   1.716   6.871
 6617SOL     OW20749   3.318   1.268   4.006
 6617SOL    HW120750   3.398   1.267   3.945
 6617SOL    HW220751   3.345   1.300   4.096
 6618SOL     OW20752   6.024   2.838   4.276
 6618SOL    HW120753   6.068   2.754   4.245
 6618SOL    HW220754   6.025   2.906   4.203
 6619SOL     OW20755   4.873   5.012   4.184
 6619SOL    HW120756   4.815   4.944   4.228
 6619SOL    HW220757   4.898   5.083   4.249
 6620SOL     OW20758   1.254   2.607   3.503
 6620SOL    HW120759   1.343   2.594   3.547
 6620SOL    HW220760   1.202   2.676   3.552
 6621SOL     OW20761   3.367   3.473   3.584
 6621SOL    HW120762   3.444   3.449   3.525
 6621SOL    HW220763   3.296   3.403   3.577
 6622SOL     OW20764   0.354   4.815   1.009
 6622SOL    HW120765   0.276   4.754   1.023
 6622SOL    HW220766   0.334   4.905   1.048
 6623SOL     OW20767   3.576   3.906   3.560
 6623SOL    HW120768   3.596   3.829   3.620
 6623SOL    HW220769   3.659   3.935   3.514
 6624SOL     OW20770   2.492   2.428   2.989
 6624SOL    HW120771   2.574   2.373   3.002
 6624SOL    HW220772   2.424   2.374   2.939
 6625SOL     OW20773   6.818   3.803   5.237
 6625SOL    HW120774   6.874   3.825   5.157
 6625SOL    HW220775   6.870   3.822   5.320
 6626SOL     OW20776   3.320   5.960   5.266
 6626SOL    HW120777   3.283   5.868   5.277
 6626SOL    HW220778   3.274   6.006   5.190
 6627SOL     OW20779   2.754   6.584   4.332
 6627SOL    HW120780   2.718   6.503   4.286
 6627SOL    HW220781   2.853   6.574   4.346
 6628SOL     OW20782   3.650   0.709   3.032
 6628SOL    HW120783   3.577   0.764   3.074
 6628SOL    HW220784   3.732   0.765   3.024
 6629SOL     OW20785   4.492   5.655   5.254
 6629SOL    HW120786   4.452   5.604   5.178
 6629SOL    HW220787   4.551   5.727   5.219
 6630SOL     OW20788   1.390   0.397   0.035
 6630SOL    HW120789   1.443   0.422   0.116
 6630SOL    HW220790   1.449   0.353   6.987
 6631SOL     OW20791   1.880   2.671   5.781
 6631SOL    HW120792   1.911   2.611   5.707
 6631SOL    HW220793   1.957   2.728   5.811
 6632SOL     OW20794   1.216   0.588   6.722
 6632SOL    HW120795   1.292   0.651   6.707
 6632SOL    HW220796   1.139   0.638   6.761
 6633SOL     OW20797   4.171   6.444   6.306
 6633SOL    HW120798   4.257   6.401   6.332
 6633SOL    HW220799   4.119   6.382   6.248
 6634SOL     OW20800   2.946   2.263   3.373
 6634SOL    HW120801   2.856   2.224   3.394
 6634SOL    HW220802   2.961   2.260   3.274
 6635SOL     OW20803   5.252   5.590   5.785
 6635SOL    HW120804   5.257   5.648   5.704
 6635SOL    HW220805   5.303   5.633   5.860
 6636SOL     OW20806   4.088   0.861   0.718
 6636SOL    HW120807   4.016   0.913   0.671
 6636SOL    HW220808   4.172   0.862   0.663
 6637SOL     OW20809   0.243   1.904   0.047
 6637SOL    HW120810   0.234   1.961   6.984
 6637SOL    HW220811   0.200   1.815   0.031
 6638SOL     OW20812   3.181   3.274   3.566
 6638SOL    HW120813   3.211   3.188   3.526
 6638SOL    HW220814   3.142   3.257   3.657
 6639SOL     OW20815   4.678   2.580   1.428
 6639SOL    HW120816   4.656   2.544   1.519
 6639SOL    HW220817   4.642   2.518   1.358
 6640SOL     OW20818   1.436   4.161   4.811
 6640SOL    HW120819   1.441   4.238   4.746
 6640SOL    HW220820   1.371   4.183   4.884
 6641SOL     OW20821   6.258   2.848   0.029
 6641SOL    HW120822   6.273   2.938   7.006
 6641SOL    HW220823   6.200   2.858   0.109
 6642SOL     OW20824   1.098   5.287   6.055
 6642SOL    HW120825   1.007   5.248   6.061
 6642SOL    HW220826   1.165   5.215   6.038
 6643SOL     OW20827   3.593   5.547   5.964
 6643SOL    HW120828   3.551   5.632   5.934
 6643SOL    HW220829   3.529   5.496   6.020
 6644SOL     OW20830   2.226   0.208   3.921
 6644SOL    HW120831   2.175   0.239   4.001
 6644SOL    HW220832   2.259   0.287   3.870
 6645SOL     OW20833   4.327   2.432   6.048
 6645SOL    HW120834   4.345   2.431   5.949
 6645SOL    HW220835   4.230   2.414   6.064
 6646SOL     OW20836   4.486   0.009   5.735
 6646SOL    HW120837   4.427   0.023   5.655
 6646SOL    HW220838   4.430   0.010   5.818
 6647SOL     OW20839   4.326   4.792   0.988
 6647SOL    HW120840   4.317   4.828   0.895
 6647SOL    HW220841   4.387   4.713   0.986
 6648SOL     OW20842   3.287   5.731   5.427
 6648SOL    HW120843   3.354   5.666   5.463
 6648SOL    HW220844   3.254   5.790   5.500
 6649SOL     OW20845   4.716   2.769   6.014
 6649SOL    HW120846   4.649   2.832   6.054
 6649SOL    HW220847   4.669   2.692   5.971
 6650SOL     OW20848   2.790   1.233   5.341
 6650SOL    HW120849   2.795   1.332   5.351
 6650SOL    HW220850   2.837   1.189   5.418
 6651SOL     OW20851   6.907   1.434   4.761
 6651SOL    HW120852   7.002   1.465   4.768
 6651SOL    HW220853   6.860   1.489   4.691
 6652SOL     OW20854   6.918   4.190   6.794
 6652SOL    HW120855   6.894   4.287   6.799
 6652SOL    HW220856   6.923   4.152   6.887
 6653SOL     OW20857   5.410   4.576   0.006
 6653SOL    HW120858   5.463   4.624   0.076
 6653SOL    HW220859   5.320   4.619   7.014
 6654SOL     OW20860   6.554   2.318   3.096
 6654SOL    HW120861   6.557   2.287   3.191
 6654SOL    HW220862   6.645   2.312   3.056
 6655SOL     OW20863   6.917   6.031   1.232
 6655SOL    HW120864   6.901   6.129   1.244
 6655SOL    HW220865   6.926   5.988   1.322
 6656SOL     OW20866   4.196   0.786   2.732
 6656SOL    HW120867   4.140   0.718   2.779
 6656SOL    HW220868   4.137   0.853   2.687
 6657SOL     OW20869   4.761   1.688   4.602
 6657SOL    HW120870   4.756   1.595   4.637
 6657SOL    HW220871   4.683   1.741   4.634
 6658SOL     OW20872   6.840   5.771   4.546
 6658SOL    HW120873   6.772   5.757   4.473
 6658SOL    HW220874   6.805   5.838   4.611
 6659SOL     OW20875   0.579   5.477   1.013
 6659SOL    HW120876   0.518   5.556   1.003
 6659SOL    HW220877   0.544   5.417   1.085
 6660SOL     OW20878   0.495   0.345   4.508
 6660SOL    HW120879   0.414   0.312   4.459
 6660SOL    HW220880   0.569   0.278   4.499
 6661SOL     OW20881   4.345   6.199   3.667
 6661SOL    HW120882   4.310   6.284   3.628
 6661SOL    HW220883   4.272   6.152   3.717
 6662SOL     OW20884   3.387   0.277   2.400
 6662SOL    HW120885   3.288   0.286   2.413
 6662SOL    HW220886   3.406   0.201   2.337
 6663SOL     OW20887   1.724   4.090   5.724
 6663SOL    HW120888   1.789   4.146   5.775
 6663SOL    HW220889   1.699   4.136   5.639
 6664SOL     OW20890   3.461   6.971   1.722
 6664SOL    HW120891   3.412   6.959   1.809
 6664SOL    HW220892   3.491   6.882   1.689
 6665SOL     OW20893   2.979   0.687   6.936
 6665SOL    HW120894   3.053   0.668   7.001
 6665SOL    HW220895   2.920   0.758   6.973
 6666SOL     OW20896   3.237   6.278   5.532
 6666SOL    HW120897   3.183   6.363   5.535
 6666SOL    HW220898   3.290   6.276   5.447
 6667SOL     OW20899   1.625   5.872   6.647
 6667SOL    HW120900   1.683   5.918   6.715
 6667SOL    HW220901   1.604   5.779   6.680
 6668SOL     OW20902   6.625   4.338   6.837
 6668SOL    HW120903   6.607   4.276   6.913
 6668SOL    HW220904   6.629   4.286   6.752
 6669SOL     OW20905   1.434   2.275   3.401
 6669SOL    HW120906   1.412   2.308   3.493
 6669SOL    HW220907   1.529   2.297   3.380
 6670SOL     OW20908   3.378   3.407   0.639
 6670SOL    HW120909   3.438   3.484   0.662
 6670SOL    HW220910   3.283   3.433   0.653
 6671SOL     OW20911   4.537   4.829   0.497
 6671SOL    HW120912   4.451   4.859   0.455
 6671SOL    HW220913   4.612   4.839   0.432
 6672SOL     OW20914   1.577   2.748   1.178
 6672SOL    HW120915   1.651   2.799   1.223
 6672SOL    HW220916   1.611   2.710   1.092
 6673SOL     OW20917   5.719   3.104   4.459
 6673SOL    HW120918   5.718   3.163   4.540
 6673SOL    HW220919   5.647   3.132   4.396
 6674SOL     OW20920   6.657   0.277   0.479
 6674SOL    HW120921   6.584   0.287   0.548
 6674SOL    HW220922   6.742   0.252   0.525
 6675SOL     OW20923   4.830   0.752   0.064
 6675SOL    HW120924   4.786   0.822   0.008
 6675SOL    HW220925   4.822   0.777   0.161
 6676SOL     OW20926   0.670   4.113   5.175
 6676SOL    HW120927   0.637   4.019   5.182
 6676SOL    HW220928   0.614   4.162   5.108
 6677SOL     OW20929   0.591   2.076   6.406
 6677SOL    HW120930   0.552   2.162   6.373
 6677SOL    HW220931   0.669   2.096   6.466
 6678SOL     OW20932   3.346   3.951   6.365
 6678SOL    HW120933   3.381   4.038   6.330
 6678SOL    HW220934   3.254   3.966   6.403
 6679SOL     OW20935   1.595   0.907   3.796
 6679SOL    HW120936   1.497   0.909   3.776
 6679SOL    HW220937   1.613   0.958   3.881
 6680SOL     OW20938   6.329   4.802   1.622
 6680SOL    HW120939   6.332   4.744   1.541
 6680SOL    HW220940   6.346   4.897   1.595
 6681SOL     OW20941   2.387   5.932   1.059
 6681SOL    HW120942   2.455   5.869   1.021
 6681SOL    HW220943   2.329   5.883   1.124
 6682SOL     OW20944   2.413   5.700   6.103
 6682SOL    HW120945   2.472   5.624   6.073
 6682SOL    HW220946   2.336   5.664   6.155
 6683SOL     OW20947   6.594   5.221   5.628
 6683SOL    HW120948   6.579   5.313   5.592
 6683SOL    HW220949   6.690   5.210   5.653
 6684SOL     OW20950   2.811   5.833   6.192
 6684SOL    HW120951   2.800   5.755   6.130
 6684SOL    HW220952   2.903   5.871   6.180
 6685SOL     OW20953   4.377   2.752   0.871
 6685SOL    HW120954   4.305   2.771   0.938
 6685SOL    HW220955   4.423   2.837   0.846
 6686SOL     OW20956   4.640   4.570   5.548
 6686SOL    HW120957   4.684   4.527   5.468
 6686SOL    HW220958   4.711   4.607   5.608
 6687SOL     OW20959   0.515   1.917   1.180
 6687SOL    HW120960   0.434   1.903   1.237
 6687SOL    HW220961   0.489   1.906   1.084
 6688SOL     OW20962   4.472   5.942   0.839
 6688SOL    HW120963   4.530   5.929   0.919
 6688SOL    HW220964   4.495   5.874   0.769
 6689SOL     OW20965   3.193   4.844   5.867
 6689SOL    HW120966   3.194   4.746   5.848
 6689SOL    HW220967   3.195   4.858   5.966
 6690SOL     OW20968   0.612   0.833   0.300
 6690SOL    HW120969   0.670   0.885   0.237
 6690SOL    HW220970   0.612   0.737   0.273
 6691SOL     OW20971   2.667   1.474   1.936
 6691SOL    HW120972   2.718   1.540   1.880
 6691SOL    HW220973   2.623   1.522   2.011
 6692SOL     OW20974   4.562   6.236   2.515
 6692SOL    HW120975   4.636   6.298   2.540
 6692SOL    HW220976   4.572   6.208   2.420
 6693SOL     OW20977   3.225   1.308   5.801
 6693SOL    HW120978   3.222   1.307   5.701
 6693SOL    HW220979   3.186   1.224   5.837
 6694SOL     OW20980   4.399   3.992   1.471
 6694SOL    HW120981   4.459   4.008   1.549
 6694SOL    HW220982   4.337   4.069   1.460
 6695SOL     OW20983   2.887   2.446   0.360
 6695SOL    HW120984   2.841   2.496   0.287
 6695SOL    HW220985   2.986   2.453   0.347
 6696SOL     OW20986   3.811   3.155   4.903
 6696SOL    HW120987   3.744   3.186   4.971
 6696SOL    HW220988   3.881   3.225   4.890
 6697SOL     OW20989   4.471   1.943   2.094
 6697SOL    HW120990   4.567   1.918   2.106
 6697SOL    HW220991   4.422   1.926   2.180
 6698SOL     OW20992   3.130   3.836   1.488
 6698SOL    HW120993   3.127   3.767   1.415
 6698SOL    HW220994   3.040   3.875   1.500
 6699SOL     OW20995   1.559   3.378   5.781
 6699SOL    HW120996   1.548   3.379   5.682
 6699SOL    HW220997   1.626   3.447   5.808
 6700SOL     OW20998   5.551   0.381   1.454
 6700SOL    HW120999   5.551   0.282   1.440
 6700SOL    HW221000   5.542   0.401   1.551
 6701SOL     OW21001   5.823   0.257   1.841
 6701SOL    HW121002   5.737   0.215   1.810
 6701SOL    HW221003   5.815   0.356   1.838
 6702SOL     OW21004   3.781   3.303   0.440
 6702SOL    HW121005   3.869   3.303   0.486
 6702SOL    HW221006   3.789   3.255   0.353
 6703SOL     OW21007   0.353   1.327   0.410
 6703SOL    HW121008   0.413   1.250   0.386
 6703SOL    HW221009   0.409   1.403   0.443
 6704SOL     OW21010   3.370   0.444   5.218
 6704SOL    HW121011   3.417   0.360   5.190
 6704SOL    HW221012   3.431   0.499   5.274
 6705SOL     OW21013   6.901   4.258   2.404
 6705SOL    HW121014   6.802   4.247   2.392
 6705SOL    HW221015   6.930   4.343   2.361
 6706SOL     OW21016   0.011   7.007   0.592
 6706SOL    HW121017   6.975   6.947   0.652
 6706SOL    HW221018   0.080   6.953   0.544
 6707SOL     OW21019   4.276   0.859   2.989
 6707SOL    HW121020   4.266   0.831   2.894
 6707SOL    HW221021   4.277   0.779   3.048
 6708SOL     OW21022   0.649   2.746   0.582
 6708SOL    HW121023   0.731   2.800   0.600
 6708SOL    HW221024   0.571   2.786   0.628
 6709SOL     OW21025   2.411   4.384   2.137
 6709SOL    HW121026   2.418   4.316   2.065
 6709SOL    HW221027   2.318   4.385   2.174
 6710SOL     OW21028   4.593   1.238   0.551
 6710SOL    HW121029   4.498   1.227   0.583
 6710SOL    HW221030   4.606   1.332   0.520
 6711SOL     OW21031   3.547   5.801   5.925
 6711SOL    HW121032   3.634   5.836   5.961
 6711SOL    HW221033   3.471   5.835   5.981
 6712SOL     OW21034   4.858   4.142   1.531
 6712SOL    HW121035   4.825   4.213   1.470
 6712SOL    HW221036   4.868   4.179   1.623
 6713SOL     OW21037   1.730   4.574   4.431
 6713SOL    HW121038   1.668   4.584   4.509
 6713SOL    HW221039   1.814   4.627   4.447
 6714SOL     OW21040   5.420   1.384   1.343
 6714SOL    HW121041   5.403   1.393   1.245
 6714SOL    HW221042   5.451   1.471   1.380
 6715SOL     OW21043   1.274   0.417   6.098
 6715SOL    HW121044   1.335   0.475   6.152
 6715SOL    HW221045   1.297   0.320   6.113
 6716SOL     OW21046   1.112   5.586   1.834
 6716SOL    HW121047   1.020   5.625   1.828
 6716SOL    HW221048   1.125   5.520   1.760
 6717SOL     OW21049   6.139   1.906   5.502
 6717SOL    HW121050   6.219   1.964   5.488
 6717SOL    HW221051   6.057   1.954   5.470
 6718SOL     OW21052   5.031   1.528   0.989
 6718SOL    HW121053   5.067   1.481   1.070
 6718SOL    HW221054   5.013   1.461   0.917
 6719SOL     OW21055   1.452   1.560   0.282
 6719SOL    HW121056   1.469   1.642   0.336
 6719SOL    HW221057   1.401   1.584   0.200
 6720SOL     OW21058   1.798   0.824   5.723
 6720SOL    HW121059   1.841   0.737   5.698
 6720SOL    HW221060   1.727   0.847   5.656
 6721SOL     OW21061   6.120   6.540   0.996
 6721SOL    HW121062   6.131   6.640   1.000
 6721SOL    HW221063   6.180   6.497   1.063
 6722SOL     OW21064   5.595   4.248   0.662
 6722SOL    HW121065   5.515   4.205   0.704
 6722SOL    HW221066   5.567   4.333   0.617
 6723SOL     OW21067   1.675   3.261   4.392
 6723SOL    HW121068   1.575   3.271   4.391
 6723SOL    HW221069   1.707   3.257   4.486
 6724SOL     OW21070   2.069   4.048   3.914
 6724SOL    HW121071   2.126   4.112   3.966
 6724SOL    HW221072   2.004   4.100   3.858
 6725SOL     OW21073   4.857   3.229   3.928
 6725SOL    HW121074   4.826   3.181   3.846
 6725SOL    HW221075   4.881   3.163   3.999
 6726SOL     OW21076   0.573   1.398   6.327
 6726SOL    HW121077   0.548   1.492   6.303
 6726SOL    HW221078   0.513   1.365   6.399
 6727SOL     OW21079   1.074   4.689   5.510
 6727SOL    HW121080   1.065   4.787   5.497
 6727SOL    HW221081   1.143   4.653   5.446
 6728SOL     OW21082   3.540   1.697   3.925
 6728SOL    HW121083   3.570   1.618   3.871
 6728SOL    HW221084   3.581   1.692   4.016
 6729SOL     OW21085   3.796   0.889   2.193
 6729SOL    HW121086   3.808   0.791   2.177
 6729SOL    HW221087   3.877   0.925   2.239
 6730SOL     OW21088   6.771   1.880   0.640
 6730SOL    HW121089   6.699   1.813   0.622
 6730SOL    HW221090   6.806   1.915   0.553
 6731SOL     OW21091   4.431   0.238   6.170
 6731SOL    HW121092   4.507   0.190   6.127
 6731SOL    HW221093   4.452   0.255   6.267
 6732SOL     OW21094   6.784   4.944   5.360
 6732SOL    HW121095   6.731   4.925   5.442
 6732SOL    HW221096   6.861   5.004   5.383
 6733SOL     OW21097   4.785   5.023   5.173
 6733SOL    HW121098   4.822   5.075   5.096
 6733SOL    HW221099   4.843   5.038   5.254
 6734SOL     OW21100   5.909   2.214   5.282
 6734SOL    HW121101   6.004   2.186   5.295
 6734SOL    HW221102   5.866   2.225   5.372
 6735SOL     OW21103   5.678   2.443   3.990
 6735SOL    HW121104   5.606   2.457   4.058
 6735SOL    HW221105   5.637   2.409   3.905
 6736SOL     OW21106   3.327   3.956   0.906
 6736SOL    HW121107   3.388   3.940   0.829
 6736SOL    HW221108   3.258   3.884   0.911
 6737SOL     OW21109   6.589   3.609   0.965
 6737SOL    HW121110   6.656   3.564   0.906
 6737SOL    HW221111   6.588   3.563   1.054
 6738SOL     OW21112   2.102   6.594   4.397
 6738SOL    HW121113   2.177   6.529   4.384
 6738SOL    HW221114   2.127   6.661   4.467
 6739SOL     OW21115   6.895   6.883   5.488
 6739SOL    HW121116   6.830   6.893   5.412
 6739SOL    HW221117   6.865   6.810   5.548
 6740SOL     OW21118   0.209   6.966   1.975
 6740SOL    HW121119   0.304   6.941   1.996
 6740SOL    HW221120   0.208   0.025   1.912
 6741SOL     OW21121   3.449   1.642   0.275
 6741SOL    HW121122   3.448   1.688   0.186
 6741SOL    HW221123   3.369   1.583   0.282
 6742SOL     OW21124   6.209   4.290   2.837
 6742SOL    HW121125   6.199   4.227   2.760
 6742SOL    HW221126   6.215   4.238   2.922
 6743SOL     OW21127   4.057   3.459   6.816
 6743SOL    HW121128   4.012   3.548   6.813
 6743SOL    HW221129   3.991   3.388   6.793
 6744SOL     OW21130   6.433   6.715   5.475
 6744SOL    HW121131   6.390   6.687   5.560
 6744SOL    HW221132   6.518   6.663   5.462
 6745SOL     OW21133   6.625   4.145   5.442
 6745SOL    HW121134   6.580   4.060   5.413
 6745SOL    HW221135   6.579   4.181   5.523
 6746SOL     OW21136   0.982   2.141   3.163
 6746SOL    HW121137   1.019   2.212   3.104
 6746SOL    HW221138   1.011   2.158   3.258
 6747SOL     OW21139   0.563   6.306   4.970
 6747SOL    HW121140   0.544   6.370   5.044
 6747SOL    HW221141   0.546   6.213   5.002
 6748SOL     OW21142   2.151   0.633   4.863
 6748SOL    HW121143   2.074   0.694   4.881
 6748SOL    HW221144   2.221   0.681   4.810
 6749SOL     OW21145   4.158   5.195   2.236
 6749SOL    HW121146   4.215   5.261   2.284
 6749SOL    HW221147   4.066   5.195   2.275
 6750SOL     OW21148   3.405   0.934   5.852
 6750SOL    HW121149   3.342   0.894   5.919
 6750SOL    HW221150   3.485   0.971   5.900
 6751SOL     OW21151   4.045   0.692   4.322
 6751SOL    HW121152   3.972   0.727   4.382
 6751SOL    HW221153   4.124   0.667   4.377
 6752SOL     OW21154   2.088   4.648   2.747
 6752SOL    HW121155   2.148   4.705   2.804
 6752SOL    HW221156   2.093   4.553   2.779
 6753SOL     OW21157   3.922   3.276   6.658
 6753SOL    HW121158   3.954   3.184   6.636
 6753SOL    HW221159   3.913   3.330   6.574
 6754SOL     OW21160   6.361   1.210   0.621
 6754SOL    HW121161   6.353   1.275   0.545
 6754SOL    HW221162   6.371   1.260   0.707
 6755SOL     OW21163   2.980   5.936   5.946
 6755SOL    HW121164   2.887   5.910   5.918
 6755SOL    HW221165   2.978   6.030   5.980
 6756SOL     OW21166   3.538   3.231   6.430
 6756SOL    HW121167   3.449   3.266   6.461
 6756SOL    HW221168   3.546   3.244   6.331
 6757SOL     OW21169   3.956   0.032   1.859
 6757SOL    HW121170   3.860   0.060   1.865
 6757SOL    HW221171   3.970   6.997   1.776
 6758SOL     OW21172   5.105   3.068   3.307
 6758SOL    HW121173   5.164   2.987   3.306
 6758SOL    HW221174   5.079   3.089   3.401
 6759SOL     OW21175   1.019   1.758   2.858
 6759SOL    HW121176   1.065   1.801   2.936
 6759SOL    HW221177   1.035   1.659   2.861
 6760SOL     OW21178   5.367   2.229   5.500
 6760SOL    HW121179   5.377   2.240   5.401
 6760SOL    HW221180   5.271   2.218   5.523
 6761SOL     OW21181   3.577   1.508   5.149
 6761SOL    HW121182   3.519   1.480   5.072
 6761SOL    HW221183   3.655   1.560   5.115
 6762SOL     OW21184   6.018   4.953   4.672
 6762SOL    HW121185   6.039   4.880   4.738
 6762SOL    HW221186   6.086   5.026   4.681
 6763SOL     OW21187   5.736   7.001   4.125
 6763SOL    HW121188   5.644   6.975   4.153
 6763SOL    HW221189   5.785   6.921   4.089
 6764SOL     OW21190   0.228   5.142   1.835
 6764SOL    HW121191   0.226   5.087   1.919
 6764SOL    HW221192   0.150   5.117   1.777
 6765SOL     OW21193   0.079   3.266   2.317
 6765SOL    HW121194   0.084   3.166   2.310
 6765SOL    HW221195   7.013   3.298   2.273
 6766SOL     OW21196   5.902   0.138   1.366
 6766SOL    HW121197   5.923   0.228   1.404
 6766SOL    HW221198   5.819   0.103   1.410
 6767SOL     OW21199   3.403   0.036   0.997
 6767SOL    HW121200   3.466   0.007   1.068
 6767SOL    HW221201   3.327   0.087   1.039
 6768SOL     OW21202   1.837   6.883   6.744
 6768SOL    HW121203   1.885   6.925   6.667
 6768SOL    HW221204   1.851   6.938   6.827
 6769SOL     OW21205   4.851   2.936   1.628
 6769SOL    HW121206   4.798   2.984   1.698
 6769SOL    HW221207   4.799   2.932   1.543
 6770SOL     OW21208   0.400   1.629   1.626
 6770SOL    HW121209   0.350   1.556   1.581
 6770SOL    HW221210   0.473   1.662   1.565
 6771SOL     OW21211   4.549   1.902   3.186
 6771SOL    HW121212   4.458   1.861   3.184
 6771SOL    HW221213   4.602   1.864   3.262
 6772SOL     OW21214   3.887   1.870   3.695
 6772SOL    HW121215   3.934   1.810   3.630
 6772SOL    HW221216   3.936   1.956   3.703
 6773SOL     OW21217   0.461   3.720   1.272
 6773SOL    HW121218   0.544   3.664   1.277
 6773SOL    HW221219   0.479   3.802   1.217
 6774SOL     OW21220   0.623   2.553   6.468
 6774SOL    HW121221   0.695   2.537   6.535
 6774SOL    HW221222   0.555   2.616   6.506
 6775SOL     OW21223   1.459   4.461   0.156
 6775SOL    HW121224   1.555   4.487   0.170
 6775SOL    HW221225   1.421   4.429   0.242
 6776SOL     OW21226   6.101   5.439   6.788
 6776SOL    HW121227   6.099   5.442   6.888
 6776SOL    HW221228   6.163   5.366   6.758
 6777SOL     OW21229   4.828   5.693   0.086
 6777SOL    HW121230   4.892   5.742   0.144
 6777SOL    HW221231   4.747   5.667   0.139
 6778SOL     OW21232   6.799   5.595   3.580
 6778SOL    HW121233   6.873   5.626   3.520
 6778SOL    HW221234   6.731   5.545   3.525
 6779SOL     OW21235   6.383   3.621   6.458
 6779SOL    HW121236   6.301   3.563   6.465
 6779SOL    HW221237   6.461   3.566   6.428
 6780SOL     OW21238   1.084   2.799   2.270
 6780SOL    HW121239   1.174   2.792   2.312
 6780SOL    HW221240   1.054   2.895   2.271
 6781SOL     OW21241   5.890   5.010   5.460
 6781SOL    HW121242   5.986   5.018   5.431
 6781SOL    HW221243   5.886   4.960   5.547
 6782SOL     OW21244   6.182   1.094   2.822
 6782SOL    HW121245   6.261   1.043   2.857
 6782SOL    HW221246   6.132   1.036   2.758
 6783SOL     OW21247   0.483   6.044   6.384
 6783SOL    HW121248   0.557   5.987   6.421
 6783SOL    HW221249   0.509   6.076   6.293
 6784SOL     OW21250   3.776   2.906   0.013
 6784SOL    HW121251   3.786   2.998   6.993
 6784SOL    HW221252   3.736   2.911   0.104
 6785SOL     OW21253   6.282   5.740   1.773
 6785SOL    HW121254   6.281   5.813   1.705
 6785SOL    HW221255   6.220   5.667   1.745
 6786SOL     OW21256   1.790   3.572   5.841
 6786SOL    HW121257   1.814   3.663   5.808
 6786SOL    HW221258   1.826   3.558   5.933
 6787SOL     OW21259   1.066   3.475   1.705
 6787SOL    HW121260   1.023   3.422   1.778
 6787SOL    HW221261   1.094   3.564   1.739
 6788SOL     OW21262   2.999   4.758   0.990
 6788SOL    HW121263   2.993   4.793   1.083
 6788SOL    HW221264   2.961   4.665   0.986
 6789SOL     OW21265   0.817   5.502   3.360
 6789SOL    HW121266   0.791   5.458   3.274
 6789SOL    HW221267   0.756   5.472   3.433
 6790SOL     OW21268   1.393   2.445   0.495
 6790SOL    HW121269   1.466   2.480   0.436
 6790SOL    HW221270   1.313   2.505   0.489
 6791SOL     OW21271   3.612   3.796   6.252
 6791SOL    HW121272   3.518   3.773   6.277
 6791SOL    HW221273   3.652   3.853   6.324
 6792SOL     OW21274   0.408   4.641   0.071
 6792SOL    HW121275   0.349   4.579   0.021
 6792SOL    HW221276   0.503   4.612   0.063
 6793SOL     OW21277   5.768   1.446   1.301
 6793SOL    HW121278   5.749   1.387   1.380
 6793SOL    HW221279   5.714   1.530   1.309
 6794SOL     OW21280   4.330   1.593   4.543
 6794SOL    HW121281   4.323   1.653   4.622
 6794SOL    HW221282   4.408   1.620   4.486
 6795SOL     OW21283   3.207   5.863   0.207
 6795SOL    HW121284   3.141   5.920   0.158
 6795SOL    HW221285   3.235   5.910   0.291
 6796SOL     OW21286   3.944   2.045   2.867
 6796SOL    HW121287   3.935   2.117   2.936
 6796SOL    HW221288   3.931   2.084   2.776
 6797SOL     OW21289   6.831   2.668   1.985
 6797SOL    HW121290   6.898   2.619   2.041
 6797SOL    HW221291   6.844   2.644   1.888
 6798SOL     OW21292   6.372   0.283   2.400
 6798SOL    HW121293   6.313   0.263   2.322
 6798SOL    HW221294   6.318   0.279   2.485
 6799SOL     OW21295   5.153   5.964   2.015
 6799SOL    HW121296   5.146   5.908   2.097
 6799SOL    HW221297   5.246   5.960   1.979
 6800SOL     OW21298   3.531   3.863   6.774
 6800SOL    HW121299   3.494   3.929   6.708
 6800SOL    HW221300   3.457   3.832   6.834
 6801SOL     OW21301   1.267   1.751   3.017
 6801SOL    HW121302   1.290   1.786   2.927
 6801SOL    HW221303   1.254   1.828   3.080
 6802SOL     OW21304   2.530   4.953   2.663
 6802SOL    HW121305   2.549   4.959   2.761
 6802SOL    HW221306   2.536   4.858   2.633
 6803SOL     OW21307   4.752   2.368   0.178
 6803SOL    HW121308   4.732   2.321   0.263
 6803SOL    HW221309   4.847   2.399   0.178
 6804SOL     OW21310   0.988   0.100   3.865
 6804SOL    HW121311   0.914   0.149   3.911
 6804SOL    HW221312   0.973   0.104   3.766
 6805SOL     OW21313   5.086   1.020   4.903
 6805SOL    HW121314   5.005   1.044   4.850
 6805SOL    HW221315   5.161   1.082   4.880
 6806SOL     OW21316   5.459   6.273   5.195
 6806SOL    HW121317   5.456   6.297   5.292
 6806SOL    HW221318   5.514   6.190   5.184
 6807SOL     OW21319   3.401   3.092   6.998
 6807SOL    HW121320   3.463   3.064   6.925
 6807SOL    HW221321   3.415   3.033   0.060
 6808SOL     OW21322   1.888   3.184   3.985
 6808SOL    HW121323   1.904   3.137   4.072
 6808SOL    HW221324   1.911   3.122   3.910
 6809SOL     OW21325   2.145   4.056   6.717
 6809SOL    HW121326   2.130   4.072   6.619
 6809SOL    HW221327   2.069   4.096   6.769
 6810SOL     OW21328   5.558   1.916   2.808
 6810SOL    HW121329   5.544   1.961   2.896
 6810SOL    HW221330   5.573   1.984   2.737
 6811SOL     OW21331   4.918   5.854   1.895
 6811SOL    HW121332   4.844   5.892   1.951
 6811SOL    HW221333   5.006   5.888   1.927
 6812SOL     OW21334   3.688   2.881   2.412
 6812SOL    HW121335   3.687   2.844   2.319
 6812SOL    HW221336   3.599   2.866   2.455
 6813SOL     OW21337   5.218   3.427   1.204
 6813SOL    HW121338   5.190   3.332   1.185
 6813SOL    HW221339   5.291   3.453   1.140
 6814SOL     OW21340   2.920   3.260   0.397
 6814SOL    HW121341   2.892   3.180   0.451
 6814SOL    HW221342   2.840   3.302   0.355
 6815SOL     OW21343   1.725   6.847   1.641
 6815SOL    HW121344   1.734   6.893   1.553
 6815SOL    HW221345   1.656   6.893   1.696
 6816SOL     OW21346   6.416   3.936   1.295
 6816SOL    HW121347   6.425   4.018   1.352
 6816SOL    HW221348   6.324   3.932   1.256
 6817SOL     OW21349   0.726   2.356   6.095
 6817SOL    HW121350   0.660   2.341   6.169
 6817SOL    HW221351   0.795   2.422   6.125
 6818SOL     OW21352   3.359   5.522   1.764
 6818SOL    HW121353   3.312   5.466   1.833
 6818SOL    HW221354   3.291   5.572   1.711
 6819SOL     OW21355   3.155   1.078   3.587
 6819SOL    HW121356   3.224   1.005   3.589
 6819SOL    HW221357   3.197   1.163   3.557
 6820SOL     OW21358   1.491   4.901   3.987
 6820SOL    HW121359   1.540   4.985   4.007
 6820SOL    HW221360   1.451   4.907   3.896
 6821SOL     OW21361   2.629   2.359   4.325
 6821SOL    HW121362   2.641   2.432   4.257
 6821SOL    HW221363   2.712   2.304   4.329
 6822SOL     OW21364   4.931   2.032   5.534
 6822SOL    HW121365   4.861   2.069   5.472
 6822SOL    HW221366   4.886   1.978   5.605
 6823SOL     OW21367   3.787   3.530   2.677
 6823SOL    HW121368   3.874   3.561   2.639
 6823SOL    HW221369   3.749   3.601   2.736
 6824SOL     OW21370   1.341   4.732   6.235
 6824SOL    HW121371   1.290   4.816   6.215
 6824SOL    HW221372   1.373   4.734   6.330
 6825SOL     OW21373   5.161   6.953   3.895
 6825SOL    HW121374   5.240   7.006   3.926
 6825SOL    HW221375   5.079   6.983   3.945
 6826SOL     OW21376   0.876   2.670   2.750
 6826SOL    HW121377   0.967   2.703   2.776
 6826SOL    HW221378   0.864   2.577   2.784
 6827SOL     OW21379   6.062   6.217   4.957
 6827SOL    HW121380   6.057   6.252   5.051
 6827SOL    HW221381   5.983   6.251   4.905
 6828SOL     OW21382   2.253   1.685   1.276
 6828SOL    HW121383   2.158   1.655   1.272
 6828SOL    HW221384   2.259   1.771   1.328
 6829SOL     OW21385   5.416   4.835   3.677
 6829SOL    HW121386   5.458   4.750   3.646
 6829SOL    HW221387   5.450   4.911   3.621
 6830SOL     OW21388   5.096   2.342   4.446
 6830SOL    HW121389   5.025   2.401   4.408
 6830SOL    HW221390   5.055   2.258   4.479
 6831SOL     OW21391   6.998   1.096   5.820
 6831SOL    HW121392   6.936   1.163   5.779
 6831SOL    HW221393   6.966   1.004   5.801
 6832SOL     OW21394   2.909   5.035   1.836
 6832SOL    HW121395   2.936   4.945   1.872
 6832SOL    HW221396   2.919   5.036   1.737
 6833SOL     OW21397   4.131   5.608   0.260
 6833SOL    HW121398   4.088   5.548   0.193
 6833SOL    HW221399   4.072   5.687   0.277
 6834SOL     OW21400   3.957   5.238   2.471
 6834SOL    HW121401   3.944   5.330   2.507
 6834SOL    HW221402   3.988   5.178   2.545
 6835SOL     OW21403   3.786   6.793   4.765
 6835SOL    HW121404   3.748   6.886   4.770
 6835SOL    HW221405   3.776   6.748   4.854
 6836SOL     OW21406   3.387   5.912   6.132
 6836SOL    HW121407   3.412   6.006   6.155
 6836SOL    HW221408   3.412   5.851   6.208
 6837SOL     OW21409   0.638   2.563   2.598
 6837SOL    HW121410   0.668   2.603   2.685
 6837SOL    HW221411   0.671   2.619   2.522
 6838SOL     OW21412   2.614   1.794   0.377
 6838SOL    HW121413   2.620   1.859   0.452
 6838SOL    HW221414   2.705   1.762   0.352
 6839SOL     OW21415   4.569   0.866   1.542
 6839SOL    HW121416   4.578   0.963   1.521
 6839SOL    HW221417   4.494   0.827   1.487
 6840SOL     OW21418   0.944   1.213   6.462
 6840SOL    HW121419   0.895   1.227   6.376
 6840SOL    HW221420   0.998   1.129   6.457
 6841SOL     OW21421   0.316   3.535   6.177
 6841SOL    HW121422   0.242   3.475   6.145
 6841SOL    HW221423   0.325   3.612   6.115
 6842SOL     OW21424   2.519   4.525   3.061
 6842SOL    HW121425   2.570   4.485   2.985
 6842SOL    HW221426   2.447   4.584   3.026
 6843SOL     OW21427   4.076   6.947   0.772
 6843SOL    HW121428   4.116   0.013   0.735
 6843SOL    HW221429   3.984   6.935   0.735
 6844SOL     OW21430   5.262   0.453   6.156
 6844SOL    HW121431   5.221   0.542   6.175
 6844SOL    HW221432   5.329   0.462   6.082
 6845SOL     OW21433   5.048   2.196   2.568
 6845SOL    HW121434   4.958   2.154   2.555
 6845SOL    HW221435   5.048   2.248   2.653
 6846SOL     OW21436   2.554   3.665   0.006
 6846SOL    HW121437   2.472   3.609   0.011
 6846SOL    HW221438   2.533   3.759   0.032
 6847SOL     OW21439   0.052   2.976   4.550
 6847SOL    HW121440   0.110   3.016   4.479
 6847SOL    HW221441   0.052   3.036   4.631
 6848SOL     OW21442   6.961   5.035   3.273
 6848SOL    HW121443   7.004   5.013   3.185
 6848SOL    HW221444   6.975   5.132   3.294
 6849SOL     OW21445   3.151   3.987   6.015
 6849SOL    HW121446   3.090   3.913   6.041
 6849SOL    HW221447   3.124   4.023   5.925
 6850SOL     OW21448   4.741   0.278   3.882
 6850SOL    HW121449   4.678   0.336   3.934
 6850SOL    HW221450   4.815   0.335   3.845
 6851SOL     OW21451   2.095   3.299   3.422
 6851SOL    HW121452   2.082   3.390   3.461
 6851SOL    HW221453   2.025   3.237   3.458
 6852SOL     OW21454   4.282   4.713   0.231
 6852SOL    HW121455   4.187   4.722   0.260
 6852SOL    HW221456   4.329   4.801   0.245
 6853SOL     OW21457   4.051   4.677   6.561
 6853SOL    HW121458   4.030   4.616   6.485
 6853SOL    HW221459   3.982   4.666   6.633
 6854SOL     OW21460   5.085   5.780   6.499
 6854SOL    HW121461   5.079   5.757   6.402
 6854SOL    HW221462   5.153   5.722   6.543
 6855SOL     OW21463   4.238   4.937   3.292
 6855SOL    HW121464   4.219   5.010   3.357
 6855SOL    HW221465   4.336   4.916   3.293
 6856SOL     OW21466   0.217   2.257   6.613
 6856SOL    HW121467   0.132   2.251   6.665
 6856SOL    HW221468   0.270   2.336   6.645
 6857SOL     OW21469   1.045   4.179   5.675
 6857SOL    HW121470   0.956   4.223   5.678
 6857SOL    HW221471   1.035   4.083   5.701
 6858SOL     OW21472   1.983   4.190   1.847
 6858SOL    HW121473   2.058   4.240   1.803
 6858SOL    HW221474   2.008   4.169   1.942
 6859SOL     OW21475   1.830   1.674   1.996
 6859SOL    HW121476   1.784   1.760   1.972
 6859SOL    HW221477   1.833   1.614   1.916
 6860SOL     OW21478   0.584   6.499   1.071
 6860SOL    HW121479   0.535   6.428   1.122
 6860SOL    HW221480   0.561   6.491   0.974
 6861SOL     OW21481   6.193   3.253   6.296
 6861SOL    HW121482   6.282   3.276   6.257
 6861SOL    HW221483   6.127   3.240   6.222
 6862SOL     OW21484   0.832   4.348   4.045
 6862SOL    HW121485   0.838   4.414   3.970
 6862SOL    HW221486   0.923   4.334   4.084
 6863SOL     OW21487   5.335   1.568   5.480
 6863SOL    HW121488   5.354   1.662   5.452
 6863SOL    HW221489   5.247   1.539   5.441
 6864SOL     OW21490   1.603   3.707   6.227
 6864SOL    HW121491   1.567   3.662   6.145
 6864SOL    HW221492   1.640   3.638   6.289
 6865SOL     OW21493   2.459   0.524   4.116
 6865SOL    HW121494   2.369   0.496   4.080
 6865SOL    HW221495   2.452   0.616   4.153
 6866SOL     OW21496   1.336   4.713   0.156
 6866SOL    HW121497   1.360   4.616   0.164
 6866SOL    HW221498   1.243   4.721   0.121
 6867SOL     OW21499   2.015   3.714   6.604
 6867SOL    HW121500   1.984   3.809   6.611
 6867SOL    HW221501   2.091   3.699   6.668
 6868SOL     OW21502   3.063   5.293   3.535
 6868SOL    HW121503   3.124   5.219   3.563
 6868SOL    HW221504   2.975   5.284   3.582
 6869SOL     OW21505   2.617   0.887   5.993
 6869SOL    HW121506   2.607   0.985   6.011
 6869SOL    HW221507   2.554   0.836   6.051
 6870SOL     OW21508   5.623   1.971   0.274
 6870SOL    HW121509   5.616   1.979   0.373
 6870SOL    HW221510   5.719   1.962   0.248
 6871SOL     OW21511   6.757   3.275   2.601
 6871SOL    HW121512   6.855   3.262   2.616
 6871SOL    HW221513   6.718   3.329   2.676
 6872SOL     OW21514   1.747   4.291   0.950
 6872SOL    HW121515   1.845   4.281   0.970
 6872SOL    HW221516   1.709   4.366   1.004
 6873SOL     OW21517   0.826   4.478   2.739
 6873SOL    HW121518   0.813   4.490   2.641
 6873SOL    HW221519   0.748   4.429   2.777
 6874SOL     OW21520   4.727   6.222   2.838
 6874SOL    HW121521   4.744   6.270   2.751
 6874SOL    HW221522   4.698   6.288   2.907
 6875SOL     OW21523   2.578   0.798   0.638
 6875SOL    HW121524   2.533   0.732   0.579
 6875SOL    HW221525   2.665   0.825   0.599
 6876SOL     OW21526   5.451   5.505   3.506
 6876SOL    HW121527   5.523   5.564   3.470
 6876SOL    HW221528   5.371   5.510   3.445
 6877SOL     OW21529   0.627   3.557   1.643
 6877SOL    HW121530   0.573   3.476   1.620
 6877SOL    HW221531   0.700   3.569   1.577
 6878SOL     OW21532   1.939   0.977   4.518
 6878SOL    HW121533   1.857   1.014   4.561
 6878SOL    HW221534   1.955   1.023   4.431
 6879SOL     OW21535   1.274   1.606   1.061
 6879SOL    HW121536   1.341   1.622   1.133
 6879SOL    HW221537   1.272   1.685   1.000
 6880SOL     OW21538   1.429   5.788   0.380
 6880SOL    HW121539   1.422   5.790   0.480
 6880SOL    HW221540   1.375   5.863   0.341
 6881SOL     OW21541   0.282   3.354   0.412
 6881SOL    HW121542   0.237   3.409   0.341
 6881SOL    HW221543   0.212   3.317   0.474
 6882SOL     OW21544   2.900   6.205   0.283
 6882SOL    HW121545   2.809   6.169   0.262
 6882SOL    HW221546   2.941   6.152   0.357
 6883SOL     OW21547   5.180   0.585   1.460
 6883SOL    HW121548   5.204   0.538   1.545
 6883SOL    HW221549   5.183   0.684   1.474
 6884SOL     OW21550   1.977   4.189   3.427
 6884SOL    HW121551   1.956   4.277   3.470
 6884SOL    HW221552   2.021   4.129   3.494
 6885SOL     OW21553   5.995   4.494   5.167
 6885SOL    HW121554   6.018   4.468   5.261
 6885SOL    HW221555   5.924   4.433   5.132
 6886SOL     OW21556   5.377   2.852   0.361
 6886SOL    HW121557   5.312   2.908   0.413
 6886SOL    HW221558   5.338   2.829   0.272
 6887SOL     OW21559   5.532   6.030   5.993
 6887SOL    HW121560   5.601   6.088   6.034
 6887SOL    HW221561   5.557   5.934   6.005
 6888SOL     OW21562   6.241   3.971   0.113
 6888SOL    HW121563   6.225   3.900   0.045
 6888SOL    HW221564   6.273   4.054   0.067
 6889SOL     OW21565   0.366   1.779   5.589
 6889SOL    HW121566   0.269   1.804   5.577
 6889SOL    HW221567   0.422   1.861   5.580
 6890SOL     OW21568   4.855   4.502   3.887
 6890SOL    HW121569   4.919   4.510   3.962
 6890SOL    HW221570   4.858   4.410   3.849
 6891SOL     OW21571   1.467   1.679   1.223
 6891SOL    HW121572   1.510   1.768   1.239
 6891SOL    HW221573   1.527   1.623   1.167
 6892SOL     OW21574   3.217   0.943   4.970
 6892SOL    HW121575   3.288   0.877   4.996
 6892SOL    HW221576   3.130   0.916   5.011
 6893SOL     OW21577   6.017   3.232   0.517
 6893SOL    HW121578   6.011   3.252   0.419
 6893SOL    HW221579   5.933   3.263   0.562
 6894SOL     OW21580   5.832   4.717   0.162
 6894SOL    HW121581   5.765   4.764   0.104
 6894SOL    HW221582   5.915   4.701   0.110
 6895SOL     OW21583   0.973   6.121   2.507
 6895SOL    HW121584   0.997   6.047   2.571
 6895SOL    HW221585   0.957   6.205   2.558
 6896SOL     OW21586   4.657   1.232   5.515
 6896SOL    HW121587   4.670   1.181   5.429
 6896SOL    HW221588   4.705   1.319   5.510
 6897SOL     OW21589   4.451   2.681   5.231
 6897SOL    HW121590   4.358   2.645   5.217
 6897SOL    HW221591   4.515   2.631   5.173
 6898SOL     OW21592   1.704   6.872   1.307
 6898SOL    HW121593   1.684   6.929   1.228
 6898SOL    HW221594   1.634   6.801   1.315
 6899SOL     OW21595   5.796   6.153   2.386
 6899SOL    HW121596   5.877   6.188   2.433
 6899SOL    HW221597   5.809   6.162   2.287
 6900SOL     OW21598   6.498   3.578   5.013
 6900SOL    HW121599   6.478   3.674   4.995
 6900SOL    HW221600   6.464   3.554   5.104
 6901SOL     OW21601   5.643   5.255   6.069
 6901SOL    HW121602   5.657   5.167   6.025
 6901SOL    HW221603   5.554   5.256   6.116
 6902SOL     OW21604   0.405   5.643   5.719
 6902SOL    HW121605   0.342   5.608   5.650
 6902SOL    HW221606   0.360   5.715   5.772
 6903SOL     OW21607   1.573   5.954   4.797
 6903SOL    HW121608   1.549   5.999   4.711
 6903SOL    HW221609   1.497   5.961   4.861
 6904SOL     OW21610   0.202   0.348   5.617
 6904SOL    HW121611   0.163   0.285   5.685
 6904SOL    HW221612   0.227   0.296   5.535
 6905SOL     OW21613   5.215   6.073   5.974
 6905SOL    HW121614   5.301   6.116   6.002
 6905SOL    HW221615   5.220   6.048   5.878
 6906SOL     OW21616   2.760   0.807   3.319
 6906SOL    HW121617   2.782   0.872   3.392
 6906SOL    HW221618   2.794   0.842   3.232
 6907SOL     OW21619   6.082   1.697   0.667
 6907SOL    HW121620   6.014   1.766   0.689
 6907SOL    HW221621   6.110   1.706   0.571
 6908SOL     OW21622   3.088   5.310   0.914
 6908SOL    HW121623   3.160   5.280   0.850
 6908SOL    HW221624   3.093   5.409   0.925
 6909SOL     OW21625   5.232   4.946   2.709
 6909SOL    HW121626   5.327   4.960   2.739
 6909SOL    HW221627   5.215   4.848   2.697
 6910SOL     OW21628   0.866   2.198   2.654
 6910SOL    HW121629   0.868   2.280   2.713
 6910SOL    HW221630   0.866   2.226   2.558
 6911SOL     OW21631   2.432   6.087   5.618
 6911SOL    HW121632   2.506   6.029   5.587
 6911SOL    HW221633   2.443   6.179   5.580
 6912SOL     OW21634   2.751   3.924   6.953
 6912SOL    HW121635   2.730   3.927   6.856
 6912SOL    HW221636   2.799   3.838   6.974
 6913SOL     OW21637   4.282   5.730   5.699
 6913SOL    HW121638   4.289   5.710   5.601
 6913SOL    HW221639   4.246   5.822   5.713
 6914SOL     OW21640   5.813   2.215   2.041
 6914SOL    HW121641   5.812   2.312   2.065
 6914SOL    HW221642   5.729   2.172   2.075
 6915SOL     OW21643   0.007   3.211   3.480
 6915SOL    HW121644   0.005   3.123   3.527
 6915SOL    HW221645   6.998   3.284   3.544
 6916SOL     OW21646   4.622   6.192   6.108
 6916SOL    HW121647   4.654   6.111   6.058
 6916SOL    HW221648   4.556   6.242   6.052
 6917SOL     OW21649   3.378   6.448   2.295
 6917SOL    HW121650   3.474   6.421   2.288
 6917SOL    HW221651   3.333   6.393   2.365
 6918SOL     OW21652   2.357   3.648   0.409
 6918SOL    HW121653   2.360   3.717   0.337
 6918SOL    HW221654   2.262   3.618   0.422
 6919SOL     OW21655   6.183   6.263   3.349
 6919SOL    HW121656   6.170   6.217   3.437
 6919SOL    HW221657   6.262   6.325   3.355
 6920SOL     OW21658   6.399   1.610   5.770
 6920SOL    HW121659   6.318   1.668   5.757
 6920SOL    HW221660   6.481   1.661   5.743
 6921SOL     OW21661   4.496   0.516   4.496
 6921SOL    HW121662   4.567   0.587   4.499
 6921SOL    HW221663   4.520   0.449   4.426
 6922SOL     OW21664   2.428   5.236   6.774
 6922SOL    HW121665   2.477   5.315   6.813
 6922SOL    HW221666   2.355   5.268   6.714
 6923SOL     OW21667   5.201   0.264   2.752
 6923SOL    HW121668   5.221   0.178   2.704
 6923SOL    HW221669   5.285   0.298   2.796
 6924SOL     OW21670   3.143   5.741   2.021
 6924SOL    HW121671   3.222   5.776   2.072
 6924SOL    HW221672   3.147   5.774   1.927
 6925SOL     OW21673   6.190   6.638   4.760
 6925SOL    HW121674   6.224   6.693   4.684
 6925SOL    HW221675   6.180   6.696   4.841
 6926SOL     OW21676   3.177   2.127   0.293
 6926SOL    HW121677   3.106   2.150   0.359
 6926SOL    HW221678   3.263   2.109   0.341
 6927SOL     OW21679   4.057   0.239   0.378
 6927SOL    HW121680   4.011   0.180   0.444
 6927SOL    HW221681   4.029   0.213   0.286
 6928SOL     OW21682   3.370   5.407   0.019
 6928SOL    HW121683   3.465   5.436   0.027
 6928SOL    HW221684   3.332   5.393   0.111
 6929SOL     OW21685   5.025   4.905   2.488
 6929SOL    HW121686   5.123   4.902   2.508
 6929SOL    HW221687   5.008   4.975   2.418
 6930SOL     OW21688   0.862   6.629   1.799
 6930SOL    HW121689   0.918   6.709   1.821
 6930SOL    HW221690   0.916   6.565   1.744
 6931SOL     OW21691   3.100   3.651   1.005
 6931SOL    HW121692   3.113   3.699   1.092
 6931SOL    HW221693   3.083   3.554   1.023
 6932SOL     OW21694   3.715   0.085   6.029
 6932SOL    HW121695   3.700   0.120   5.936
 6932SOL    HW221696   3.748   0.159   6.088
 6933SOL     OW21697   2.888   5.616   6.039
 6933SOL    HW121698   2.883   5.629   5.940
 6933SOL    HW221699   2.983   5.598   6.066
 6934SOL     OW21700   5.018   5.416   6.981
 6934SOL    HW121701   4.941   5.459   6.934
 6934SOL    HW221702   5.087   5.389   6.914
 6935SOL     OW21703   4.034   6.182   1.645
 6935SOL    HW121704   4.055   6.152   1.738
 6935SOL    HW221705   4.012   6.280   1.645
 6936SOL     OW21706   0.802   1.834   5.811
 6936SOL    HW121707   0.797   1.827   5.711
 6936SOL    HW221708   0.894   1.861   5.838
 6937SOL     OW21709   5.716   5.385   0.546
 6937SOL    HW121710   5.780   5.435   0.605
 6937SOL    HW221711   5.747   5.290   0.536
 6938SOL     OW21712   2.843   1.317   4.881
 6938SOL    HW121713   2.780   1.395   4.885
 6938SOL    HW221714   2.850   1.284   4.787
 6939SOL     OW21715   5.781   3.735   4.047
 6939SOL    HW121716   5.776   3.667   4.120
 6939SOL    HW221717   5.723   3.813   4.070
 6940SOL     OW21718   2.816   6.445   0.975
 6940SOL    HW121719   2.802   6.509   0.899
 6940SOL    HW221720   2.737   6.384   0.982
 6941SOL     OW21721   3.635   3.424   2.454
 6941SOL    HW121722   3.611   3.328   2.469
 6941SOL    HW221723   3.691   3.457   2.530
 6942SOL     OW21724   6.596   5.083   2.920
 6942SOL    HW121725   6.654   5.003   2.933
 6942SOL    HW221726   6.541   5.072   2.837
 6943SOL     OW21727   4.716   5.030   6.517
 6943SOL    HW121728   4.747   5.049   6.610
 6943SOL    HW221729   4.794   5.026   6.455
 6944SOL     OW21730   1.174   4.697   5.058
 6944SOL    HW121731   1.214   4.775   5.010
 6944SOL    HW221732   1.155   4.723   5.153
 6945SOL     OW21733   5.485   1.706   0.927
 6945SOL    HW121734   5.390   1.721   0.898
 6945SOL    HW221735   5.540   1.785   0.903
 6946SOL     OW21736   5.213   6.134   2.831
 6946SOL    HW121737   5.275   6.167   2.902
 6946SOL    HW221738   5.128   6.104   2.873
 6947SOL     OW21739   6.431   4.100   5.223
 6947SOL    HW121740   6.476   4.011   5.215
 6947SOL    HW221741   6.413   4.137   5.131
 6948SOL     OW21742   6.959   4.502   6.501
 6948SOL    HW121743   6.996   4.421   6.547
 6948SOL    HW221744   6.872   4.527   6.543
 6949SOL     OW21745   2.692   1.429   2.758
 6949SOL    HW121746   2.648   1.376   2.685
 6949SOL    HW221747   2.767   1.375   2.797
 6950SOL     OW21748   1.377   0.774   4.041
 6950SOL    HW121749   1.327   0.701   3.993
 6950SOL    HW221750   1.387   0.749   4.138
 6951SOL     OW21751   1.270   3.854   6.615
 6951SOL    HW121752   1.192   3.851   6.553
 6951SOL    HW221753   1.247   3.910   6.694
 6952SOL     OW21754   4.997   5.760   3.640
 6952SOL    HW121755   5.018   5.663   3.651
 6952SOL    HW221756   5.076   5.808   3.602
 6953SOL     OW21757   6.425   1.346   1.456
 6953SOL    HW121758   6.444   1.257   1.499
 6953SOL    HW221759   6.484   1.416   1.497
 6954SOL     OW21760   6.709   4.259   6.356
 6954SOL    HW121761   6.761   4.344   6.367
 6954SOL    HW221762   6.617   4.280   6.322
 6955SOL     OW21763   4.753   5.700   2.893
 6955SOL    HW121764   4.750   5.760   2.973
 6955SOL    HW221765   4.660   5.679   2.864
 6956SOL     OW21766   5.415   5.184   2.101
 6956SOL    HW121767   5.480   5.122   2.058
 6956SOL    HW221768   5.329   5.137   2.118
 6957SOL     OW21769   6.380   5.264   5.183
 6957SOL    HW121770   6.407   5.202   5.109
 6957SOL    HW221771   6.350   5.351   5.143
 6958SOL     OW21772   3.567   3.174   2.502
 6958SOL    HW121773   3.519   3.122   2.431
 6958SOL    HW221774   3.524   3.155   2.591
 6959SOL     OW21775   1.737   4.007   2.756
 6959SOL    HW121776   1.767   3.920   2.718
 6959SOL    HW221777   1.804   4.039   2.824
 6960SOL     OW21778   4.822   4.939   0.551
 6960SOL    HW121779   4.808   4.867   0.619
 6960SOL    HW221780   4.880   5.011   0.590
 6961SOL     OW21781   4.471   2.749   5.496
 6961SOL    HW121782   4.540   2.820   5.505
 6961SOL    HW221783   4.451   2.733   5.400
 6962SOL     OW21784   2.495   5.934   6.995
 6962SOL    HW121785   2.575   5.874   6.983
 6962SOL    HW221786   2.487   5.994   6.916
 6963SOL     OW21787   6.885   6.337   6.596
 6963SOL    HW121788   6.883   6.415   6.659
 6963SOL    HW221789   6.980   6.318   6.570
 6964SOL     OW21790   2.094   1.432   5.109
 6964SOL    HW121791   2.140   1.383   5.036
 6964SOL    HW221792   1.995   1.420   5.101
 6965SOL     OW21793   1.755   1.576   0.089
 6965SOL    HW121794   1.660   1.584   0.058
 6965SOL    HW221795   1.758   1.524   0.174
 6966SOL     OW21796   1.148   6.678   1.413
 6966SOL    HW121797   1.137   6.744   1.340
 6966SOL    HW221798   1.194   6.596   1.378
 6967SOL     OW21799   3.905   0.918   6.953
 6967SOL    HW121800   3.820   0.950   6.996
 6967SOL    HW221801   3.924   0.973   6.872
 6968SOL     OW21802   3.564   0.342   2.882
 6968SOL    HW121803   3.527   0.392   2.961
 6968SOL    HW221804   3.572   0.403   2.804
 6969SOL     OW21805   1.863   2.705   1.710
 6969SOL    HW121806   1.902   2.735   1.797
 6969SOL    HW221807   1.794   2.634   1.728
 6970SOL     OW21808   3.449   5.449   5.593
 6970SOL    HW121809   3.548   5.441   5.591
 6970SOL    HW221810   3.422   5.504   5.672
 6971SOL     OW21811   6.000   4.158   6.918
 6971SOL    HW121812   6.090   4.201   6.927
 6971SOL    HW221813   5.972   4.160   6.822
 6972SOL     OW21814   5.912   3.793   1.643
 6972SOL    HW121815   5.875   3.786   1.551
 6972SOL    HW221816   5.841   3.828   1.705
 6973SOL     OW21817   1.241   1.440   2.722
 6973SOL    HW121818   1.220   1.349   2.686
 6973SOL    HW221819   1.166   1.472   2.780
 6974SOL     OW21820   3.857   3.275   3.235
 6974SOL    HW121821   3.822   3.361   3.272
 6974SOL    HW221822   3.789   3.235   3.173
 6975SOL     OW21823   2.977   5.905   4.400
 6975SOL    HW121824   3.062   5.932   4.445
 6975SOL    HW221825   2.987   5.813   4.362
 6976SOL     OW21826   4.459   4.915   5.758
 6976SOL    HW121827   4.426   4.992   5.703
 6976SOL    HW221828   4.421   4.830   5.723
 6977SOL     OW21829   5.016   4.753   2.123
 6977SOL    HW121830   4.936   4.807   2.095
 6977SOL    HW221831   5.092   4.814   2.144
 6978SOL     OW21832   0.739   3.292   0.572
 6978SOL    HW121833   0.769   3.237   0.494
 6978SOL    HW221834   0.640   3.281   0.584
 6979SOL     OW21835   1.145   3.553   2.715
 6979SOL    HW121836   1.157   3.629   2.652
 6979SOL    HW221837   1.060   3.565   2.767
 6980SOL     OW21838   2.793   5.024   3.365
 6980SOL    HW121839   2.742   5.046   3.448
 6980SOL    HW221840   2.808   4.925   3.361
 6981SOL     OW21841   4.405   3.158   6.684
 6981SOL    HW121842   4.372   3.069   6.715
 6981SOL    HW221843   4.505   3.157   6.681
 6982SOL     OW21844   0.388   0.800   1.756
 6982SOL    HW121845   0.318   0.811   1.685
 6982SOL    HW221846   0.479   0.804   1.714
 6983SOL     OW21847   6.350   0.284   4.528
 6983SOL    HW121848   6.387   0.222   4.459
 6983SOL    HW221849   6.416   0.295   4.602
 6984SOL     OW21850   1.254   3.220   3.309
 6984SOL    HW121851   1.195   3.144   3.336
 6984SOL    HW221852   1.228   3.251   3.217
 6985SOL     OW21853   5.246   2.712   0.161
 6985SOL    HW121854   5.166   2.655   0.178
 6985SOL    HW221855   5.236   2.759   0.073
 6986SOL     OW21856   4.719   5.012   5.502
 6986SOL    HW121857   4.696   5.051   5.591
 6986SOL    HW221858   4.818   5.011   5.491
 6987SOL     OW21859   0.032   1.099   6.634
 6987SOL    HW121860   6.955   1.076   6.617
 6987SOL    HW221861   0.050   1.096   6.732
 6988SOL     OW21862   2.327   1.343   6.755
 6988SOL    HW121863   2.305   1.268   6.692
 6988SOL    HW221864   2.261   1.417   6.742
 6989SOL     OW21865   0.819   3.743   2.320
 6989SOL    HW121866   0.885   3.672   2.344
 6989SOL    HW221867   0.827   3.819   2.384
 6990SOL     OW21868   3.882   3.780   6.600
 6990SOL    HW121869   3.836   3.839   6.535
 6990SOL    HW221870   3.975   3.762   6.568
 6991SOL     OW21871   5.677   3.573   2.650
 6991SOL    HW121872   5.647   3.609   2.562
 6991SOL    HW221873   5.606   3.512   2.687
 6992SOL     OW21874   1.285   5.168   0.025
 6992SOL    HW121875   1.247   5.214   6.964
 6992SOL    HW221876   1.298   5.234   0.099
 6993SOL     OW21877   3.539   2.271   1.624
 6993SOL    HW121878   3.574   2.280   1.717
 6993SOL    HW221879   3.574   2.346   1.568
 6994SOL     OW21880   2.656   1.376   3.092
 6994SOL    HW121881   2.565   1.405   3.063
 6994SOL    HW221882   2.705   1.454   3.132
 6995SOL     OW21883   0.189   4.131   0.563
 6995SOL    HW121884   0.163   4.135   0.660
 6995SOL    HW221885   0.271   4.074   0.553
 6996SOL     OW21886   1.346   0.881   6.199
 6996SOL    HW121887   1.248   0.899   6.193
 6996SOL    HW221888   1.362   0.783   6.199
 6997SOL     OW21889   6.506   6.388   6.032
 6997SOL    HW121890   6.470   6.475   6.000
 6997SOL    HW221891   6.559   6.403   6.116
 6998SOL     OW21892   0.164   0.362   0.141
 6998SOL    HW121893   0.090   0.364   0.208
 6998SOL    HW221894   0.249   0.334   0.186
 6999SOL     OW21895   6.961   2.780   0.039
 6999SOL    HW121896   6.903   2.698   0.036
 6999SOL    HW221897   6.973   2.808   0.134
 7000SOL     OW21898   0.534   5.614   3.321
 7000SOL    HW121899   0.583   5.640   3.404
 7000SOL    HW221900   0.476   5.691   3.291
 7001SOL     OW21901   6.780   1.647   4.632
 7001SOL    HW121902   6.686   1.652   4.667
 7001SOL    HW221903   6.795   1.721   4.566
 7002SOL     OW21904   0.949   5.054   2.584
 7002SOL    HW121905   0.894   5.011   2.513
 7002SOL    HW221906   1.034   5.088   2.545
 7003SOL     OW21907   0.728   4.723   6.770
 7003SOL    HW121908   0.823   4.749   6.751
 7003SOL    HW221909   0.723   4.625   6.789
 7004SOL     OW21910   1.631   6.935   6.582
 7004SOL    HW121911   1.686   6.897   6.656
 7004SOL    HW221912   1.657   6.892   6.496
 7005SOL     OW21913   1.157   5.630   0.258
 7005SOL    HW121914   1.119   5.718   0.288
 7005SOL    HW221915   1.097   5.589   0.190
 7006SOL     OW21916   0.612   0.173   3.874
 7006SOL    HW121917   0.622   0.084   3.830
 7006SOL    HW221918   0.692   0.191   3.931
 7007SOL     OW21919   2.198   0.261   5.941
 7007SOL    HW121920   2.239   0.186   5.993
 7007SOL    HW221921   2.232   0.348   5.976
 7008SOL     OW21922   5.135   3.301   3.779
 7008SOL    HW121923   5.051   3.349   3.752
 7008SOL    HW221924   5.167   3.245   3.703
 7009SOL     OW21925   4.942   5.566   2.538
 7009SOL    HW121926   4.928   5.513   2.621
 7009SOL    HW221927   5.027   5.618   2.545
 7010SOL     OW21928   4.962   3.194   2.629
 7010SOL    HW121929   4.959   3.116   2.691
 7010SOL    HW221930   4.927   3.275   2.675
 7011SOL     OW21931   2.453   6.474   6.149
 7011SOL    HW121932   2.365   6.429   6.140
 7011SOL    HW221933   2.507   6.459   6.066
 7012SOL     OW21934   0.057   3.222   0.516
 7012SOL    HW121935   0.055   3.135   0.566
 7012SOL    HW221936   0.003   3.214   0.433
 7013SOL     OW21937   3.469   2.587   0.303
 7013SOL    HW121938   3.487   2.584   0.402
 7013SOL    HW221939   3.410   2.665   0.283
 7014SOL     OW21940   5.828   3.223   0.718
 7014SOL    HW121941   5.844   3.304   0.775
 7014SOL    HW221942   5.820   3.142   0.777
 7015SOL     OW21943   6.051   5.936   1.260
 7015SOL    HW121944   6.143   5.961   1.231
 7015SOL    HW221945   6.030   5.979   1.347
 7016SOL     OW21946   3.021   4.993   1.164
 7016SOL    HW121947   3.023   5.093   1.169
 7016SOL    HW221948   3.070   4.955   1.242
 7017SOL     OW21949   6.292   4.803   5.804
 7017SOL    HW121950   6.367   4.772   5.861
 7017SOL    HW221951   6.321   4.883   5.752
 7018SOL     OW21952   4.943   3.453   5.245
 7018SOL    HW121953   4.901   3.490   5.328
 7018SOL    HW221954   4.911   3.506   5.166
 7019SOL     OW21955   4.105   5.520   2.212
 7019SOL    HW121956   4.024   5.465   2.233
 7019SOL    HW221957   4.097   5.557   2.120
 7020SOL     OW21958   0.935   1.909   6.162
 7020SOL    HW121959   0.901   1.818   6.182
 7020SOL    HW221960   0.859   1.968   6.133
 7021SOL     OW21961   0.725   1.807   4.767
 7021SOL    HW121962   0.824   1.818   4.762
 7021SOL    HW221963   0.683   1.842   4.684
 7022SOL     OW21964   2.270   3.510   0.811
 7022SOL    HW121965   2.242   3.595   0.855
 7022SOL    HW221966   2.363   3.520   0.774
 7023SOL     OW21967   0.511   1.426   0.842
 7023SOL    HW121968   0.533   1.441   0.939
 7023SOL    HW221969   0.569   1.483   0.785
 7024SOL     OW21970   3.121   4.090   5.062
 7024SOL    HW121971   3.169   4.034   5.129
 7024SOL    HW221972   3.174   4.095   4.978
 7025SOL     OW21973   2.751   0.611   1.231
 7025SOL    HW121974   2.737   0.694   1.178
 7025SOL    HW221975   2.830   0.561   1.195
 7026SOL     OW21976   3.252   2.294   0.936
 7026SOL    HW121977   3.273   2.197   0.932
 7026SOL    HW221978   3.218   2.325   0.847
 7027SOL     OW21979   3.156   4.749   1.856
 7027SOL    HW121980   3.164   4.654   1.825
 7027SOL    HW221981   3.060   4.768   1.879
 7028SOL     OW21982   3.448   0.346   3.471
 7028SOL    HW121983   3.509   0.358   3.393
 7028SOL    HW221984   3.453   0.251   3.502
 7029SOL     OW21985   3.371   3.782   3.741
 7029SOL    HW121986   3.281   3.795   3.782
 7029SOL    HW221987   3.363   3.720   3.663
 7030SOL     OW21988   6.339   6.933   4.843
 7030SOL    HW121989   6.243   6.957   4.829
 7030SOL    HW221990   6.396   7.013   4.826
 7031SOL     OW21991   4.712   5.931   0.659
 7031SOL    HW121992   4.798   5.889   0.688
 7031SOL    HW221993   4.685   6.001   0.725
 7032SOL     OW21994   4.524   5.050   4.473
 7032SOL    HW121995   4.576   5.020   4.393
 7032SOL    HW221996   4.561   5.138   4.506
 7033SOL     OW21997   1.657   1.396   5.854
 7033SOL    HW121998   1.641   1.494   5.867
 7033SOL    HW221999   1.584   1.357   5.798
 7034SOL     OW22000   6.196   1.284   2.414
 7034SOL    HW122001   6.245   1.227   2.480
 7034SOL    HW222002   6.261   1.320   2.347
 7035SOL     OW22003   2.796   1.558   1.643
 7035SOL    HW122004   2.792   1.626   1.570
 7035SOL    HW222005   2.873   1.579   1.703
 7036SOL     OW22006   6.187   1.240   1.858
 7036SOL    HW122007   6.221   1.268   1.769
 7036SOL    HW222008   6.166   1.322   1.913
 7037SOL     OW22009   1.765   0.518   6.315
 7037SOL    HW122010   1.743   0.518   6.217
 7037SOL    HW222011   1.683   0.539   6.367
 7038SOL     OW22012   0.704   4.376   0.543
 7038SOL    HW122013   0.663   4.330   0.622
 7038SOL    HW222014   0.731   4.469   0.569
 7039SOL     OW22015   6.874   6.979   1.709
 7039SOL    HW122016   6.892   0.051   1.670
 7039SOL    HW222017   6.957   6.923   1.702
 7040SOL     OW22018   5.980   2.068   4.685
 7040SOL    HW122019   6.004   2.127   4.607
 7040SOL    HW222020   5.955   2.125   4.763
 7041SOL     OW22021   1.235   0.181   4.015
 7041SOL    HW122022   1.271   0.112   4.077
 7041SOL    HW222023   1.177   0.138   3.946
 7042SOL     OW22024   5.751   6.189   5.603
 7042SOL    HW122025   5.668   6.182   5.658
 7042SOL    HW222026   5.805   6.267   5.635
 7043SOL     OW22027   1.715   5.856   1.135
 7043SOL    HW122028   1.792   5.877   1.195
 7043SOL    HW222029   1.690   5.937   1.082
 7044SOL     OW22030   4.636   5.758   5.062
 7044SOL    HW122031   4.677   5.668   5.070
 7044SOL    HW222032   4.707   5.826   5.042
 7045SOL     OW22033   6.226   6.073   1.804
 7045SOL    HW122034   6.269   6.035   1.722
 7045SOL    HW222035   6.134   6.103   1.782
 7046SOL     OW22036   2.199   1.628   3.604
 7046SOL    HW122037   2.120   1.683   3.577
 7046SOL    HW222038   2.274   1.688   3.632
 7047SOL     OW22039   0.886   6.709   0.807
 7047SOL    HW122040   0.820   6.785   0.806
 7047SOL    HW222041   0.864   6.645   0.734
 7048SOL     OW22042   0.700   6.178   3.626
 7048SOL    HW122043   0.601   6.162   3.625
 7048SOL    HW222044   0.717   6.277   3.617
 7049SOL     OW22045   3.662   1.671   4.178
 7049SOL    HW122046   3.575   1.684   4.226
 7049SOL    HW222047   3.737   1.676   4.244
 7050SOL     OW22048   4.048   4.334   0.523
 7050SOL    HW122049   4.006   4.250   0.559
 7050SOL    HW222050   4.102   4.311   0.442
 7051SOL     OW22051   1.259   2.110   1.827
 7051SOL    HW122052   1.160   2.100   1.815
 7051SOL    HW222053   1.289   2.058   1.906
 7052SOL     OW22054   4.432   2.059   2.792
 7052SOL    HW122055   4.489   1.980   2.770
 7052SOL    HW222056   4.463   2.138   2.739
 7053SOL     OW22057   1.246   4.343   3.444
 7053SOL    HW122058   1.259   4.400   3.525
 7053SOL    HW222059   1.157   4.363   3.403
 7054SOL     OW22060   4.835   6.899   6.929
 7054SOL    HW122061   4.761   6.941   6.980
 7054SOL    HW222062   4.914   6.959   6.928
 7055SOL     OW22063   2.572   0.237   0.578
 7055SOL    HW122064   2.559   0.145   0.614
 7055SOL    HW222065   2.622   0.232   0.491
 7056SOL     OW22066   7.001   5.373   1.197
 7056SOL    HW122067   0.064   5.393   1.142
 7056SOL    HW222068   6.925   5.430   1.164
 7057SOL     OW22069   3.220   5.773   4.755
 7057SOL    HW122070   3.313   5.804   4.776
 7057SOL    HW222071   3.211   5.677   4.781
 7058SOL     OW22072   6.417   1.902   6.541
 7058SOL    HW122073   6.403   1.879   6.637
 7058SOL    HW222074   6.483   1.977   6.534
 7059SOL     OW22075   2.153   0.048   5.354
 7059SOL    HW122076   2.132   0.085   5.444
 7059SOL    HW222077   2.105   6.979   5.341
 7060SOL     OW22078   3.204   2.470   1.566
 7060SOL    HW122079   3.297   2.502   1.549
 7060SOL    HW222080   3.161   2.527   1.636
 7061SOL     OW22081   1.625   0.930   1.511
 7061SOL    HW122082   1.653   0.945   1.417
 7061SOL    HW222083   1.568   1.007   1.542
 7062SOL     OW22084   3.485   0.609   4.524
 7062SOL    HW122085   3.403   0.567   4.486
 7062SOL    HW222086   3.562   0.545   4.516
 7063SOL     OW22087   0.215   1.477   1.513
 7063SOL    HW122088   0.182   1.545   1.447
 7063SOL    HW222089   0.138   1.420   1.542
 7064SOL     OW22090   2.958   1.519   5.556
 7064SOL    HW122091   2.893   1.550   5.625
 7064SOL    HW222092   2.973   1.420   5.566
 7065SOL     OW22093   3.863   5.904   5.073
 7065SOL    HW122094   3.815   5.820   5.099
 7065SOL    HW222095   3.961   5.888   5.074
 7066SOL     OW22096   3.591   0.158   1.333
 7066SOL    HW122097   3.551   0.068   1.319
 7066SOL    HW222098   3.520   0.228   1.324
 7067SOL     OW22099   2.434   3.873   6.140
 7067SOL    HW122100   2.382   3.931   6.202
 7067SOL    HW222101   2.387   3.785   6.129
 7068SOL     OW22102   5.045   4.230   4.421
 7068SOL    HW122103   4.948   4.230   4.445
 7068SOL    HW222104   5.058   4.183   4.334
 7069SOL     OW22105   4.996   0.849   6.091
 7069SOL    HW122106   5.040   0.845   6.001
 7069SOL    HW222107   5.019   0.768   6.144
 7070SOL     OW22108   0.472   0.739   5.617
 7070SOL    HW122109   0.485   0.645   5.586
 7070SOL    HW222110   0.377   0.752   5.646
 7071SOL     OW22111   4.589   6.224   6.817
 7071SOL    HW122112   4.688   6.216   6.807
 7071SOL    HW222113   4.546   6.219   6.727
 7072SOL     OW22114   1.134   3.680   6.176
 7072SOL    HW122115   1.084   3.751   6.127
 7072SOL    HW222116   1.192   3.722   6.245
 7073SOL     OW22117   4.655   1.040   3.630
 7073SOL    HW122118   4.560   1.013   3.647
 7073SOL    HW222119   4.709   0.960   3.606
 7074SOL     OW22120   5.745   4.339   2.626
 7074SOL    HW122121   5.829   4.342   2.573
 7074SOL    HW222122   5.666   4.342   2.565
 7075SOL     OW22123   2.490   5.229   2.900
 7075SOL    HW122124   2.398   5.222   2.937
 7075SOL    HW222125   2.549   5.278   2.965
 7076SOL     OW22126   5.477   1.435   1.049
 7076SOL    HW122127   5.474   1.535   1.045
 7076SOL    HW222128   5.564   1.402   1.013
 7077SOL     OW22129   3.668   6.253   1.559
 7077SOL    HW122130   3.723   6.175   1.590
 7077SOL    HW222131   3.715   6.298   1.483
 7078SOL     OW22132   6.798   0.999   6.459
 7078SOL    HW122133   6.706   1.012   6.496
 7078SOL    HW222134   6.822   1.077   6.401
 7079SOL     OW22135   2.283   5.763   4.741
 7079SOL    HW122136   2.377   5.731   4.755
 7079SOL    HW222137   2.221   5.707   4.796
 7080SOL     OW22138   3.986   1.624   6.090
 7080SOL    HW122139   4.073   1.672   6.080
 7080SOL    HW222140   3.987   1.541   6.034
 7081SOL     OW22141   1.986   6.597   0.216
 7081SOL    HW122142   1.959   6.640   0.129
 7081SOL    HW222143   1.950   6.650   0.292
 7082SOL     OW22144   0.825   3.669   2.027
 7082SOL    HW122145   0.748   3.704   1.973
 7082SOL    HW222146   0.850   3.735   2.097
 7083SOL     OW22147   5.061   2.837   3.582
 7083SOL    HW122148   5.064   2.786   3.496
 7083SOL    HW222149   5.150   2.878   3.600
 7084SOL     OW22150   1.227   5.003   0.738
 7084SOL    HW122151   1.172   5.005   0.822
 7084SOL    HW222152   1.284   4.921   0.738
 7085SOL     OW22153   0.386   4.148   2.557
 7085SOL    HW122154   0.300   4.137   2.608
 7085SOL    HW222155   0.372   4.118   2.463
 7086SOL     OW22156   5.329   0.746   3.576
 7086SOL    HW122157   5.357   0.725   3.482
 7086SOL    HW222158   5.324   0.845   3.588
 7087SOL     OW22159   5.197   2.024   3.683
 7087SOL    HW122160   5.145   2.072   3.613
 7087SOL    HW222161   5.288   2.063   3.690
 7088SOL     OW22162   5.870   2.465   5.169
 7088SOL    HW122163   5.893   2.376   5.208
 7088SOL    HW222164   5.794   2.505   5.221
 7089SOL     OW22165   2.457   5.648   0.851
 7089SOL    HW122166   2.538   5.601   0.816
 7089SOL    HW222167   2.437   5.615   0.943
 7090SOL     OW22168   4.833   2.861   1.153
 7090SOL    HW122169   4.779   2.879   1.234
 7090SOL    HW222170   4.799   2.779   1.107
 7091SOL     OW22171   6.409   6.727   0.446
 7091SOL    HW122172   6.424   6.633   0.418
 7091SOL    HW222173   6.358   6.729   0.532
 7092SOL     OW22174   4.076   0.090   6.662
 7092SOL    HW122175   4.014   0.099   6.584
 7092SOL    HW222176   4.169   0.074   6.628
 7093SOL     OW22177   3.629   3.531   0.466
 7093SOL    HW122178   3.569   3.525   0.387
 7093SOL    HW222179   3.684   3.447   0.473
 7094SOL     OW22180   4.443   0.808   5.475
 7094SOL    HW122181   4.480   0.893   5.437
 7094SOL    HW222182   4.488   0.788   5.562
 7095SOL     OW22183   2.600   5.181   4.313
 7095SOL    HW122184   2.666   5.106   4.316
 7095SOL    HW222185   2.644   5.262   4.274
 7096SOL     OW22186   6.620   6.422   0.731
 7096SOL    HW122187   6.651   6.482   0.804
 7096SOL    HW222188   6.696   6.403   0.668
 7097SOL     OW22189   5.225   1.681   2.365
 7097SOL    HW122190   5.238   1.581   2.363
 7097SOL    HW222191   5.134   1.702   2.401
 7098SOL     OW22192   0.801   1.198   2.915
 7098SOL    HW122193   0.779   1.274   2.853
 7098SOL    HW222194   0.814   1.234   3.007
 7099SOL     OW22195   3.299   2.042   4.499
 7099SOL    HW122196   3.249   2.110   4.554
 7099SOL    HW222197   3.300   1.955   4.548
 7100SOL     OW22198   0.339   4.152   1.410
 7100SOL    HW122199   0.261   4.207   1.441
 7100SOL    HW222200   0.395   4.205   1.348
 7101SOL     OW22201   2.549   5.716   4.202
 7101SOL    HW122202   2.494   5.774   4.262
 7101SOL    HW222203   2.626   5.679   4.253
 7102SOL     OW22204   5.734   1.358   2.865
 7102SOL    HW122205   5.672   1.430   2.833
 7102SOL    HW222206   5.824   1.397   2.885
 7103SOL     OW22207   5.490   3.746   3.956
 7103SOL    HW122208   5.475   3.703   4.045
 7103SOL    HW222209   5.514   3.842   3.969
 7104SOL     OW22210   5.130   2.843   4.732
 7104SOL    HW122211   5.150   2.815   4.826
 7104SOL    HW222212   5.216   2.861   4.684
 7105SOL     OW22213   3.659   4.042   2.786
 7105SOL    HW122214   3.746   4.019   2.743
 7105SOL    HW222215   3.669   4.042   2.885
 7106SOL     OW22216   2.915   1.855   2.148
 7106SOL    HW122217   2.958   1.945   2.137
 7106SOL    HW222218   2.816   1.864   2.143
 7107SOL     OW22219   3.734   1.583   6.755
 7107SOL    HW122220   3.796   1.558   6.681
 7107SOL    HW222221   3.663   1.513   6.765
 7108SOL     OW22222   3.435   0.318   1.860
 7108SOL    HW122223   3.401   0.271   1.941
 7108SOL    HW222224   3.469   0.408   1.887
 7109SOL     OW22225   3.147   5.681   5.872
 7109SOL    HW122226   3.166   5.653   5.967
 7109SOL    HW222227   3.089   5.763   5.873
 7110SOL     OW22228   2.627   6.298   5.044
 7110SOL    HW122229   2.689   6.253   4.979
 7110SOL    HW222230   2.537   6.308   5.001
 7111SOL     OW22231   6.827   0.929   5.023
 7111SOL    HW122232   6.858   1.007   4.969
 7111SOL    HW222233   6.727   0.932   5.032
 7112SOL     OW22234   0.470   5.140   5.204
 7112SOL    HW122235   0.548   5.188   5.165
 7112SOL    HW222236   0.394   5.204   5.215
 7113SOL     OW22237   3.512   6.716   4.891
 7113SOL    HW122238   3.474   6.705   4.799
 7113SOL    HW222239   3.437   6.731   4.956
 7114SOL     OW22240   6.132   4.016   1.384
 7114SOL    HW122241   6.108   3.993   1.478
 7114SOL    HW222242   6.121   4.115   1.370
 7115SOL     OW22243   4.790   2.950   6.229
 7115SOL    HW122244   4.690   2.959   6.229
 7115SOL    HW222245   4.830   3.015   6.165
 7116SOL     OW22246   6.632   4.315   4.879
 7116SOL    HW122247   6.678   4.234   4.841
 7116SOL    HW222248   6.684   4.397   4.856
 7117SOL     OW22249   4.751   6.761   2.653
 7117SOL    HW122250   4.720   6.749   2.558
 7117SOL    HW222251   4.809   6.843   2.659
 7118SOL     OW22252   4.433   4.333   5.971
 7118SOL    HW122253   4.344   4.288   5.967
 7118SOL    HW222254   4.483   4.317   5.886
 7119SOL     OW22255   2.931   6.822   4.975
 7119SOL    HW122256   3.031   6.819   4.965
 7119SOL    HW222257   2.904   6.769   5.055
 7120SOL     OW22258   4.089   1.328   1.077
 7120SOL    HW122259   4.036   1.344   1.160
 7120SOL    HW222260   4.112   1.231   1.069
 7121SOL     OW22261   0.915   6.172   2.238
 7121SOL    HW122262   0.950   6.108   2.169
 7121SOL    HW222263   0.939   6.139   2.329
 7122SOL     OW22264   4.075   2.092   6.805
 7122SOL    HW122265   4.133   2.033   6.750
 7122SOL    HW222266   4.128   2.170   6.838
 7123SOL     OW22267   5.372   4.928   5.946
 7123SOL    HW122268   5.398   4.915   6.042
 7123SOL    HW222269   5.309   4.856   5.919
 7124SOL     OW22270   2.822   2.923   0.320
 7124SOL    HW122271   2.907   2.875   0.299
 7124SOL    HW222272   2.791   2.898   0.412
 7125SOL     OW22273   0.843   6.387   1.979
 7125SOL    HW122274   0.873   6.296   2.008
 7125SOL    HW222275   0.798   6.380   1.890
 7126SOL     OW22276   4.012   4.817   1.067
 7126SOL    HW122277   4.102   4.810   1.111
 7126SOL    HW222278   3.958   4.736   1.089
 7127SOL     OW22279   2.693   6.081   6.121
 7127SOL    HW122280   2.729   5.991   6.149
 7127SOL    HW222281   2.691   6.141   6.201
 7128SOL     OW22282   3.335   4.079   6.984
 7128SOL    HW122283   3.291   4.008   6.929
 7128SOL    HW222284   3.425   4.047   7.015
 7129SOL     OW22285   6.977   0.117   6.833
 7129SOL    HW122286   0.030   0.182   6.861
 7129SOL    HW222287   6.895   0.132   6.889
 7130SOL     OW22288   3.655   0.456   4.241
 7130SOL    HW122289   3.562   0.491   4.252
 7130SOL    HW222290   3.675   0.390   4.314
 7131SOL     OW22291   2.260   1.423   1.902
 7131SOL    HW122292   2.314   1.398   1.822
 7131SOL    HW222293   2.320   1.434   1.981
 7132SOL     OW22294   4.724   4.567   1.988
 7132SOL    HW122295   4.649   4.534   1.931
 7132SOL    HW222296   4.755   4.656   1.954
 7133SOL     OW22297   4.637   5.965   2.454
 7133SOL    HW122298   4.567   6.015   2.504
 7133SOL    HW222299   4.724   6.014   2.460
 7134SOL     OW22300   4.664   5.316   6.928
 7134SOL    HW122301   4.679   5.247   6.857
 7134SOL    HW222302   4.709   5.401   6.901
 7135SOL     OW22303   1.974   4.437   1.346
 7135SOL    HW122304   1.996   4.340   1.347
 7135SOL    HW222305   1.987   4.475   1.438
 7136SOL     OW22306   1.300   2.505   1.773
 7136SOL    HW122307   1.339   2.596   1.788
 7136SOL    HW222308   1.369   2.436   1.793
 7137SOL     OW22309   2.946   1.183   2.518
 7137SOL    HW122310   2.950   1.279   2.546
 7137SOL    HW222311   3.037   1.142   2.525
 7138SOL     OW22312   0.408   3.262   6.964
 7138SOL    HW122313   0.439   3.191   6.900
 7138SOL    HW222314   0.437   3.352   6.931
 7139SOL     OW22315   5.844   6.051   1.418
 7139SOL    HW122316   5.799   6.085   1.335
 7139SOL    HW222317   5.801   6.091   1.498
 7140SOL     OW22318   7.014   4.882   0.058
 7140SOL    HW122319   0.050   4.859   0.139
 7140SOL    HW222320   6.922   4.911   0.087
 7141SOL     OW22321   3.359   1.039   1.235
 7141SOL    HW122322   3.316   1.087   1.159
 7141SOL    HW222323   3.288   1.000   1.294
 7142SOL     OW22324   4.922   0.154   5.253
 7142SOL    HW122325   4.911   0.141   5.154
 7142SOL    HW222326   4.955   0.246   5.272
 7143SOL     OW22327   3.264   2.612   5.984
 7143SOL    HW122328   3.179   2.564   6.006
 7143SOL    HW222329   3.245   2.709   5.969
 7144SOL     OW22330   6.784   0.900   5.798
 7144SOL    HW122331   6.756   0.984   5.844
 7144SOL    HW222332   6.713   0.831   5.806
 7145SOL     OW22333   5.601   2.408   6.288
 7145SOL    HW122334   5.700   2.410   6.300
 7145SOL    HW222335   5.565   2.501   6.297
 7146SOL     OW22336   0.418   1.933   4.805
 7146SOL    HW122337   0.331   1.910   4.761
 7146SOL    HW222338   0.405   1.937   4.904
 7147SOL     OW22339   6.686   0.111   1.285
 7147SOL    HW122340   6.762   0.171   1.312
 7147SOL    HW222341   6.705   0.071   1.195
 7148SOL     OW22342   6.133   6.808   1.021
 7148SOL    HW122343   6.211   6.847   0.972
 7148SOL    HW222344   6.159   6.793   1.117
 7149SOL     OW22345   5.274   4.106   6.038
 7149SOL    HW122346   5.319   4.134   5.953
 7149SOL    HW222347   5.319   4.150   6.116
 7150SOL     OW22348   2.963   2.233   6.697
 7150SOL    HW122349   3.022   2.218   6.618
 7150SOL    HW222350   3.010   2.289   6.764
 7151SOL     OW22351   5.201   1.309   6.895
 7151SOL    HW122352   5.278   1.247   6.878
 7151SOL    HW222353   5.232   1.385   6.952
 7152SOL     OW22354   4.637   0.101   5.313
 7152SOL    HW122355   4.629   0.007   5.280
 7152SOL    HW222356   4.733   0.128   5.316
 7153SOL     OW22357   3.306   5.739   0.862
 7153SOL    HW122358   3.393   5.717   0.906
 7153SOL    HW222359   3.291   5.838   0.866
 7154SOL     OW22360   4.677   1.094   1.870
 7154SOL    HW122361   4.703   1.122   1.778
 7154SOL    HW222362   4.651   0.997   1.870
 7155SOL     OW22363   2.157   0.437   1.489
 7155SOL    HW122364   2.113   0.360   1.536
 7155SOL    HW222365   2.220   0.401   1.419
 7156SOL     OW22366   6.456   3.883   5.757
 7156SOL    HW122367   6.445   3.944   5.679
 7156SOL    HW222368   6.422   3.928   5.840
 7157SOL     OW22369   0.308   4.124   5.737
 7157SOL    HW122370   0.354   4.187   5.674
 7157SOL    HW222371   0.279   4.042   5.687
 7158SOL     OW22372   5.357   0.113   3.992
 7158SOL    HW122373   5.316   0.190   3.944
 7158SOL    HW222374   5.457   0.120   3.987
 7159SOL     OW22375   0.500   6.465   2.845
 7159SOL    HW122376   0.537   6.543   2.795
 7159SOL    HW222377   0.487   6.388   2.781
 7160SOL     OW22378   6.113   6.953   2.506
 7160SOL    HW122379   6.138   6.896   2.584
 7160SOL    HW222380   6.020   6.933   2.477
 7161SOL     OW22381   4.127   3.701   2.306
 7161SOL    HW122382   4.222   3.700   2.273
 7161SOL    HW222383   4.067   3.732   2.233
 7162SOL     OW22384   0.031   6.288   0.713
 7162SOL    HW122385   0.104   6.227   0.743
 7162SOL    HW222386   6.961   6.245   0.730
 7163SOL     OW22387   6.479   0.580   1.235
 7163SOL    HW122388   6.483   0.538   1.326
 7163SOL    HW222389   6.390   0.622   1.222
 7164SOL     OW22390   1.423   0.827   0.141
 7164SOL    HW122391   1.493   0.761   0.115
 7164SOL    HW222392   1.333   0.784   0.137
 7165SOL     OW22393   5.134   1.902   6.786
 7165SOL    HW122394   5.057   1.964   6.770
 7165SOL    HW222395   5.115   1.814   6.743
 7166SOL     OW22396   0.121   5.441   5.270
 7166SOL    HW122397   0.037   5.388   5.267
 7166SOL    HW222398   0.116   5.507   5.344
 7167SOL     OW22399   0.389   3.292   5.893
 7167SOL    HW122400   0.452   3.270   5.968
 7167SOL    HW222401   0.429   3.363   5.836
 7168SOL     OW22402   1.386   1.351   2.428
 7168SOL    HW122403   1.415   1.362   2.523
 7168SOL    HW222404   1.466   1.350   2.368
 7169SOL     OW22405   1.785   4.442   5.727
 7169SOL    HW122406   1.834   4.375   5.781
 7169SOL    HW222407   1.828   4.532   5.737
 7170SOL     OW22408   3.743   1.508   0.956
 7170SOL    HW122409   3.696   1.496   1.043
 7170SOL    HW222410   3.744   1.421   0.907
 7171SOL     OW22411   6.933   3.959   1.026
 7171SOL    HW122412   7.005   3.904   0.985
 7171SOL    HW222413   6.855   3.901   1.050
 7172SOL     OW22414   0.435   2.347   3.577
 7172SOL    HW122415   0.358   2.307   3.626
 7172SOL    HW222416   0.520   2.306   3.610
 7173SOL     OW22417   4.005   5.151   5.134
 7173SOL    HW122418   3.915   5.186   5.108
 7173SOL    HW222419   4.024   5.174   5.229
 7174SOL     OW22420   6.482   3.918   2.124
 7174SOL    HW122421   6.573   3.959   2.110
 7174SOL    HW222422   6.493   3.826   2.161
 7175SOL     OW22423   6.287   3.572   6.079
 7175SOL    HW122424   6.347   3.509   6.128
 7175SOL    HW222425   6.317   3.580   5.984
 7176SOL     OW22426   0.404   1.074   6.356
 7176SOL    HW122427   0.491   1.124   6.365
 7176SOL    HW222428   0.421   0.986   6.311
 7177SOL     OW22429   1.359   6.043   3.450
 7177SOL    HW122430   1.401   6.068   3.537
 7177SOL    HW222431   1.417   5.975   3.404
 7178SOL     OW22432   1.134   6.572   5.075
 7178SOL    HW122433   1.086   6.552   5.159
 7178SOL    HW222434   1.069   6.603   5.005
 7179SOL     OW22435   4.678   4.737   6.115
 7179SOL    HW122436   4.683   4.647   6.158
 7179SOL    HW222437   4.595   4.784   6.146
 7180SOL     OW22438   1.603   2.949   1.807
 7180SOL    HW122439   1.698   2.948   1.774
 7180SOL    HW222440   1.583   3.038   1.846
 7181SOL     OW22441   2.630   0.771   0.183
 7181SOL    HW122442   2.724   0.787   0.154
 7181SOL    HW222443   2.574   0.747   0.103
 7182SOL     OW22444   1.792   1.489   3.394
 7182SOL    HW122445   1.761   1.541   3.474
 7182SOL    HW222446   1.726   1.501   3.319
 7183SOL     OW22447   1.498   6.926   1.754
 7183SOL    HW122448   1.454   6.978   1.828
 7183SOL    HW222449   1.433   6.913   1.680
 7184SOL     OW22450   6.891   0.542   3.701
 7184SOL    HW122451   6.915   0.574   3.793
 7184SOL    HW222452   6.796   0.565   3.682
 7185SOL     OW22453   3.912   0.217   3.897
 7185SOL    HW122454   3.993   0.241   3.842
 7185SOL    HW222455   3.907   0.276   3.977
 7186SOL     OW22456   6.417   0.975   6.469
 7186SOL    HW122457   6.401   1.056   6.525
 7186SOL    HW222458   6.396   0.893   6.522
 7187SOL     OW22459   3.695   3.237   4.011
 7187SOL    HW122460   3.746   3.267   3.930
 7187SOL    HW222461   3.741   3.158   4.051
 7188SOL     OW22462   4.662   4.409   0.610
 7188SOL    HW122463   4.637   4.317   0.637
 7188SOL    HW222464   4.710   4.407   0.522
 7189SOL     OW22465   0.064   2.401   5.756
 7189SOL    HW122466   0.131   2.454   5.807
 7189SOL    HW222467   0.105   2.313   5.730
 7190SOL     OW22468   6.368   5.443   6.949
 7190SOL    HW122469   6.417   5.389   6.881
 7190SOL    HW222470   6.343   5.531   6.909
 7191SOL     OW22471   6.626   4.611   2.120
 7191SOL    HW122472   6.686   4.615   2.200
 7191SOL    HW222473   6.555   4.542   2.135
 7192SOL     OW22474   2.480   4.097   5.410
 7192SOL    HW122475   2.452   4.052   5.326
 7192SOL    HW222476   2.546   4.170   5.389
 7193SOL     OW22477   3.406   1.596   3.677
 7193SOL    HW122478   3.350   1.641   3.746
 7193SOL    HW222479   3.454   1.665   3.622
 7194SOL     OW22480   2.978   2.585   5.985
 7194SOL    HW122481   2.974   2.631   5.896
 7194SOL    HW222482   2.909   2.623   6.046
 7195SOL     OW22483   1.542   3.722   5.887
 7195SOL    HW122484   1.624   3.666   5.872
 7195SOL    HW222485   1.517   3.766   5.801
 7196SOL     OW22486   3.318   4.051   1.460
 7196SOL    HW122487   3.245   4.117   1.446
 7196SOL    HW222488   3.281   3.959   1.455
 7197SOL     OW22489   3.360   4.984   6.932
 7197SOL    HW122490   3.275   5.035   6.915
 7197SOL    HW222491   3.436   5.029   6.884
 7198SOL     OW22492   0.867   0.515   1.726
 7198SOL    HW122493   0.913   0.465   1.652
 7198SOL    HW222494   0.851   0.454   1.803
 7199SOL     OW22495   6.074   1.102   3.079
 7199SOL    HW122496   6.093   1.025   3.139
 7199SOL    HW222497   6.124   1.092   2.994
 7200SOL     OW22498   1.071   2.645   6.928
 7200SOL    HW122499   1.110   2.700   6.854
 7200SOL    HW222500   1.010   2.702   6.983
 7201SOL     OW22501   5.822   5.874   4.182
 7201SOL    HW122502   5.907   5.841   4.221
 7201SOL    HW222503   5.811   5.972   4.203
 7202SOL     OW22504   4.643   6.780   6.167
 7202SOL    HW122505   4.712   6.750   6.101
 7202SOL    HW222506   4.577   6.840   6.122
 7203SOL     OW22507   0.668   1.860   0.794
 7203SOL    HW122508   0.636   1.862   0.699
 7203SOL    HW222509   0.588   1.856   0.855
 7204SOL     OW22510   6.465   0.902   2.349
 7204SOL    HW122511   6.437   0.806   2.349
 7204SOL    HW222512   6.549   0.912   2.403
 7205SOL     OW22513   3.428   1.678   4.346
 7205SOL    HW122514   3.355   1.670   4.414
 7205SOL    HW222515   3.436   1.773   4.317
 7206SOL     OW22516   2.288   3.592   6.724
 7206SOL    HW122517   2.382   3.560   6.715
 7206SOL    HW222518   2.235   3.526   6.777
 7207SOL     OW22519   2.091   1.432   3.185
 7207SOL    HW122520   2.077   1.531   3.182
 7207SOL    HW222521   2.024   1.390   3.247
 7208SOL     OW22522   3.841   1.190   3.772
 7208SOL    HW122523   3.936   1.181   3.802
 7208SOL    HW222524   3.831   1.272   3.717
 7209SOL     OW22525   3.484   0.993   1.795
 7209SOL    HW122526   3.547   1.033   1.862
 7209SOL    HW222527   3.431   0.921   1.839
 7210SOL     OW22528   3.521   1.333   3.824
 7210SOL    HW122529   3.476   1.386   3.752
 7210SOL    HW222530   3.611   1.373   3.843
 7211SOL     OW22531   3.841   6.223   5.687
 7211SOL    HW122532   3.872   6.132   5.714
 7211SOL    HW222533   3.773   6.256   5.751
 7212SOL     OW22534   0.885   5.528   5.477
 7212SOL    HW122535   0.861   5.555   5.570
 7212SOL    HW222536   0.984   5.521   5.469
 7213SOL     OW22537   4.330   2.551   0.147
 7213SOL    HW122538   4.414   2.512   0.108
 7213SOL    HW222539   4.305   2.499   0.229
 7214SOL     OW22540   6.104   0.833   6.222
 7214SOL    HW122541   6.031   0.824   6.154
 7214SOL    HW222542   6.126   0.743   6.259
 7215SOL     OW22543   6.477   1.573   2.249
 7215SOL    HW122544   6.415   1.649   2.268
 7215SOL    HW222545   6.488   1.518   2.331
 7216SOL     OW22546   5.172   6.882   3.641
 7216SOL    HW122547   5.181   6.893   3.741
 7216SOL    HW222548   5.126   6.796   3.621
 7217SOL     OW22549   1.116   2.971   3.349
 7217SOL    HW122550   1.141   2.918   3.430
 7217SOL    HW222551   1.161   2.933   3.268
 7218SOL     OW22552   6.355   2.374   5.094
 7218SOL    HW122553   6.432   2.312   5.081
 7218SOL    HW222554   6.287   2.357   5.023
 7219SOL     OW22555   2.888   6.020   1.959
 7219SOL    HW122556   2.979   6.025   1.920
 7219SOL    HW222557   2.820   6.047   1.891
 7220SOL     OW22558   6.251   4.268   3.375
 7220SOL    HW122559   6.342   4.275   3.416
 7220SOL    HW222560   6.227   4.356   3.334
 7221SOL     OW22561   4.171   5.153   3.425
 7221SOL    HW122562   4.219   5.230   3.382
 7221SOL    HW222563   4.150   5.175   3.520
 7222SOL     OW22564   0.035   6.350   3.923
 7222SOL    HW122565   0.089   6.432   3.903
 7222SOL    HW222566   0.014   6.347   4.021
 7223SOL     OW22567   0.082   4.531   1.848
 7223SOL    HW122568   0.015   4.592   1.807
 7223SOL    HW222569   0.042   4.486   1.928
 7224SOL     OW22570   4.565   2.331   2.695
 7224SOL    HW122571   4.565   2.396   2.619
 7224SOL    HW222572   4.629   2.361   2.765
 7225SOL     OW22573   0.930   6.180   0.320
 7225SOL    HW122574   0.902   6.132   0.236
 7225SOL    HW222575   0.900   6.128   0.400
 7226SOL     OW22576   6.391   6.438   0.341
 7226SOL    HW122577   6.303   6.401   0.311
 7226SOL    HW222578   6.392   6.445   0.440
 7227SOL     OW22579   1.839   1.487   2.998
 7227SOL    HW122580   1.839   1.458   2.902
 7227SOL    HW222581   1.924   1.458   3.042
 7228SOL     OW22582   5.719   3.011   2.417
 7228SOL    HW122583   5.662   3.085   2.453
 7228SOL    HW222584   5.806   3.008   2.467
 7229SOL     OW22585   5.906   0.661   5.145
 7229SOL    HW122586   5.929   0.747   5.099
 7229SOL    HW222587   5.883   0.592   5.077
 7230SOL     OW22588   2.281   5.461   4.673
 7230SOL    HW122589   2.352   5.396   4.644
 7230SOL    HW222590   2.203   5.456   4.611
 7231SOL     OW22591   4.004   3.420   5.825
 7231SOL    HW122592   4.073   3.387   5.890
 7231SOL    HW222593   4.040   3.500   5.776
 7232SOL     OW22594   4.700   6.032   3.606
 7232SOL    HW122595   4.729   5.952   3.659
 7232SOL    HW222596   4.621   6.008   3.549
 7233SOL     OW22597   0.708   1.115   5.659
 7233SOL    HW122598   0.678   1.040   5.600
 7233SOL    HW222599   0.806   1.107   5.676
 7234SOL     OW22600   5.646   4.419   3.856
 7234SOL    HW122601   5.605   4.331   3.830
 7234SOL    HW222602   5.656   4.423   3.955
 7235SOL     OW22603   6.083   0.155   1.873
 7235SOL    HW122604   5.990   0.190   1.873
 7235SOL    HW222605   6.147   0.230   1.851
 7236SOL     OW22606   1.885   3.788   2.664
 7236SOL    HW122607   1.842   3.709   2.710
 7236SOL    HW222608   1.984   3.779   2.670
 7237SOL     OW22609   5.808   1.102   0.255
 7237SOL    HW122610   5.829   1.110   0.352
 7237SOL    HW222611   5.892   1.111   0.201
 7238SOL     OW22612   3.926   3.842   0.279
 7238SOL    HW122613   4.002   3.799   0.231
 7238SOL    HW222614   3.841   3.795   0.255
 7239SOL     OW22615   5.799   2.467   2.149
 7239SOL    HW122616   5.748   2.457   2.235
 7239SOL    HW222617   5.896   2.474   2.169
 7240SOL     OW22618   6.974   1.641   0.543
 7240SOL    HW122619   6.920   1.725   0.532
 7240SOL    HW222620   0.003   1.620   0.458
 7241SOL     OW22621   2.137   0.658   2.439
 7241SOL    HW122622   2.214   0.692   2.384
 7241SOL    HW222623   2.075   0.607   2.380
 7242SOL     OW22624   6.692   4.541   5.145
 7242SOL    HW122625   6.666   4.477   5.072
 7242SOL    HW222626   6.729   4.490   5.222
 7243SOL     OW22627   5.766   4.625   6.101
 7243SOL    HW122628   5.714   4.618   6.186
 7243SOL    HW222629   5.727   4.562   6.033
 7244SOL     OW22630   0.158   5.770   6.912
 7244SOL    HW122631   0.128   5.708   6.985
 7244SOL    HW222632   0.100   5.851   6.911
 7245SOL     OW22633   1.562   2.669   0.382
 7245SOL    HW122634   1.549   2.718   0.468
 7245SOL    HW222635   1.646   2.701   0.338
 7246SOL     OW22636   4.071   0.103   3.006
 7246SOL    HW122637   4.067   0.066   3.100
 7246SOL    HW222638   4.088   0.028   2.942
 7247SOL     OW22639   2.961   3.720   4.332
 7247SOL    HW122640   3.059   3.719   4.312
 7247SOL    HW222641   2.910   3.696   4.249
 7248SOL     OW22642   3.085   1.517   5.885
 7248SOL    HW122643   3.004   1.462   5.902
 7248SOL    HW222644   3.160   1.459   5.853
 7249SOL     OW22645   4.107   4.944   2.469
 7249SOL    HW122646   4.117   4.879   2.395
 7249SOL    HW222647   4.009   4.958   2.488
 7250SOL     OW22648   5.647   5.271   5.158
 7250SOL    HW122649   5.693   5.217   5.087
 7250SOL    HW222650   5.619   5.359   5.121
 7251SOL     OW22651   0.879   5.231   4.843
 7251SOL    HW122652   0.792   5.280   4.846
 7251SOL    HW222653   0.903   5.201   4.936
 7252SOL     OW22654   4.022   3.602   2.542
 7252SOL    HW122655   4.068   3.513   2.544
 7252SOL    HW222656   4.067   3.662   2.476
 7253SOL     OW22657   2.805   5.130   4.715
 7253SOL    HW122658   2.720   5.135   4.663
 7253SOL    HW222659   2.784   5.134   4.813
 7254SOL     OW22660   6.132   3.425   4.096
 7254SOL    HW122661   6.140   3.502   4.161
 7254SOL    HW222662   6.126   3.339   4.147
 7255SOL     OW22663   4.845   3.999   0.096
 7255SOL    HW122664   4.854   4.063   0.173
 7255SOL    HW222665   4.784   4.037   0.028
 7256SOL     OW22666   3.139   0.396   4.771
 7256SOL    HW122667   3.061   0.423   4.716
 7256SOL    HW222668   3.185   0.477   4.807
 7257SOL     OW22669   1.075   1.390   4.457
 7257SOL    HW122670   0.987   1.345   4.441
 7257SOL    HW222671   1.069   1.485   4.427
 7258SOL     OW22672   5.637   3.268   2.507
 7258SOL    HW122673   5.689   3.351   2.489
 7258SOL    HW222674   5.586   3.279   2.593
 7259SOL     OW22675   1.503   4.486   2.602
 7259SOL    HW122676   1.537   4.393   2.616
 7259SOL    HW222677   1.409   4.483   2.570
 7260SOL     OW22678   5.555   3.156   0.879
 7260SOL    HW122679   5.630   3.105   0.838
 7260SOL    HW222680   5.469   3.130   0.836
 7261SOL     OW22681   6.874   4.444   6.821
 7261SOL    HW122682   6.787   4.416   6.863
 7261SOL    HW222683   6.908   4.526   6.867
 7262SOL     OW22684   5.551   1.348   5.364
 7262SOL    HW122685   5.585   1.326   5.455
 7262SOL    HW222686   5.470   1.407   5.372
 7263SOL     OW22687   6.822   5.394   6.126
 7263SOL    HW122688   6.887   5.409   6.201
 7263SOL    HW222689   6.852   5.445   6.046
 7264SOL     OW22690   5.485   1.088   1.733
 7264SOL    HW122691   5.403   1.130   1.773
 7264SOL    HW222692   5.562   1.101   1.796
 7265SOL     OW22693   3.943   0.771   5.862
 7265SOL    HW122694   3.848   0.784   5.834
 7265SOL    HW222695   3.994   0.726   5.789
 7266SOL     OW22696   0.420   0.883   3.168
 7266SOL    HW122697   0.476   0.943   3.110
 7266SOL    HW222698   0.470   0.864   3.252
 7267SOL     OW22699   6.379   4.326   4.463
 7267SOL    HW122700   6.311   4.292   4.398
 7267SOL    HW222701   6.419   4.410   4.428
 7268SOL     OW22702   6.473   6.577   4.475
 7268SOL    HW122703   6.373   6.580   4.476
 7268SOL    HW222704   6.509   6.668   4.455
 7269SOL     OW22705   2.332   4.576   4.583
 7269SOL    HW122706   2.393   4.625   4.644
 7269SOL    HW222707   2.338   4.478   4.600
 7270SOL     OW22708   0.584   0.822   4.738
 7270SOL    HW122709   0.512   0.849   4.802
 7270SOL    HW222710   0.578   0.723   4.722
 7271SOL     OW22711   0.639   4.725   2.957
 7271SOL    HW122712   0.643   4.627   2.974
 7271SOL    HW222713   0.574   4.744   2.884
 7272SOL     OW22714   6.203   4.061   1.649
 7272SOL    HW122715   6.268   4.129   1.614
 7272SOL    HW222716   6.248   4.005   1.719
 7273SOL     OW22717   0.822   2.110   5.549
 7273SOL    HW122718   0.878   2.037   5.511
 7273SOL    HW222719   0.861   2.141   5.636
 7274SOL     OW22720   0.519   4.702   6.242
 7274SOL    HW122721   0.458   4.761   6.296
 7274SOL    HW222722   0.524   4.736   6.148
 7275SOL     OW22723   0.742   6.370   3.227
 7275SOL    HW122724   0.705   6.280   3.204
 7275SOL    HW222725   0.827   6.359   3.279
 7276SOL     OW22726   5.015   6.106   3.642
 7276SOL    HW122727   5.054   6.070   3.726
 7276SOL    HW222728   4.920   6.078   3.634
 7277SOL     OW22729   4.385   0.443   0.111
 7277SOL    HW122730   4.287   0.457   0.129
 7277SOL    HW222731   4.438   0.511   0.162
 7278SOL     OW22732   3.288   2.870   2.182
 7278SOL    HW122733   3.289   2.828   2.274
 7278SOL    HW222734   3.381   2.899   2.158
 7279SOL     OW22735   2.995   6.628   6.128
 7279SOL    HW122736   2.962   6.579   6.210
 7279SOL    HW222737   3.050   6.706   6.156
 7280SOL     OW22738   4.482   1.737   5.724
 7280SOL    HW122739   4.396   1.752   5.677
 7280SOL    HW222740   4.497   1.810   5.791
 7281SOL     OW22741   5.123   1.060   6.211
 7281SOL    HW122742   5.125   1.141   6.152
 7281SOL    HW222743   5.065   0.990   6.168
 7282SOL     OW22744   5.315   5.618   2.121
 7282SOL    HW122745   5.329   5.627   2.219
 7282SOL    HW222746   5.400   5.588   2.078
 7283SOL     OW22747   2.203   0.787   4.090
 7283SOL    HW122748   2.289   0.760   4.133
 7283SOL    HW222749   2.222   0.850   4.015
 7284SOL     OW22750   0.614   2.361   5.103
 7284SOL    HW122751   0.704   2.320   5.105
 7284SOL    HW222752   0.547   2.294   5.072
 7285SOL     OW22753   5.608   4.966   1.544
 7285SOL    HW122754   5.702   4.934   1.553
 7285SOL    HW222755   5.577   4.950   1.451
 7286SOL     OW22756   2.336   4.354   1.020
 7286SOL    HW122757   2.269   4.421   1.051
 7286SOL    HW222758   2.348   4.284   1.090
 7287SOL     OW22759   5.791   1.523   6.002
 7287SOL    HW122760   5.755   1.444   5.953
 7287SOL    HW222761   5.889   1.533   5.982
 7288SOL     OW22762   2.892   6.793   6.486
 7288SOL    HW122763   2.968   6.816   6.425
 7288SOL    HW222764   2.819   6.750   6.433
 7289SOL     OW22765   5.725   2.005   3.771
 7289SOL    HW122766   5.802   1.953   3.733
 7289SOL    HW222767   5.755   2.055   3.853
 7290SOL     OW22768   2.832   5.008   4.311
 7290SOL    HW122769   2.770   4.953   4.367
 7290SOL    HW222770   2.859   4.957   4.230
 7291SOL     OW22771   3.152   5.213   1.886
 7291SOL    HW122772   3.057   5.183   1.876
 7291SOL    HW222773   3.213   5.146   1.843
 7292SOL     OW22774   3.166   6.873   4.854
 7292SOL    HW122775   3.144   6.969   4.836
 7292SOL    HW222776   3.185   6.826   4.768
 7293SOL     OW22777   1.907   2.120   6.290
 7293SOL    HW122778   1.877   2.029   6.264
 7293SOL    HW222779   1.925   2.123   6.388
 7294SOL     OW22780   4.007   5.940   0.605
 7294SOL    HW122781   4.043   5.854   0.641
 7294SOL    HW222782   4.081   5.993   0.565
 7295SOL     OW22783   5.420   0.042   1.671
 7295SOL    HW122784   5.439   6.970   1.710
 7295SOL    HW222785   5.467   0.112   1.726
 7296SOL     OW22786   4.361   5.370   1.962
 7296SOL    HW122787   4.444   5.362   2.017
 7296SOL    HW222788   4.340   5.466   1.946
 7297SOL     OW22789   5.381   6.742   2.338
 7297SOL    HW122790   5.285   6.767   2.352
 7297SOL    HW222791   5.426   6.731   2.427
 7298SOL     OW22792   6.267   3.682   3.905
 7298SOL    HW122793   6.171   3.657   3.895
 7298SOL    HW222794   6.321   3.631   3.837
 7299SOL     OW22795   5.376   3.688   6.848
 7299SOL    HW122796   5.347   3.762   6.788
 7299SOL    HW222797   5.367   3.600   6.801
 7300SOL     OW22798   4.574   5.171   1.069
 7300SOL    HW122799   4.553   5.151   0.974
 7300SOL    HW222800   4.576   5.086   1.122
 7301SOL     OW22801   6.872   0.629   5.934
 7301SOL    HW122802   6.888   0.727   5.936
 7301SOL    HW222803   6.958   0.580   5.950
 7302SOL     OW22804   5.107   0.665   6.254
 7302SOL    HW122805   5.072   0.655   6.347
 7302SOL    HW222806   5.188   0.724   6.254
 7303SOL     OW22807   3.269   1.133   0.990
 7303SOL    HW122808   3.360   1.153   0.955
 7303SOL    HW222809   3.212   1.214   0.983
 7304SOL     OW22810   3.693   4.070   5.013
 7304SOL    HW122811   3.714   4.148   5.073
 7304SOL    HW222812   3.647   3.999   5.066
 7305SOL     OW22813   5.629   1.204   0.074
 7305SOL    HW122814   5.705   1.174   0.131
 7305SOL    HW222815   5.572   1.125   0.050
 7306SOL     OW22816   4.893   4.977   1.378
 7306SOL    HW122817   4.855   4.891   1.412
 7306SOL    HW222818   4.964   4.957   1.310
 7307SOL     OW22819   4.071   6.645   2.901
 7307SOL    HW122820   4.017   6.562   2.902
 7307SOL    HW222821   4.164   6.625   2.869
 7308SOL     OW22822   6.548   1.819   4.689
 7308SOL    HW122823   6.528   1.882   4.764
 7308SOL    HW222824   6.465   1.768   4.666
 7309SOL     OW22825   4.409   5.774   2.342
 7309SOL    HW122826   4.470   5.853   2.352
 7309SOL    HW222827   4.462   5.695   2.310
 7310SOL     OW22828   1.795   5.342   1.564
 7310SOL    HW122829   1.775   5.249   1.535
 7310SOL    HW222830   1.738   5.366   1.643
 7311SOL     OW22831   2.704   2.308   2.247
 7311SOL    HW122832   2.763   2.325   2.169
 7311SOL    HW222833   2.759   2.302   2.331
 7312SOL     OW22834   6.601   1.735   5.709
 7312SOL    HW122835   6.657   1.735   5.625
 7312SOL    HW222836   6.583   1.829   5.736
 7313SOL     OW22837   4.051   2.894   0.013
 7313SOL    HW122838   3.951   2.893   0.002
 7313SOL    HW222839   4.087   2.978   6.990
 7314SOL     OW22840   0.702   2.912   4.467
 7314SOL    HW122841   0.727   2.816   4.451
 7314SOL    HW222842   0.619   2.934   4.415
 7315SOL     OW22843   6.959   0.329   5.378
 7315SOL    HW122844   6.958   0.266   5.455
 7315SOL    HW222845   6.910   0.288   5.301
 7316SOL     OW22846   3.600   4.096   5.446
 7316SOL    HW122847   3.610   4.174   5.383
 7316SOL    HW222848   3.557   4.127   5.531
 7317SOL     OW22849   2.908   1.259   3.494
 7317SOL    HW122850   2.966   1.218   3.565
 7317SOL    HW222851   2.956   1.336   3.453
 7318SOL     OW22852   1.372   1.819   1.530
 7318SOL    HW122853   1.361   1.735   1.479
 7318SOL    HW222854   1.288   1.840   1.579
 7319SOL     OW22855   6.731   3.985   6.664
 7319SOL    HW122856   6.772   4.069   6.700
 7319SOL    HW222857   6.800   3.912   6.666
 7320SOL     OW22858   6.625   2.490   2.395
 7320SOL    HW122859   6.722   2.465   2.399
 7320SOL    HW222860   6.613   2.565   2.330
 7321SOL     OW22861   3.042   1.551   4.600
 7321SOL    HW122862   3.084   1.465   4.628
 7321SOL    HW222863   2.965   1.572   4.661
 7322SOL     OW22864   0.440   3.367   2.118
 7322SOL    HW122865   0.462   3.278   2.158
 7322SOL    HW222866   0.520   3.402   2.070
 7323SOL     OW22867   2.148   3.685   3.085
 7323SOL    HW122868   2.204   3.762   3.055
 7323SOL    HW222869   2.164   3.668   3.183
 7324SOL     OW22870   5.398   6.103   2.230
 7324SOL    HW122871   5.310   6.094   2.278
 7324SOL    HW222872   5.420   6.200   2.219
 7325SOL     OW22873   2.943   6.446   0.655
 7325SOL    HW122874   2.848   6.451   0.622
 7325SOL    HW222875   2.945   6.399   0.743
 7326SOL     OW22876   2.904   0.205   4.555
 7326SOL    HW122877   2.833   0.200   4.485
 7326SOL    HW222878   2.957   0.289   4.544
 7327SOL     OW22879   1.669   2.546   5.485
 7327SOL    HW122880   1.709   2.633   5.514
 7327SOL    HW222881   1.633   2.554   5.392
 7328SOL     OW22882   2.504   6.832   7.009
 7328SOL    HW122883   2.418   6.789   6.981
 7328SOL    HW222884   2.542   6.781   0.069
 7329SOL     OW22885   4.350   3.367   1.385
 7329SOL    HW122886   4.318   3.296   1.322
 7329SOL    HW222887   4.363   3.327   1.476
 7330SOL     OW22888   4.476   1.697   0.684
 7330SOL    HW122889   4.469   1.757   0.604
 7330SOL    HW222890   4.397   1.636   0.688
 7331SOL     OW22891   5.274   1.226   1.813
 7331SOL    HW122892   5.205   1.195   1.878
 7331SOL    HW222893   5.282   1.326   1.819
 7332SOL     OW22894   3.605   5.315   1.185
 7332SOL    HW122895   3.665   5.372   1.242
 7332SOL    HW222896   3.605   5.221   1.220
 7333SOL     OW22897   0.316   5.009   2.582
 7333SOL    HW122898   0.313   5.109   2.589
 7333SOL    HW222899   0.222   4.973   2.587
 7334SOL     OW22900   3.907   6.473   4.482
 7334SOL    HW122901   3.857   6.557   4.504
 7334SOL    HW222902   3.848   6.412   4.430
 7335SOL     OW22903   1.733   2.755   2.845
 7335SOL    HW122904   1.782   2.800   2.771
 7335SOL    HW222905   1.712   2.823   2.916
 7336SOL     OW22906   1.814   6.322   4.107
 7336SOL    HW122907   1.904   6.285   4.083
 7336SOL    HW222908   1.742   6.261   4.072
 7337SOL     OW22909   5.276   2.424   2.128
 7337SOL    HW122910   5.321   2.469   2.205
 7337SOL    HW222911   5.237   2.337   2.159
 7338SOL     OW22912   6.501   3.395   0.219
 7338SOL    HW122913   6.476   3.450   0.138
 7338SOL    HW222914   6.440   3.418   0.294
 7339SOL     OW22915   1.286   5.605   4.663
 7339SOL    HW122916   1.318   5.636   4.574
 7339SOL    HW222917   1.201   5.552   4.651
 7340SOL     OW22918   1.912   6.907   6.279
 7340SOL    HW122919   1.890   6.907   6.182
 7340SOL    HW222920   1.997   6.856   6.295
 7341SOL     OW22921   6.620   2.358   0.013
 7341SOL    HW122922   6.632   2.268   6.989
 7341SOL    HW222923   6.531   2.362   0.057
 7342SOL     OW22924   0.035   6.986   2.161
 7342SOL    HW122925   7.000   6.907   2.190
 7342SOL    HW222926   0.093   6.961   2.084
 7343SOL     OW22927   5.328   3.057   0.777
 7343SOL    HW122928   5.285   3.134   0.731
 7343SOL    HW222929   5.321   2.975   0.721
 7344SOL     OW22930   1.556   6.407   6.290
 7344SOL    HW122931   1.472   6.354   6.299
 7344SOL    HW222932   1.569   6.462   6.373
 7345SOL     OW22933   3.245   5.107   6.246
 7345SOL    HW122934   3.227   5.203   6.271
 7345SOL    HW222935   3.190   5.047   6.304
 7346SOL     OW22936   4.404   4.541   2.678
 7346SOL    HW122937   4.373   4.566   2.770
 7346SOL    HW222938   4.490   4.589   2.658
 7347SOL     OW22939   6.110   1.756   6.697
 7347SOL    HW122940   6.138   1.828   6.633
 7347SOL    HW222941   6.015   1.730   6.680
 7348SOL     OW22942   6.041   4.280   0.815
 7348SOL    HW122943   6.063   4.192   0.773
 7348SOL    HW222944   6.084   4.285   0.906
 7349SOL     OW22945   3.836   1.784   2.085
 7349SOL    HW122946   3.744   1.754   2.109
 7349SOL    HW222947   3.830   1.861   2.022
 7350SOL     OW22948   3.495   0.848   4.155
 7350SOL    HW122949   3.500   0.861   4.056
 7350SOL    HW222950   3.523   0.932   4.200
 7351SOL     OW22951   2.748   4.653   3.854
 7351SOL    HW122952   2.806   4.697   3.785
 7351SOL    HW222953   2.655   4.645   3.819
 7352SOL     OW22954   6.142   3.339   4.368
 7352SOL    HW122955   6.175   3.387   4.449
 7352SOL    HW222956   6.103   3.251   4.396
 7353SOL     OW22957   6.463   0.689   6.005
 7353SOL    HW122958   6.482   0.748   6.083
 7353SOL    HW222959   6.383   0.631   6.025
 7354SOL     OW22960   0.002   1.199   3.266
 7354SOL    HW122961   0.093   1.159   3.252
 7354SOL    HW222962   0.010   1.297   3.282
 7355SOL     OW22963   2.900   1.380   0.037
 7355SOL    HW122964   2.845   1.331   6.987
 7355SOL    HW222965   2.939   1.462   7.014
 7356SOL     OW22966   4.194   4.168   5.942
 7356SOL    HW122967   4.203   4.110   6.022
 7356SOL    HW222968   4.129   4.126   5.877
 7357SOL     OW22969   4.887   5.984   2.204
 7357SOL    HW122970   4.831   6.029   2.274
 7357SOL    HW222971   4.925   5.900   2.241
 7358SOL     OW22972   5.783   1.021   2.953
 7358SOL    HW122973   5.784   0.936   2.900
 7358SOL    HW222974   5.866   1.027   3.008
 7359SOL     OW22975   4.775   0.190   1.831
 7359SOL    HW122976   4.694   0.170   1.885
 7359SOL    HW222977   4.760   0.273   1.777
 7360SOL     OW22978   3.039   3.355   4.889
 7360SOL    HW122979   3.009   3.319   4.801
 7360SOL    HW222980   2.982   3.433   4.913
 7361SOL     OW22981   6.772   0.218   3.073
 7361SOL    HW122982   6.758   0.300   3.130
 7361SOL    HW222983   6.863   0.222   3.031
 7362SOL     OW22984   2.867   5.303   0.179
 7362SOL    HW122985   2.822   5.256   0.255
 7362SOL    HW222986   2.963   5.274   0.174
 7363SOL     OW22987   3.634   1.039   0.343
 7363SOL    HW122988   3.636   0.940   0.355
 7363SOL    HW222989   3.553   1.065   0.291
 7364SOL     OW22990   5.676   6.560   1.656
 7364SOL    HW122991   5.660   6.549   1.754
 7364SOL    HW222992   5.760   6.613   1.642
 7365SOL     OW22993   5.265   4.508   2.197
 7365SOL    HW122994   5.271   4.571   2.120
 7365SOL    HW222995   5.174   4.515   2.239
 7366SOL     OW22996   1.586   0.635   3.850
 7366SOL    HW122997   1.539   0.622   3.937
 7366SOL    HW222998   1.606   0.732   3.837
 7367SOL     OW22999   3.690   1.340   0.049
 7367SOL    HW123000   3.760   1.274   0.075
 7367SOL    HW223001   3.694   1.420   0.109
 7368SOL     OW23002   3.728   3.223   3.543
 7368SOL    HW123003   3.727   3.254   3.638
 7368SOL    HW223004   3.680   3.290   3.485
 7369SOL     OW23005   5.228   2.366   0.422
 7369SOL    HW123006   5.208   2.286   0.477
 7369SOL    HW223007   5.258   2.337   0.331
 7370SOL     OW23008   1.959   1.159   4.305
 7370SOL    HW123009   1.969   1.070   4.261
 7370SOL    HW223010   1.949   1.230   4.236
 7371SOL     OW23011   4.046   1.429   3.694
 7371SOL    HW123012   4.056   1.494   3.769
 7371SOL    HW223013   4.133   1.383   3.678
 7372SOL     OW23014   5.678   1.076   5.550
 7372SOL    HW123015   5.736   1.141   5.599
 7372SOL    HW223016   5.719   1.056   5.461
 7373SOL     OW23017   5.904   3.295   4.750
 7373SOL    HW123018   5.989   3.274   4.800
 7373SOL    HW223019   5.927   3.339   4.664
 7374SOL     OW23020   6.441   2.502   5.947
 7374SOL    HW123021   6.446   2.474   5.851
 7374SOL    HW223022   6.357   2.553   5.963
 7375SOL     OW23023   1.599   3.873   1.655
 7375SOL    HW123024   1.581   3.805   1.584
 7375SOL    HW223025   1.688   3.915   1.640
 7376SOL     OW23026   7.016   3.488   0.652
 7376SOL    HW123027   7.011   3.396   0.612
 7376SOL    HW223028   0.092   3.522   0.647
 7377SOL     OW23029   2.239   6.407   0.882
 7377SOL    HW123030   2.144   6.405   0.915
 7377SOL    HW223031   2.239   6.407   0.782
 7378SOL     OW23032   1.666   5.439   4.225
 7378SOL    HW123033   1.675   5.511   4.157
 7378SOL    HW223034   1.735   5.452   4.297
 7379SOL     OW23035   4.011   1.031   2.291
 7379SOL    HW123036   4.019   1.056   2.195
 7379SOL    HW223037   4.103   1.023   2.331
 7380SOL     OW23038   5.260   3.943   1.660
 7380SOL    HW123039   5.246   3.896   1.747
 7380SOL    HW223040   5.177   3.934   1.604
 7381SOL     OW23041   3.706   0.181   1.750
 7381SOL    HW123042   3.618   0.133   1.742
 7381SOL    HW223043   3.738   0.207   1.659
 7382SOL     OW23044   6.341   1.381   5.929
 7382SOL    HW123045   6.353   1.423   6.019
 7382SOL    HW223046   6.359   1.449   5.858
 7383SOL     OW23047   2.230   0.345   0.995
 7383SOL    HW123048   2.202   0.394   0.912
 7383SOL    HW223049   2.151   0.330   1.054
 7384SOL     OW23050   6.501   6.827   1.052
 7384SOL    HW123051   6.509   6.926   1.060
 7384SOL    HW223052   6.458   6.790   1.135
 7385SOL     OW23053   6.336   4.235   2.560
 7385SOL    HW123054   6.416   4.271   2.610
 7385SOL    HW223055   6.343   4.136   2.555
 7386SOL     OW23056   5.123   3.692   0.206
 7386SOL    HW123057   5.044   3.735   0.248
 7386SOL    HW223058   5.203   3.751   0.215
 7387SOL     OW23059   6.760   5.623   4.297
 7387SOL    HW123060   6.731   5.543   4.349
 7387SOL    HW223061   6.709   5.628   4.211
 7388SOL     OW23062   2.340   4.438   2.611
 7388SOL    HW123063   2.396   4.430   2.529
 7388SOL    HW223064   2.245   4.459   2.585
 7389SOL     OW23065   6.412   3.056   0.332
 7389SOL    HW123066   6.466   3.036   0.250
 7389SOL    HW223067   6.417   3.153   0.352
 7390SOL     OW23068   2.409   2.705   3.786
 7390SOL    HW123069   2.367   2.732   3.872
 7390SOL    HW223070   2.496   2.659   3.805
 7391SOL     OW23071   3.634   4.020   3.053
 7391SOL    HW123072   3.557   3.956   3.051
 7391SOL    HW223073   3.703   3.986   3.117
 7392SOL     OW23074   2.914   6.773   6.754
 7392SOL    HW123075   2.907   6.693   6.813
 7392SOL    HW223076   2.926   6.744   6.659
 7393SOL     OW23077   5.270   5.220   4.054
 7393SOL    HW123078   5.318   5.297   4.012
 7393SOL    HW223079   5.272   5.142   3.991
 7394SOL     OW23080   2.269   1.816   5.546
 7394SOL    HW123081   2.301   1.817   5.452
 7394SOL    HW223082   2.179   1.773   5.551
 7395SOL     OW23083   2.602   6.279   0.965
 7395SOL    HW123084   2.587   6.234   0.877
 7395SOL    HW223085   2.592   6.212   1.039
 7396SOL     OW23086   1.944   5.284   2.365
 7396SOL    HW123087   1.933   5.198   2.416
 7396SOL    HW223088   2.037   5.291   2.330
 7397SOL     OW23089   5.920   4.627   3.977
 7397SOL    HW123090   5.909   4.609   4.074
 7397SOL    HW223091   5.908   4.725   3.959
 7398SOL     OW23092   3.117   4.876   2.547
 7398SOL    HW123093   3.040   4.881   2.610
 7398SOL    HW223094   3.086   4.895   2.454
 7399SOL     OW23095   5.233   1.637   5.747
 7399SOL    HW123096   5.280   1.634   5.835
 7399SOL    HW223097   5.297   1.608   5.675
 7400SOL     OW23098   5.175   3.292   5.964
 7400SOL    HW123099   5.204   3.377   5.921
 7400SOL    HW223100   5.082   3.271   5.936
 7401SOL     OW23101   1.460   2.550   4.574
 7401SOL    HW123102   1.522   2.496   4.630
 7401SOL    HW223103   1.438   2.500   4.490
 7402SOL     OW23104   3.757   5.610   4.487
 7402SOL    HW123105   3.704   5.604   4.403
 7402SOL    HW223106   3.700   5.587   4.565
 7403SOL     OW23107   1.821   4.320   4.390
 7403SOL    HW123108   1.921   4.324   4.394
 7403SOL    HW223109   1.784   4.412   4.405
 7404SOL     OW23110   3.253   3.633   0.769
 7404SOL    HW123111   3.347   3.630   0.804
 7404SOL    HW223112   3.189   3.634   0.846
 7405SOL     OW23113   4.231   6.672   5.105
 7405SOL    HW123114   4.154   6.620   5.143
 7405SOL    HW223115   4.202   6.720   5.023
 7406SOL     OW23116   1.053   1.927   4.473
 7406SOL    HW123117   1.047   1.911   4.571
 7406SOL    HW223118   0.971   1.893   4.428
 7407SOL     OW23119   0.831   5.921   5.219
 7407SOL    HW123120   0.802   6.015   5.237
 7407SOL    HW223121   0.926   5.921   5.188
 7408SOL     OW23122   4.385   5.145   5.147
 7408SOL    HW123123   4.329   5.219   5.110
 7408SOL    HW223124   4.356   5.058   5.107
 7409SOL     OW23125   6.981   3.852   1.360
 7409SOL    HW123126   0.022   3.860   1.281
 7409SOL    HW223127   6.993   3.762   1.403
 7410SOL     OW23128   6.773   0.738   0.609
 7410SOL    HW123129   6.708   0.799   0.654
 7410SOL    HW223130   6.740   0.714   0.518
 7411SOL     OW23131   2.800   1.535   5.332
 7411SOL    HW123132   2.882   1.512   5.385
 7411SOL    HW223133   2.733   1.579   5.392
 7412SOL     OW23134   3.687   0.032   0.139
 7412SOL    HW123135   3.712   0.120   0.098
 7412SOL    HW223136   3.587   0.024   0.143
 7413SOL     OW23137   4.562   0.667   3.103
 7413SOL    HW123138   4.525   0.692   3.013
 7413SOL    HW223139   4.573   0.750   3.158
 7414SOL     OW23140   2.766   1.143   3.307
 7414SOL    HW123141   2.833   1.192   3.361
 7414SOL    HW223142   2.737   1.200   3.230
 7415SOL     OW23143   3.968   6.832   6.589
 7415SOL    HW123144   3.963   6.931   6.604
 7415SOL    HW223145   3.907   6.785   6.652
 7416SOL     OW23146   1.680   1.137   1.992
 7416SOL    HW123147   1.760   1.099   1.946
 7416SOL    HW223148   1.624   1.062   2.028
 7417SOL     OW23149   0.737   0.754   2.622
 7417SOL    HW123150   0.829   0.757   2.660
 7417SOL    HW223151   0.719   0.837   2.570
 7418SOL     OW23152   1.296   4.082   5.979
 7418SOL    HW123153   1.209   4.037   5.959
 7418SOL    HW223154   1.344   4.030   6.050
 7419SOL     OW23155   6.857   3.700   4.257
 7419SOL    HW123156   6.861   3.779   4.318
 7419SOL    HW223157   6.812   3.726   4.172
 7420SOL     OW23158   0.019   6.543   0.838
 7420SOL    HW123159   0.022   6.446   0.814
 7420SOL    HW223160   6.977   6.591   0.774
 7421SOL     OW23161   5.977   3.980   1.162
 7421SOL    HW123162   5.940   3.899   1.208
 7421SOL    HW223163   6.054   4.016   1.214
 7422SOL     OW23164   5.684   2.825   2.093
 7422SOL    HW123165   5.610   2.803   2.156
 7422SOL    HW223166   5.716   2.741   2.048
 7423SOL     OW23167   4.821   2.334   5.842
 7423SOL    HW123168   4.895   2.349   5.908
 7423SOL    HW223169   4.800   2.420   5.795
 7424SOL     OW23170   0.087   2.409   3.239
 7424SOL    HW123171   0.069   2.502   3.206
 7424SOL    HW223172   0.171   2.408   3.292
 7425SOL     OW23173   5.885   0.819   0.656
 7425SOL    HW123174   5.839   0.740   0.697
 7425SOL    HW223175   5.966   0.788   0.606
 7426SOL     OW23176   3.367   2.676   5.580
 7426SOL    HW123177   3.394   2.689   5.484
 7426SOL    HW223178   3.411   2.747   5.636
 7427SOL     OW23179   3.016   0.690   3.500
 7427SOL    HW123180   2.992   0.593   3.504
 7427SOL    HW223181   2.946   0.744   3.548
 7428SOL     OW23182   3.773   6.335   4.724
 7428SOL    HW123183   3.818   6.424   4.716
 7428SOL    HW223184   3.841   6.264   4.740
 7429SOL     OW23185   0.853   0.077   2.039
 7429SOL    HW123186   0.896   0.106   2.125
 7429SOL    HW223187   0.863   6.997   2.028
 7430SOL     OW23188   6.269   4.560   3.188
 7430SOL    HW123189   6.214   4.530   3.110
 7430SOL    HW223190   6.342   4.621   3.156
 7431SOL     OW23191   0.816   1.395   3.371
 7431SOL    HW123192   0.892   1.350   3.419
 7431SOL    HW223193   0.747   1.327   3.348
 7432SOL     OW23194   2.082   1.093   2.983
 7432SOL    HW123195   2.149   1.122   3.052
 7432SOL    HW223196   2.095   0.996   2.963
 7433SOL     OW23197   2.792   6.409   6.612
 7433SOL    HW123198   2.774   6.319   6.651
 7433SOL    HW223199   2.706   6.460   6.604
 7434SOL     OW23200   4.297   0.033   3.918
 7434SOL    HW123201   4.387   0.026   3.875
 7434SOL    HW223202   4.273   0.129   3.929
 7435SOL     OW23203   4.729   4.078   2.991
 7435SOL    HW123204   4.761   3.988   2.961
 7435SOL    HW223205   4.697   4.131   2.912
 7436SOL     OW23206   5.582   2.841   5.847
 7436SOL    HW123207   5.572   2.822   5.750
 7436SOL    HW223208   5.557   2.937   5.865
 7437SOL     OW23209   3.397   0.297   0.846
 7437SOL    HW123210   3.411   0.215   0.902
 7437SOL    HW223211   3.379   0.269   0.752
 7438SOL     OW23212   2.034   7.008   6.953
 7438SOL    HW123213   2.123   0.030   6.933
 7438SOL    HW223214   2.028   6.990   0.033
 7439SOL     OW23215   0.911   4.807   6.127
 7439SOL    HW123216   0.990   4.773   6.076
 7439SOL    HW223217   0.904   4.759   6.215
 7440SOL     OW23218   5.596   4.007   4.043
 7440SOL    HW123219   5.535   4.080   4.013
 7440SOL    HW223220   5.679   4.046   4.083
 7441SOL     OW23221   5.124   6.040   0.599
 7441SOL    HW123222   5.104   5.947   0.568
 7441SOL    HW223223   5.095   6.105   0.529
 7442SOL     OW23224   5.331   0.472   6.448
 7442SOL    HW123225   5.241   0.462   6.491
 7442SOL    HW223226   5.326   0.440   6.353
 7443SOL     OW23227   0.220   0.710   1.097
 7443SOL    HW123228   0.320   0.703   1.094
 7443SOL    HW223229   0.192   0.802   1.069
 7444SOL     OW23230   1.250   6.727   0.252
 7444SOL    HW123231   1.169   6.680   0.287
 7444SOL    HW223232   1.258   6.710   0.154
 7445SOL     OW23233   4.033   5.667   1.972
 7445SOL    HW123234   3.973   5.604   1.923
 7445SOL    HW223235   3.980   5.743   2.008
 7446SOL     OW23236   5.554   4.500   6.784
 7446SOL    HW123237   5.502   4.531   6.864
 7446SOL    HW223238   5.579   4.404   6.797
 7447SOL     OW23239   0.427   4.472   0.327
 7447SOL    HW123240   0.389   4.470   0.235
 7447SOL    HW223241   0.507   4.532   0.329
 7448SOL     OW23242   4.814   5.580   6.873
 7448SOL    HW123243   4.818   5.643   6.795
 7448SOL    HW223244   4.843   5.628   6.956
 7449SOL     OW23245   6.680   4.545   5.745
 7449SOL    HW123246   6.745   4.616   5.719
 7449SOL    HW223247   6.624   4.578   5.822
 7450SOL     OW23248   5.323   2.285   6.062
 7450SOL    HW123249   5.365   2.336   6.138
 7450SOL    HW223250   5.392   2.269   5.991
 7451SOL     OW23251   4.515   4.471   3.055
 7451SOL    HW123252   4.539   4.375   3.047
 7451SOL    HW223253   4.442   4.493   2.991
 7452SOL     OW23254   6.299   5.464   5.603
 7452SOL    HW123255   6.357   5.446   5.523
 7452SOL    HW223256   6.203   5.465   5.575
 7453SOL     OW23257   3.797   5.919   5.995
 7453SOL    HW123258   3.853   5.874   6.065
 7453SOL    HW223259   3.856   5.971   5.933
 7454SOL     OW23260   4.009   2.578   1.183
 7454SOL    HW123261   3.912   2.571   1.207
 7454SOL    HW223262   4.062   2.515   1.239
 7455SOL     OW23263   6.579   1.425   3.462
 7455SOL    HW123264   6.529   1.473   3.391
 7455SOL    HW223265   6.622   1.492   3.523
 7456SOL     OW23266   3.054   1.924   6.062
 7456SOL    HW123267   3.025   1.923   6.157
 7456SOL    HW223268   3.037   2.015   6.023
 7457SOL     OW23269   0.989   1.464   2.498
 7457SOL    HW123270   1.089   1.468   2.494
 7457SOL    HW223271   0.956   1.402   2.426
 7458SOL     OW23272   1.646   5.528   5.450
 7458SOL    HW123273   1.718   5.598   5.452
 7458SOL    HW223274   1.653   5.470   5.532
 7459SOL     OW23275   5.966   0.275   3.143
 7459SOL    HW123276   6.033   0.219   3.094
 7459SOL    HW223277   5.894   0.304   3.080
 7460SOL     OW23278   1.384   0.173   1.494
 7460SOL    HW123279   1.414   0.185   1.399
 7460SOL    HW223280   1.304   0.231   1.511
 7461SOL     OW23281   2.446   4.824   5.337
 7461SOL    HW123282   2.494   4.752   5.287
 7461SOL    HW223283   2.348   4.817   5.320
 7462SOL     OW23284   1.385   3.874   1.030
 7462SOL    HW123285   1.397   3.775   1.037
 7462SOL    HW223286   1.468   3.920   1.060
 7463SOL     OW23287   3.886   5.031   0.600
 7463SOL    HW123288   3.856   4.936   0.611
 7463SOL    HW223289   3.931   5.062   0.684
 7464SOL     OW23290   6.333   6.199   5.163
 7464SOL    HW123291   6.295   6.109   5.139
 7464SOL    HW223292   6.414   6.218   5.107
 7465SOL     OW23293   1.701   4.760   0.007
 7465SOL    HW123294   1.693   4.696   0.084
 7465SOL    HW223295   1.622   4.822   0.007
 7466SOL     OW23296   0.435   0.194   5.167
 7466SOL    HW123297   0.421   0.153   5.077
 7466SOL    HW223298   0.426   0.293   5.160
 7467SOL     OW23299   1.018   3.841   4.592
 7467SOL    HW123300   1.093   3.795   4.545
 7467SOL    HW223301   1.045   3.862   4.686
 7468SOL     OW23302   5.252   3.003   6.154
 7468SOL    HW123303   5.235   2.908   6.181
 7468SOL    HW223304   5.273   3.058   6.235
 7469SOL     OW23305   0.587   2.105   0.265
 7469SOL    HW123306   0.552   2.191   0.302
 7469SOL    HW223307   0.663   2.124   0.203
 7470SOL     OW23308   5.740   2.489   3.287
 7470SOL    HW123309   5.758   2.430   3.365
 7470SOL    HW223310   5.776   2.580   3.305
 7471SOL     OW23311   3.623   0.093   6.405
 7471SOL    HW123312   3.545   0.031   6.409
 7471SOL    HW223313   3.706   0.041   6.388
 7472SOL     OW23314   6.585   0.256   5.846
 7472SOL    HW123315   6.607   0.158   5.848
 7472SOL    HW223316   6.590   0.290   5.752
 7473SOL     OW23317   3.681   5.842   3.733
 7473SOL    HW123318   3.660   5.856   3.636
 7473SOL    HW223319   3.780   5.835   3.745
 7474SOL     OW23320   5.917   1.940   0.428
 7474SOL    HW123321   5.985   1.933   0.355
 7474SOL    HW223322   5.903   2.036   0.453
 7475SOL     OW23323   4.941   2.414   0.444
 7475SOL    HW123324   4.902   2.330   0.483
 7475SOL    HW223325   5.040   2.402   0.432
 7476SOL     OW23326   2.312   0.819   3.182
 7476SOL    HW123327   2.359   0.907   3.177
 7476SOL    HW223328   2.248   0.810   3.107
 7477SOL     OW23329   1.632   2.970   5.550
 7477SOL    HW123330   1.656   2.981   5.647
 7477SOL    HW223331   1.546   3.018   5.531
 7478SOL     OW23332   0.265   1.162   5.870
 7478SOL    HW123333   0.177   1.142   5.826
 7478SOL    HW223334   0.338   1.162   5.802
 7479SOL     OW23335   4.954   2.679   1.504
 7479SOL    HW123336   4.929   2.759   1.559
 7479SOL    HW223337   4.872   2.634   1.470
 7480SOL     OW23338   3.798   5.458   2.292
 7480SOL    HW123339   3.811   5.360   2.278
 7480SOL    HW223340   3.825   5.483   2.384
 7481SOL     OW23341   6.971   3.780   6.683
 7481SOL    HW123342   7.013   3.807   6.597
 7481SOL    HW223343   0.022   3.779   6.755
 7482SOL     OW23344   5.505   2.117   3.672
 7482SOL    HW123345   5.595   2.088   3.702
 7482SOL    HW223346   5.482   2.205   3.713
 7483SOL     OW23347   4.531   1.848   5.971
 7483SOL    HW123348   4.530   1.945   5.997
 7483SOL    HW223349   4.544   1.792   6.053
 7484SOL     OW23350   3.171   0.265   3.523
 7484SOL    HW123351   3.152   0.218   3.436
 7484SOL    HW223352   3.266   0.297   3.523
 7485SOL     OW23353   3.413   6.922   6.398
 7485SOL    HW123354   3.396   6.890   6.491
 7485SOL    HW223355   3.414   6.844   6.336
 7486SOL     OW23356   3.486   6.980   0.751
 7486SOL    HW123357   3.444   0.015   0.678
 7486SOL    HW223358   3.452   7.013   0.840
 7487SOL     OW23359   3.355   6.444   4.543
 7487SOL    HW123360   3.450   6.417   4.560
 7487SOL    HW223361   3.295   6.365   4.556
 7488SOL     OW23362   1.210   5.796   3.950
 7488SOL    HW123363   1.216   5.854   3.869
 7488SOL    HW223364   1.122   5.811   3.995
 7489SOL     OW23365   5.357   3.020   0.068
 7489SOL    HW123366   5.271   3.023   0.119
 7489SOL    HW223367   5.348   3.078   7.005
 7490SOL     OW23368   1.406   3.064   2.078
 7490SOL    HW123369   1.495   3.037   2.044
 7490SOL    HW223370   1.349   2.983   2.092
 7491SOL     OW23371   4.085   4.211   6.729
 7491SOL    HW123372   4.132   4.135   6.773
 7491SOL    HW223373   4.150   4.285   6.711
 7492SOL     OW23374   1.583   0.452   4.100
 7492SOL    HW123375   1.562   0.410   4.188
 7492SOL    HW223376   1.501   0.452   4.042
 7493SOL     OW23377   6.280   4.533   5.080
 7493SOL    HW123378   6.192   4.539   5.126
 7493SOL    HW223379   6.351   4.511   5.146
 7494SOL     OW23380   6.449   1.168   2.603
 7494SOL    HW123381   6.519   1.098   2.592
 7494SOL    HW223382   6.452   1.204   2.697
 7495SOL     OW23383   1.357   3.229   4.751
 7495SOL    HW123384   1.413   3.264   4.826
 7495SOL    HW223385   1.351   3.130   4.758
 7496SOL     OW23386   5.989   4.030   2.865
 7496SOL    HW123387   5.917   4.092   2.896
 7496SOL    HW223388   5.958   3.980   2.785
 7497SOL     OW23389   6.519   6.115   1.310
 7497SOL    HW123390   6.532   6.207   1.272
 7497SOL    HW223391   6.433   6.077   1.278
 7498SOL     OW23392   3.142   6.428   3.243
 7498SOL    HW123393   3.085   6.487   3.185
 7498SOL    HW223394   3.103   6.424   3.335
 7499SOL     OW23395   3.047   1.444   3.355
 7499SOL    HW123396   3.133   1.469   3.400
 7499SOL    HW223397   2.997   1.527   3.330
 7500SOL     OW23398   3.977   1.165   3.471
 7500SOL    HW123399   4.039   1.145   3.546
 7500SOL    HW223400   3.963   1.083   3.416
 7501SOL     OW23401   6.542   2.192   5.029
 7501SOL    HW123402   6.496   2.124   4.971
 7501SOL    HW223403   6.631   2.214   4.990
 7502SOL     OW23404   4.333   0.813   3.842
 7502SOL    HW123405   4.343   0.822   3.941
 7502SOL    HW223406   4.236   0.809   3.818
 7503SOL     OW23407   2.023   5.865   1.870
 7503SOL    HW123408   2.036   5.772   1.905
 7503SOL    HW223409   1.964   5.916   1.933
 7504SOL     OW23410   6.062   6.543   4.345
 7504SOL    HW123411   6.047   6.504   4.436
 7504SOL    HW223412   5.985   6.603   4.321
 7505SOL     OW23413   0.191   6.251   4.952
 7505SOL    HW123414   0.269   6.191   4.965
 7505SOL    HW223415   0.107   6.197   4.949
 7506SOL     OW23416   3.084   2.079   3.528
 7506SOL    HW123417   3.088   2.107   3.623
 7506SOL    HW223418   3.024   2.141   3.477
 7507SOL     OW23419   6.226   4.289   6.401
 7507SOL    HW123420   6.281   4.282   6.318
 7507SOL    HW223421   6.135   4.249   6.384
 7508SOL     OW23422   2.913   5.692   0.774
 7508SOL    HW123423   2.822   5.729   0.793
 7508SOL    HW223424   2.953   5.740   0.696
 7509SOL     OW23425   6.082   4.465   2.199
 7509SOL    HW123426   6.154   4.465   2.268
 7509SOL    HW223427   6.090   4.382   2.143
 7510SOL     OW23428   3.552   4.099   2.537
 7510SOL    HW123429   3.573   4.131   2.630
 7510SOL    HW223430   3.623   4.036   2.507
 7511SOL     OW23431   4.468   6.040   4.202
 7511SOL    HW123432   4.400   6.045   4.129
 7511SOL    HW223433   4.429   5.989   4.279
 7512SOL     OW23434   3.772   1.244   1.312
 7512SOL    HW123435   3.688   1.189   1.310
 7512SOL    HW223436   3.849   1.185   1.338
 7513SOL     OW23437   1.223   1.836   2.252
 7513SOL    HW123438   1.199   1.931   2.274
 7513SOL    HW223439   1.211   1.779   2.334
 7514SOL     OW23440   0.629   6.486   1.773
 7514SOL    HW123441   0.631   6.469   1.674
 7514SOL    HW223442   0.709   6.540   1.799
 7515SOL     OW23443   0.387   4.258   5.484
 7515SOL    HW123444   0.385   4.350   5.445
 7515SOL    HW223445   0.296   4.217   5.477
 7516SOL     OW23446   1.752   6.444   5.422
 7516SOL    HW123447   1.739   6.378   5.496
 7516SOL    HW223448   1.787   6.398   5.341
 7517SOL     OW23449   0.715   1.450   5.639
 7517SOL    HW123450   0.684   1.367   5.592
 7517SOL    HW223451   0.790   1.427   5.701
 7518SOL     OW23452   4.729   1.829   4.084
 7518SOL    HW123453   4.722   1.760   4.155
 7518SOL    HW223454   4.821   1.869   4.085
 7519SOL     OW23455   4.198   6.954   4.154
 7519SOL    HW123456   4.233   7.013   4.227
 7519SOL    HW223457   4.228   6.988   4.065
 7520SOL     OW23458   1.496   1.625   0.686
 7520SOL    HW123459   1.402   1.612   0.719
 7520SOL    HW223460   1.526   1.717   0.709
 7521SOL     OW23461   3.976   1.588   4.434
 7521SOL    HW123462   3.937   1.666   4.484
 7521SOL    HW223463   3.923   1.506   4.455
 7522SOL     OW23464   2.442   6.914   3.851
 7522SOL    HW123465   2.431   6.835   3.911
 7522SOL    HW223466   2.434   6.884   3.756
 7523SOL     OW23467   6.015   0.678   0.975
 7523SOL    HW123468   5.919   0.664   0.953
 7523SOL    HW223469   6.027   0.768   1.017
 7524SOL     OW23470   0.606   4.002   4.076
 7524SOL    HW123471   0.698   3.965   4.070
 7524SOL    HW223472   0.577   4.034   3.986
 7525SOL     OW23473   3.569   4.771   6.095
 7525SOL    HW123474   3.470   4.762   6.106
 7525SOL    HW223475   3.590   4.797   6.000
 7526SOL     OW23476   2.791   3.952   1.054
 7526SOL    HW123477   2.710   3.899   1.079
 7526SOL    HW223478   2.846   3.901   0.989
 7527SOL     OW23479   3.782   5.236   3.306
 7527SOL    HW123480   3.804   5.155   3.252
 7527SOL    HW223481   3.790   5.215   3.404
 7528SOL     OW23482   6.620   2.400   6.149
 7528SOL    HW123483   6.560   2.419   6.227
 7528SOL    HW223484   6.582   2.442   6.067
 7529SOL     OW23485   6.442   3.519   3.721
 7529SOL    HW123486   6.504   3.504   3.798
 7529SOL    HW223487   6.412   3.430   3.685
 7530SOL     OW23488   1.087   2.843   2.591
 7530SOL    HW123489   0.992   2.822   2.571
 7530SOL    HW223490   1.128   2.766   2.641
 7531SOL     OW23491   3.708   2.000   4.339
 7531SOL    HW123492   3.627   1.987   4.282
 7531SOL    HW223493   3.788   1.966   4.290
 7532SOL     OW23494   4.463   5.490   6.320
 7532SOL    HW123495   4.475   5.400   6.363
 7532SOL    HW223496   4.406   5.547   6.379
 7533SOL     OW23497   4.267   4.363   1.675
 7533SOL    HW123498   4.177   4.323   1.656
 7533SOL    HW223499   4.313   4.310   1.746
 7534SOL     OW23500   4.682   6.222   5.244
 7534SOL    HW123501   4.589   6.195   5.222
 7534SOL    HW223502   4.722   6.272   5.167
 7535SOL     OW23503   0.695   6.466   3.626
 7535SOL    HW123504   0.688   6.542   3.562
 7535SOL    HW223505   0.756   6.492   3.701
 7536SOL     OW23506   6.204   6.175   4.015
 7536SOL    HW123507   6.196   6.155   3.917
 7536SOL    HW223508   6.244   6.096   4.061
 7537SOL     OW23509   2.172   6.389   2.766
 7537SOL    HW123510   2.202   6.332   2.842
 7537SOL    HW223511   2.153   6.332   2.686
 7538SOL     OW23512   0.923   3.794   0.475
 7538SOL    HW123513   1.011   3.756   0.445
 7538SOL    HW223514   0.938   3.883   0.518
 7539SOL     OW23515   6.791   0.057   4.686
 7539SOL    HW123516   6.774   6.977   4.686
 7539SOL    HW223517   6.747   0.099   4.607
 7540SOL     OW23518   5.684   4.935   3.306
 7540SOL    HW123519   5.782   4.922   3.323
 7540SOL    HW223520   5.644   4.849   3.276
 7541SOL     OW23521   2.653   3.895   5.548
 7541SOL    HW123522   2.595   3.976   5.538
 7541SOL    HW223523   2.646   3.860   5.641
 7542SOL     OW23524   6.445   5.786   4.485
 7542SOL    HW123525   6.418   5.831   4.400
 7542SOL    HW223526   6.511   5.843   4.533
 7543SOL     OW23527   2.882   1.223   0.280
 7543SOL    HW123528   2.852   1.294   0.344
 7543SOL    HW223529   2.871   1.257   0.186
 7544SOL     OW23530   6.530   1.545   4.542
 7544SOL    HW123531   6.444   1.562   4.590
 7544SOL    HW223532   6.526   1.588   4.452
 7545SOL     OW23533   2.026   5.296   5.530
 7545SOL    HW123534   2.023   5.241   5.446
 7545SOL    HW223535   2.002   5.390   5.508
 7546SOL     OW23536   2.187   2.526   2.229
 7546SOL    HW123537   2.237   2.588   2.169
 7546SOL    HW223538   2.228   2.528   2.321
 7547SOL     OW23539   3.745   0.207   2.009
 7547SOL    HW123540   3.724   0.210   1.911
 7547SOL    HW223541   3.662   0.228   2.061
 7548SOL     OW23542   3.296   2.663   6.290
 7548SOL    HW123543   3.293   2.620   6.200
 7548SOL    HW223544   3.344   2.603   6.354
 7549SOL     OW23545   5.368   0.854   5.148
 7549SOL    HW123546   5.281   0.839   5.196
 7549SOL    HW223547   5.443   0.852   5.214
 7550SOL     OW23548   2.229   5.693   4.481
 7550SOL    HW123549   2.250   5.599   4.455
 7550SOL    HW223550   2.222   5.699   4.581
 7551SOL     OW23551   6.232   2.211   6.181
 7551SOL    HW123552   6.330   2.202   6.163
 7551SOL    HW223553   6.217   2.282   6.249
 7552SOL     OW23554   2.610   6.857   4.805
 7552SOL    HW123555   2.529   6.901   4.768
 7552SOL    HW223556   2.637   6.781   4.746
 7553SOL     OW23557   6.125   6.646   6.073
 7553SOL    HW123558   6.174   6.728   6.102
 7553SOL    HW223559   6.166   6.565   6.114
 7554SOL     OW23560   4.379   1.388   0.780
 7554SOL    HW123561   4.377   1.318   0.709
 7554SOL    HW223562   4.462   1.378   0.835
 7555SOL     OW23563   4.734   4.843   4.355
 7555SOL    HW123564   4.817   4.787   4.351
 7555SOL    HW223565   4.662   4.792   4.403
 7556SOL     OW23566   1.029   6.501   1.589
 7556SOL    HW123567   1.091   6.505   1.667
 7556SOL    HW223568   1.063   6.560   1.516
 7557SOL     OW23569   4.558   6.781   1.531
 7557SOL    HW123570   4.598   6.853   1.588
 7557SOL    HW223571   4.581   6.692   1.570
 7558SOL     OW23572   0.374   1.662   3.402
 7558SOL    HW123573   0.343   1.589   3.340
 7558SOL    HW223574   0.451   1.629   3.457
 7559SOL     OW23575   2.726   1.713   5.131
 7559SOL    HW123576   2.729   1.661   5.216
 7559SOL    HW223577   2.642   1.767   5.128
 7560SOL     OW23578   1.490   1.292   5.689
 7560SOL    HW123579   1.423   1.234   5.736
 7560SOL    HW223580   1.447   1.378   5.662
 7561SOL     OW23581   5.867   1.567   5.670
 7561SOL    HW123582   5.840   1.549   5.576
 7561SOL    HW223583   5.967   1.569   5.678
 7562SOL     OW23584   2.174   5.479   2.974
 7562SOL    HW123585   2.196   5.499   3.070
 7562SOL    HW223586   2.085   5.519   2.952
 7563SOL     OW23587   3.465   5.883   2.638
 7563SOL    HW123588   3.506   5.814   2.577
 7563SOL    HW223589   3.411   5.837   2.709
 7564SOL     OW23590   3.546   1.797   5.232
 7564SOL    HW123591   3.472   1.776   5.167
 7564SOL    HW223592   3.544   1.730   5.306
 7565SOL     OW23593   6.331   3.481   5.784
 7565SOL    HW123594   6.267   3.404   5.783
 7565SOL    HW223595   6.280   3.566   5.771
 7566SOL     OW23596   4.791   4.746   1.491
 7566SOL    HW123597   4.824   4.759   1.584
 7566SOL    HW223598   4.692   4.737   1.491
 7567SOL     OW23599   1.215   6.611   4.259
 7567SOL    HW123600   1.167   6.662   4.187
 7567SOL    HW223601   1.264   6.675   4.318
 7568SOL     OW23602   5.871   4.813   1.534
 7568SOL    HW123603   5.945   4.865   1.490
 7568SOL    HW223604   5.860   4.725   1.486
 7569SOL     OW23605   4.616   3.444   0.554
 7569SOL    HW123606   4.708   3.445   0.516
 7569SOL    HW223607   4.616   3.493   0.641
 7570SOL     OW23608   0.781   3.333   2.213
 7570SOL    HW123609   0.838   3.267   2.166
 7570SOL    HW223610   0.736   3.393   2.146
 7571SOL     OW23611   4.267   1.972   2.991
 7571SOL    HW123612   4.245   2.060   3.032
 7571SOL    HW223613   4.327   1.986   2.912
 7572SOL     OW23614   4.559   0.066   3.868
 7572SOL    HW123615   4.621   0.143   3.852
 7572SOL    HW223616   4.609   6.999   3.864
 7573SOL     OW23617   4.142   6.695   6.177
 7573SOL    HW123618   4.180   6.617   6.226
 7573SOL    HW223619   4.151   6.778   6.233
 7574SOL     OW23620   0.406   2.637   4.007
 7574SOL    HW123621   0.369   2.546   4.024
 7574SOL    HW223622   0.497   2.628   3.965
 7575SOL     OW23623   0.167   6.361   2.527
 7575SOL    HW123624   0.187   6.294   2.599
 7575SOL    HW223625   0.249   6.413   2.506
 7576SOL     OW23626   4.889   2.398   6.890
 7576SOL    HW123627   4.793   2.393   6.862
 7576SOL    HW223628   4.941   2.450   6.822
 7577SOL     OW23629   0.667   0.666   0.049
 7577SOL    HW123630   0.628   0.736   7.008
 7577SOL    HW223631   0.600   0.593   0.064
 7578SOL     OW23632   6.209   6.092   3.741
 7578SOL    HW123633   6.127   6.133   3.699
 7578SOL    HW223634   6.290   6.123   3.692
 7579SOL     OW23635   1.075   1.887   6.838
 7579SOL    HW123636   1.069   1.798   6.882
 7579SOL    HW223637   1.011   1.891   6.761
 7580SOL     OW23638   2.376   5.266   3.365
 7580SOL    HW123639   2.338   5.227   3.449
 7580SOL    HW223640   2.459   5.318   3.386
 7581SOL     OW23641   7.011   0.594   2.068
 7581SOL    HW123642   6.946   0.539   2.120
 7581SOL    HW223643   0.082   0.549   2.069
 7582SOL     OW23644   2.493   1.737   6.264
 7582SOL    HW123645   2.549   1.820   6.265
 7582SOL    HW223646   2.437   1.736   6.181
 7583SOL     OW23647   5.472   3.415   2.752
 7583SOL    HW123648   5.447   3.465   2.835
 7583SOL    HW223649   5.391   3.398   2.697
 7584SOL     OW23650   0.783   1.100   3.256
 7584SOL    HW123651   0.869   1.074   3.300
 7584SOL    HW223652   0.769   1.042   3.175
 7585SOL     OW23653   0.929   1.318   5.814
 7585SOL    HW123654   0.928   1.250   5.741
 7585SOL    HW223655   0.994   1.391   5.791
 7586SOL     OW23656   1.791   6.710   3.351
 7586SOL    HW123657   1.881   6.700   3.393
 7586SOL    HW223658   1.749   6.796   3.382
 7587SOL     OW23659   4.277   0.043   1.359
 7587SOL    HW123660   4.245   6.989   1.298
 7587SOL    HW223661   4.208   0.114   1.366
 7588SOL     OW23662   2.472   2.479   4.763
 7588SOL    HW123663   2.388   2.424   4.770
 7588SOL    HW223664   2.538   2.433   4.705
 7589SOL     OW23665   6.687   0.355   2.597
 7589SOL    HW123666   6.659   0.292   2.524
 7589SOL    HW223667   6.763   0.315   2.648
 7590SOL     OW23668   6.471   1.151   0.112
 7590SOL    HW123669   6.418   1.232   0.086
 7590SOL    HW223670   6.537   1.177   0.183
 7591SOL     OW23671   3.298   3.271   4.842
 7591SOL    HW123672   3.243   3.342   4.887
 7591SOL    HW223673   3.391   3.304   4.829
 7592SOL     OW23674   0.167   6.597   3.885
 7592SOL    HW123675   0.156   6.697   3.884
 7592SOL    HW223676   0.226   6.570   3.809
 7593SOL     OW23677   0.247   0.759   5.356
 7593SOL    HW123678   0.251   0.799   5.448
 7593SOL    HW223679   0.327   0.789   5.303
 7594SOL     OW23680   0.058   3.880   6.467
 7594SOL    HW123681   0.137   3.923   6.511
 7594SOL    HW223682   0.081   3.860   6.372
 7595SOL     OW23683   1.224   3.294   0.182
 7595SOL    HW123684   1.250   3.264   0.090
 7595SOL    HW223685   1.305   3.326   0.231
 7596SOL     OW23686   3.355   1.394   6.880
 7596SOL    HW123687   3.280   1.403   6.815
 7596SOL    HW223688   3.438   1.365   6.832
 7597SOL     OW23689   1.910   4.872   1.340
 7597SOL    HW123690   1.899   4.923   1.255
 7597SOL    HW223691   1.836   4.895   1.404
 7598SOL     OW23692   6.333   0.587   2.082
 7598SOL    HW123693   6.244   0.600   2.125
 7598SOL    HW223694   6.375   0.502   2.113
 7599SOL     OW23695   3.353   3.935   1.218
 7599SOL    HW123696   3.254   3.934   1.204
 7599SOL    HW223697   3.374   3.976   1.307
 7600SOL     OW23698   1.342   6.858   3.903
 7600SOL    HW123699   1.404   6.900   3.837
 7600SOL    HW223700   1.361   6.760   3.908
 7601SOL     OW23701   3.099   0.194   1.957
 7601SOL    HW123702   3.044   0.228   2.033
 7601SOL    HW223703   3.063   0.228   1.871
 7602SOL     OW23704   0.469   1.257   1.199
 7602SOL    HW123705   0.424   1.274   1.286
 7602SOL    HW223706   0.515   1.340   1.167
 7603SOL     OW23707   3.889   1.051   6.024
 7603SOL    HW123708   3.964   0.990   6.049
 7603SOL    HW223709   3.892   1.070   5.926
 7604SOL     OW23710   1.359   2.522   4.943
 7604SOL    HW123711   1.289   2.550   4.876
 7604SOL    HW223712   1.314   2.490   5.026
 7605SOL     OW23713   2.078   6.254   0.065
 7605SOL    HW123714   1.990   6.283   0.026
 7605SOL    HW223715   2.069   6.161   0.102
 7606SOL     OW23716   6.714   0.811   3.203
 7606SOL    HW123717   6.643   0.783   3.268
 7606SOL    HW223718   6.772   0.880   3.246
 7607SOL     OW23719   1.647   6.100   5.352
 7607SOL    HW123720   1.708   6.179   5.340
 7607SOL    HW223721   1.667   6.031   5.283
 7608SOL     OW23722   6.848   2.018   6.542
 7608SOL    HW123723   6.760   2.051   6.510
 7608SOL    HW223724   6.848   2.015   6.642
 7609SOL     OW23725   3.192   1.328   4.664
 7609SOL    HW123726   3.176   1.236   4.699
 7609SOL    HW223727   3.290   1.341   4.648
 7610SOL     OW23728   3.901   5.183   4.462
 7610SOL    HW123729   3.989   5.148   4.431
 7610SOL    HW223730   3.895   5.175   4.561
 7611SOL     OW23731   4.648   2.688   0.828
 7611SOL    HW123732   4.575   2.755   0.811
 7611SOL    HW223733   4.705   2.681   0.746
 7612SOL     OW23734   4.006   2.198   3.119
 7612SOL    HW123735   3.988   2.156   3.208
 7612SOL    HW223736   4.105   2.205   3.106
 7613SOL     OW23737   0.884   0.520   0.345
 7613SOL    HW123738   0.825   0.491   0.420
 7613SOL    HW223739   0.884   0.449   0.274
 7614SOL     OW23740   5.195   3.969   0.430
 7614SOL    HW123741   5.247   3.888   0.402
 7614SOL    HW223742   5.206   4.041   0.362
 7615SOL     OW23743   6.205   3.293   5.149
 7615SOL    HW123744   6.281   3.357   5.157
 7615SOL    HW223745   6.149   3.299   5.232
 7616SOL     OW23746   6.950   6.698   2.914
 7616SOL    HW123747   6.980   6.623   2.856
 7616SOL    HW223748   6.882   6.664   2.980
 7617SOL     OW23749   6.220   4.029   3.018
 7617SOL    HW123750   6.298   3.967   3.011
 7617SOL    HW223751   6.151   4.004   2.950
 7618SOL     OW23752   2.527   2.329   0.075
 7618SOL    HW123753   2.541   2.428   0.073
 7618SOL    HW223754   2.489   2.299   7.007
 7619SOL     OW23755   1.915   1.582   4.832
 7619SOL    HW123756   1.891   1.641   4.755
 7619SOL    HW223757   1.873   1.492   4.819
 7620SOL     OW23758   3.443   4.667   1.236
 7620SOL    HW123759   3.499   4.705   1.163
 7620SOL    HW223760   3.357   4.633   1.198
 7621SOL     OW23761   5.980   4.186   0.298
 7621SOL    HW123762   5.890   4.209   0.334
 7621SOL    HW223763   5.975   4.103   0.242
 7622SOL     OW23764   3.113   3.880   1.933
 7622SOL    HW123765   3.044   3.853   2.000
 7622SOL    HW223766   3.069   3.920   1.853
 7623SOL     OW23767   5.506   4.385   1.832
 7623SOL    HW123768   5.531   4.472   1.874
 7623SOL    HW223769   5.428   4.345   1.881
 7624SOL     OW23770   1.145   3.388   2.505
 7624SOL    HW123771   1.133   3.291   2.529
 7624SOL    HW223772   1.152   3.442   2.589
 7625SOL     OW23773   5.546   0.625   2.257
 7625SOL    HW123774   5.483   0.658   2.188
 7625SOL    HW223775   5.497   0.570   2.325
 7626SOL     OW23776   4.399   0.113   6.826
 7626SOL    HW123777   4.325   0.086   6.888
 7626SOL    HW223778   4.473   0.155   6.879
 7627SOL     OW23779   4.028   3.136   6.406
 7627SOL    HW123780   3.960   3.063   6.412
 7627SOL    HW223781   3.983   3.224   6.393
 7628SOL     OW23782   3.176   2.450   0.268
 7628SOL    HW123783   3.266   2.455   0.312
 7628SOL    HW223784   3.189   2.436   0.170
 7629SOL     OW23785   5.809   2.306   2.778
 7629SOL    HW123786   5.879   2.357   2.829
 7629SOL    HW223787   5.846   2.216   2.754
 7630SOL     OW23788   1.129   6.445   4.036
 7630SOL    HW123789   1.103   6.469   4.130
 7630SOL    HW223790   1.050   6.460   3.976
 7631SOL     OW23791   0.891   0.883   5.215
 7631SOL    HW123792   0.943   0.798   5.208
 7631SOL    HW223793   0.802   0.865   5.258
 7632SOL     OW23794   4.437   5.811   1.287
 7632SOL    HW123795   4.473   5.847   1.373
 7632SOL    HW223796   4.390   5.724   1.304
 7633SOL     OW23797   6.165   0.919   1.608
 7633SOL    HW123798   6.093   0.860   1.570
 7633SOL    HW223799   6.152   0.927   1.707
 7634SOL     OW23800   0.078   1.975   6.457
 7634SOL    HW123801   0.113   1.909   6.523
 7634SOL    HW223802   7.000   1.993   6.476
 7635SOL     OW23803   2.129   2.860   5.394
 7635SOL    HW123804   2.140   2.955   5.424
 7635SOL    HW223805   2.176   2.800   5.459
 7636SOL     OW23806   6.563   3.949   4.097
 7636SOL    HW123807   6.577   4.030   4.153
 7636SOL    HW223808   6.541   3.871   4.156
 7637SOL     OW23809   0.755   4.819   4.948
 7637SOL    HW123810   0.686   4.763   4.994
 7637SOL    HW223811   0.723   4.843   4.856
 7638SOL     OW23812   0.253   6.246   1.090
 7638SOL    HW123813   0.193   6.171   1.062
 7638SOL    HW223814   0.312   6.214   1.164
 7639SOL     OW23815   1.320   0.520   0.599
 7639SOL    HW123816   1.272   0.606   0.616
 7639SOL    HW223817   1.272   0.469   0.529
 7640SOL     OW23818   3.144   1.370   0.941
 7640SOL    HW123819   3.088   1.394   1.020
 7640SOL    HW223820   3.140   1.444   0.874
 7641SOL     OW23821   0.134   4.332   4.498
 7641SOL    HW123822   0.136   4.318   4.399
 7641SOL    HW223823   0.091   4.421   4.519
 7642SOL     OW23824   5.219   1.014   3.057
 7642SOL    HW123825   5.269   1.076   2.996
 7642SOL    HW223826   5.247   0.920   3.039
 7643SOL     OW23827   5.211   3.781   4.801
 7643SOL    HW123828   5.135   3.722   4.830
 7643SOL    HW223829   5.297   3.731   4.810
 7644SOL     OW23830   4.880   3.703   1.164
 7644SOL    HW123831   4.870   3.658   1.253
 7644SOL    HW223832   4.799   3.757   1.144
 7645SOL     OW23833   3.987   4.952   0.069
 7645SOL    HW123834   4.012   4.889   0.143
 7645SOL    HW223835   4.010   4.910   7.000
 7646SOL     OW23836   6.669   1.826   0.192
 7646SOL    HW123837   6.611   1.907   0.180
 7646SOL    HW223838   6.617   1.755   0.241
 7647SOL     OW23839   6.787   2.341   4.071
 7647SOL    HW123840   6.705   2.356   4.126
 7647SOL    HW223841   6.772   2.377   3.979
 7648SOL     OW23842   2.017   1.993   1.807
 7648SOL    HW123843   2.046   2.079   1.766
 7648SOL    HW223844   2.071   1.918   1.769
 7649SOL     OW23845   4.004   1.162   6.809
 7649SOL    HW123846   3.988   1.166   6.907
 7649SOL    HW223847   4.098   1.132   6.792
 7650SOL     OW23848   3.997   2.306   0.101
 7650SOL    HW123849   4.076   2.245   0.109
 7650SOL    HW223850   3.984   2.356   0.186
 7651SOL     OW23851   3.241   5.451   6.495
 7651SOL    HW123852   3.173   5.390   6.454
 7651SOL    HW223853   3.266   5.523   6.430
 7652SOL     OW23854   1.272   1.012   3.904
 7652SOL    HW123855   1.303   0.941   3.966
 7652SOL    HW223856   1.346   1.078   3.888
 7653SOL     OW23857   2.514   0.503   0.288
 7653SOL    HW123858   2.567   0.587   0.272
 7653SOL    HW223859   2.569   0.424   0.261
 7654SOL     OW23860   6.219   1.928   5.873
 7654SOL    HW123861   6.165   2.007   5.841
 7654SOL    HW223862   6.160   1.848   5.879
 7655SOL     OW23863   3.551   1.878   4.658
 7655SOL    HW123864   3.459   1.846   4.636
 7655SOL    HW223865   3.604   1.888   4.574
 7656SOL     OW23866   5.590   4.053   0.033
 7656SOL    HW123867   5.610   4.076   0.128
 7656SOL    HW223868   5.493   4.035   0.023
 7657SOL     OW23869   0.811   4.182   4.876
 7657SOL    HW123870   0.821   4.176   4.777
 7657SOL    HW223871   0.716   4.162   4.901
 7658SOL     OW23872   2.954   0.330   0.916
 7658SOL    HW123873   2.971   0.257   0.849
 7658SOL    HW223874   3.030   0.395   0.915
 7659SOL     OW23875   5.066   4.310   5.749
 7659SOL    HW123876   5.095   4.371   5.824
 7659SOL    HW223877   4.980   4.267   5.773
 7660SOL     OW23878   6.851   6.077   5.887
 7660SOL    HW123879   6.816   6.170   5.890
 7660SOL    HW223880   6.808   6.022   5.959
 7661SOL     OW23881   3.841   1.073   5.284
 7661SOL    HW123882   3.799   1.057   5.373
 7661SOL    HW223883   3.825   1.167   5.255
 7662SOL     OW23884   0.153   5.943   1.167
 7662SOL    HW123885   0.060   5.975   1.152
 7662SOL    HW223886   0.161   5.848   1.136
 7663SOL     OW23887   1.091   5.505   5.046
 7663SOL    HW123888   1.087   5.406   5.059
 7663SOL    HW223889   1.053   5.528   4.957
 7664SOL     OW23890   4.094   2.257   2.516
 7664SOL    HW123891   3.996   2.275   2.514
 7664SOL    HW223892   4.116   2.181   2.455
 7665SOL     OW23893   3.528   0.647   5.647
 7665SOL    HW123894   3.606   0.666   5.587
 7665SOL    HW223895   3.466   0.583   5.602
 7666SOL     OW23896   5.493   4.783   4.053
 7666SOL    HW123897   5.575   4.836   4.079
 7666SOL    HW223898   5.425   4.791   4.125
 7667SOL     OW23899   4.327   6.340   2.618
 7667SOL    HW123900   4.266   6.267   2.586
 7667SOL    HW223901   4.421   6.315   2.598
 7668SOL     OW23902   1.403   5.532   0.726
 7668SOL    HW123903   1.350   5.608   0.688
 7668SOL    HW223904   1.359   5.498   0.809
 7669SOL     OW23905   2.576   1.410   6.574
 7669SOL    HW123906   2.654   1.472   6.580
 7669SOL    HW223907   2.492   1.463   6.562
 7670SOL     OW23908   0.642   0.677   0.521
 7670SOL    HW123909   0.634   0.737   0.442
 7670SOL    HW223910   0.696   0.722   0.593
 7671SOL     OW23911   3.202   6.940   1.212
 7671SOL    HW123912   3.172   0.006   1.168
 7671SOL    HW223913   3.164   6.936   1.305
 7672SOL     OW23914   5.043   4.285   2.179
 7672SOL    HW123915   5.035   4.369   2.126
 7672SOL    HW223916   5.084   4.213   2.122
 7673SOL     OW23917   1.645   6.747   4.739
 7673SOL    HW123918   1.555   6.726   4.778
 7673SOL    HW223919   1.676   6.835   4.773
 7674SOL     OW23920   4.209   5.800   4.539
 7674SOL    HW123921   4.199   5.754   4.451
 7674SOL    HW223922   4.120   5.808   4.582
 7675SOL     OW23923   4.632   5.908   3.104
 7675SOL    HW123924   4.675   5.973   3.167
 7675SOL    HW223925   4.541   5.941   3.079
 7676SOL     OW23926   3.779   3.122   5.243
 7676SOL    HW123927   3.742   3.101   5.333
 7676SOL    HW223928   3.735   3.064   5.174
 7677SOL     OW23929   6.329   4.818   6.915
 7677SOL    HW123930   6.233   4.792   6.928
 7677SOL    HW223931   6.385   4.735   6.908
 7678SOL     OW23932   3.455   2.055   5.236
 7678SOL    HW123933   3.482   1.961   5.256
 7678SOL    HW223934   3.363   2.056   5.198
 7679SOL     OW23935   3.933   5.815   4.595
 7679SOL    HW123936   3.879   5.750   4.542
 7679SOL    HW223937   3.956   5.894   4.538
 7680SOL     OW23938   2.329   6.652   3.982
 7680SOL    HW123939   2.236   6.625   3.956
 7680SOL    HW223940   2.331   6.672   4.081
 7681SOL     OW23941   2.193   2.667   5.592
 7681SOL    HW123942   2.213   2.578   5.633
 7681SOL    HW223943   2.167   2.732   5.663
 7682SOL     OW23944   3.119   0.773   2.533
 7682SOL    HW123945   3.219   0.776   2.532
 7682SOL    HW223946   3.084   0.839   2.600
 7683SOL     OW23947   0.777   4.601   4.563
 7683SOL    HW123948   0.738   4.549   4.488
 7683SOL    HW223949   0.814   4.538   4.632
 7684SOL     OW23950   5.348   3.154   1.598
 7684SOL    HW123951   5.271   3.098   1.567
 7684SOL    HW223952   5.384   3.117   1.683
 7685SOL     OW23953   2.775   0.085   0.754
 7685SOL    HW123954   2.722   0.083   0.838
 7685SOL    HW223955   2.723   0.132   0.683
 7686SOL     OW23956   6.787   6.772   5.007
 7686SOL    HW123957   6.692   6.795   4.985
 7686SOL    HW223958   6.845   6.851   4.992
 7687SOL     OW23959   5.211   3.244   6.562
 7687SOL    HW123960   5.287   3.224   6.500
 7687SOL    HW223961   5.124   3.224   6.517
 7688SOL     OW23962   5.937   2.869   6.722
 7688SOL    HW123963   5.911   2.846   6.815
 7688SOL    HW223964   5.891   2.807   6.658
 7689SOL     OW23965   5.444   0.017   2.028
 7689SOL    HW123966   5.540   0.009   2.055
 7689SOL    HW223967   5.434   0.091   1.962
 7690SOL     OW23968   5.892   5.034   2.333
 7690SOL    HW123969   5.793   5.027   2.347
 7690SOL    HW223970   5.940   5.014   2.418
 7691SOL     OW23971   4.913   2.948   3.961
 7691SOL    HW123972   4.879   2.855   3.968
 7691SOL    HW223973   4.893   2.984   3.869
 7692SOL     OW23974   2.690   6.454   2.452
 7692SOL    HW123975   2.641   6.520   2.509
 7692SOL    HW223976   2.687   6.364   2.495
 7693SOL     OW23977   3.462   1.405   1.791
 7693SOL    HW123978   3.514   1.357   1.720
 7693SOL    HW223979   3.460   1.350   1.874
 7694SOL     OW23980   4.575   1.969   6.889
 7694SOL    HW123981   4.659   1.964   6.835
 7694SOL    HW223982   4.502   2.010   6.834
 7695SOL     OW23983   5.271   0.281   3.786
 7695SOL    HW123984   5.189   0.232   3.757
 7695SOL    HW223985   5.294   0.351   3.718
 7696SOL     OW23986   2.212   2.157   5.790
 7696SOL    HW123987   2.280   2.173   5.861
 7696SOL    HW223988   2.237   2.075   5.738
 7697SOL     OW23989   6.235   6.848   3.295
 7697SOL    HW123990   6.222   6.757   3.332
 7697SOL    HW223991   6.327   6.880   3.317
 7698SOL     OW23992   6.358   3.032   1.047
 7698SOL    HW123993   6.432   3.098   1.034
 7698SOL    HW223994   6.274   3.066   1.004
 7699SOL     OW23995   4.468   6.141   5.733
 7699SOL    HW123996   4.514   6.197   5.802
 7699SOL    HW223997   4.420   6.200   5.668
 7700SOL     OW23998   5.794   5.462   1.363
 7700SOL    HW123999   5.771   5.467   1.460
 7700SOL    HW224000   5.814   5.553   1.328
 7701SOL     OW24001   1.939   2.153   6.586
 7701SOL    HW124002   1.897   2.238   6.619
 7701SOL    HW224003   1.877   2.076   6.604
 7702SOL     OW24004   5.090   6.745   4.761
 7702SOL    HW124005   5.115   6.680   4.689
 7702SOL    HW224006   5.047   6.825   4.720
 7703SOL     OW24007   0.317   6.592   5.391
 7703SOL    HW124008   0.324   6.672   5.451
 7703SOL    HW224009   0.289   6.513   5.445
 7704SOL     OW24010   1.353   1.824   5.076
 7704SOL    HW124011   1.393   1.733   5.079
 7704SOL    HW224012   1.362   1.861   4.983
 7705SOL     OW24013   1.275   4.769   6.810
 7705SOL    HW124014   1.368   4.735   6.807
 7705SOL    HW224015   1.222   4.728   6.736
 7706SOL     OW24016   3.328   3.177   2.362
 7706SOL    HW124017   3.284   3.266   2.372
 7706SOL    HW224018   3.336   3.154   2.265
 7707SOL     OW24019   6.431   4.508   6.460
 7707SOL    HW124020   6.383   4.585   6.502
 7707SOL    HW224021   6.372   4.428   6.461
 7708SOL     OW24022   1.623   0.110   3.924
 7708SOL    HW124023   1.592   0.103   3.829
 7708SOL    HW224024   1.650   0.204   3.944
 7709SOL     OW24025   6.943   4.829   1.219
 7709SOL    HW124026   6.942   4.787   1.310
 7709SOL    HW224027   6.907   4.923   1.225
 7710SOL     OW24028   6.324   2.826   1.421
 7710SOL    HW124029   6.247   2.890   1.422
 7710SOL    HW224030   6.357   2.815   1.328
 7711SOL     OW24031   0.492   4.513   4.328
 7711SOL    HW124032   0.585   4.478   4.316
 7711SOL    HW224033   0.433   4.479   4.255
 7712SOL     OW24034   0.469   5.015   4.769
 7712SOL    HW124035   0.376   5.035   4.801
 7712SOL    HW224036   0.489   4.919   4.782
 7713SOL     OW24037   1.059   4.604   0.547
 7713SOL    HW124038   1.023   4.669   0.614
 7713SOL    HW224039   1.030   4.631   0.455
 7714SOL     OW24040   6.220   1.699   5.216
 7714SOL    HW124041   6.233   1.616   5.162
 7714SOL    HW224042   6.278   1.696   5.297
 7715SOL     OW24043   3.276   3.154   5.921
 7715SOL    HW124044   3.352   3.121   5.976
 7715SOL    HW224045   3.308   3.223   5.856
 7716SOL     OW24046   1.456   6.945   6.036
 7716SOL    HW124047   1.424   6.913   6.124
 7716SOL    HW224048   1.438   0.025   6.027
 7717SOL     OW24049   0.240   2.231   6.331
 7717SOL    HW124050   0.147   2.254   6.302
 7717SOL    HW224051   0.246   2.233   6.431
 7718SOL     OW24052   0.121   2.956   2.924
 7718SOL    HW124053   0.162   2.971   2.834
 7718SOL    HW224054   0.034   3.006   2.930
 7719SOL     OW24055   2.053   5.497   5.203
 7719SOL    HW124056   2.139   5.489   5.254
 7719SOL    HW224057   2.043   5.417   5.143
 7720SOL     OW24058   4.529   1.026   6.679
 7720SOL    HW124059   4.573   1.052   6.593
 7720SOL    HW224060   4.510   0.927   6.679
 7721SOL     OW24061   6.272   6.071   2.450
 7721SOL    HW124062   6.211   6.045   2.376
 7721SOL    HW224063   6.316   5.988   2.487
 7722SOL     OW24064   0.938   5.927   3.693
 7722SOL    HW124065   0.906   5.912   3.600
 7722SOL    HW224066   1.036   5.946   3.692
 7723SOL     OW24067   4.637   4.402   6.811
 7723SOL    HW124068   4.700   4.417   6.735
 7723SOL    HW224069   4.611   4.305   6.814
 7724SOL     OW24070   1.955   3.728   0.686
 7724SOL    HW124071   1.884   3.780   0.733
 7724SOL    HW224072   1.973   3.769   0.596
 7725SOL     OW24073   5.498   2.974   4.712
 7725SOL    HW124074   5.508   2.885   4.756
 7725SOL    HW224075   5.487   2.962   4.614
 7726SOL     OW24076   2.154   3.803   6.834
 7726SOL    HW124077   2.233   3.749   6.804
 7726SOL    HW224078   2.159   3.894   6.793
 7727SOL     OW24079   5.059   0.321   2.146
 7727SOL    HW124080   4.994   0.396   2.163
 7727SOL    HW224081   5.068   0.266   2.229
 7728SOL     OW24082   1.863   3.771   4.648
 7728SOL    HW124083   1.960   3.788   4.630
 7728SOL    HW224084   1.840   3.677   4.621
 7729SOL     OW24085   0.150   0.904   2.419
 7729SOL    HW124086   0.087   0.896   2.496
 7729SOL    HW224087   0.197   0.817   2.405
 7730SOL     OW24088   6.412   4.757   5.427
 7730SOL    HW124089   6.316   4.770   5.455
 7730SOL    HW224090   6.445   4.670   5.463
 7731SOL     OW24091   6.293   0.114   5.460
 7731SOL    HW124092   6.285   0.108   5.361
 7731SOL    HW224093   6.352   0.040   5.493
 7732SOL     OW24094   4.644   0.613   6.803
 7732SOL    HW124095   4.623   0.600   6.900
 7732SOL    HW224096   4.592   0.690   6.767
 7733SOL     OW24097   6.683   5.164   1.412
 7733SOL    HW124098   6.664   5.244   1.356
 7733SOL    HW224099   6.688   5.191   1.508
 7734SOL     OW24100   3.824   4.034   3.484
 7734SOL    HW124101   3.841   4.130   3.505
 7734SOL    HW224102   3.870   3.977   3.552
 7735SOL     OW24103   0.575   5.857   0.767
 7735SOL    HW124104   0.650   5.828   0.707
 7735SOL    HW224105   0.489   5.820   0.732
 7736SOL     OW24106   1.762   2.298   6.871
 7736SOL    HW124107   1.850   2.252   6.872
 7736SOL    HW224108   1.766   2.376   6.808
 7737SOL     OW24109   4.292   4.531   0.037
 7737SOL    HW124110   4.273   4.592   0.114
 7737SOL    HW224111   4.211   4.524   6.997
 7738SOL     OW24112   1.711   0.497   4.933
 7738SOL    HW124113   1.622   0.458   4.909
 7738SOL    HW224114   1.779   0.424   4.935
 7739SOL     OW24115   1.823   2.264   0.296
 7739SOL    HW124116   1.921   2.241   0.300
 7739SOL    HW224117   1.805   2.320   0.215
 7740SOL     OW24118   2.542   0.820   4.534
 7740SOL    HW124119   2.639   0.824   4.557
 7740SOL    HW224120   2.523   0.880   4.456
 7741SOL     OW24121   0.252   4.322   6.164
 7741SOL    HW124122   0.331   4.337   6.224
 7741SOL    HW224123   0.252   4.389   6.091
 7742SOL     OW24124   4.924   2.521   4.301
 7742SOL    HW124125   4.955   2.519   4.206
 7742SOL    HW224126   4.838   2.471   4.310
 7743SOL     OW24127   3.893   1.491   5.774
 7743SOL    HW124128   3.815   1.549   5.797
 7743SOL    HW224129   3.976   1.546   5.768
 7744SOL     OW24130   0.854   7.003   4.423
 7744SOL    HW124131   0.897   6.913   4.427
 7744SOL    HW224132   0.788   7.006   4.348
 7745SOL     OW24133   2.683   6.687   1.340
 7745SOL    HW124134   2.687   6.696   1.240
 7745SOL    HW224135   2.759   6.630   1.372
 7746SOL     OW24136   0.228   6.030   1.628
 7746SOL    HW124137   0.255   6.060   1.537
 7746SOL    HW224138   0.286   6.073   1.696
 7747SOL     OW24139   0.062   5.664   0.417
 7747SOL    HW124140   0.058   5.571   0.453
 7747SOL    HW224141   7.008   5.719   0.459
 7748SOL     OW24142   4.216   1.378   6.150
 7748SOL    HW124143   4.307   1.417   6.167
 7748SOL    HW224144   4.222   1.278   6.151
 7749SOL     OW24145   3.602   3.180   3.120
 7749SOL    HW124146   3.521   3.207   3.172
 7749SOL    HW224147   3.603   3.080   3.111
 7750SOL     OW24148   5.313   5.195   5.878
 7750SOL    HW124149   5.288   5.239   5.964
 7750SOL    HW224150   5.352   5.105   5.897
 7751SOL     OW24151   6.490   1.212   4.710
 7751SOL    HW124152   6.494   1.260   4.798
 7751SOL    HW224153   6.571   1.235   4.655
 7752SOL     OW24154   6.678   4.800   4.949
 7752SOL    HW124155   6.589   4.767   4.918
 7752SOL    HW224156   6.679   4.802   5.049
 7753SOL     OW24157   2.786   0.922   4.905
 7753SOL    HW124158   2.855   0.865   4.950
 7753SOL    HW224159   2.752   0.989   4.971
 7754SOL     OW24160   6.411   1.137   1.624
 7754SOL    HW124161   6.438   1.089   1.707
 7754SOL    HW224162   6.332   1.092   1.583
 7755SOL     OW24163   1.833   6.142   4.967
 7755SOL    HW124164   1.744   6.187   4.959
 7755SOL    HW224165   1.819   6.044   4.984
 7756SOL     OW24166   3.603   5.688   2.840
 7756SOL    HW124167   3.657   5.771   2.855
 7756SOL    HW224168   3.508   5.706   2.865
 7757SOL     OW24169   3.533   6.859   5.830
 7757SOL    HW124170   3.603   6.900   5.772
 7757SOL    HW224171   3.574   6.831   5.917
 7758SOL     OW24172   3.465   2.511   6.433
 7758SOL    HW124173   3.513   2.557   6.508
 7758SOL    HW224174   3.471   2.412   6.446
 7759SOL     OW24175   1.831   0.696   4.558
 7759SOL    HW124176   1.735   0.690   4.582
 7759SOL    HW224177   1.859   0.792   4.553
 7760SOL     OW24178   5.440   1.896   3.560
 7760SOL    HW124179   5.478   1.980   3.598
 7760SOL    HW224180   5.429   1.828   3.632
 7761SOL     OW24181   4.148   0.697   6.732
 7761SOL    HW124182   4.138   0.775   6.671
 7761SOL    HW224183   4.166   0.729   6.825
 7762SOL     OW24184   1.689   1.999   0.298
 7762SOL    HW124185   1.736   2.083   0.324
 7762SOL    HW224186   1.635   2.014   0.215
 7763SOL     OW24187   2.421   2.144   1.578
 7763SOL    HW124188   2.414   2.187   1.668
 7763SOL    HW224189   2.442   2.214   1.510
 7764SOL     OW24190   4.071   3.432   2.287
 7764SOL    HW124191   4.088   3.381   2.371
 7764SOL    HW224192   4.088   3.529   2.303
 7765SOL     OW24193   0.165   2.057   2.625
 7765SOL    HW124194   0.259   2.092   2.627
 7765SOL    HW224195   0.154   1.994   2.549
 7766SOL     OW24196   0.192   3.541   0.216
 7766SOL    HW124197   0.098   3.553   0.246
 7766SOL    HW224198   0.241   3.627   0.226
 7767SOL     OW24199   5.913   3.933   5.478
 7767SOL    HW124200   5.924   3.925   5.379
 7767SOL    HW224201   5.941   4.024   5.508
 7768SOL     OW24202   4.278   5.415   1.656
 7768SOL    HW124203   4.300   5.324   1.691
 7768SOL    HW224204   4.262   5.477   1.733
 7769SOL     OW24205   6.329   1.813   2.252
 7769SOL    HW124206   6.381   1.878   2.195
 7769SOL    HW224207   6.288   1.862   2.329
 7770SOL     OW24208   3.367   5.932   1.163
 7770SOL    HW124209   3.366   5.834   1.183
 7770SOL    HW224210   3.273   5.966   1.161
 7771SOL     OW24211   2.220   1.130   4.500
 7771SOL    HW124212   2.199   1.224   4.475
 7771SOL    HW224213   2.134   1.079   4.512
 7772SOL     OW24214   5.533   0.872   4.939
 7772SOL    HW124215   5.463   0.846   5.005
 7772SOL    HW224216   5.510   0.835   4.849
 7773SOL     OW24217   3.458   4.448   5.624
 7773SOL    HW124218   3.447   4.490   5.533
 7773SOL    HW224219   3.469   4.349   5.613
 7774SOL     OW24220   4.676   1.544   6.792
 7774SOL    HW124221   4.659   1.486   6.712
 7774SOL    HW224222   4.593   1.596   6.813
 7775SOL     OW24223   1.858   0.072   1.810
 7775SOL    HW124224   1.843   6.998   1.773
 7775SOL    HW224225   1.951   0.080   1.845
 7776SOL     OW24226   3.665   3.987   0.896
 7776SOL    HW124227   3.609   4.068   0.918
 7776SOL    HW224228   3.630   3.909   0.947
 7777SOL     OW24229   1.022   0.178   6.479
 7777SOL    HW124230   1.098   0.175   6.414
 7777SOL    HW224231   1.031   0.104   6.545
 7778SOL     OW24232   4.842   1.128   1.628
 7778SOL    HW124233   4.872   1.043   1.672
 7778SOL    HW224234   4.920   1.173   1.585
 7779SOL     OW24235   4.176   2.758   0.510
 7779SOL    HW124236   4.118   2.731   0.587
 7779SOL    HW224237   4.259   2.802   0.545
 7780SOL     OW24238   1.029   0.272   4.840
 7780SOL    HW124239   1.024   0.196   4.776
 7780SOL    HW224240   0.977   0.350   4.805
 7781SOL     OW24241   1.744   4.478   5.233
 7781SOL    HW124242   1.749   4.456   5.330
 7781SOL    HW224243   1.826   4.530   5.206
 7782SOL     OW24244   4.458   5.088   0.129
 7782SOL    HW124245   4.527   5.161   0.135
 7782SOL    HW224246   4.497   5.008   0.085
 7783SOL     OW24247   2.210   5.470   0.011
 7783SOL    HW124248   2.124   5.493   0.056
 7783SOL    HW224249   2.250   5.553   6.990
 7784SOL     OW24250   0.206   2.966   0.241
 7784SOL    HW124251   0.186   2.936   0.148
 7784SOL    HW224252   0.251   3.055   0.239
 7785SOL     OW24253   1.976   5.570   5.506
 7785SOL    HW124254   2.073   5.589   5.525
 7785SOL    HW224255   1.926   5.657   5.499
 7786SOL     OW24256   3.497   4.124   4.189
 7786SOL    HW124257   3.541   4.140   4.277
 7786SOL    HW224258   3.551   4.168   4.117
 7787SOL     OW24259   2.975   2.289   5.277
 7787SOL    HW124260   2.891   2.321   5.233
 7787SOL    HW224261   3.054   2.320   5.224
 7788SOL     OW24262   0.735   1.513   0.673
 7788SOL    HW124263   0.779   1.488   0.759
 7788SOL    HW224264   0.773   1.599   0.639
 7789SOL     OW24265   2.512   0.487   1.348
 7789SOL    HW124266   2.586   0.536   1.301
 7789SOL    HW224267   2.544   0.456   1.438
 7790SOL     OW24268   5.815   3.773   3.072
 7790SOL    HW124269   5.806   3.798   2.976
 7790SOL    HW224270   5.894   3.820   3.111
 7791SOL     OW24271   0.482   4.346   5.122
 7791SOL    HW124272   0.535   4.342   5.206
 7791SOL    HW224273   0.504   4.430   5.072
 7792SOL     OW24274   2.026   5.876   6.493
 7792SOL    HW124275   1.991   5.786   6.465
 7792SOL    HW224276   2.116   5.890   6.452
 7793SOL     OW24277   1.715   0.901   6.338
 7793SOL    HW124278   1.721   1.001   6.329
 7793SOL    HW224279   1.797   0.860   6.298
 7794SOL     OW24280   5.242   5.642   2.670
 7794SOL    HW124281   5.324   5.692   2.697
 7794SOL    HW224282   5.166   5.667   2.730
 7795SOL     OW24283   1.542   4.743   6.049
 7795SOL    HW124284   1.482   4.725   6.127
 7795SOL    HW224285   1.522   4.677   5.976
 7796SOL     OW24286   4.088   3.639   4.578
 7796SOL    HW124287   4.130   3.566   4.524
 7796SOL    HW224288   4.067   3.717   4.519
 7797SOL     OW24289   1.046   0.010   2.857
 7797SOL    HW124290   1.107   6.952   2.833
 7797SOL    HW224291   1.083   0.095   2.819
 7798SOL     OW24292   3.994   6.085   6.441
 7798SOL    HW124293   3.941   6.145   6.382
 7798SOL    HW224294   4.082   6.065   6.398
 7799SOL     OW24295   6.327   4.633   1.376
 7799SOL    HW124296   6.362   4.695   1.306
 7799SOL    HW224297   6.399   4.568   1.402
 7800SOL     OW24298   0.549   6.525   2.308
 7800SOL    HW124299   0.567   6.432   2.275
 7800SOL    HW224300   0.628   6.560   2.357
 7801SOL     OW24301   3.757   2.376   5.390
 7801SOL    HW124302   3.718   2.347   5.477
 7801SOL    HW224303   3.692   2.435   5.342
 7802SOL     OW24304   5.623   1.959   0.564
 7802SOL    HW124305   5.578   2.040   0.600
 7802SOL    HW224306   5.711   1.946   0.612
 7803SOL     OW24307   2.639   4.309   5.295
 7803SOL    HW124308   2.707   4.238   5.315
 7803SOL    HW224309   2.661   4.391   5.348
 7804SOL     OW24310   4.827   1.510   6.271
 7804SOL    HW124311   4.769   1.438   6.233
 7804SOL    HW224312   4.893   1.470   6.334
 7805SOL     OW24313   5.518   3.567   2.158
 7805SOL    HW124314   5.516   3.470   2.137
 7805SOL    HW224315   5.425   3.601   2.172
 7806SOL     OW24316   4.765   3.413   6.792
 7806SOL    HW124317   4.687   3.422   6.854
 7806SOL    HW224318   4.849   3.436   6.841
 7807SOL     OW24319   6.928   3.388   6.824
 7807SOL    HW124320   7.016   3.429   6.849
 7807SOL    HW224321   6.939   3.290   6.812
 7808SOL     OW24322   1.087   1.533   5.347
 7808SOL    HW124323   1.181   1.521   5.316
 7808SOL    HW224324   1.026   1.545   5.267
 7809SOL     OW24325   1.702   5.414   5.723
 7809SOL    HW124326   1.659   5.409   5.813
 7809SOL    HW224327   1.707   5.323   5.683
 7810SOL     OW24328   2.014   0.975   0.111
 7810SOL    HW124329   2.049   0.987   0.204
 7810SOL    HW224330   1.953   1.051   0.088
 7811SOL     OW24331   0.618   4.789   4.678
 7811SOL    HW124332   0.684   4.717   4.656
 7811SOL    HW224333   0.642   4.873   4.628
 7812SOL     OW24334   0.490   2.180   3.962
 7812SOL    HW124335   0.444   2.093   3.974
 7812SOL    HW224336   0.424   2.249   3.932
 7813SOL     OW24337   6.634   2.333   0.901
 7813SOL    HW124338   6.546   2.378   0.917
 7813SOL    HW224339   6.707   2.384   0.947
 7814SOL     OW24340   1.876   3.909   3.720
 7814SOL    HW124341   1.970   3.876   3.711
 7814SOL    HW224342   1.877   4.009   3.727
 7815SOL     OW24343   6.938   1.707   5.813
 7815SOL    HW124344   6.971   1.616   5.840
 7815SOL    HW224345   6.876   1.742   5.882
 7816SOL     OW24346   1.277   4.238   5.037
 7816SOL    HW124347   1.307   4.262   5.130
 7816SOL    HW224348   1.208   4.304   5.006
 7817SOL     OW24349   5.164   3.282   5.205
 7817SOL    HW124350   5.137   3.200   5.156
 7817SOL    HW224351   5.086   3.343   5.215
 7818SOL     OW24352   5.192   4.631   2.683
 7818SOL    HW124353   5.133   4.612   2.761
 7818SOL    HW224354   5.149   4.595   2.600
 7819SOL     OW24355   0.308   1.789   1.386
 7819SOL    HW124356   0.295   1.865   1.450
 7819SOL    HW224357   0.391   1.739   1.410
 7820SOL     OW24358   2.096   6.737   6.297
 7820SOL    HW124359   2.122   6.709   6.390
 7820SOL    HW224360   2.120   6.665   6.233
 7821SOL     OW24361   3.012   5.257   1.173
 7821SOL    HW124362   3.073   5.336   1.166
 7821SOL    HW224363   2.917   5.288   1.175
 7822SOL     OW24364   1.868   6.597   5.619
 7822SOL    HW124365   1.841   6.692   5.635
 7822SOL    HW224366   1.829   6.566   5.532
 7823SOL     OW24367   1.860   4.233   5.137
 7823SOL    HW124368   1.908   4.196   5.217
 7823SOL    HW224369   1.815   4.319   5.162
 7824SOL     OW24370   0.523   3.561   5.403
 7824SOL    HW124371   0.430   3.524   5.391
 7824SOL    HW224372   0.564   3.522   5.485
 7825SOL     OW24373   3.302   0.752   6.978
 7825SOL    HW124374   3.258   0.700   0.033
 7825SOL    HW224375   3.232   0.798   6.923
 7826SOL     OW24376   0.582   3.397   5.635
 7826SOL    HW124377   0.614   3.326   5.572
 7826SOL    HW224378   0.644   3.404   5.713
 7827SOL     OW24379   6.203   5.155   4.696
 7827SOL    HW124380   6.147   5.202   4.765
 7827SOL    HW224381   6.295   5.139   4.733
 7828SOL     OW24382   0.559   4.939   6.750
 7828SOL    HW124383   0.626   4.870   6.776
 7828SOL    HW224384   0.477   4.894   6.714
 7829SOL     OW24385   4.137   4.030   0.748
 7829SOL    HW124386   4.057   4.024   0.687
 7829SOL    HW224387   4.114   4.089   0.826
 7830SOL     OW24388   2.877   5.645   3.993
 7830SOL    HW124389   2.919   5.731   3.962
 7830SOL    HW224390   2.778   5.651   3.983
 7831SOL     OW24391   1.690   6.755   6.353
 7831SOL    HW124392   1.769   6.805   6.316
 7831SOL    HW224393   1.619   6.748   6.283
 7832SOL     OW24394   6.524   0.940   5.037
 7832SOL    HW124395   6.476   0.988   4.963
 7832SOL    HW224396   6.520   0.842   5.021
 7833SOL     OW24397   0.990   0.778   2.719
 7833SOL    HW124398   0.974   0.784   2.818
 7833SOL    HW224399   1.063   0.713   2.701
 7834SOL     OW24400   6.525   2.907   5.553
 7834SOL    HW124401   6.553   3.003   5.557
 7834SOL    HW224402   6.581   2.859   5.485
 7835SOL     OW24403   4.127   2.355   5.718
 7835SOL    HW124404   4.107   2.294   5.641
 7835SOL    HW224405   4.102   2.448   5.693
 7836SOL     OW24406   3.043   3.989   4.479
 7836SOL    HW124407   3.013   3.928   4.406
 7836SOL    HW224408   2.963   4.034   4.520
 7837SOL     OW24409   0.569   5.697   6.674
 7837SOL    HW124410   0.539   5.767   6.609
 7837SOL    HW224411   0.493   5.635   6.693
 7838SOL     OW24412   4.693   5.608   2.236
 7838SOL    HW124413   4.712   5.628   2.140
 7838SOL    HW224414   4.779   5.605   2.287
 7839SOL     OW24415   6.212   3.621   4.461
 7839SOL    HW124416   6.175   3.570   4.538
 7839SOL    HW224417   6.139   3.641   4.396
 7840SOL     OW24418   1.959   3.019   3.793
 7840SOL    HW124419   2.028   3.029   3.721
 7840SOL    HW224420   1.874   2.984   3.754
 7841SOL     OW24421   3.931   2.184   6.432
 7841SOL    HW124422   3.852   2.206   6.375
 7841SOL    HW224423   3.900   2.145   6.518
 7842SOL     OW24424   0.842   0.996   1.546
 7842SOL    HW124425   0.778   1.047   1.488
 7842SOL    HW224426   0.919   0.966   1.491
 7843SOL     OW24427   0.198   6.071   2.648
 7843SOL    HW124428   0.238   6.002   2.588
 7843SOL    HW224429   0.104   6.045   2.670
 7844SOL     OW24430   3.809   0.007   2.892
 7844SOL    HW124431   3.863   6.946   2.864
 7844SOL    HW224432   3.838   0.087   2.840
 7845SOL     OW24433   6.711   2.458   1.259
 7845SOL    HW124434   6.666   2.488   1.343
 7845SOL    HW224435   6.656   2.487   1.180
 7846SOL     OW24436   0.977   0.947   0.943
 7846SOL    HW124437   1.038   0.868   0.932
 7846SOL    HW224438   1.028   1.031   0.927
 7847SOL     OW24439   5.374   4.402   6.270
 7847SOL    HW124440   5.399   4.311   6.301
 7847SOL    HW224441   5.454   4.461   6.271
 7848SOL     OW24442   3.906   4.569   0.536
 7848SOL    HW124443   3.940   4.611   0.620
 7848SOL    HW224444   3.976   4.507   0.500
 7849SOL     OW24445   4.082   5.240   6.795
 7849SOL    HW124446   4.020   5.282   6.730
 7849SOL    HW224447   4.036   5.230   6.883
 7850SOL     OW24448   7.007   0.621   4.375
 7850SOL    HW124449   7.006   0.523   4.394
 7850SOL    HW224450   6.978   0.671   4.456
 7851SOL     OW24451   6.824   4.678   0.994
 7851SOL    HW124452   6.857   4.723   1.077
 7851SOL    HW224453   6.731   4.708   0.974
 7852SOL     OW24454   1.319   3.084   6.697
 7852SOL    HW124455   1.393   3.030   6.657
 7852SOL    HW224456   1.336   3.181   6.680
 7853SOL     OW24457   4.366   3.012   1.699
 7853SOL    HW124458   4.434   2.983   1.766
 7853SOL    HW224459   4.275   2.990   1.733
 7854SOL     OW24460   4.592   1.111   0.306
 7854SOL    HW124461   4.608   1.141   0.401
 7854SOL    HW224462   4.676   1.072   0.269
 7855SOL     OW24463   5.586   6.450   3.997
 7855SOL    HW124464   5.530   6.483   3.922
 7855SOL    HW224465   5.563   6.354   4.017
 7856SOL     OW24466   2.116   6.215   5.336
 7856SOL    HW124467   2.040   6.261   5.291
 7856SOL    HW224468   2.108   6.226   5.435
 7857SOL     OW24469   6.337   4.117   0.726
 7857SOL    HW124470   6.335   4.180   0.805
 7857SOL    HW224471   6.432   4.097   0.703
 7858SOL     OW24472   6.689   3.788   6.243
 7858SOL    HW124473   6.613   3.726   6.221
 7858SOL    HW224474   6.652   3.874   6.278
 7859SOL     OW24475   4.905   1.550   0.590
 7859SOL    HW124476   5.002   1.574   0.601
 7859SOL    HW224477   4.849   1.615   0.643
 7860SOL     OW24478   2.900   1.430   4.370
 7860SOL    HW124479   2.812   1.474   4.350
 7860SOL    HW224480   2.962   1.497   4.409
 7861SOL     OW24481   2.039   6.299   0.641
 7861SOL    HW124482   2.055   6.302   0.542
 7861SOL    HW224483   1.950   6.340   0.661
 7862SOL     OW24484   1.292   6.744   6.997
 7862SOL    HW124485   1.378   6.792   6.983
 7862SOL    HW224486   1.218   6.795   6.953
 7863SOL     OW24487   1.304   4.434   4.076
 7863SOL    HW124488   1.312   4.475   4.167
 7863SOL    HW224489   1.238   4.359   4.079
 7864SOL     OW24490   2.798   5.907   5.065
 7864SOL    HW124491   2.736   5.829   5.056
 7864SOL    HW224492   2.885   5.876   5.105
 7865SOL     OW24493   5.826   3.847   3.471
 7865SOL    HW124494   5.879   3.896   3.540
 7865SOL    HW224495   5.884   3.830   3.391
 7866SOL     OW24496   0.687   0.872   5.515
 7866SOL    HW124497   0.750   0.798   5.539
 7866SOL    HW224498   0.593   0.842   5.526
 7867SOL     OW24499   4.190   5.308   3.915
 7867SOL    HW124500   4.276   5.269   3.947
 7867SOL    HW224501   4.162   5.382   3.976
 7868SOL     OW24502   2.967   6.207   1.529
 7868SOL    HW124503   2.875   6.197   1.490
 7868SOL    HW224504   3.031   6.231   1.457
 7869SOL     OW24505   6.064   4.754   6.991
 7869SOL    HW124506   6.063   4.854   6.997
 7869SOL    HW224507   6.018   4.726   6.906
 7870SOL     OW24508   6.136   6.421   3.643
 7870SOL    HW124509   6.080   6.439   3.724
 7870SOL    HW224510   6.229   6.398   3.672
 7871SOL     OW24511   4.359   1.130   0.686
 7871SOL    HW124512   4.390   1.036   0.673
 7871SOL    HW224513   4.281   1.148   0.626
 7872SOL     OW24514   0.570   5.408   3.043
 7872SOL    HW124515   0.557   5.386   2.947
 7872SOL    HW224516   0.639   5.480   3.053
 7873SOL     OW24517   4.823   2.131   7.007
 7873SOL    HW124518   4.883   2.134   6.926
 7873SOL    HW224519   4.784   2.222   0.004
 7874SOL     OW24520   5.872   2.641   0.611
 7874SOL    HW124521   5.823   2.724   0.583
 7874SOL    HW224522   5.840   2.564   0.555
 7875SOL     OW24523   6.268   4.723   6.592
 7875SOL    HW124524   6.265   4.773   6.678
 7875SOL    HW224525   6.181   4.735   6.544
 7876SOL     OW24526   1.353   0.025   3.574
 7876SOL    HW124527   1.418   6.999   3.636
 7876SOL    HW224528   1.276   6.983   3.558
 7877SOL     OW24529   0.221   2.996   2.681
 7877SOL    HW124530   0.316   3.019   2.699
 7877SOL    HW224531   0.211   2.966   2.586
 7878SOL     OW24532   3.966   6.349   2.872
 7878SOL    HW124533   4.001   6.367   2.964
 7878SOL    HW224534   4.030   6.292   2.822
 7879SOL     OW24535   3.380   5.763   3.177
 7879SOL    HW124536   3.429   5.679   3.152
 7879SOL    HW224537   3.411   5.838   3.119
 7880SOL     OW24538   0.861   4.853   2.297
 7880SOL    HW124539   0.950   4.834   2.255
 7880SOL    HW224540   0.800   4.895   2.229
 7881SOL     OW24541   4.879   3.980   3.549
 7881SOL    HW124542   4.871   3.932   3.462
 7881SOL    HW224543   4.959   3.946   3.598
 7882SOL     OW24544   0.804   3.153   0.016
 7882SOL    HW124545   0.805   3.108   6.945
 7882SOL    HW224546   0.728   3.116   0.070
 7883SOL     OW24547   1.167   0.288   5.216
 7883SOL    HW124548   1.074   0.266   5.188
 7883SOL    HW224549   1.168   0.309   5.314
 7884SOL     OW24550   0.974   3.084   4.413
 7884SOL    HW124551   0.885   3.077   4.459
 7884SOL    HW224552   1.045   3.100   4.481
 7885SOL     OW24553   0.287   6.053   6.724
 7885SOL    HW124554   0.328   6.144   6.715
 7885SOL    HW224555   0.359   5.987   6.747
 7886SOL     OW24556   5.354   4.245   1.044
 7886SOL    HW124557   5.435   4.225   1.099
 7886SOL    HW224558   5.272   4.230   1.098
 7887SOL     OW24559   4.723   3.290   6.522
 7887SOL    HW124560   4.739   3.333   6.611
 7887SOL    HW224561   4.811   3.263   6.482
 7888SOL     OW24562   4.954   6.180   4.825
 7888SOL    HW124563   4.885   6.143   4.763
 7888SOL    HW224564   5.017   6.107   4.852
 7889SOL     OW24565   6.776   5.492   3.187
 7889SOL    HW124566   6.744   5.399   3.171
 7889SOL    HW224567   6.876   5.492   3.192
 7890SOL     OW24568   2.133   3.175   2.250
 7890SOL    HW124569   2.115   3.080   2.222
 7890SOL    HW224570   2.133   3.181   2.350
 7891SOL     OW24571   1.026   5.010   2.848
 7891SOL    HW124572   1.001   5.036   2.755
 7891SOL    HW224573   1.122   5.031   2.864
 7892SOL     OW24574   2.299   2.125   5.064
 7892SOL    HW124575   2.226   2.073   5.107
 7892SOL    HW224576   2.355   2.169   5.135
 7893SOL     OW24577   6.322   6.621   1.486
 7893SOL    HW124578   6.342   6.543   1.545
 7893SOL    HW224579   6.294   6.699   1.543
 7894SOL     OW24580   2.921   0.412   1.876
 7894SOL    HW124581   2.941   0.488   1.815
 7894SOL    HW224582   2.921   0.444   1.971
 7895SOL     OW24583   6.757   1.277   3.675
 7895SOL    HW124584   6.737   1.374   3.659
 7895SOL    HW224585   6.732   1.224   3.594
 7896SOL     OW24586   4.189   1.892   6.630
 7896SOL    HW124587   4.245   1.929   6.557
 7896SOL    HW224588   4.110   1.845   6.591
 7897SOL     OW24589   3.364   2.776   6.710
 7897SOL    HW124590   3.295   2.759   6.640
 7897SOL    HW224591   3.444   2.719   6.692
 7898SOL     OW24592   5.005   1.295   4.064
 7898SOL    HW124593   5.055   1.374   4.100
 7898SOL    HW224594   4.913   1.324   4.036
 7899SOL     OW24595   4.187   1.572   2.337
 7899SOL    HW124596   4.166   1.603   2.244
 7899SOL    HW224597   4.234   1.484   2.333
 7900SOL     OW24598   1.268   5.648   1.186
 7900SOL    HW124599   1.301   5.741   1.173
 7900SOL    HW224600   1.254   5.605   1.097
 7901SOL     OW24601   6.196   5.554   0.747
 7901SOL    HW124602   6.253   5.502   0.811
 7901SOL    HW224603   6.105   5.513   0.742
 7902SOL     OW24604   5.171   4.750   5.898
 7902SOL    HW124605   5.184   4.754   5.798
 7902SOL    HW224606   5.170   4.655   5.928
 7903SOL     OW24607   0.207   2.615   0.071
 7903SOL    HW124608   0.268   2.638   0.146
 7903SOL    HW224609   0.116   2.650   0.090
 7904SOL     OW24610   6.148   1.948   2.405
 7904SOL    HW124611   6.131   2.013   2.331
 7904SOL    HW224612   6.071   1.885   2.413
 7905SOL     OW24613   1.950   2.223   1.672
 7905SOL    HW124614   1.872   2.251   1.728
 7905SOL    HW224615   2.015   2.299   1.664
 7906SOL     OW24616   0.204   4.281   7.007
 7906SOL    HW124617   0.224   4.348   6.935
 7906SOL    HW224618   0.276   4.212   7.008
 7907SOL     OW24619   6.493   2.889   2.165
 7907SOL    HW124620   6.573   2.948   2.161
 7907SOL    HW224621   6.413   2.938   2.129
 7908SOL     OW24622   6.854   0.999   2.736
 7908SOL    HW124623   6.795   0.955   2.668
 7908SOL    HW224624   6.853   1.098   2.721
 7909SOL     OW24625   4.098   6.289   5.002
 7909SOL    HW124626   4.183   6.244   5.030
 7909SOL    HW224627   4.029   6.220   4.981
 7910SOL     OW24628   6.055   2.978   6.262
 7910SOL    HW124629   6.151   2.950   6.273
 7910SOL    HW224630   6.044   3.023   6.173
 7911SOL     OW24631   6.790   5.319   6.677
 7911SOL    HW124632   6.876   5.371   6.674
 7911SOL    HW224633   6.793   5.247   6.607
 7912SOL     OW24634   0.182   4.929   5.478
 7912SOL    HW124635   0.160   4.860   5.546
 7912SOL    HW224636   0.266   4.976   5.505
 7913SOL     OW24637   1.125   6.376   6.496
 7913SOL    HW124638   1.117   6.296   6.555
 7913SOL    HW224639   1.132   6.346   6.401
 7914SOL     OW24640   6.599   4.089   1.129
 7914SOL    HW124641   6.517   4.054   1.174
 7914SOL    HW224642   6.645   4.014   1.081
 7915SOL     OW24643   3.567   1.230   2.683
 7915SOL    HW124644   3.513   1.268   2.758
 7915SOL    HW224645   3.582   1.132   2.699
 7916SOL     OW24646   4.802   3.928   5.835
 7916SOL    HW124647   4.747   3.923   5.918
 7916SOL    HW224648   4.819   4.024   5.812
 7917SOL     OW24649   4.123   3.376   3.532
 7917SOL    HW124650   4.086   3.290   3.497
 7917SOL    HW224651   4.112   3.448   3.463
 7918SOL     OW24652   6.674   2.423   2.651
 7918SOL    HW124653   6.631   2.456   2.735
 7918SOL    HW224654   6.638   2.475   2.573
 7919SOL     OW24655   5.795   4.478   1.812
 7919SOL    HW124656   5.704   4.477   1.771
 7919SOL    HW224657   5.789   4.510   1.906
 7920SOL     OW24658   0.034   6.780   1.811
 7920SOL    HW124659   0.071   6.847   1.875
 7920SOL    HW224660   0.109   6.729   1.769
 7921SOL     OW24661   2.218   6.061   1.869
 7921SOL    HW124662   2.153   5.985   1.870
 7921SOL    HW224663   2.191   6.126   1.798
 7922SOL     OW24664   0.710   4.759   5.940
 7922SOL    HW124665   0.762   4.753   6.026
 7922SOL    HW224666   0.773   4.753   5.863
 7923SOL     OW24667   0.264   1.838   3.245
 7923SOL    HW124668   0.350   1.872   3.206
 7923SOL    HW224669   0.281   1.753   3.295
 7924SOL     OW24670   1.946   1.217   3.835
 7924SOL    HW124671   2.033   1.216   3.786
 7924SOL    HW224672   1.876   1.258   3.777
 7925SOL     OW24673   0.159   1.542   6.525
 7925SOL    HW124674   0.233   1.546   6.458
 7925SOL    HW224675   0.120   1.633   6.538
 7926SOL     OW24676   3.274   0.089   2.131
 7926SOL    HW124677   3.224   0.127   2.053
 7926SOL    HW224678   3.213   0.085   2.211
 7927SOL     OW24679   4.777   4.288   4.483
 7927SOL    HW124680   4.703   4.310   4.547
 7927SOL    HW224681   4.788   4.363   4.418
 7928SOL     OW24682   1.095   4.490   6.862
 7928SOL    HW124683   1.175   4.457   6.912
 7928SOL    HW224684   1.125   4.542   6.782
 7929SOL     OW24685   4.057   3.880   4.426
 7929SOL    HW124686   4.144   3.929   4.413
 7929SOL    HW224687   3.989   3.942   4.465
 7930SOL     OW24688   5.201   6.061   3.237
 7930SOL    HW124689   5.107   6.043   3.211
 7930SOL    HW224690   5.208   6.068   3.336
 7931SOL     OW24691   3.020   3.540   6.578
 7931SOL    HW124692   2.964   3.469   6.536
 7931SOL    HW224693   3.064   3.595   6.507
 7932SOL     OW24694   3.051   0.042   0.791
 7932SOL    HW124695   2.951   0.044   0.785
 7932SOL    HW224696   3.089   0.023   0.700
 7933SOL     OW24697   1.674   0.931   5.964
 7933SOL    HW124698   1.717   0.862   5.905
 7933SOL    HW224699   1.740   1.003   5.984
 7934SOL     OW24700   4.023   2.598   5.657
 7934SOL    HW124701   3.988   2.620   5.748
 7934SOL    HW224702   4.112   2.643   5.643
 7935SOL     OW24703   4.720   5.591   1.945
 7935SOL    HW124704   4.777   5.567   1.866
 7935SOL    HW224705   4.623   5.581   1.921
 7936SOL     OW24706   4.308   5.887   2.812
 7936SOL    HW124707   4.331   5.801   2.768
 7936SOL    HW224708   4.392   5.936   2.835
 7937SOL     OW24709   5.984   0.689   5.719
 7937SOL    HW124710   6.062   0.630   5.699
 7937SOL    HW224711   5.950   0.668   5.811
 7938SOL     OW24712   6.082   4.729   4.429
 7938SOL    HW124713   6.164   4.704   4.379
 7938SOL    HW224714   6.093   4.705   4.526
 7939SOL     OW24715   0.285   6.985   4.021
 7939SOL    HW124716   0.320   0.060   4.033
 7939SOL    HW224717   0.351   6.920   4.058
 7940SOL     OW24718   1.590   5.702   0.841
 7940SOL    HW124719   1.591   5.654   0.929
 7940SOL    HW224720   1.533   5.651   0.776
 7941SOL     OW24721   0.020   0.267   0.864
 7941SOL    HW124722   0.110   0.305   0.884
 7941SOL    HW224723   6.968   0.337   0.882
 7942SOL     OW24724   1.289   0.895   1.083
 7942SOL    HW124725   1.236   0.970   1.044
 7942SOL    HW224726   1.237   0.810   1.074
 7943SOL     OW24727   6.324   2.268   0.121
 7943SOL    HW124728   6.236   2.285   0.076
 7943SOL    HW224729   6.350   2.349   0.174
 7944SOL     OW24730   7.017   3.476   1.901
 7944SOL    HW124731   0.095   3.481   1.926
 7944SOL    HW224732   6.963   3.456   1.983
 7945SOL     OW24733   5.005   0.086   1.111
 7945SOL    HW124734   5.072   0.126   1.173
 7945SOL    HW224735   4.913   0.114   1.139
 7946SOL     OW24736   1.370   1.515   5.913
 7946SOL    HW124737   1.308   1.538   5.838
 7946SOL    HW224738   1.335   1.434   5.961
 7947SOL     OW24739   4.236   5.286   5.928
 7947SOL    HW124740   4.311   5.331   5.976
 7947SOL    HW224741   4.252   5.187   5.926
 7948SOL     OW24742   0.851   5.180   6.073
 7948SOL    HW124743   0.789   5.107   6.041
 7948SOL    HW224744   0.798   5.262   6.093
 7949SOL     OW24745   6.298   3.930   4.015
 7949SOL    HW124746   6.388   3.956   4.049
 7949SOL    HW224747   6.307   3.846   3.961
 7950SOL     OW24748   3.736   5.112   4.141
 7950SOL    HW124749   3.756   5.203   4.105
 7950SOL    HW224750   3.658   5.073   4.093
 7951SOL     OW24751   3.058   3.416   0.585
 7951SOL    HW124752   3.024   3.357   0.512
 7951SOL    HW224753   3.063   3.364   0.671
 7952SOL     OW24754   5.439   4.477   0.632
 7952SOL    HW124755   5.454   4.576   0.626
 7952SOL    HW224756   5.389   4.456   0.716
 7953SOL     OW24757   1.945   3.458   2.982
 7953SOL    HW124758   2.025   3.433   3.037
 7953SOL    HW224759   1.968   3.536   2.923
 7954SOL     OW24760   5.354   5.670   4.519
 7954SOL    HW124761   5.337   5.673   4.420
 7954SOL    HW224762   5.417   5.596   4.540
 7955SOL     OW24763   1.877   6.191   5.873
 7955SOL    HW124764   1.868   6.106   5.820
 7955SOL    HW224765   1.969   6.229   5.861
 7956SOL     OW24766   6.475   6.562   3.028
 7956SOL    HW124767   6.431   6.635   2.976
 7956SOL    HW224768   6.486   6.482   2.970
 7957SOL     OW24769   0.853   2.047   0.907
 7957SOL    HW124770   0.790   2.000   0.845
 7957SOL    HW224771   0.880   2.135   0.867
 7958SOL     OW24772   2.755   5.788   3.664
 7958SOL    HW124773   2.677   5.790   3.602
 7958SOL    HW224774   2.819   5.717   3.635
 7959SOL     OW24775   4.980   5.522   0.926
 7959SOL    HW124776   5.036   5.540   1.007
 7959SOL    HW224777   5.038   5.516   0.845
 7960SOL     OW24778   2.317   2.364   0.971
 7960SOL    HW124779   2.404   2.409   0.950
 7960SOL    HW224780   2.273   2.410   1.048
 7961SOL     OW24781   1.458   5.887   6.911
 7961SOL    HW124782   1.471   5.986   6.917
 7961SOL    HW224783   1.452   5.861   6.814
 7962SOL     OW24784   1.464   6.771   2.091
 7962SOL    HW124785   1.563   6.770   2.079
 7962SOL    HW224786   1.420   6.736   2.009
 7963SOL     OW24787   0.983   6.489   4.695
 7963SOL    HW124788   0.899   6.476   4.642
 7963SOL    HW224789   1.018   6.401   4.726
 7964SOL     OW24790   6.295   5.714   3.606
 7964SOL    HW124791   6.261   5.659   3.681
 7964SOL    HW224792   6.223   5.727   3.538
 7965SOL     OW24793   5.297   1.545   0.469
 7965SOL    HW124794   5.242   1.483   0.413
 7965SOL    HW224795   5.239   1.590   0.536
 7966SOL     OW24796   0.158   0.078   3.671
 7966SOL    HW124797   0.071   0.096   3.627
 7966SOL    HW224798   0.221   0.153   3.653
 7967SOL     OW24799   3.149   0.113   3.300
 7967SOL    HW124800   3.245   0.117   3.271
 7967SOL    HW224801   3.110   0.024   3.277
 7968SOL     OW24802   2.556   0.820   1.424
 7968SOL    HW124803   2.474   0.765   1.412
 7968SOL    HW224804   2.637   0.764   1.405
 7969SOL     OW24805   3.290   1.559   3.425
 7969SOL    HW124806   3.348   1.550   3.506
 7969SOL    HW224807   3.331   1.625   3.362
 7970SOL     OW24808   0.115   4.957   3.064
 7970SOL    HW124809   0.055   5.003   2.998
 7970SOL    HW224810   0.184   4.904   3.016
 7971SOL     OW24811   3.115   1.568   2.355
 7971SOL    HW124812   3.092   1.515   2.273
 7971SOL    HW224813   3.059   1.536   2.432
 7972SOL     OW24814   6.632   5.204   1.678
 7972SOL    HW124815   6.535   5.195   1.657
 7972SOL    HW224816   6.642   5.239   1.771
 7973SOL     OW24817   4.901   2.040   2.921
 7973SOL    HW124818   4.804   2.049   2.943
 7973SOL    HW224819   4.912   1.981   2.841
 7974SOL     OW24820   5.608   6.278   3.734
 7974SOL    HW124821   5.535   6.344   3.753
 7974SOL    HW224822   5.661   6.263   3.818
 7975SOL     OW24823   1.691   1.728   2.752
 7975SOL    HW124824   1.791   1.727   2.756
 7975SOL    HW224825   1.654   1.693   2.837
 7976SOL     OW24826   0.788   6.369   5.682
 7976SOL    HW124827   0.757   6.398   5.773
 7976SOL    HW224828   0.711   6.371   5.618
 7977SOL     OW24829   4.720   6.543   1.328
 7977SOL    HW124830   4.782   6.464   1.322
 7977SOL    HW224831   4.773   6.627   1.320
 7978SOL     OW24832   3.476   2.707   5.343
 7978SOL    HW124833   3.440   2.760   5.266
 7978SOL    HW224834   3.466   2.609   5.323
 7979SOL     OW24835   5.348   6.713   3.976
 7979SOL    HW124836   5.282   6.787   3.969
 7979SOL    HW224837   5.323   6.653   4.053
 7980SOL     OW24838   2.669   0.765   2.383
 7980SOL    HW124839   2.652   0.746   2.480
 7980SOL    HW224840   2.638   0.858   2.361
 7981SOL     OW24841   0.989   5.924   2.738
 7981SOL    HW124842   1.072   5.980   2.736
 7981SOL    HW224843   1.002   5.847   2.800
 7982SOL     OW24844   6.983   2.580   0.243
 7982SOL    HW124845   6.954   2.669   0.279
 7982SOL    HW224846   0.012   2.529   0.315
 7983SOL     OW24847   4.680   2.748   2.182
 7983SOL    HW124848   4.588   2.781   2.204
 7983SOL    HW224849   4.712   2.793   2.098
 7984SOL     OW24850   6.759   0.128   7.006
 7984SOL    HW124851   6.669   0.148   0.025
 7984SOL    HW224852   6.788   0.036   0.017
 7985SOL     OW24853   0.597   1.030   1.155
 7985SOL    HW124854   0.610   1.004   1.059
 7985SOL    HW224855   0.546   1.116   1.159
 7986SOL     OW24856   4.841   3.173   7.015
 7986SOL    HW124857   4.886   3.256   0.030
 7986SOL    HW224858   4.749   3.167   0.034
 7987SOL     OW24859   1.190   2.857   4.889
 7987SOL    HW124860   1.119   2.927   4.888
 7987SOL    HW224861   1.163   2.783   4.951
 7988SOL     OW24862   2.714   1.600   5.705
 7988SOL    HW124863   2.688   1.558   5.792
 7988SOL    HW224864   2.659   1.681   5.689
 7989SOL     OW24865   3.601   3.294   6.141
 7989SOL    HW124866   3.585   3.209   6.090
 7989SOL    HW224867   3.690   3.331   6.117
 7990SOL     OW24868   2.333   2.724   4.905
 7990SOL    HW124869   2.353   2.807   4.957
 7990SOL    HW224870   2.415   2.695   4.856
 7991SOL     OW24871   1.603   3.187   6.004
 7991SOL    HW124872   1.597   3.227   5.913
 7991SOL    HW224873   1.575   3.255   6.072
 7992SOL     OW24874   2.843   1.355   0.842
 7992SOL    HW124875   2.782   1.429   0.872
 7992SOL    HW224876   2.938   1.386   0.846
 7993SOL     OW24877   2.431   6.318   6.559
 7993SOL    HW124878   2.448   6.249   6.489
 7993SOL    HW224879   2.352   6.291   6.614
 7994SOL     OW24880   5.752   0.925   4.435
 7994SOL    HW124881   5.747   0.964   4.343
 7994SOL    HW224882   5.704   0.837   4.436
 7995SOL     OW24883   4.353   5.285   3.230
 7995SOL    HW124884   4.412   5.340   3.290
 7995SOL    HW224885   4.407   5.249   3.154
 7996SOL     OW24886   4.487   1.041   5.331
 7996SOL    HW124887   4.450   1.130   5.305
 7996SOL    HW224888   4.481   0.977   5.254
 7997SOL     OW24889   5.410   2.695   2.351
 7997SOL    HW124890   5.356   2.642   2.416
 7997SOL    HW224891   5.362   2.779   2.328
 7998SOL     OW24892   6.376   4.782   6.324
 7998SOL    HW124893   6.363   4.769   6.423
 7998SOL    HW224894   6.294   4.823   6.285
 7999SOL     OW24895   2.090   0.588   5.603
 7999SOL    HW124896   2.002   0.554   5.636
 7999SOL    HW224897   2.075   0.667   5.544
 8000SOL     OW24898   5.381   0.467   5.681
 8000SOL    HW124899   5.406   0.389   5.624
 8000SOL    HW224900   5.284   0.462   5.705
 8001SOL     OW24901   2.314   5.496   1.027
 8001SOL    HW124902   2.280   5.435   1.098
 8001SOL    HW224903   2.238   5.522   0.966
 8002SOL     OW24904   5.014   2.449   5.630
 8002SOL    HW124905   5.045   2.486   5.542
 8002SOL    HW224906   4.926   2.489   5.654
 8003SOL     OW24907   4.068   6.027   3.660
 8003SOL    HW124908   4.097   6.045   3.566
 8003SOL    HW224909   4.027   5.936   3.665
 8004SOL     OW24910   1.070   4.371   2.765
 8004SOL    HW124911   1.043   4.283   2.804
 8004SOL    HW224912   0.989   4.423   2.740
 8005SOL     OW24913   2.013   0.524   2.235
 8005SOL    HW124914   2.069   0.584   2.178
 8005SOL    HW224915   1.972   0.453   2.178
 8006SOL     OW24916   3.742   6.252   1.865
 8006SOL    HW124917   3.650   6.266   1.902
 8006SOL    HW224918   3.750   6.296   1.776
 8007SOL     OW24919   0.448   1.190   4.002
 8007SOL    HW124920   0.404   1.121   3.945
 8007SOL    HW224921   0.487   1.147   4.083
 8008SOL     OW24922   5.906   5.515   0.725
 8008SOL    HW124923   5.930   5.578   0.652
 8008SOL    HW224924   5.843   5.559   0.789
 8009SOL     OW24925   6.901   0.109   4.296
 8009SOL    HW124926   6.934   0.015   4.309
 8009SOL    HW224927   6.813   0.120   4.343
 8010SOL     OW24928   1.854   2.776   6.750
 8010SOL    HW124929   1.773   2.726   6.782
 8010SOL    HW224930   1.834   2.874   6.747
 8011SOL     OW24931   2.168   2.517   0.434
 8011SOL    HW124932   2.106   2.569   0.492
 8011SOL    HW224933   2.147   2.420   0.441
 8012SOL     OW24934   2.848   0.276   3.458
 8012SOL    HW124935   2.943   0.246   3.473
 8012SOL    HW224936   2.843   0.375   3.469
 8013SOL     OW24937   5.654   5.721   4.680
 8013SOL    HW124938   5.704   5.767   4.606
 8013SOL    HW224939   5.613   5.790   4.739
 8014SOL     OW24940   2.281   6.733   6.849
 8014SOL    HW124941   2.334   6.753   6.767
 8014SOL    HW224942   2.229   6.814   6.875
 8015SOL     OW24943   1.550   1.991   5.829
 8015SOL    HW124944   1.609   2.011   5.751
 8015SOL    HW224945   1.606   1.973   5.909
 8016SOL     OW24946   4.069   6.083   1.941
 8016SOL    HW124947   3.978   6.046   1.923
 8016SOL    HW224948   4.088   6.080   2.039
 8017SOL     OW24949   6.054   3.146   5.576
 8017SOL    HW124950   6.080   3.168   5.482
 8017SOL    HW224951   6.112   3.071   5.610
 8018SOL     OW24952   5.875   2.525   4.902
 8018SOL    HW124953   5.877   2.515   5.001
 8018SOL    HW224954   5.913   2.613   4.876
 8019SOL     OW24955   1.876   5.011   1.112
 8019SOL    HW124956   1.923   5.058   1.038
 8019SOL    HW224957   1.814   5.075   1.158
 8020SOL     OW24958   5.839   6.332   6.482
 8020SOL    HW124959   5.892   6.366   6.404
 8020SOL    HW224960   5.891   6.350   6.566
 8021SOL     OW24961   6.958   0.897   0.456
 8021SOL    HW124962   6.904   0.857   0.529
 8021SOL    HW224963   0.030   0.853   0.452
 8022SOL     OW24964   4.561   5.121   3.416
 8022SOL    HW124965   4.516   5.176   3.346
 8022SOL    HW224966   4.554   5.024   3.393
 8023SOL     OW24967   6.920   6.216   3.304
 8023SOL    HW124968   6.831   6.184   3.273
 8023SOL    HW224969   6.991   6.150   3.279
 8024SOL     OW24970   4.918   5.751   4.958
 8024SOL    HW124971   4.936   5.694   5.038
 8024SOL    HW224972   4.856   5.703   4.897
 8025SOL     OW24973   2.660   5.821   0.713
 8025SOL    HW124974   2.574   5.773   0.730
 8025SOL    HW224975   2.643   5.902   0.656
 8026SOL     OW24976   2.593   3.072   0.246
 8026SOL    HW124977   2.660   3.029   0.306
 8026SOL    HW224978   2.639   3.107   0.165
 8027SOL     OW24979   4.759   3.427   5.775
 8027SOL    HW124980   4.660   3.428   5.760
 8027SOL    HW224981   4.792   3.521   5.783
 8028SOL     OW24982   5.179   5.503   0.739
 8028SOL    HW124983   5.237   5.422   0.743
 8028SOL    HW224984   5.199   5.554   0.655
 8029SOL     OW24985   2.869   4.174   6.975
 8029SOL    HW124986   2.921   4.210   0.033
 8029SOL    HW224987   2.867   4.074   6.979
 8030SOL     OW24988   6.092   3.657   0.632
 8030SOL    HW124989   6.173   3.700   0.674
 8030SOL    HW224990   6.101   3.661   0.533
 8031SOL     OW24991   3.754   6.420   1.351
 8031SOL    HW124992   3.665   6.414   1.305
 8031SOL    HW224993   3.793   6.510   1.335
 8032SOL     OW24994   4.854   4.647   5.707
 8032SOL    HW124995   4.924   4.595   5.757
 8032SOL    HW224996   4.828   4.727   5.760
 8033SOL     OW24997   6.296   2.344   0.631
 8033SOL    HW124998   6.396   2.335   0.637
 8033SOL    HW224999   6.273   2.415   0.564
 8034SOL     OW25000   6.701   1.578   4.913
 8034SOL    HW125001   6.696   1.533   5.002
 8034SOL    HW225002   6.767   1.531   4.855
 8035SOL     OW25003   5.550   5.784   6.961
 8035SOL    HW125004   5.570   5.881   6.945
 8035SOL    HW225005   5.633   5.738   6.994
 8036SOL     OW25006   1.234   4.543   1.247
 8036SOL    HW125007   1.180   4.501   1.174
 8036SOL    HW225008   1.272   4.472   1.307
 8037SOL     OW25009   2.114   2.979   1.483
 8037SOL    HW125010   2.030   3.003   1.435
 8037SOL    HW225011   2.138   3.052   1.547
 8038SOL     OW25012   6.174   1.175   4.037
 8038SOL    HW125013   6.106   1.136   4.098
 8038SOL    HW225014   6.167   1.275   4.037
 8039SOL     OW25015   2.995   6.617   4.763
 8039SOL    HW125016   2.947   6.704   4.751
 8039SOL    HW225017   2.961   6.550   4.697
 8040SOL     OW25018   6.050   6.045   0.318
 8040SOL    HW125019   5.958   6.013   0.341
 8040SOL    HW225020   6.054   6.144   0.323
 8041SOL     OW25021   4.064   2.206   0.966
 8041SOL    HW125022   3.989   2.272   0.971
 8041SOL    HW225023   4.149   2.254   0.947
 8042SOL     OW25024   2.699   4.323   0.562
 8042SOL    HW125025   2.764   4.341   0.488
 8042SOL    HW225026   2.627   4.393   0.560
 8043SOL     OW25027   2.739   0.296   1.117
 8043SOL    HW125028   2.647   0.326   1.093
 8043SOL    HW225029   2.796   0.295   1.034
 8044SOL     OW25030   3.329   3.698   1.663
 8044SOL    HW125031   3.286   3.621   1.711
 8044SOL    HW225032   3.258   3.760   1.629
 8045SOL     OW25033   6.278   2.936   3.550
 8045SOL    HW125034   6.266   2.905   3.644
 8045SOL    HW225035   6.292   2.856   3.490
 8046SOL     OW25036   0.358   5.307   5.444
 8046SOL    HW125037   0.444   5.346   5.411
 8046SOL    HW225038   0.281   5.351   5.396
 8047SOL     OW25039   2.929   7.006   4.409
 8047SOL    HW125040   2.874   7.011   4.326
 8047SOL    HW225041   2.970   0.076   4.427
 8048SOL     OW25042   6.164   1.012   5.779
 8048SOL    HW125043   6.125   0.995   5.689
 8048SOL    HW225044   6.126   1.097   5.817
 8049SOL     OW25045   1.019   6.895   0.474
 8049SOL    HW125046   1.024   6.833   0.552
 8049SOL    HW225047   1.111   6.927   0.451
 8050SOL     OW25048   0.134   3.159   1.029
 8050SOL    HW125049   0.180   3.073   1.051
 8050SOL    HW225050   0.193   3.214   0.969
 8051SOL     OW25051   3.399   1.877   3.778
 8051SOL    HW125052   3.460   1.830   3.842
 8051SOL    HW225053   3.437   1.873   3.686
 8052SOL     OW25054   3.708   2.123   3.080
 8052SOL    HW125055   3.655   2.134   2.996
 8052SOL    HW225056   3.757   2.208   3.100
 8053SOL     OW25057   4.190   3.449   1.815
 8053SOL    HW125058   4.177   3.398   1.900
 8053SOL    HW225059   4.123   3.522   1.809
 8054SOL     OW25060   4.547   5.816   4.046
 8054SOL    HW125061   4.515   5.890   4.106
 8054SOL    HW225062   4.614   5.761   4.094
 8055SOL     OW25063   0.801   7.007   5.050
 8055SOL    HW125064   0.894   6.973   5.059
 8055SOL    HW225065   0.748   6.984   5.131
 8056SOL     OW25066   4.367   1.343   2.411
 8056SOL    HW125067   4.317   1.323   2.496
 8056SOL    HW225068   4.458   1.301   2.416
 8057SOL     OW25069   3.086   7.016   3.758
 8057SOL    HW125070   2.993   7.009   3.792
 8057SOL    HW225071   3.130   0.078   3.797
 8058SOL     OW25072   2.325   0.422   3.763
 8058SOL    HW125073   2.244   0.476   3.741
 8058SOL    HW225074   2.407   0.477   3.748
 8059SOL     OW25075   2.582   1.289   3.625
 8059SOL    HW125076   2.586   1.203   3.677
 8059SOL    HW225077   2.637   1.279   3.541
 8060SOL     OW25078   1.043   2.636   5.042
 8060SOL    HW125079   1.099   2.582   5.105
 8060SOL    HW225080   1.010   2.718   5.088
 8061SOL     OW25081   6.727   5.827   2.218
 8061SOL    HW125082   6.668   5.855   2.143
 8061SOL    HW225083   6.718   5.891   2.294
 8062SOL     OW25084   1.913   3.716   2.001
 8062SOL    HW125085   1.861   3.667   2.072
 8062SOL    HW225086   1.982   3.655   1.963
 8063SOL     OW25087   2.420   3.201   6.470
 8063SOL    HW125088   2.504   3.149   6.485
 8063SOL    HW225089   2.341   3.140   6.474
 8064SOL     OW25090   6.769   2.595   6.975
 8064SOL    HW125091   6.692   2.657   6.959
 8064SOL    HW225092   6.735   2.509   7.012
 8065SOL     OW25093   4.656   0.023   6.568
 8065SOL    HW125094   4.718   6.987   6.511
 8065SOL    HW225095   4.604   6.981   6.629
 8066SOL     OW25096   2.427   6.792   1.733
 8066SOL    HW125097   2.338   6.768   1.695
 8066SOL    HW225098   2.484   6.833   1.662
 8067SOL     OW25099   4.729   2.321   2.282
 8067SOL    HW125100   4.720   2.322   2.182
 8067SOL    HW225101   4.761   2.410   2.314
 8068SOL     OW25102   6.266   4.664   4.243
 8068SOL    HW125103   6.279   4.712   4.156
 8068SOL    HW225104   6.348   4.610   4.263
 8069SOL     OW25105   1.388   6.632   2.451
 8069SOL    HW125106   1.438   6.569   2.512
 8069SOL    HW225107   1.454   6.689   2.401
 8070SOL     OW25108   3.885   0.232   2.699
 8070SOL    HW125109   3.950   0.280   2.639
 8070SOL    HW225110   3.803   0.209   2.646
 8071SOL     OW25111   4.167   6.528   0.258
 8071SOL    HW125112   4.216   6.515   0.345
 8071SOL    HW225113   4.134   6.439   0.225
 8072SOL     OW25114   5.041   0.481   2.728
 8072SOL    HW125115   5.100   0.401   2.726
 8072SOL    HW225116   4.946   0.453   2.742
 8073SOL     OW25117   4.803   6.995   5.976
 8073SOL    HW125118   4.856   6.948   6.046
 8073SOL    HW225119   4.742   0.043   6.019
 8074SOL     OW25120   3.358   4.053   6.682
 8074SOL    HW125121   3.289   4.010   6.624
 8074SOL    HW225122   3.336   4.150   6.693
 8075SOL     OW25123   5.535   2.352   3.162
 8075SOL    HW125124   5.618   2.401   3.190
 8075SOL    HW225125   5.476   2.339   3.241
 8076SOL     OW25126   4.513   2.919   6.176
 8076SOL    HW125127   4.538   3.006   6.218
 8076SOL    HW225128   4.441   2.875   6.230
 8077SOL     OW25129   1.159   0.053   0.156
 8077SOL    HW125130   1.160   0.079   0.059
 8077SOL    HW225131   1.149   6.973   0.164
 8078SOL     OW25132   6.114   2.646   0.879
 8078SOL    HW125133   6.171   2.564   0.883
 8078SOL    HW225134   6.085   2.662   0.785
 8079SOL     OW25135   1.004   2.037   1.783
 8079SOL    HW125136   1.048   1.963   1.733
 8079SOL    HW225137   0.906   2.037   1.762
 8080SOL     OW25138   3.702   5.062   0.213
 8080SOL    HW125139   3.632   4.994   0.192
 8080SOL    HW225140   3.792   5.019   0.212
 8081SOL     OW25141   5.959   1.763   5.168
 8081SOL    HW125142   6.057   1.763   5.189
 8081SOL    HW225143   5.944   1.806   5.080
 8082SOL     OW25144   6.694   3.286   4.511
 8082SOL    HW125145   6.603   3.249   4.529
 8082SOL    HW225146   6.730   3.328   4.594
 8083SOL     OW25147   6.245   2.302   4.832
 8083SOL    HW125148   6.146   2.295   4.821
 8083SOL    HW225149   6.278   2.382   4.781
 8084SOL     OW25150   6.703   0.381   0.911
 8084SOL    HW125151   6.621   0.438   0.918
 8084SOL    HW225152   6.754   0.404   0.828
 8085SOL     OW25153   5.772   2.144   0.750
 8085SOL    HW125154   5.762   2.221   0.814
 8085SOL    HW225155   5.848   2.087   0.779
 8086SOL     OW25156   2.369   6.175   5.863
 8086SOL    HW125157   2.421   6.126   5.933
 8086SOL    HW225158   2.379   6.128   5.775
 8087SOL     OW25159   2.948   4.259   0.428
 8087SOL    HW125160   3.036   4.281   0.470
 8087SOL    HW225161   2.957   4.176   0.372
 8088SOL     OW25162   4.452   0.493   2.602
 8088SOL    HW125163   4.418   0.413   2.652
 8088SOL    HW225164   4.392   0.511   2.525
 8089SOL     OW25165   6.409   2.845   0.533
 8089SOL    HW125166   6.313   2.819   0.527
 8089SOL    HW225167   6.428   2.919   0.468
 8090SOL     OW25168   4.124   2.186   5.239
 8090SOL    HW125169   4.142   2.278   5.205
 8090SOL    HW225170   4.160   2.118   5.175
 8091SOL     OW25171   2.444   5.007   5.552
 8091SOL    HW125172   2.432   4.943   5.477
 8091SOL    HW225173   2.540   5.034   5.558
 8092SOL     OW25174   6.596   2.181   4.300
 8092SOL    HW125175   6.549   2.178   4.211
 8092SOL    HW225176   6.575   2.099   4.352
 8093SOL     OW25177   5.456   5.392   0.623
 8093SOL    HW125178   5.463   5.348   0.713
 8093SOL    HW225179   5.547   5.397   0.582
 8094SOL     OW25180   0.641   3.785   4.484
 8094SOL    HW125181   0.629   3.746   4.393
 8094SOL    HW225182   0.553   3.787   4.531
 8095SOL     OW25183   5.958   3.281   5.319
 8095SOL    HW125184   5.881   3.251   5.375
 8095SOL    HW225185   5.936   3.367   5.274
 8096SOL     OW25186   3.693   1.117   0.644
 8096SOL    HW125187   3.608   1.065   0.643
 8096SOL    HW225188   3.728   1.124   0.550
 8097SOL     OW25189   4.645   1.432   4.209
 8097SOL    HW125190   4.666   1.353   4.266
 8097SOL    HW225191   4.557   1.420   4.164
 8098SOL     OW25192   2.496   1.277   4.212
 8098SOL    HW125193   2.532   1.366   4.239
 8098SOL    HW225194   2.540   1.247   4.127
 8099SOL     OW25195   4.377   6.217   5.054
 8099SOL    HW125196   4.418   6.307   5.069
 8099SOL    HW225197   4.337   6.184   5.139
 8100SOL     OW25198   6.838   6.116   0.739
 8100SOL    HW125199   6.823   6.103   0.837
 8100SOL    HW225200   6.772   6.061   0.688
 8101SOL     OW25201   0.571   4.966   2.470
 8101SOL    HW125202   0.480   4.978   2.509
 8101SOL    HW225203   0.595   4.869   2.472
 8102SOL     OW25204   6.286   0.504   6.082
 8102SOL    HW125205   6.197   0.527   6.120
 8102SOL    HW225206   6.302   0.406   6.089
 8103SOL     OW25207   2.047   2.100   2.057
 8103SOL    HW125208   2.067   2.035   2.129
 8103SOL    HW225209   2.032   2.052   1.971
 8104SOL     OW25210   3.248   6.525   5.755
 8104SOL    HW125211   3.280   6.575   5.674
 8104SOL    HW225212   3.326   6.483   5.801
 8105SOL     OW25213   2.179   2.883   2.606
 8105SOL    HW125214   2.187   2.894   2.705
 8105SOL    HW225215   2.109   2.815   2.585
 8106SOL     OW25216   0.132   4.126   5.426
 8106SOL    HW125217   0.071   4.084   5.493
 8106SOL    HW225218   0.088   4.127   5.336
 8107SOL     OW25219   0.875   5.314   6.630
 8107SOL    HW125220   0.863   5.382   6.558
 8107SOL    HW225221   0.793   5.312   6.688
 8108SOL     OW25222   2.033   3.724   5.030
 8108SOL    HW125223   2.019   3.627   5.009
 8108SOL    HW225224   1.949   3.763   5.068
 8109SOL     OW25225   1.414   5.483   5.089
 8109SOL    HW125226   1.347   5.497   5.017
 8109SOL    HW225227   1.432   5.569   5.136
 8110SOL     OW25228   1.330   4.317   0.996
 8110SOL    HW125229   1.370   4.406   0.973
 8110SOL    HW225230   1.361   4.249   0.929
 8111SOL     OW25231   3.400   5.834   4.280
 8111SOL    HW125232   3.351   5.869   4.200
 8111SOL    HW225233   3.342   5.769   4.329
 8112SOL     OW25234   4.475   1.029   4.423
 8112SOL    HW125235   4.537   0.976   4.364
 8112SOL    HW225236   4.381   1.006   4.401
 8113SOL     OW25237   3.462   2.870   5.744
 8113SOL    HW125238   3.477   2.889   5.841
 8113SOL    HW225239   3.449   2.956   5.695
 8114SOL     OW25240   3.229   3.382   2.023
 8114SOL    HW125241   3.205   3.425   2.110
 8114SOL    HW225242   3.146   3.361   1.972
 8115SOL     OW25243   3.615   2.494   1.505
 8115SOL    HW125244   3.632   2.563   1.435
 8115SOL    HW225245   3.653   2.525   1.593
 8116SOL     OW25246   4.689   1.323   5.101
 8116SOL    HW125247   4.749   1.399   5.123
 8116SOL    HW225248   4.712   1.244   5.158
 8117SOL     OW25249   2.653   1.522   5.966
 8117SOL    HW125250   2.565   1.477   5.979
 8117SOL    HW225251   2.653   1.609   6.015
 8118SOL     OW25252   1.457   2.506   4.287
 8118SOL    HW125253   1.385   2.470   4.228
 8118SOL    HW225254   1.446   2.605   4.297
 8119SOL     OW25255   0.940   6.269   1.499
 8119SOL    HW125256   0.974   6.351   1.545
 8119SOL    HW225257   1.017   6.211   1.473
 8120SOL     OW25258   4.807   4.272   2.015
 8120SOL    HW125259   4.819   4.254   2.113
 8120SOL    HW225260   4.711   4.293   1.997
 8121SOL     OW25261   6.551   6.162   2.992
 8121SOL    HW125262   6.563   6.082   2.933
 8121SOL    HW225263   6.543   6.244   2.935
 8122SOL     OW25264   0.478   5.325   1.215
 8122SOL    HW125265   0.417   5.333   1.294
 8122SOL    HW225266   0.565   5.286   1.244
 8123SOL     OW25267   1.126   5.098   0.303
 8123SOL    HW125268   1.157   5.103   0.208
 8123SOL    HW225269   1.174   5.023   0.350
 8124SOL     OW25270   1.347   6.309   3.369
 8124SOL    HW125271   1.371   6.217   3.400
 8124SOL    HW225272   1.255   6.307   3.328
 8125SOL     OW25273   5.927   5.147   3.209
 8125SOL    HW125274   5.935   5.078   3.282
 8125SOL    HW225275   5.853   5.210   3.231
 8126SOL     OW25276   6.806   4.100   2.679
 8126SOL    HW125277   6.815   4.166   2.605
 8126SOL    HW225278   6.712   4.067   2.683
 8127SOL     OW25279   4.032   5.420   1.538
 8127SOL    HW125280   4.132   5.414   1.540
 8127SOL    HW225281   3.993   5.343   1.589
 8128SOL     OW25282   3.535   2.139   5.739
 8128SOL    HW125283   3.440   2.169   5.748
 8128SOL    HW225284   3.559   2.078   5.815
 8129SOL     OW25285   5.003   6.021   6.398
 8129SOL    HW125286   5.039   5.958   6.466
 8129SOL    HW225287   4.923   5.980   6.353
 8130SOL     OW25288   0.609   6.994   6.820
 8130SOL    HW125289   0.676   0.049   6.805
 8130SOL    HW225290   0.522   0.016   6.846
 8131SOL     OW25291   2.258   1.210   0.797
 8131SOL    HW125292   2.312   1.172   0.872
 8131SOL    HW225293   2.266   1.150   0.717
 8132SOL     OW25294   5.843   4.608   3.011
 8132SOL    HW125295   5.927   4.554   3.019
 8132SOL    HW225296   5.768   4.548   2.980
 8133SOL     OW25297   0.556   5.810   1.886
 8133SOL    HW125298   0.570   5.827   1.789
 8133SOL    HW225299   0.465   5.842   1.913
 8134SOL     OW25300   1.763   2.674   2.038
 8134SOL    HW125301   1.862   2.662   2.031
 8134SOL    HW225302   1.718   2.621   1.966
 8135SOL     OW25303   3.999   6.245   2.474
 8135SOL    HW125304   4.012   6.320   2.410
 8135SOL    HW225305   3.996   6.159   2.424
 8136SOL     OW25306   1.959   6.049   1.582
 8136SOL    HW125307   1.982   6.133   1.532
 8136SOL    HW225308   1.917   6.072   1.670
 8137SOL     OW25309   3.230   3.483   5.076
 8137SOL    HW125310   3.142   3.490   5.030
 8137SOL    HW225311   3.299   3.533   5.025
 8138SOL     OW25312   4.698   1.121   3.164
 8138SOL    HW125313   4.725   1.178   3.242
 8138SOL    HW225314   4.774   1.115   3.100
 8139SOL     OW25315   1.212   3.165   5.112
 8139SOL    HW125316   1.141   3.219   5.068
 8139SOL    HW225317   1.302   3.201   5.089
 8140SOL     OW25318   4.343   0.678   0.813
 8140SOL    HW125319   4.328   0.743   0.887
 8140SOL    HW225320   4.287   0.597   0.828
 8141SOL     OW25321   5.783   0.303   5.939
 8141SOL    HW125322   5.843   0.379   5.916
 8141SOL    HW225323   5.688   0.330   5.926
 8142SOL     OW25324   2.253   5.738   0.686
 8142SOL    HW125325   2.254   5.837   0.704
 8142SOL    HW225326   2.319   5.693   0.746
 8143SOL     OW25327   6.068   4.540   0.482
 8143SOL    HW125328   6.049   4.638   0.490
 8143SOL    HW225329   6.013   4.490   0.548
 8144SOL     OW25330   0.978   5.967   6.877
 8144SOL    HW125331   0.906   5.917   6.828
 8144SOL    HW225332   1.049   5.903   6.906
 8145SOL     OW25333   5.268   5.612   6.625
 8145SOL    HW125334   5.221   5.525   6.621
 8145SOL    HW225335   5.283   5.638   6.720
 8146SOL     OW25336   6.849   6.113   4.701
 8146SOL    HW125337   6.761   6.066   4.704
 8146SOL    HW225338   6.834   6.211   4.712
 8147SOL     OW25339   2.239   0.659   5.309
 8147SOL    HW125340   2.319   0.711   5.277
 8147SOL    HW225341   2.166   0.723   5.334
 8148SOL     OW25342   4.907   4.274   0.544
 8148SOL    HW125343   4.846   4.268   0.623
 8148SOL    HW225344   4.973   4.198   0.547
 8149SOL     OW25345   1.696   0.089   5.216
 8149SOL    HW125346   1.752   0.017   5.176
 8149SOL    HW225347   1.600   0.072   5.194
 8150SOL     OW25348   0.534   3.957   0.227
 8150SOL    HW125349   0.607   3.921   0.168
 8150SOL    HW225350   0.572   3.976   0.317
 8151SOL     OW25351   6.718   5.231   3.105
 8151SOL    HW125352   6.674   5.186   3.183
 8151SOL    HW225353   6.710   5.173   3.024
 8152SOL     OW25354   5.471   1.650   2.807
 8152SOL    HW125355   5.558   1.637   2.760
 8152SOL    HW225356   5.442   1.745   2.798
 8153SOL     OW25357   0.222   1.676   1.849
 8153SOL    HW125358   0.299   1.657   1.789
 8153SOL    HW225359   0.137   1.668   1.797
 8154SOL     OW25360   1.305   0.724   2.915
 8154SOL    HW125361   1.265   0.792   2.855
 8154SOL    HW225362   1.238   0.652   2.935
 8155SOL     OW25363   1.531   5.226   4.136
 8155SOL    HW125364   1.525   5.163   4.214
 8155SOL    HW225365   1.578   5.310   4.164
 8156SOL     OW25366   1.324   4.006   0.590
 8156SOL    HW125367   1.344   3.908   0.595
 8156SOL    HW225368   1.311   4.033   0.494
 8157SOL     OW25369   6.425   4.661   4.860
 8157SOL    HW125370   6.381   4.601   4.927
 8157SOL    HW225371   6.455   4.606   4.782
 8158SOL     OW25372   5.937   5.069   6.356
 8158SOL    HW125373   6.020   5.058   6.410
 8158SOL    HW225374   5.943   5.012   6.274
 8159SOL     OW25375   2.700   0.427   4.802
 8159SOL    HW125376   2.699   0.413   4.901
 8159SOL    HW225377   2.607   0.432   4.768
 8160SOL     OW25378   5.712   1.563   2.687
 8160SOL    HW125379   5.747   1.480   2.643
 8160SOL    HW225380   5.786   1.630   2.695
 8161SOL     OW25381   6.284   2.676   2.147
 8161SOL    HW125382   6.335   2.761   2.133
 8161SOL    HW225383   6.347   2.598   2.142
 8162SOL     OW25384   1.082   5.901   5.084
 8162SOL    HW125385   1.142   5.863   5.155
 8162SOL    HW225386   1.098   5.854   4.998
 8163SOL     OW25387   3.783   4.704   5.390
 8163SOL    HW125388   3.694   4.739   5.421
 8163SOL    HW225389   3.807   4.746   5.303
 8164SOL     OW25390   5.127   1.695   0.632
 8164SOL    HW125391   5.142   1.778   0.578
 8164SOL    HW225392   5.147   1.713   0.728
 8165SOL     OW25393   0.438   1.535   5.752
 8165SOL    HW125394   0.389   1.610   5.707
 8165SOL    HW225395   0.531   1.530   5.717
 8166SOL     OW25396   2.169   1.745   4.970
 8166SOL    HW125397   2.254   1.715   5.014
 8166SOL    HW225398   2.119   1.664   4.937
 8167SOL     OW25399   1.910   2.710   3.601
 8167SOL    HW125400   1.933   2.614   3.588
 8167SOL    HW225401   1.991   2.760   3.630
 8168SOL     OW25402   1.783   6.886   2.557
 8168SOL    HW125403   1.786   6.835   2.644
 8168SOL    HW225404   1.832   6.835   2.487
 8169SOL     OW25405   4.645   3.284   1.113
 8169SOL    HW125406   4.689   3.370   1.088
 8169SOL    HW225407   4.643   3.276   1.213
 8170SOL     OW25408   0.105   4.410   2.597
 8170SOL    HW125409   0.031   4.344   2.580
 8170SOL    HW225410   0.066   4.501   2.608
 8171SOL     OW25411   2.495   1.912   1.282
 8171SOL    HW125412   2.572   1.974   1.294
 8171SOL    HW225413   2.433   1.919   1.360
 8172SOL     OW25414   1.338   3.323   1.383
 8172SOL    HW125415   1.311   3.233   1.419
 8172SOL    HW225416   1.329   3.392   1.455
 8173SOL     OW25417   5.830   0.536   1.810
 8173SOL    HW125418   5.814   0.523   1.712
 8173SOL    HW225419   5.916   0.585   1.823
 8174SOL     OW25420   2.427   6.535   3.703
 8174SOL    HW125421   2.467   6.514   3.614
 8174SOL    HW225422   2.488   6.597   3.754
 8175SOL     OW25423   0.552   2.535   5.414
 8175SOL    HW125424   0.617   2.462   5.389
 8175SOL    HW225425   0.473   2.495   5.461
 8176SOL     OW25426   2.777   4.891   0.582
 8176SOL    HW125427   2.730   4.802   0.584
 8176SOL    HW225428   2.854   4.890   0.646
 8177SOL     OW25429   2.629   1.153   2.927
 8177SOL    HW125430   2.532   1.154   2.905
 8177SOL    HW225431   2.653   1.237   2.977
 8178SOL     OW25432   2.270   6.669   1.018
 8178SOL    HW125433   2.278   6.591   0.956
 8178SOL    HW225434   2.247   6.636   1.110
 8179SOL     OW25435   5.782   0.193   3.422
 8179SOL    HW125436   5.802   0.285   3.456
 8179SOL    HW225437   5.717   0.148   3.483
 8180SOL     OW25438   4.886   5.576   0.602
 8180SOL    HW125439   4.791   5.581   0.571
 8180SOL    HW225440   4.925   5.488   0.576
 8181SOL     OW25441   6.398   0.376   6.503
 8181SOL    HW125442   6.381   0.470   6.534
 8181SOL    HW225443   6.454   0.379   6.419
 8182SOL     OW25444   3.460   3.639   3.179
 8182SOL    HW125445   3.438   3.677   3.089
 8182SOL    HW225446   3.527   3.566   3.169
 8183SOL     OW25447   6.372   0.373   5.534
 8183SOL    HW125448   6.355   0.274   5.531
 8183SOL    HW225449   6.365   0.410   5.442
 8184SOL     OW25450   6.905   5.435   5.571
 8184SOL    HW125451   6.913   5.503   5.498
 8184SOL    HW225452   6.997   5.408   5.601
 8185SOL     OW25453   0.131   5.659   5.436
 8185SOL    HW125454   0.229   5.660   5.418
 8185SOL    HW225455   0.115   5.673   5.534
 8186SOL     OW25456   1.295   5.404   0.506
 8186SOL    HW125457   1.338   5.452   0.583
 8186SOL    HW225458   1.338   5.315   0.494
 8187SOL     OW25459   1.733   0.025   4.872
 8187SOL    HW125460   1.636   0.017   4.893
 8187SOL    HW225461   1.767   0.114   4.902
 8188SOL     OW25462   2.027   3.477   2.584
 8188SOL    HW125463   2.089   3.522   2.520
 8188SOL    HW225464   2.051   3.504   2.678
 8189SOL     OW25465   6.037   5.142   3.961
 8189SOL    HW125466   6.030   5.240   3.946
 8189SOL    HW225467   6.001   5.119   4.051
 8190SOL     OW25468   6.488   3.850   2.943
 8190SOL    HW125469   6.428   3.780   2.904
 8190SOL    HW225470   6.532   3.813   3.026
 8191SOL     OW25471   3.971   4.568   0.825
 8191SOL    HW125472   4.061   4.607   0.806
 8191SOL    HW225473   3.981   4.489   0.886
 8192SOL     OW25474   0.745   5.982   3.431
 8192SOL    HW125475   0.657   5.944   3.404
 8192SOL    HW225476   0.741   6.014   3.525
 8193SOL     OW25477   0.619   4.686   3.704
 8193SOL    HW125478   0.672   4.771   3.705
 8193SOL    HW225479   0.528   4.703   3.741
 8194SOL     OW25480   4.690   0.607   1.499
 8194SOL    HW125481   4.604   0.656   1.506
 8194SOL    HW225482   4.763   0.671   1.475
 8195SOL     OW25483   6.395   0.014   3.982
 8195SOL    HW125484   6.305   0.007   4.025
 8195SOL    HW225485   6.394   0.091   3.917
 8196SOL     OW25486   4.926   1.266   2.274
 8196SOL    HW125487   4.915   1.268   2.373
 8196SOL    HW225488   4.856   1.207   2.233
 8197SOL     OW25489   4.104   1.906   3.289
 8197SOL    HW125490   4.147   1.983   3.335
 8197SOL    HW225491   4.131   1.904   3.193
 8198SOL     OW25492   1.380   5.817   1.532
 8198SOL    HW125493   1.451   5.756   1.497
 8198SOL    HW225494   1.404   5.847   1.624
 8199SOL     OW25495   5.854   2.161   0.202
 8199SOL    HW125496   5.862   2.164   0.302
 8199SOL    HW225497   5.778   2.219   0.173
 8200SOL     OW25498   5.053   3.612   0.946
 8200SOL    HW125499   4.994   3.659   1.013
 8200SOL    HW225500   5.124   3.562   0.995
 8201SOL     OW25501   5.647   6.682   5.194
 8201SOL    HW125502   5.634   6.634   5.281
 8201SOL    HW225503   5.570   6.743   5.177
 8202SOL     OW25504   1.245   6.297   1.701
 8202SOL    HW125505   1.271   6.290   1.605
 8202SOL    HW225506   1.263   6.389   1.735
 8203SOL     OW25507   2.054   3.697   1.308
 8203SOL    HW125508   2.096   3.608   1.329
 8203SOL    HW225509   2.083   3.764   1.376
 8204SOL     OW25510   2.088   3.512   0.504
 8204SOL    HW125511   2.156   3.439   0.508
 8204SOL    HW225512   2.113   3.584   0.568
 8205SOL     OW25513   0.878   4.292   6.866
 8205SOL    HW125514   0.926   4.376   6.839
 8205SOL    HW225515   0.922   4.213   6.823
 8206SOL     OW25516   3.179   1.641   1.353
 8206SOL    HW125517   3.251   1.582   1.388
 8206SOL    HW225518   3.100   1.638   1.415
 8207SOL     OW25519   4.000   3.896   3.942
 8207SOL    HW125520   3.973   3.907   4.037
 8207SOL    HW225521   4.059   3.815   3.933
 8208SOL     OW25522   2.202   0.167   0.115
 8208SOL    HW125523   2.291   0.153   0.158
 8208SOL    HW225524   2.130   0.163   0.185
 8209SOL     OW25525   5.985   1.399   4.837
 8209SOL    HW125526   5.889   1.388   4.811
 8209SOL    HW225527   6.039   1.419   4.755
 8210SOL     OW25528   2.273   2.731   6.173
 8210SOL    HW125529   2.259   2.662   6.102
 8210SOL    HW225530   2.188   2.780   6.189
 8211SOL     OW25531   4.451   4.554   1.206
 8211SOL    HW125532   4.352   4.568   1.210
 8211SOL    HW225533   4.483   4.573   1.113
 8212SOL     OW25534   2.009   2.698   3.153
 8212SOL    HW125535   2.081   2.704   3.222
 8212SOL    HW225536   1.927   2.746   3.185
 8213SOL     OW25537   6.128   4.298   1.396
 8213SOL    HW125538   6.129   4.363   1.320
 8213SOL    HW225539   6.102   4.345   1.480
 8214SOL     OW25540   5.406   3.538   2.966
 8214SOL    HW125541   5.331   3.519   3.030
 8214SOL    HW225542   5.452   3.622   2.992
 8215SOL     OW25543   3.219   5.151   2.850
 8215SOL    HW125544   3.223   5.218   2.925
 8215SOL    HW225545   3.299   5.163   2.791
 8216SOL     OW25546   5.413   3.466   3.660
 8216SOL    HW125547   5.366   3.487   3.575
 8216SOL    HW225548   5.372   3.518   3.735
 8217SOL     OW25549   1.967   6.383   0.979
 8217SOL    HW125550   1.913   6.425   1.052
 8217SOL    HW225551   1.985   6.287   1.000
 8218SOL     OW25552   6.059   2.310   0.059
 8218SOL    HW125553   5.993   2.264   0.119
 8218SOL    HW225554   6.012   2.341   6.994
 8219SOL     OW25555   5.415   1.546   6.790
 8219SOL    HW125556   5.494   1.509   6.839
 8219SOL    HW225557   5.375   1.620   6.843
 8220SOL     OW25558   4.067   3.722   1.652
 8220SOL    HW125559   4.023   3.680   1.732
 8220SOL    HW225560   4.097   3.814   1.675
 8221SOL     OW25561   4.907   4.406   3.157
 8221SOL    HW125562   4.879   4.481   3.097
 8221SOL    HW225563   4.832   4.340   3.164
 8222SOL     OW25564   6.459   1.618   2.679
 8222SOL    HW125565   6.421   1.575   2.761
 8222SOL    HW225566   6.418   1.708   2.666
 8223SOL     OW25567   6.826   5.144   5.741
 8223SOL    HW125568   6.783   5.225   5.781
 8223SOL    HW225569   6.838   5.075   5.812
 8224SOL     OW25570   0.915   3.631   2.803
 8224SOL    HW125571   0.869   3.717   2.781
 8224SOL    HW225572   0.847   3.557   2.808
 8225SOL     OW25573   4.545   0.849   0.478
 8225SOL    HW125574   4.612   0.777   0.495
 8225SOL    HW225575   4.587   0.920   0.422
 8226SOL     OW25576   3.907   0.575   0.623
 8226SOL    HW125577   3.836   0.515   0.661
 8226SOL    HW225578   3.895   0.667   0.660
 8227SOL     OW25579   5.739   3.812   2.816
 8227SOL    HW125580   5.727   3.892   2.757
 8227SOL    HW225581   5.715   3.729   2.766
 8228SOL     OW25582   0.179   1.879   4.677
 8228SOL    HW125583   0.104   1.832   4.723
 8228SOL    HW225584   0.155   1.975   4.665
 8229SOL     OW25585   3.793   5.670   0.809
 8229SOL    HW125586   3.794   5.769   0.794
 8229SOL    HW225587   3.875   5.643   0.860
 8230SOL     OW25588   4.878   0.020   3.952
 8230SOL    HW125589   4.861   6.974   3.878
 8230SOL    HW225590   4.847   0.111   3.926
 8231SOL     OW25591   4.171   5.834   1.563
 8231SOL    HW125592   4.228   5.758   1.533
 8231SOL    HW225593   4.227   5.918   1.566
 8232SOL     OW25594   2.335   1.561   6.536
 8232SOL    HW125595   2.247   1.515   6.541
 8232SOL    HW225596   2.351   1.593   6.443
 8233SOL     OW25597   0.276   4.870   6.289
 8233SOL    HW125598   0.273   4.899   6.193
 8233SOL    HW225599   0.194   4.818   6.311
 8234SOL     OW25600   3.088   3.584   0.327
 8234SOL    HW125601   3.101   3.512   0.395
 8234SOL    HW225602   3.123   3.553   0.239
 8235SOL     OW25603   4.637   2.580   0.041
 8235SOL    HW125604   4.697   2.638   0.095
 8235SOL    HW225605   4.644   2.486   0.073
 8236SOL     OW25606   5.705   2.337   0.938
 8236SOL    HW125607   5.611   2.370   0.923
 8236SOL    HW225608   5.770   2.410   0.918
 8237SOL     OW25609   4.089   6.360   5.698
 8237SOL    HW125610   4.008   6.306   5.674
 8237SOL    HW225611   4.082   6.450   5.655
 8238SOL     OW25612   1.851   0.739   0.269
 8238SOL    HW125613   1.900   0.826   0.262
 8238SOL    HW225614   1.912   0.665   0.240
 8239SOL     OW25615   6.758   1.246   6.707
 8239SOL    HW125616   6.758   1.336   6.751
 8239SOL    HW225617   6.781   1.257   6.611
 8240SOL     OW25618   4.022   3.160   3.419
 8240SOL    HW125619   3.999   3.063   3.425
 8240SOL    HW225620   3.942   3.211   3.385
 8241SOL     OW25621   4.613   6.528   1.635
 8241SOL    HW125622   4.610   6.432   1.607
 8241SOL    HW225623   4.702   6.548   1.675
 8242SOL     OW25624   0.927   3.963   5.443
 8242SOL    HW125625   0.962   4.042   5.393
 8242SOL    HW225626   0.857   3.917   5.389
 8243SOL     OW25627   1.073   3.608   4.854
 8243SOL    HW125628   0.993   3.627   4.911
 8243SOL    HW225629   1.138   3.684   4.862
 8244SOL     OW25630   1.570   5.495   4.573
 8244SOL    HW125631   1.510   5.484   4.652
 8244SOL    HW225632   1.631   5.573   4.589
 8245SOL     OW25633   3.635   3.773   0.637
 8245SOL    HW125634   3.570   3.726   0.696
 8245SOL    HW225635   3.643   3.724   0.550
 8246SOL     OW25636   4.959   3.948   5.374
 8246SOL    HW125637   4.974   3.906   5.285
 8246SOL    HW225638   4.956   3.877   5.444
 8247SOL     OW25639   1.021   6.885   1.569
 8247SOL    HW125640   1.060   6.902   1.659
 8247SOL    HW225641   1.086   6.830   1.515
 8248SOL     OW25642   0.415   4.358   3.429
 8248SOL    HW125643   0.460   4.270   3.441
 8248SOL    HW225644   0.467   4.429   3.477
 8249SOL     OW25645   1.577   5.709   3.136
 8249SOL    HW125646   1.653   5.774   3.123
 8249SOL    HW225647   1.598   5.623   3.090
 8250SOL     OW25648   3.962   3.774   2.087
 8250SOL    HW125649   4.009   3.836   2.024
 8250SOL    HW225650   3.880   3.819   2.123
 8251SOL     OW25651   6.090   1.373   5.284
 8251SOL    HW125652   6.103   1.274   5.274
 8251SOL    HW225653   6.113   1.419   5.199
 8252SOL     OW25654   1.191   3.718   3.997
 8252SOL    HW125655   1.242   3.774   4.063
 8252SOL    HW225656   1.242   3.635   3.976
 8253SOL     OW25657   2.532   2.831   5.369
 8253SOL    HW125658   2.631   2.823   5.357
 8253SOL    HW225659   2.500   2.915   5.325
 8254SOL     OW25660   4.157   5.615   3.503
 8254SOL    HW125661   4.118   5.579   3.418
 8254SOL    HW225662   4.147   5.547   3.575
 8255SOL     OW25663   3.917   4.970   3.900
 8255SOL    HW125664   3.988   4.964   3.829
 8255SOL    HW225665   3.954   4.938   3.987
 8256SOL     OW25666   6.301   2.556   4.196
 8256SOL    HW125667   6.204   2.538   4.208
 8256SOL    HW225668   6.318   2.654   4.198
 8257SOL     OW25669   6.403   4.199   4.972
 8257SOL    HW125670   6.316   4.218   4.925
 8257SOL    HW225671   6.473   4.262   4.940
 8258SOL     OW25672   5.107   1.157   0.107
 8258SOL    HW125673   5.141   1.167   0.200
 8258SOL    HW225674   5.134   1.237   0.052
 8259SOL     OW25675   3.967   1.097   1.409
 8259SOL    HW125676   3.918   1.011   1.403
 8259SOL    HW225677   4.046   1.086   1.470
 8260SOL     OW25678   2.654   6.002   0.500
 8260SOL    HW125679   2.627   6.002   0.404
 8260SOL    HW225680   2.750   6.029   0.509
 8261SOL     OW25681   5.268   0.899   1.882
 8261SOL    HW125682   5.237   0.994   1.876
 8261SOL    HW225683   5.340   0.883   1.814
 8262SOL     OW25684   0.937   1.952   0.586
 8262SOL    HW125685   1.000   2.001   0.526
 8262SOL    HW225686   0.855   2.007   0.600
 8263SOL     OW25687   5.985   1.409   0.495
 8263SOL    HW125688   5.972   1.507   0.485
 8263SOL    HW225689   5.937   1.378   0.577
 8264SOL     OW25690   1.755   4.544   2.520
 8264SOL    HW125691   1.656   4.545   2.534
 8264SOL    HW225692   1.791   4.453   2.540
 8265SOL     OW25693   1.818   1.022   2.437
 8265SOL    HW125694   1.882   0.972   2.496
 8265SOL    HW225695   1.734   0.969   2.426
 8266SOL     OW25696   2.888   0.377   3.065
 8266SOL    HW125697   2.794   0.345   3.050
 8266SOL    HW225698   2.903   0.461   3.014
 8267SOL     OW25699   0.434   3.740   0.562
 8267SOL    HW125700   0.513   3.682   0.541
 8267SOL    HW225701   0.465   3.825   0.604
 8268SOL     OW25702   3.460   5.845   6.400
 8268SOL    HW125703   3.538   5.784   6.410
 8268SOL    HW225704   3.479   5.931   6.447
 8269SOL     OW25705   6.186   1.991   1.052
 8269SOL    HW125706   6.254   2.048   1.097
 8269SOL    HW225707   6.178   1.904   1.102
 8270SOL     OW25708   3.652   6.472   4.259
 8270SOL    HW125709   3.601   6.413   4.321
 8270SOL    HW225710   3.604   6.479   4.172
 8271SOL     OW25711   6.493   2.278   2.221
 8271SOL    HW125712   6.557   2.201   2.230
 8271SOL    HW225713   6.531   2.359   2.266
 8272SOL     OW25714   3.895   1.367   4.280
 8272SOL    HW125715   3.807   1.387   4.237
 8272SOL    HW225716   3.965   1.429   4.244
 8273SOL     OW25717   1.939   6.751   1.216
 8273SOL    HW125718   1.885   6.669   1.196
 8273SOL    HW225719   1.878   6.828   1.235
 8274SOL     OW25720   5.300   4.072   3.655
 8274SOL    HW125721   5.232   4.060   3.582
 8274SOL    HW225722   5.355   4.154   3.636
 8275SOL     OW25723   4.696   2.095   6.587
 8275SOL    HW125724   4.711   1.999   6.612
 8275SOL    HW225725   4.632   2.100   6.511
 8276SOL     OW25726   0.023   1.809   3.106
 8276SOL    HW125727   0.108   1.854   3.134
 8276SOL    HW225728   0.045   1.726   3.055
 8277SOL     OW25729   6.268   0.522   6.737
 8277SOL    HW125730   6.298   0.541   6.831
 8277SOL    HW225731   6.241   0.426   6.729
 8278SOL     OW25732   1.830   2.674   6.496
 8278SOL    HW125733   1.740   2.666   6.453
 8278SOL    HW225734   1.818   2.702   6.592
 8279SOL     OW25735   0.145   6.092   3.860
 8279SOL    HW125736   0.106   6.056   3.775
 8279SOL    HW225737   0.100   6.178   3.884
 8280SOL     OW25738   3.322   1.850   6.087
 8280SOL    HW125739   3.241   1.900   6.055
 8280SOL    HW225740   3.298   1.755   6.104
 8281SOL     OW25741   5.686   5.754   2.291
 8281SOL    HW125742   5.655   5.692   2.363
 8281SOL    HW225743   5.775   5.791   2.315
 8282SOL     OW25744   5.751   2.857   6.344
 8282SOL    HW125745   5.741   2.934   6.407
 8282SOL    HW225746   5.846   2.852   6.312
 8283SOL     OW25747   2.125   2.812   5.829
 8283SOL    HW125748   2.199   2.797   5.894
 8283SOL    HW225749   2.130   2.906   5.794
 8284SOL     OW25750   6.299   3.938   1.868
 8284SOL    HW125751   6.258   3.852   1.839
 8284SOL    HW225752   6.315   3.936   1.967
 8285SOL     OW25753   3.959   3.726   4.232
 8285SOL    HW125754   3.901   3.805   4.209
 8285SOL    HW225755   4.045   3.758   4.271
 8286SOL     OW25756   6.800   1.529   6.245
 8286SOL    HW125757   6.835   1.622   6.239
 8286SOL    HW225758   6.772   1.498   6.155
 8287SOL     OW25759   1.527   5.798   4.290
 8287SOL    HW125760   1.467   5.723   4.318
 8287SOL    HW225761   1.474   5.883   4.288
 8288SOL     OW25762   2.748   2.318   2.955
 8288SOL    HW125763   2.843   2.340   2.973
 8288SOL    HW225764   2.721   2.239   3.011
 8289SOL     OW25765   0.121   5.961   6.409
 8289SOL    HW125766   0.197   5.904   6.439
 8289SOL    HW225767   0.044   5.951   6.472
 8290SOL     OW25768   6.802   2.681   0.714
 8290SOL    HW125769   6.835   2.729   0.632
 8290SOL    HW225770   6.879   2.642   0.763
 8291SOL     OW25771   3.986   0.083   1.216
 8291SOL    HW125772   4.056   0.087   1.144
 8291SOL    HW225773   3.897   0.104   1.176
 8292SOL     OW25774   2.760   6.908   6.214
 8292SOL    HW125775   2.789   6.986   6.158
 8292SOL    HW225776   2.696   6.852   6.163
 8293SOL     OW25777   5.589   5.967   5.114
 8293SOL    HW125778   5.671   5.920   5.148
 8293SOL    HW225779   5.521   5.971   5.187
 8294SOL     OW25780   5.289   2.408   0.144
 8294SOL    HW125781   5.347   2.469   0.090
 8294SOL    HW225782   5.336   2.321   0.158
 8295SOL     OW25783   4.501   3.833   0.196
 8295SOL    HW125784   4.581   3.776   0.177
 8295SOL    HW225785   4.505   3.864   0.291
 8296SOL     OW25786   1.111   5.149   6.615
 8296SOL    HW125787   1.034   5.200   6.653
 8296SOL    HW225788   1.147   5.196   6.534
 8297SOL     OW25789   0.927   2.501   3.760
 8297SOL    HW125790   0.965   2.575   3.816
 8297SOL    HW225791   0.992   2.425   3.757
 8298SOL     OW25792   4.731   1.472   1.760
 8298SOL    HW125793   4.753   1.496   1.854
 8298SOL    HW225794   4.814   1.475   1.704
 8299SOL     OW25795   6.570   2.203   1.558
 8299SOL    HW125796   6.503   2.171   1.492
 8299SOL    HW225797   6.644   2.136   1.565
 8300SOL     OW25798   0.957   4.657   3.428
 8300SOL    HW125799   0.969   4.566   3.387
 8300SOL    HW225800   1.042   4.709   3.419
 8301SOL     OW25801   3.543   2.924   6.849
 8301SOL    HW125802   3.614   2.864   6.886
 8301SOL    HW225803   3.463   2.870   6.823
 8302SOL     OW25804   5.375   5.714   6.001
 8302SOL    HW125805   5.335   5.789   6.053
 8302SOL    HW225806   5.467   5.739   5.972
 8303SOL     OW25807   0.188   0.552   6.306
 8303SOL    HW125808   0.270   0.505   6.340
 8303SOL    HW225809   0.172   0.526   6.211
 8304SOL     OW25810   0.201   3.041   6.932
 8304SOL    HW125811   0.275   3.108   6.927
 8304SOL    HW225812   0.239   2.950   6.915
 8305SOL     OW25813   3.224   5.883   3.527
 8305SOL    HW125814   3.202   5.845   3.438
 8305SOL    HW225815   3.167   5.840   3.597
 8306SOL     OW25816   0.932   3.439   3.966
 8306SOL    HW125817   0.895   3.524   3.928
 8306SOL    HW225818   0.967   3.456   4.058
 8307SOL     OW25819   2.754   5.584   1.052
 8307SOL    HW125820   2.687   5.618   1.118
 8307SOL    HW225821   2.845   5.620   1.076
 8308SOL     OW25822   3.473   0.501   3.079
 8308SOL    HW125823   3.392   0.505   3.137
 8308SOL    HW225824   3.537   0.574   3.104
 8309SOL     OW25825   5.930   6.069   1.791
 8309SOL    HW125826   5.856   6.104   1.734
 8309SOL    HW225827   5.903   6.071   1.887
 8310SOL     OW25828   6.730   4.674   6.977
 8310SOL    HW125829   6.643   4.645   7.016
 8310SOL    HW225830   6.803   4.616   7.011
 8311SOL     OW25831   6.027   0.511   0.026
 8311SOL    HW125832   6.082   0.555   0.097
 8311SOL    HW225833   5.931   0.510   0.054
 8312SOL     OW25834   5.423   6.675   1.288
 8312SOL    HW125835   5.421   6.663   1.189
 8312SOL    HW225836   5.330   6.670   1.324
 8313SOL     OW25837   3.288   1.631   2.872
 8313SOL    HW125838   3.320   1.722   2.900
 8313SOL    HW225839   3.275   1.574   2.953
 8314SOL     OW25840   6.870   6.730   3.528
 8314SOL    HW125841   6.924   6.646   3.533
 8314SOL    HW225842   6.875   6.777   3.617
 8315SOL     OW25843   5.119   4.760   6.590
 8315SOL    HW125844   5.174   4.816   6.652
 8315SOL    HW225845   5.026   4.753   6.625
 8316SOL     OW25846   2.579   5.858   6.650
 8316SOL    HW125847   2.641   5.843   6.727
 8316SOL    HW225848   2.532   5.946   6.662
 8317SOL     OW25849   1.978   4.719   2.317
 8317SOL    HW125850   2.057   4.779   2.302
 8317SOL    HW225851   1.955   4.672   2.232
 8318SOL     OW25852   3.764   1.034   5.536
 8318SOL    HW125853   3.762   0.986   5.623
 8318SOL    HW225854   3.770   1.133   5.552
 8319SOL     OW25855   3.626   0.693   4.764
 8319SOL    HW125856   3.651   0.773   4.817
 8319SOL    HW225857   3.626   0.716   4.666
 8320SOL     OW25858   4.141   4.590   1.762
 8320SOL    HW125859   4.187   4.510   1.724
 8320SOL    HW225860   4.043   4.582   1.750
 8321SOL     OW25861   0.514   0.826   1.312
 8321SOL    HW125862   0.432   0.865   1.354
 8321SOL    HW225863   0.563   0.898   1.262
 8322SOL     OW25864   5.953   6.806   0.307
 8322SOL    HW125865   5.982   6.733   0.369
 8322SOL    HW225866   5.853   6.808   0.302
 8323SOL     OW25867   1.667   2.173   1.782
 8323SOL    HW125868   1.620   2.154   1.696
 8323SOL    HW225869   1.699   2.087   1.822
 8324SOL     OW25870   6.979   1.458   2.070
 8324SOL    HW125871   6.939   1.452   2.162
 8324SOL    HW225872   0.058   1.438   2.075
 8325SOL     OW25873   2.941   3.553   3.755
 8325SOL    HW125874   3.040   3.546   3.766
 8325SOL    HW225875   2.919   3.641   3.713
 8326SOL     OW25876   3.164   3.369   6.071
 8326SOL    HW125877   3.186   3.286   6.020
 8326SOL    HW225878   3.243   3.431   6.069
 8327SOL     OW25879   4.692   1.757   5.487
 8327SOL    HW125880   4.757   1.796   5.552
 8327SOL    HW225881   4.601   1.756   5.527
 8328SOL     OW25882   2.756   2.421   5.127
 8328SOL    HW125883   2.806   2.500   5.163
 8328SOL    HW225884   2.665   2.449   5.099
 8329SOL     OW25885   6.963   2.431   5.155
 8329SOL    HW125886   0.022   2.370   5.136
 8329SOL    HW225887   6.992   2.501   5.221
 8330SOL     OW25888   3.068   6.699   0.431
 8330SOL    HW125889   3.152   6.731   0.388
 8330SOL    HW225890   2.995   6.694   0.362
 8331SOL     OW25891   2.551   0.031   0.925
 8331SOL    HW125892   2.579   6.963   0.884
 8331SOL    HW225893   2.455   0.049   0.902
 8332SOL     OW25894   5.012   5.793   2.799
 8332SOL    HW125895   5.024   5.870   2.861
 8332SOL    HW225896   4.924   5.749   2.816
 8333SOL     OW25897   1.214   6.002   6.092
 8333SOL    HW125898   1.173   6.076   6.039
 8333SOL    HW225899   1.144   5.938   6.120
 8334SOL     OW25900   5.876   0.711   3.807
 8334SOL    HW125901   5.884   0.752   3.717
 8334SOL    HW225902   5.959   0.728   3.859
 8335SOL     OW25903   5.612   6.596   5.470
 8335SOL    HW125904   5.704   6.568   5.500
 8335SOL    HW225905   5.563   6.636   5.547
 8336SOL     OW25906   0.467   2.167   2.275
 8336SOL    HW125907   0.378   2.133   2.244
 8336SOL    HW225908   0.516   2.208   2.198
 8337SOL     OW25909   0.656   6.295   2.198
 8337SOL    HW125910   0.753   6.279   2.219
 8337SOL    HW225911   0.606   6.209   2.205
 8338SOL     OW25912   1.578   4.889   0.537
 8338SOL    HW125913   1.660   4.942   0.516
 8338SOL    HW225914   1.537   4.856   0.452
 8339SOL     OW25915   5.666   0.861   2.696
 8339SOL    HW125916   5.703   0.803   2.768
 8339SOL    HW225917   5.601   0.808   2.641
 8340SOL     OW25918   4.710   3.067   0.952
 8340SOL    HW125919   4.781   3.009   0.992
 8340SOL    HW225920   4.686   3.140   1.016
 8341SOL     OW25921   2.071   0.101   1.256
 8341SOL    HW125922   2.151   0.154   1.285
 8341SOL    HW225923   2.101   0.011   1.225
 8342SOL     OW25924   4.283   0.634   1.531
 8342SOL    HW125925   4.224   0.715   1.532
 8342SOL    HW225926   4.369   0.656   1.484
 8343SOL     OW25927   1.594   4.970   5.896
 8343SOL    HW125928   1.569   4.903   5.966
 8343SOL    HW225929   1.665   5.030   5.932
 8344SOL     OW25930   3.939   0.347   5.378
 8344SOL    HW125931   3.924   0.258   5.335
 8344SOL    HW225932   3.961   0.415   5.308
 8345SOL     OW25933   6.518   1.420   2.461
 8345SOL    HW125934   6.490   1.330   2.494
 8345SOL    HW225935   6.511   1.486   2.536
 8346SOL     OW25936   3.098   5.442   1.648
 8346SOL    HW125937   3.110   5.384   1.729
 8346SOL    HW225938   3.107   5.387   1.565
 8347SOL     OW25939   3.244   5.200   3.875
 8347SOL    HW125940   3.233   5.285   3.927
 8347SOL    HW225941   3.293   5.219   3.790
 8348SOL     OW25942   1.130   0.414   0.436
 8348SOL    HW125943   1.082   0.501   0.426
 8348SOL    HW225944   1.074   0.340   0.398
 8349SOL     OW25945   5.866   5.304   1.616
 8349SOL    HW125946   5.937   5.267   1.555
 8349SOL    HW225947   5.871   5.404   1.615
 8350SOL     OW25948   6.581   0.665   4.944
 8350SOL    HW125949   6.544   0.667   4.851
 8350SOL    HW225950   6.536   0.593   4.997
 8351SOL     OW25951   2.937   6.369   2.122
 8351SOL    HW125952   2.889   6.371   2.034
 8351SOL    HW225953   2.895   6.300   2.181
 8352SOL     OW25954   6.885   6.308   1.295
 8352SOL    HW125955   6.960   6.371   1.274
 8352SOL    HW225956   6.894   6.277   1.390
 8353SOL     OW25957   0.413   3.649   2.196
 8353SOL    HW125958   0.430   3.680   2.290
 8353SOL    HW225959   0.433   3.552   2.189
 8354SOL     OW25960   2.393   0.677   0.476
 8354SOL    HW125961   2.378   0.588   0.434
 8354SOL    HW225962   2.393   0.748   0.406
 8355SOL     OW25963   3.173   1.213   0.504
 8355SOL    HW125964   3.094   1.159   0.476
 8355SOL    HW225965   3.143   1.304   0.533
 8356SOL     OW25966   2.006   5.521   0.229
 8356SOL    HW125967   2.069   5.537   0.305
 8356SOL    HW225968   2.000   5.604   0.173
 8357SOL     OW25969   4.863   5.382   4.240
 8357SOL    HW125970   4.868   5.480   4.261
 8357SOL    HW225971   4.912   5.364   4.155
 8358SOL     OW25972   2.614   1.964   5.443
 8358SOL    HW125973   2.684   2.027   5.409
 8358SOL    HW225974   2.624   1.954   5.542
 8359SOL     OW25975   4.714   4.993   3.926
 8359SOL    HW125976   4.769   4.989   4.010
 8359SOL    HW225977   4.683   4.901   3.902
 8360SOL     OW25978   4.855   0.148   3.410
 8360SOL    HW125979   4.826   0.176   3.318
 8360SOL    HW225980   4.796   0.193   3.478
 8361SOL     OW25981   1.806   0.856   2.826
 8361SOL    HW125982   1.876   0.922   2.798
 8361SOL    HW225983   1.821   0.829   2.921
 8362SOL     OW25984   2.553   3.247   0.509
 8362SOL    HW125985   2.551   3.207   0.418
 8362SOL    HW225986   2.618   3.324   0.510
 8363SOL     OW25987   0.247   3.606   0.703
 8363SOL    HW125988   0.280   3.515   0.729
 8363SOL    HW225989   0.304   3.642   0.629
 8364SOL     OW25990   6.723   4.896   4.232
 8364SOL    HW125991   6.766   4.953   4.162
 8364SOL    HW225992   6.624   4.895   4.218
 8365SOL     OW25993   2.031   3.620   6.059
 8365SOL    HW125994   2.067   3.622   6.152
 8365SOL    HW225995   2.037   3.711   6.018
 8366SOL     OW25996   3.053   6.859   3.506
 8366SOL    HW125997   3.140   6.809   3.512
 8366SOL    HW225998   3.060   6.944   3.557
 8367SOL     OW25999   5.459   5.681   3.943
 8367SOL    HW126000   5.399   5.753   3.977
 8367SOL    HW226001   5.554   5.708   3.952
 8368SOL     OW26002   3.171   5.435   6.763
 8368SOL    HW126003   3.077   5.467   6.761
 8368SOL    HW226004   3.208   5.436   6.670
 8369SOL     OW26005   2.412   1.374   1.369
 8369SOL    HW126006   2.466   1.458   1.366
 8369SOL    HW226007   2.347   1.374   1.292
 8370SOL     OW26008   1.491   1.640   6.933
 8370SOL    HW126009   1.443   1.624   0.001
 8370SOL    HW226010   1.425   1.655   6.860
 8371SOL     OW26011   2.273   3.280   0.558
 8371SOL    HW126012   2.370   3.261   0.543
 8371SOL    HW226013   2.260   3.316   0.650
 8372SOL     OW26014   0.066   0.663   1.628
 8372SOL    HW126015   0.065   0.630   1.533
 8372SOL    HW226016   0.096   0.759   1.629
 8373SOL     OW26017   1.843   6.836   5.002
 8373SOL    HW126018   1.823   6.913   4.942
 8373SOL    HW226019   1.759   6.786   5.023
 8374SOL     OW26020   6.191   0.196   6.424
 8374SOL    HW126021   6.113   0.238   6.379
 8374SOL    HW226022   6.246   0.266   6.469
 8375SOL     OW26023   4.102   0.905   6.554
 8375SOL    HW126024   4.008   0.936   6.566
 8375SOL    HW226025   4.105   0.837   6.481
 8376SOL     OW26026   4.082   0.482   4.694
 8376SOL    HW126027   4.000   0.461   4.641
 8376SOL    HW226028   4.130   0.398   4.718
 8377SOL     OW26029   5.669   4.569   0.469
 8377SOL    HW126030   5.720   4.493   0.508
 8377SOL    HW226031   5.609   4.609   0.538
 8378SOL     OW26032   4.836   2.983   3.692
 8378SOL    HW126033   4.746   2.953   3.661
 8378SOL    HW226034   4.901   2.907   3.684
 8379SOL     OW26035   5.422   2.047   1.953
 8379SOL    HW126036   5.334   2.002   1.934
 8379SOL    HW226037   5.488   2.022   1.883
 8380SOL     OW26038   5.373   1.689   3.226
 8380SOL    HW126039   5.386   1.773   3.279
 8380SOL    HW226040   5.434   1.690   3.147
 8381SOL     OW26041   2.243   5.441   4.353
 8381SOL    HW126042   2.270   5.410   4.261
 8381SOL    HW226043   2.195   5.367   4.400
 8382SOL     OW26044   0.948   3.510   2.366
 8382SOL    HW126045   1.021   3.456   2.408
 8382SOL    HW226046   0.896   3.453   2.303
 8383SOL     OW26047   3.559   1.851   6.475
 8383SOL    HW126048   3.508   1.767   6.493
 8383SOL    HW226049   3.572   1.901   6.560
 8384SOL     OW26050   0.669   6.529   1.507
 8384SOL    HW126051   0.599   6.599   1.493
 8384SOL    HW226052   0.738   6.536   1.435
 8385SOL     OW26053   4.825   2.345   0.703
 8385SOL    HW126054   4.823   2.444   0.715
 8385SOL    HW226055   4.803   2.301   0.790
 8386SOL     OW26056   1.217   4.461   2.553
 8386SOL    HW126057   1.176   4.422   2.471
 8386SOL    HW226058   1.185   4.410   2.633
 8387SOL     OW26059   0.833   1.714   0.946
 8387SOL    HW126060   0.794   1.788   0.892
 8387SOL    HW226061   0.788   1.710   1.035
 8388SOL     OW26062   0.933   6.596   2.816
 8388SOL    HW126063   0.930   6.631   2.722
 8388SOL    HW226064   1.013   6.633   2.863
 8389SOL     OW26065   5.344   2.309   2.701
 8389SOL    HW126066   5.427   2.256   2.684
 8389SOL    HW226067   5.349   2.352   2.791
 8390SOL     OW26068   5.690   1.783   6.010
 8390SOL    HW126069   5.677   1.806   6.106
 8390SOL    HW226070   5.708   1.685   6.001
 8391SOL     OW26071   6.194   6.808   1.285
 8391SOL    HW126072   6.173   6.906   1.277
 8391SOL    HW226073   6.145   6.769   1.362
 8392SOL     OW26074   4.920   3.238   5.891
 8392SOL    HW126075   4.874   3.310   5.840
 8392SOL    HW226076   4.853   3.187   5.945
 8393SOL     OW26077   5.475   6.826   1.782
 8393SOL    HW126078   5.406   6.768   1.739
 8393SOL    HW226079   5.471   6.815   1.881
 8394SOL     OW26080   5.670   2.733   2.410
 8394SOL    HW126081   5.571   2.731   2.404
 8394SOL    HW226082   5.703   2.826   2.392
 8395SOL     OW26083   2.529   1.227   5.017
 8395SOL    HW126084   2.454   1.177   4.974
 8395SOL    HW226085   2.615   1.204   4.971
 8396SOL     OW26086   4.759   5.622   4.769
 8396SOL    HW126087   4.695   5.698   4.774
 8396SOL    HW226088   4.796   5.615   4.676
 8397SOL     OW26089   6.223   0.630   3.343
 8397SOL    HW126090   6.284   0.572   3.288
 8397SOL    HW226091   6.149   0.573   3.381
 8398SOL     OW26092   5.005   2.351   6.051
 8398SOL    HW126093   5.094   2.345   6.095
 8398SOL    HW226094   4.947   2.416   6.100
 8399SOL     OW26095   0.338   4.461   1.084
 8399SOL    HW126096   0.253   4.445   1.035
 8399SOL    HW226097   0.414   4.421   1.033
 8400SOL     OW26098   1.568   1.442   4.655
 8400SOL    HW126099   1.485   1.474   4.609
 8400SOL    HW226100   1.645   1.447   4.591
 8401SOL     OW26101   2.362   6.982   5.685
 8401SOL    HW126102   2.323   6.973   5.777
 8401SOL    HW226103   2.423   0.043   5.684
 8402SOL     OW26104   3.391   0.728   6.418
 8402SOL    HW126105   3.294   0.704   6.411
 8402SOL    HW226106   3.444   0.647   6.444
 8403SOL     OW26107   5.712   4.606   4.868
 8403SOL    HW126108   5.714   4.541   4.944
 8403SOL    HW226109   5.649   4.574   4.798
 8404SOL     OW26110   0.842   1.640   6.299
 8404SOL    HW126111   0.892   1.592   6.227
 8404SOL    HW226112   0.895   1.637   6.384
 8405SOL     OW26113   4.415   0.440   5.717
 8405SOL    HW126114   4.467   0.475   5.639
 8405SOL    HW226115   4.334   0.390   5.684
 8406SOL     OW26116   5.333   0.100   6.397
 8406SOL    HW126117   5.389   0.020   6.378
 8406SOL    HW226118   5.350   0.131   6.490
 8407SOL     OW26119   3.937   0.256   4.367
 8407SOL    HW126120   3.849   0.296   4.393
 8407SOL    HW226121   3.945   0.254   4.268
 8408SOL     OW26122   3.858   1.427   1.655
 8408SOL    HW126123   3.811   1.491   1.717
 8408SOL    HW226124   3.884   1.475   1.571
 8409SOL     OW26125   4.387   2.389   2.161
 8409SOL    HW126126   4.407   2.392   2.259
 8409SOL    HW226127   4.330   2.310   2.141
 8410SOL     OW26128   6.803   1.812   1.848
 8410SOL    HW126129   6.875   1.743   1.836
 8410SOL    HW226130   6.736   1.780   1.915
 8411SOL     OW26131   1.038   6.430   1.073
 8411SOL    HW126132   1.089   6.511   1.045
 8411SOL    HW226133   1.072   6.350   1.024
 8412SOL     OW26134   2.608   1.798   6.915
 8412SOL    HW126135   2.574   1.854   6.991
 8412SOL    HW226136   2.538   1.793   6.844
 8413SOL     OW26137   3.975   5.459   4.407
 8413SOL    HW126138   3.913   5.518   4.458
 8413SOL    HW226139   3.938   5.366   4.402
 8414SOL     OW26140   1.276   0.375   1.049
 8414SOL    HW126141   1.298   0.362   0.952
 8414SOL    HW226142   1.243   0.469   1.063
 8415SOL     OW26143   2.858   1.340   5.941
 8415SOL    HW126144   2.929   1.303   6.002
 8415SOL    HW226145   2.818   1.422   5.982
 8416SOL     OW26146   6.650   2.207   5.580
 8416SOL    HW126147   6.603   2.135   5.631
 8416SOL    HW226148   6.667   2.176   5.487
 8417SOL     OW26149   1.829   3.409   6.089
 8417SOL    HW126150   1.841   3.310   6.090
 8417SOL    HW226151   1.911   3.453   6.125
 8418SOL     OW26152   0.715   6.043   2.031
 8418SOL    HW126153   0.813   6.023   2.028
 8418SOL    HW226154   0.675   6.029   1.940
 8419SOL     OW26155   4.484   2.014   4.021
 8419SOL    HW126156   4.394   1.995   3.982
 8419SOL    HW226157   4.512   1.938   4.079
 8420SOL     OW26158   3.204   0.843   1.966
 8420SOL    HW126159   3.225   0.818   1.872
 8420SOL    HW226160   3.129   0.786   2.000
 8421SOL     OW26161   4.788   6.851   6.414
 8421SOL    HW126162   4.800   6.765   6.463
 8421SOL    HW226163   4.768   6.831   6.318
 8422SOL     OW26164   5.225   2.571   3.713
 8422SOL    HW126165   5.252   2.661   3.745
 8422SOL    HW226166   5.144   2.579   3.655
 8423SOL     OW26167   6.837   5.233   0.190
 8423SOL    HW126168   6.746   5.222   0.150
 8423SOL    HW226169   6.837   5.314   0.249
 8424SOL     OW26170   3.504   0.323   4.885
 8424SOL    HW126171   3.492   0.422   4.894
 8424SOL    HW226172   3.534   0.284   4.972
 8425SOL     OW26173   3.436   4.129   1.942
 8425SOL    HW126174   3.419   4.031   1.956
 8425SOL    HW226175   3.429   4.177   2.030
 8426SOL     OW26176   4.109   3.006   1.775
 8426SOL    HW126177   4.056   3.046   1.850
 8426SOL    HW226178   4.081   3.047   1.688
 8427SOL     OW26179   3.843   3.607   3.801
 8427SOL    HW126180   3.778   3.683   3.797
 8427SOL    HW226181   3.912   3.627   3.871
 8428SOL     OW26182   6.036   7.010   1.657
 8428SOL    HW126183   5.939   7.006   1.633
 8428SOL    HW226184   6.048   0.048   1.739
 8429SOL     OW26185   3.062   5.817   5.113
 8429SOL    HW126186   3.063   5.717   5.113
 8429SOL    HW226187   3.138   5.851   5.057
 8430SOL     OW26188   4.828   0.054   4.972
 8430SOL    HW126189   4.872   0.138   4.941
 8430SOL    HW226190   4.730   0.068   4.979
 8431SOL     OW26191   2.038   3.829   5.914
 8431SOL    HW126192   1.957   3.808   5.859
 8431SOL    HW226193   2.113   3.859   5.855
 8432SOL     OW26194   6.129   5.367   6.176
 8432SOL    HW126195   6.040   5.357   6.220
 8432SOL    HW226196   6.117   5.368   6.076
 8433SOL     OW26197   5.629   1.960   0.928
 8433SOL    HW126198   5.651   2.008   0.843
 8433SOL    HW226199   5.628   2.025   1.004
 8434SOL     OW26200   2.621   5.443   4.750
 8434SOL    HW126201   2.665   5.415   4.835
 8434SOL    HW226202   2.586   5.363   4.703
 8435SOL     OW26203   5.577   1.676   3.052
 8435SOL    HW126204   5.675   1.666   3.034
 8435SOL    HW226205   5.527   1.667   2.966
 8436SOL     OW26206   2.334   5.762   2.058
 8436SOL    HW126207   2.402   5.702   2.099
 8436SOL    HW226208   2.371   5.803   1.975
 8437SOL     OW26209   0.666   5.458   1.688
 8437SOL    HW126210   0.698   5.379   1.636
 8437SOL    HW226211   0.587   5.498   1.643
 8438SOL     OW26212   0.481   3.706   2.459
 8438SOL    HW126213   0.577   3.691   2.434
 8438SOL    HW226214   0.476   3.751   2.548
 8439SOL     OW26215   6.270   4.438   2.385
 8439SOL    HW126216   6.297   4.513   2.446
 8439SOL    HW226217   6.280   4.351   2.432
 8440SOL     OW26218   1.854   2.391   2.604
 8440SOL    HW126219   1.869   2.326   2.529
 8440SOL    HW226220   1.916   2.370   2.679
 8441SOL     OW26221   6.884   1.788   6.128
 8441SOL    HW126222   6.961   1.848   6.150
 8441SOL    HW226223   6.820   1.837   6.069
 8442SOL     OW26224   3.842   2.128   6.665
 8442SOL    HW126225   3.775   2.057   6.688
 8442SOL    HW226226   3.912   2.133   6.737
 8443SOL     OW26227   1.621   4.267   2.769
 8443SOL    HW126228   1.683   4.202   2.725
 8443SOL    HW226229   1.529   4.228   2.772
 8444SOL     OW26230   5.444   5.186   5.340
 8444SOL    HW126231   5.516   5.201   5.272
 8444SOL    HW226232   5.458   5.097   5.383
 8445SOL     OW26233   4.345   6.315   6.579
 8445SOL    HW126234   4.272   6.318   6.647
 8445SOL    HW226235   4.325   6.245   6.511
 8446SOL     OW26236   6.453   5.101   4.777
 8446SOL    HW126237   6.547   5.129   4.761
 8446SOL    HW226238   6.444   5.063   4.869
 8447SOL     OW26239   4.310   1.349   3.644
 8447SOL    HW126240   4.371   1.425   3.667
 8447SOL    HW226241   4.347   1.264   3.682
 8448SOL     OW26242   3.444   6.082   3.342
 8448SOL    HW126243   3.487   5.995   3.369
 8448SOL    HW226244   3.503   6.129   3.277
 8449SOL     OW26245   2.087   2.290   3.533
 8449SOL    HW126246   2.000   2.337   3.525
 8449SOL    HW226247   2.161   2.357   3.542
 8450SOL     OW26248   0.214   1.284   6.844
 8450SOL    HW126249   0.227   1.267   6.746
 8450SOL    HW226250   0.300   1.314   6.884
 8451SOL     OW26251   3.855   2.390   0.945
 8451SOL    HW126252   3.797   2.463   0.908
 8451SOL    HW226253   3.822   2.365   1.036
 8452SOL     OW26254   4.936   1.383   5.923
 8452SOL    HW126255   4.849   1.334   5.916
 8452SOL    HW226256   4.920   1.474   5.959
 8453SOL     OW26257   6.928   6.337   0.258
 8453SOL    HW126258   6.914   6.380   0.347
 8453SOL    HW226259   6.840   6.323   0.213
 8454SOL     OW26260   6.100   4.420   6.753
 8454SOL    HW126261   6.152   4.348   6.707
 8454SOL    HW226262   6.079   4.493   6.689
 8455SOL     OW26263   6.836   1.343   2.602
 8455SOL    HW126264   6.830   1.395   2.518
 8455SOL    HW226265   6.781   1.387   2.673
 8456SOL     OW26266   6.673   0.078   2.764
 8456SOL    HW126267   6.700   0.172   2.783
 8456SOL    HW226268   6.749   0.016   2.786
 8457SOL     OW26269   0.129   6.682   5.202
 8457SOL    HW126270   0.192   6.638   5.266
 8457SOL    HW226271   0.035   6.669   5.233
 8458SOL     OW26272   0.616   6.724   6.414
 8458SOL    HW126273   0.570   6.695   6.330
 8458SOL    HW226274   0.695   6.781   6.390
 8459SOL     OW26275   1.469   6.099   3.693
 8459SOL    HW126276   1.463   6.031   3.766
 8459SOL    HW226277   1.435   6.187   3.727
 8460SOL     OW26278   3.913   3.688   3.505
 8460SOL    HW126279   3.875   3.642   3.585
 8460SOL    HW226280   3.983   3.754   3.534
 8461SOL     OW26281   6.673   3.520   3.494
 8461SOL    HW126282   6.581   3.556   3.477
 8461SOL    HW226283   6.667   3.439   3.552
 8462SOL     OW26284   2.313   2.856   1.700
 8462SOL    HW126285   2.375   2.935   1.700
 8462SOL    HW226286   2.238   2.872   1.637
 8463SOL     OW26287   5.448   0.534   1.844
 8463SOL    HW126288   5.525   0.597   1.834
 8463SOL    HW226289   5.395   0.559   1.925
 8464SOL     OW26290   0.029   2.074   4.878
 8464SOL    HW126291   0.120   2.110   4.856
 8464SOL    HW226292   0.029   2.036   4.970
 8465SOL     OW26293   1.546   1.895   0.010
 8465SOL    HW126294   1.558   1.801   6.997
 8465SOL    HW226295   1.450   1.911   0.033
 8466SOL     OW26296   0.382   0.232   4.003
 8466SOL    HW126297   0.331   0.312   3.971
 8466SOL    HW226298   0.456   0.212   3.939
 8467SOL     OW26299   3.676   5.012   1.267
 8467SOL    HW126300   3.735   5.029   1.188
 8467SOL    HW226301   3.581   5.031   1.242
 8468SOL     OW26302   4.521   2.633   0.540
 8468SOL    HW126303   4.618   2.611   0.552
 8468SOL    HW226304   4.511   2.730   0.518
 8469SOL     OW26305   4.130   2.751   6.699
 8469SOL    HW126306   4.173   2.744   6.789
 8469SOL    HW226307   4.180   2.694   6.633
 8470SOL     OW26308   1.723   3.279   0.011
 8470SOL    HW126309   1.626   3.297   7.015
 8470SOL    HW226310   1.773   3.365   0.012
 8471SOL     OW26311   4.789   1.421   3.956
 8471SOL    HW126312   4.852   1.466   3.892
 8471SOL    HW226313   4.742   1.490   4.010
 8472SOL     OW26314   1.322   6.910   2.852
 8472SOL    HW126315   1.317   6.960   2.765
 8472SOL    HW226316   1.355   6.817   2.835
 8473SOL     OW26317   6.955   5.688   6.415
 8473SOL    HW126318   6.880   5.639   6.460
 8473SOL    HW226319   6.954   5.784   6.444
 8474SOL     OW26320   3.718   5.626   0.389
 8474SOL    HW126321   3.658   5.547   0.376
 8474SOL    HW226322   3.793   5.601   0.450
 8475SOL     OW26323   4.611   1.458   2.639
 8475SOL    HW126324   4.573   1.495   2.555
 8475SOL    HW226325   4.561   1.376   2.666
 8476SOL     OW26326   4.246   0.563   2.430
 8476SOL    HW126327   4.170   0.559   2.367
 8476SOL    HW226328   4.286   0.655   2.429
 8477SOL     OW26329   2.364   0.739   2.264
 8477SOL    HW126330   2.318   0.704   2.182
 8477SOL    HW226331   2.437   0.676   2.290
 8478SOL     OW26332   1.548   0.335   5.420
 8478SOL    HW126333   1.563   0.276   5.340
 8478SOL    HW226334   1.542   0.430   5.391
 8479SOL     OW26335   5.041   1.479   2.103
 8479SOL    HW126336   4.984   1.478   2.186
 8479SOL    HW226337   5.029   1.393   2.054
 8480SOL     OW26338   1.735   1.276   1.363
 8480SOL    HW126339   1.828   1.313   1.375
 8480SOL    HW226340   1.684   1.336   1.302
 8481SOL     OW26341   4.546   0.170   5.035
 8481SOL    HW126342   4.518   0.241   5.099
 8481SOL    HW226343   4.498   0.085   5.057
 8482SOL     OW26344   0.649   0.616   2.276
 8482SOL    HW126345   0.749   0.615   2.282
 8482SOL    HW226346   0.620   0.698   2.226
 8483SOL     OW26347   5.533   6.283   1.817
 8483SOL    HW126348   5.589   6.359   1.851
 8483SOL    HW226349   5.447   6.280   1.867
 8484SOL     OW26350   0.435   4.775   4.287
 8484SOL    HW126351   0.489   4.698   4.321
 8484SOL    HW226352   0.472   4.860   4.324
 8485SOL     OW26353   2.475   3.249   5.674
 8485SOL    HW126354   2.575   3.242   5.683
 8485SOL    HW226355   2.449   3.232   5.579
 8486SOL     OW26356   4.287   0.262   3.006
 8486SOL    HW126357   4.193   0.228   2.999
 8486SOL    HW226358   4.345   0.210   2.944
 8487SOL     OW26359   4.631   0.684   0.846
 8487SOL    HW126360   4.668   0.738   0.922
 8487SOL    HW226361   4.535   0.709   0.830
 8488SOL     OW26362   5.265   3.064   4.836
 8488SOL    HW126363   5.342   3.067   4.773
 8488SOL    HW226364   5.181   3.092   4.789
 8489SOL     OW26365   3.908   5.491   2.540
 8489SOL    HW126366   3.875   5.528   2.627
 8489SOL    HW226367   3.973   5.555   2.498
 8490SOL     OW26368   4.320   5.177   2.581
 8490SOL    HW126369   4.364   5.162   2.492
 8490SOL    HW226370   4.267   5.261   2.579
 8491SOL     OW26371   1.033   1.192   2.172
 8491SOL    HW126372   1.039   1.152   2.081
 8491SOL    HW226373   1.061   1.288   2.169
 8492SOL     OW26374   5.608   3.812   4.646
 8492SOL    HW126375   5.623   3.742   4.715
 8492SOL    HW226376   5.517   3.853   4.659
 8493SOL     OW26377   3.709   2.683   1.301
 8493SOL    HW126378   3.627   2.721   1.342
 8493SOL    HW226379   3.734   2.735   1.219
 8494SOL     OW26380   3.550   6.086   6.519
 8494SOL    HW126381   3.499   6.095   6.605
 8494SOL    HW226382   3.647   6.071   6.540
 8495SOL     OW26383   0.394   2.700   0.340
 8495SOL    HW126384   0.440   2.787   0.327
 8495SOL    HW226385   0.461   2.625   0.335
 8496SOL     OW26386   6.833   2.353   3.252
 8496SOL    HW126387   6.783   2.417   3.310
 8496SOL    HW226388   6.931   2.364   3.266
 8497SOL     OW26389   5.989   4.464   3.499
 8497SOL    HW126390   5.977   4.382   3.444
 8497SOL    HW226391   6.075   4.508   3.476
 8498SOL     OW26392   6.307   1.257   1.053
 8498SOL    HW126393   6.367   1.230   1.128
 8498SOL    HW226394   6.359   1.307   0.984
 8499SOL     OW26395   1.950   4.342   6.343
 8499SOL    HW126396   2.009   4.400   6.287
 8499SOL    HW226397   2.004   4.267   6.382
 8500SOL     OW26398   3.329   0.849   6.103
 8500SOL    HW126399   3.406   0.813   6.155
 8500SOL    HW226400   3.263   0.890   6.166
 8501SOL     OW26401   2.863   4.316   6.153
 8501SOL    HW126402   2.851   4.396   6.094
 8501SOL    HW226403   2.953   4.321   6.197
 8502SOL     OW26404   0.550   6.938   1.970
 8502SOL    HW126405   0.583   6.938   1.876
 8502SOL    HW226406   0.581   6.855   2.017
 8503SOL     OW26407   3.265   6.123   3.112
 8503SOL    HW126408   3.251   6.185   3.189
 8503SOL    HW226409   3.312   6.040   3.144
 8504SOL     OW26410   1.480   5.583   3.373
 8504SOL    HW126411   1.479   5.639   3.455
 8504SOL    HW226412   1.513   5.638   3.295
 8505SOL     OW26413   4.815   2.696   3.949
 8505SOL    HW126414   4.891   2.632   3.951
 8505SOL    HW226415   4.756   2.679   4.028
 8506SOL     OW26416   0.826   6.050   0.538
 8506SOL    HW126417   0.783   5.961   0.547
 8506SOL    HW226418   0.780   6.116   0.597
 8507SOL     OW26419   1.636   0.332   4.535
 8507SOL    HW126420   1.658   0.381   4.451
 8507SOL    HW226421   1.707   0.351   4.604
 8508SOL     OW26422   0.880   3.148   6.391
 8508SOL    HW126423   0.958   3.192   6.436
 8508SOL    HW226424   0.913   3.095   6.313
 8509SOL     OW26425   6.077   2.262   4.534
 8509SOL    HW126426   6.176   2.249   4.537
 8509SOL    HW226427   6.054   2.348   4.579
 8510SOL     OW26428   5.065   0.100   2.336
 8510SOL    HW126429   5.020   0.086   2.425
 8510SOL    HW226430   5.014   0.052   2.265
 8511SOL     OW26431   6.386   5.079   1.611
 8511SOL    HW126432   6.362   5.105   1.517
 8511SOL    HW226433   6.313   5.109   1.673
 8512SOL     OW26434   3.706   2.609   0.837
 8512SOL    HW126435   3.702   2.694   0.784
 8512SOL    HW226436   3.614   2.583   0.865
 8513SOL     OW26437   0.655   4.172   1.664
 8513SOL    HW126438   0.596   4.149   1.741
 8513SOL    HW226439   0.732   4.226   1.697
 8514SOL     OW26440   2.634   2.451   5.409
 8514SOL    HW126441   2.708   2.414   5.465
 8514SOL    HW226442   2.667   2.463   5.315
 8515SOL     OW26443   2.287   0.277   0.539
 8515SOL    HW126444   2.386   0.289   0.538
 8515SOL    HW226445   2.266   0.179   0.544
 8516SOL     OW26446   5.569   2.890   4.103
 8516SOL    HW126447   5.639   2.884   4.173
 8516SOL    HW226448   5.493   2.828   4.126
 8517SOL     OW26449   1.929   1.778   6.434
 8517SOL    HW126450   1.923   1.695   6.379
 8517SOL    HW226451   2.022   1.815   6.429
 8518SOL     OW26452   5.337   4.944   0.203
 8518SOL    HW126453   5.433   4.953   0.177
 8518SOL    HW226454   5.298   5.034   0.222
 8519SOL     OW26455   1.009   3.164   0.748
 8519SOL    HW126456   1.032   3.164   0.846
 8519SOL    HW226457   0.942   3.092   0.730
 8520SOL     OW26458   3.450   4.179   5.636
 8520SOL    HW126459   3.351   4.192   5.636
 8520SOL    HW226460   3.485   4.184   5.730
 8521SOL     OW26461   1.983   6.549   5.086
 8521SOL    HW126462   2.057   6.580   5.147
 8521SOL    HW226463   2.022   6.515   5.001
 8522SOL     OW26464   0.464   6.949   0.107
 8522SOL    HW126465   0.438   6.863   0.150
 8522SOL    HW226466   0.399   6.971   0.034
 8523SOL     OW26467   3.824   2.015   0.440
 8523SOL    HW126468   3.757   2.079   0.402
 8523SOL    HW226469   3.875   2.060   0.514
 8524SOL     OW26470   2.362   5.388   5.210
 8524SOL    HW126471   2.367   5.347   5.300
 8524SOL    HW226472   2.378   5.318   5.140
 8525SOL     OW26473   6.235   3.649   1.946
 8525SOL    HW126474   6.210   3.653   1.849
 8525SOL    HW226475   6.155   3.627   2.001
 8526SOL     OW26476   0.168   4.316   0.352
 8526SOL    HW126477   0.259   4.356   0.363
 8526SOL    HW226478   0.157   4.241   0.418
 8527SOL     OW26479   2.907   1.085   5.552
 8527SOL    HW126480   2.836   1.142   5.594
 8527SOL    HW226481   2.961   1.042   5.624
 8528SOL     OW26482   5.270   0.675   1.010
 8528SOL    HW126483   5.292   0.679   0.912
 8528SOL    HW226484   5.353   0.693   1.063
 8529SOL     OW26485   1.264   6.174   0.120
 8529SOL    HW126486   1.308   6.164   0.031
 8529SOL    HW226487   1.179   6.225   0.110
 8530SOL     OW26488   3.914   3.861   3.229
 8530SOL    HW126489   3.896   3.926   3.302
 8530SOL    HW226490   3.961   3.781   3.266
 8531SOL     OW26491   6.686   4.950   4.502
 8531SOL    HW126492   6.596   4.910   4.521
 8531SOL    HW226493   6.705   4.942   4.404
 8532SOL     OW26494   2.762   4.978   6.689
 8532SOL    HW126495   2.794   5.053   6.631
 8532SOL    HW226496   2.677   4.941   6.651
 8533SOL     OW26497   2.751   6.544   5.076
 8533SOL    HW126498   2.684   6.619   5.070
 8533SOL    HW226499   2.703   6.457   5.077
 8534SOL     OW26500   2.227   2.397   3.250
 8534SOL    HW126501   2.280   2.342   3.314
 8534SOL    HW226502   2.190   2.477   3.298
 8535SOL     OW26503   6.503   0.514   2.345
 8535SOL    HW126504   6.537   0.540   2.436
 8535SOL    HW226505   6.473   0.418   2.348
 8536SOL     OW26506   0.631   1.203   4.516
 8536SOL    HW126507   0.661   1.286   4.470
 8536SOL    HW226508   0.709   1.158   4.558
 8537SOL     OW26509   6.321   1.472   2.885
 8537SOL    HW126510   6.232   1.459   2.840
 8537SOL    HW226511   6.314   1.444   2.981
 8538SOL     OW26512   0.925   2.475   0.419
 8538SOL    HW126513   0.943   2.396   0.362
 8538SOL    HW226514   0.873   2.543   0.367
 8539SOL     OW26515   5.258   2.555   2.524
 8539SOL    HW126516   5.311   2.505   2.592
 8539SOL    HW226517   5.160   2.543   2.543
 8540SOL     OW26518   3.591   0.620   1.213
 8540SOL    HW126519   3.597   0.540   1.152
 8540SOL    HW226520   3.497   0.632   1.243
 8541SOL     OW26521   2.001   2.356   4.312
 8541SOL    HW126522   1.993   2.443   4.361
 8541SOL    HW226523   2.068   2.298   4.357
 8542SOL     OW26524   3.167   4.618   0.555
 8542SOL    HW126525   3.206   4.707   0.535
 8542SOL    HW226526   3.172   4.560   0.474
 8543SOL     OW26527   2.760   2.011   6.546
 8543SOL    HW126528   2.855   2.004   6.574
 8543SOL    HW226529   2.705   1.947   6.600
 8544SOL     OW26530   5.959   2.549   3.559
 8544SOL    HW126531   5.911   2.600   3.630
 8544SOL    HW226532   5.948   2.451   3.575
 8545SOL     OW26533   4.435   6.494   5.158
 8545SOL    HW126534   4.530   6.525   5.165
 8545SOL    HW226535   4.377   6.570   5.129
 8546SOL     OW26536   4.648   2.313   6.750
 8546SOL    HW126537   4.682   2.240   6.691
 8546SOL    HW226538   4.601   2.273   6.829
 8547SOL     OW26539   1.078   4.827   2.162
 8547SOL    HW126540   1.124   4.839   2.073
 8547SOL    HW226541   1.044   4.734   2.170
 8548SOL     OW26542   6.211   1.469   5.511
 8548SOL    HW126543   6.161   1.483   5.426
 8548SOL    HW226544   6.248   1.376   5.514
 8549SOL     OW26545   5.278   3.142   5.486
 8549SOL    HW126546   5.311   3.200   5.560
 8549SOL    HW226547   5.193   3.180   5.448
 8550SOL     OW26548   1.046   4.312   6.172
 8550SOL    HW126549   1.133   4.360   6.181
 8550SOL    HW226550   1.020   4.306   6.076
 8551SOL     OW26551   2.586   4.174   1.511
 8551SOL    HW126552   2.621   4.211   1.424
 8551SOL    HW226553   2.648   4.197   1.585
 8552SOL     OW26554   3.266   6.899   4.488
 8552SOL    HW126555   3.183   6.953   4.495
 8552SOL    HW226556   3.251   6.809   4.530
 8553SOL     OW26557   6.097   5.024   6.968
 8553SOL    HW126558   6.158   5.097   6.998
 8553SOL    HW226559   6.041   5.057   6.892
 8554SOL     OW26560   5.662   3.854   6.844
 8554SOL    HW126561   5.663   3.896   6.753
 8554SOL    HW226562   5.648   3.925   6.913
 8555SOL     OW26563   1.871   6.724   4.364
 8555SOL    HW126564   1.964   6.688   4.358
 8555SOL    HW226565   1.811   6.655   4.404
 8556SOL     OW26566   6.154   6.989   4.129
 8556SOL    HW126567   6.118   0.058   4.098
 8556SOL    HW226568   6.105   6.915   4.082
 8557SOL     OW26569   6.946   1.147   0.166
 8557SOL    HW126570   7.008   1.191   0.231
 8557SOL    HW226571   6.860   1.123   0.212
 8558SOL     OW26572   0.859   5.635   2.263
 8558SOL    HW126573   0.801   5.657   2.184
 8558SOL    HW226574   0.905   5.548   2.247
 8559SOL     OW26575   0.431   1.173   5.672
 8559SOL    HW126576   0.385   1.197   5.587
 8559SOL    HW226577   0.530   1.180   5.660
 8560SOL     OW26578   6.587   2.112   6.475
 8560SOL    HW126579   6.530   2.118   6.394
 8560SOL    HW226580   6.613   2.204   6.504
 8561SOL     OW26581   5.266   5.775   5.573
 8561SOL    HW126582   5.225   5.833   5.643
 8561SOL    HW226583   5.207   5.773   5.492
 8562SOL     OW26584   3.774   0.011   4.596
 8562SOL    HW126585   3.840   7.007   4.524
 8562SOL    HW226586   3.682   7.007   4.564
 8563SOL     OW26587   3.087   2.854   6.850
 8563SOL    HW126588   2.992   2.831   6.829
 8563SOL    HW226589   3.146   2.825   6.775
 8564SOL     OW26590   0.319   6.593   3.430
 8564SOL    HW126591   0.305   6.500   3.395
 8564SOL    HW226592   0.364   6.648   3.359
 8565SOL     OW26593   3.313   0.708   1.732
 8565SOL    HW126594   3.265   0.644   1.793
 8565SOL    HW226595   3.376   0.656   1.674
 8566SOL     OW26596   1.713   3.725   3.483
 8566SOL    HW126597   1.642   3.748   3.416
 8566SOL    HW226598   1.803   3.752   3.447
 8567SOL     OW26599   5.011   5.845   0.266
 8567SOL    HW126600   5.027   5.837   0.365
 8567SOL    HW226601   5.002   5.941   0.241
 8568SOL     OW26602   5.701   0.784   0.368
 8568SOL    HW126603   5.686   0.865   0.425
 8568SOL    HW226604   5.798   0.778   0.344
 8569SOL     OW26605   4.091   1.360   5.588
 8569SOL    HW126606   4.060   1.441   5.538
 8569SOL    HW226607   4.117   1.386   5.681
 8570SOL     OW26608   0.343   3.670   6.412
 8570SOL    HW126609   0.299   3.627   6.491
 8570SOL    HW226610   0.337   3.609   6.333
 8571SOL     OW26611   0.062   4.382   4.869
 8571SOL    HW126612   0.015   4.450   4.813
 8571SOL    HW226613   0.034   4.290   4.841
 8572SOL     OW26614   2.954   5.074   5.550
 8572SOL    HW126615   2.983   4.992   5.600
 8572SOL    HW226616   2.992   5.155   5.594
 8573SOL     OW26617   4.430   6.396   4.441
 8573SOL    HW126618   4.375   6.471   4.479
 8573SOL    HW226619   4.411   6.387   4.344
 8574SOL     OW26620   0.346   3.670   4.366
 8574SOL    HW126621   0.309   3.697   4.277
 8574SOL    HW226622   0.429   3.616   4.353
 8575SOL     OW26623   3.021   3.020   6.484
 8575SOL    HW126624   3.081   3.030   6.404
 8575SOL    HW226625   2.945   2.959   6.462
 8576SOL     OW26626   1.878   0.428   0.852
 8576SOL    HW126627   1.899   0.378   0.936
 8576SOL    HW226628   1.964   0.452   0.806
 8577SOL     OW26629   6.803   5.292   4.244
 8577SOL    HW126630   6.820   5.217   4.180
 8577SOL    HW226631   6.880   5.356   4.241
 8578SOL     OW26632   4.940   0.373   3.039
 8578SOL    HW126633   4.945   0.473   3.033
 8578SOL    HW226634   4.859   0.348   3.092
 8579SOL     OW26635   0.449   4.860   2.800
 8579SOL    HW126636   0.425   4.898   2.710
 8579SOL    HW226637   0.365   4.838   2.849
 8580SOL     OW26638   2.823   5.159   6.234
 8580SOL    HW126639   2.793   5.212   6.154
 8580SOL    HW226640   2.891   5.091   6.205
 8581SOL     OW26641   3.522   2.976   0.223
 8581SOL    HW126642   3.526   3.073   0.243
 8581SOL    HW226643   3.603   2.930   0.260
 8582SOL     OW26644   4.225   4.652   0.729
 8582SOL    HW126645   4.277   4.728   0.692
 8582SOL    HW226646   4.276   4.567   0.716
 8583SOL     OW26647   5.344   6.669   5.229
 8583SOL    HW126648   5.247   6.670   5.256
 8583SOL    HW226649   5.393   6.738   5.282
 8584SOL     OW26650   0.593   5.446   6.455
 8584SOL    HW126651   0.502   5.457   6.494
 8584SOL    HW226652   0.617   5.349   6.453
 8585SOL     OW26653   0.642   1.454   1.083
 8585SOL    HW126654   0.708   1.428   1.012
 8585SOL    HW226655   0.668   1.543   1.121
 8586SOL     OW26656   4.220   5.426   4.214
 8586SOL    HW126657   4.186   5.439   4.307
 8586SOL    HW226658   4.317   5.448   4.211
 8587SOL     OW26659   6.444   2.015   1.804
 8587SOL    HW126660   6.436   1.931   1.751
 8587SOL    HW226661   6.493   2.084   1.750
 8588SOL     OW26662   3.504   2.131   0.066
 8588SOL    HW126663   3.603   2.132   0.054
 8588SOL    HW226664   3.471   2.037   0.062
 8589SOL     OW26665   3.148   1.571   5.042
 8589SOL    HW126666   3.128   1.477   5.070
 8589SOL    HW226667   3.158   1.628   5.124
 8590SOL     OW26668   6.245   5.673   5.189
 8590SOL    HW126669   6.244   5.591   5.133
 8590SOL    HW226670   6.164   5.674   5.249
 8591SOL     OW26671   1.178   2.581   0.440
 8591SOL    HW126672   1.169   2.646   0.364
 8591SOL    HW226673   1.096   2.524   0.446
 8592SOL     OW26674   6.739   6.031   6.298
 8592SOL    HW126675   6.698   5.995   6.382
 8592SOL    HW226676   6.767   6.126   6.313
 8593SOL     OW26677   0.391   6.121   3.328
 8593SOL    HW126678   0.317   6.185   3.305
 8593SOL    HW226679   0.388   6.101   3.426
 8594SOL     OW26680   3.104   4.023   3.594
 8594SOL    HW126681   3.129   4.000   3.500
 8594SOL    HW226682   3.116   4.121   3.609
 8595SOL     OW26683   1.796   2.808   1.474
 8595SOL    HW126684   1.728   2.882   1.474
 8595SOL    HW226685   1.814   2.779   1.568
 8596SOL     OW26686   6.636   4.202   2.364
 8596SOL    HW126687   6.621   4.107   2.392
 8596SOL    HW226688   6.631   4.209   2.265
 8597SOL     OW26689   2.580   1.566   0.096
 8597SOL    HW126690   2.620   1.614   0.018
 8597SOL    HW226691   2.525   1.489   0.063
 8598SOL     OW26692   5.323   3.636   1.640
 8598SOL    HW126693   5.398   3.691   1.678
 8598SOL    HW226694   5.255   3.619   1.712
 8599SOL     OW26695   0.984   3.170   1.035
 8599SOL    HW126696   0.965   3.237   1.106
 8599SOL    HW226697   1.049   3.103   1.069
 8600SOL     OW26698   6.148   2.793   6.537
 8600SOL    HW126699   6.135   2.889   6.563
 8600SOL    HW226700   6.245   2.769   6.544
 8601SOL     OW26701   0.164   0.312   5.201
 8601SOL    HW126702   0.240   0.376   5.213
 8601SOL    HW226703   0.095   0.329   5.271
 8602SOL     OW26704   1.971   6.294   1.921
 8602SOL    HW126705   2.018   6.322   1.837
 8602SOL    HW226706   2.018   6.335   2.000
 8603SOL     OW26707   4.819   3.479   1.400
 8603SOL    HW126708   4.866   3.398   1.365
 8603SOL    HW226709   4.728   3.485   1.360
 8604SOL     OW26710   5.607   2.166   2.665
 8604SOL    HW126711   5.637   2.157   2.570
 8604SOL    HW226712   5.667   2.232   2.713
 8605SOL     OW26713   2.672   5.717   1.782
 8605SOL    HW126714   2.610   5.728   1.704
 8605SOL    HW226715   2.764   5.745   1.754
 8606SOL     OW26716   4.027   5.604   5.400
 8606SOL    HW126717   3.971   5.599   5.484
 8606SOL    HW226718   3.982   5.551   5.328
 8607SOL     OW26719   3.072   5.986   1.385
 8607SOL    HW126720   3.069   6.085   1.373
 8607SOL    HW226721   3.160   5.959   1.423
 8608SOL     OW26722   6.007   6.345   2.088
 8608SOL    HW126723   6.063   6.264   2.071
 8608SOL    HW226724   5.919   6.317   2.127
 8609SOL     OW26725   4.439   0.766   6.625
 8609SOL    HW126726   4.407   0.681   6.667
 8609SOL    HW226727   4.480   0.746   6.537
 8610SOL     OW26728   0.178   6.319   5.503
 8610SOL    HW126729   0.202   6.292   5.410
 8610SOL    HW226730   0.191   6.241   5.565
 8611SOL     OW26731   1.611   1.903   3.470
 8611SOL    HW126732   1.630   1.954   3.387
 8611SOL    HW226733   1.513   1.884   3.475
 8612SOL     OW26734   4.851   3.239   4.607
 8612SOL    HW126735   4.846   3.327   4.655
 8612SOL    HW226736   4.871   3.166   4.673
 8613SOL     OW26737   1.397   1.167   6.891
 8613SOL    HW126738   1.368   1.189   6.797
 8613SOL    HW226739   1.464   1.235   6.922
 8614SOL     OW26740   1.314   1.400   3.665
 8614SOL    HW126741   1.281   1.341   3.739
 8614SOL    HW226742   1.397   1.360   3.626
 8615SOL     OW26743   4.421   2.321   5.100
 8615SOL    HW126744   4.484   2.398   5.088
 8615SOL    HW226745   4.327   2.353   5.095
 8616SOL     OW26746   1.459   3.052   0.368
 8616SOL    HW126747   1.480   3.003   0.452
 8616SOL    HW226748   1.363   3.039   0.345
 8617SOL     OW26749   6.136   2.798   0.560
 8617SOL    HW126750   6.131   2.703   0.531
 8617SOL    HW226751   6.047   2.842   0.546
 8618SOL     OW26752   4.231   0.552   3.076
 8618SOL    HW126753   4.183   0.483   3.130
 8618SOL    HW226754   4.302   0.507   3.021
 8619SOL     OW26755   4.211   5.941   0.917
 8619SOL    HW126756   4.305   5.961   0.890
 8619SOL    HW226757   4.200   5.959   1.015
 8620SOL     OW26758   6.668   6.142   3.247
 8620SOL    HW126759   6.660   6.157   3.149
 8620SOL    HW226760   6.610   6.065   3.274
 8621SOL     OW26761   5.389   0.633   3.333
 8621SOL    HW126762   5.392   0.534   3.319
 8621SOL    HW226763   5.339   0.676   3.258
 8622SOL     OW26764   5.250   5.283   6.793
 8622SOL    HW126765   5.330   5.319   6.746
 8622SOL    HW226766   5.197   5.226   6.731
 8623SOL     OW26767   6.328   2.365   2.957
 8623SOL    HW126768   6.404   2.326   3.009
 8623SOL    HW226769   6.364   2.428   2.888
 8624SOL     OW26770   6.827   4.216   4.343
 8624SOL    HW126771   6.895   4.264   4.288
 8624SOL    HW226772   6.868   4.134   4.384
 8625SOL     OW26773   3.823   0.911   6.560
 8625SOL    HW126774   3.764   0.911   6.479
 8625SOL    HW226775   3.802   0.831   6.616
 8626SOL     OW26776   3.314   3.373   2.611
 8626SOL    HW126777   3.399   3.339   2.652
 8626SOL    HW226778   3.237   3.349   2.671
 8627SOL     OW26779   2.349   0.087   6.377
 8627SOL    HW126780   2.447   0.081   6.394
 8627SOL    HW226781   2.300   0.023   6.437
 8628SOL     OW26782   6.260   1.018   0.432
 8628SOL    HW126783   6.182   1.066   0.391
 8628SOL    HW226784   6.297   1.074   0.507
 8629SOL     OW26785   1.498   5.414   3.805
 8629SOL    HW126786   1.524   5.471   3.884
 8629SOL    HW226787   1.411   5.445   3.768
 8630SOL     OW26788   5.650   4.976   4.178
 8630SOL    HW126789   5.657   5.045   4.250
 8630SOL    HW226790   5.729   4.914   4.183
 8631SOL     OW26791   4.607   5.645   3.650
 8631SOL    HW126792   4.513   5.653   3.617
 8631SOL    HW226793   4.608   5.592   3.735
 8632SOL     OW26794   4.036   0.702   3.527
 8632SOL    HW126795   3.942   0.732   3.537
 8632SOL    HW226796   4.068   0.722   3.434
 8633SOL     OW26797   6.480   6.966   3.351
 8633SOL    HW126798   6.464   0.047   3.350
 8633SOL    HW226799   6.546   6.944   3.422
 8634SOL     OW26800   6.499   5.508   1.530
 8634SOL    HW126801   6.456   5.597   1.516
 8634SOL    HW226802   6.431   5.443   1.564
 8635SOL     OW26803   6.458   3.239   5.980
 8635SOL    HW126804   6.500   3.159   5.939
 8635SOL    HW226805   6.367   3.254   5.939
 8636SOL     OW26806   5.342   5.653   0.567
 8636SOL    HW126807   5.399   5.666   0.647
 8636SOL    HW226808   5.399   5.654   0.485
 8637SOL     OW26809   2.049   0.427   1.238
 8637SOL    HW126810   2.141   0.460   1.218
 8637SOL    HW226811   2.040   0.411   1.337
 8638SOL     OW26812   4.547   5.093   0.807
 8638SOL    HW126813   4.610   5.146   0.750
 8638SOL    HW226814   4.456   5.132   0.801
 8639SOL     OW26815   6.276   2.640   1.845
 8639SOL    HW126816   6.366   2.679   1.827
 8639SOL    HW226817   6.286   2.558   1.901
 8640SOL     OW26818   4.842   6.250   1.189
 8640SOL    HW126819   4.769   6.203   1.140
 8640SOL    HW226820   4.908   6.183   1.223
 8641SOL     OW26821   5.371   4.820   3.214
 8641SOL    HW126822   5.318   4.848   3.294
 8641SOL    HW226823   5.382   4.720   3.215
 8642SOL     OW26824   4.516   1.837   1.460
 8642SOL    HW126825   4.419   1.826   1.438
 8642SOL    HW226826   4.534   1.804   1.552
 8643SOL     OW26827   3.975   0.553   6.903
 8643SOL    HW126828   3.922   0.622   6.952
 8643SOL    HW226829   4.061   0.594   6.872
 8644SOL     OW26830   6.629   3.566   5.480
 8644SOL    HW126831   6.627   3.626   5.560
 8644SOL    HW226832   6.580   3.482   5.499
 8645SOL     OW26833   5.910   4.240   1.891
 8645SOL    HW126834   5.845   4.181   1.940
 8645SOL    HW226835   5.861   4.318   1.852
 8646SOL     OW26836   5.397   6.937   0.995
 8646SOL    HW126837   5.315   6.933   0.938
 8646SOL    HW226838   5.476   6.956   0.937
 8647SOL     OW26839   4.309   5.127   1.767
 8647SOL    HW126840   4.393   5.137   1.713
 8647SOL    HW226841   4.274   5.034   1.758
 8648SOL     OW26842   5.719   1.365   4.618
 8648SOL    HW126843   5.651   1.363   4.544
 8648SOL    HW226844   5.687   1.308   4.693
 8649SOL     OW26845   0.093   4.782   5.689
 8649SOL    HW126846   0.119   4.830   5.773
 8649SOL    HW226847   7.013   4.763   5.691
 8650SOL     OW26848   0.330   4.431   1.816
 8650SOL    HW126849   0.233   4.456   1.816
 8650SOL    HW226850   0.366   4.436   1.723
 8651SOL     OW26851   3.703   2.978   1.255
 8651SOL    HW126852   3.711   3.068   1.212
 8651SOL    HW226853   3.609   2.946   1.250
 8652SOL     OW26854   1.125   2.809   3.596
 8652SOL    HW126855   1.030   2.813   3.628
 8652SOL    HW226856   1.183   2.859   3.661
 8653SOL     OW26857   5.852   3.278   6.720
 8653SOL    HW126858   5.924   3.218   6.684
 8653SOL    HW226859   5.777   3.283   6.654
 8654SOL     OW26860   0.550   5.988   2.249
 8654SOL    HW126861   0.630   5.986   2.190
 8654SOL    HW226862   0.490   5.911   2.227
 8655SOL     OW26863   6.093   6.225   3.091
 8655SOL    HW126864   6.114   6.273   3.177
 8655SOL    HW226865   6.143   6.138   3.090
 8656SOL     OW26866   6.619   1.809   1.322
 8656SOL    HW126867   6.711   1.814   1.283
 8656SOL    HW226868   6.625   1.810   1.422
 8657SOL     OW26869   2.877   4.062   0.625
 8657SOL    HW126870   2.932   4.112   0.559
 8657SOL    HW226871   2.803   4.120   0.658
 8658SOL     OW26872   0.560   5.119   6.225
 8658SOL    HW126873   0.470   5.139   6.263
 8658SOL    HW226874   0.629   5.124   6.298
 8659SOL     OW26875   4.268   0.605   3.589
 8659SOL    HW126876   4.321   0.613   3.505
 8659SOL    HW226877   4.184   0.659   3.580
 8660SOL     OW26878   5.529   4.665   0.256
 8660SOL    HW126879   5.510   4.757   0.290
 8660SOL    HW226880   5.581   4.614   0.324
 8661SOL     OW26881   6.312   3.715   1.459
 8661SOL    HW126882   6.361   3.785   1.408
 8661SOL    HW226883   6.374   3.640   1.481
 8662SOL     OW26884   0.280   0.413   0.613
 8662SOL    HW126885   0.358   0.450   0.664
 8662SOL    HW226886   0.229   0.488   0.572
 8663SOL     OW26887   1.857   5.757   0.770
 8663SOL    HW126888   1.886   5.847   0.736
 8663SOL    HW226889   1.764   5.764   0.807
 8664SOL     OW26890   4.503   5.140   1.604
 8664SOL    HW126891   4.499   5.048   1.564
 8664SOL    HW226892   4.533   5.205   1.535
 8665SOL     OW26893   5.140   5.490   4.559
 8665SOL    HW126894   5.161   5.392   4.560
 8665SOL    HW226895   5.225   5.543   4.564
 8666SOL     OW26896   6.032   3.850   4.575
 8666SOL    HW126897   6.069   3.940   4.554
 8666SOL    HW226898   6.041   3.832   4.672
 8667SOL     OW26899   5.264   2.838   3.290
 8667SOL    HW126900   5.355   2.880   3.300
 8667SOL    HW226901   5.255   2.799   3.198
 8668SOL     OW26902   3.638   1.331   4.092
 8668SOL    HW126903   3.675   1.306   4.002
 8668SOL    HW226904   3.551   1.379   4.080
 8669SOL     OW26905   4.278   6.765   5.822
 8669SOL    HW126906   4.329   6.750   5.738
 8669SOL    HW226907   4.188   6.803   5.801
 8670SOL     OW26908   3.939   4.827   3.335
 8670SOL    HW126909   3.866   4.867   3.389
 8670SOL    HW226910   4.027   4.841   3.380
 8671SOL     OW26911   6.019   6.218   2.543
 8671SOL    HW126912   6.073   6.271   2.478
 8671SOL    HW226913   6.020   6.263   2.632
 8672SOL     OW26914   3.588   5.096   5.687
 8672SOL    HW126915   3.488   5.097   5.681
 8672SOL    HW226916   3.617   5.144   5.769
 8673SOL     OW26917   5.194   2.096   0.514
 8673SOL    HW126918   5.108   2.052   0.487
 8673SOL    HW226919   5.269   2.031   0.504
 8674SOL     OW26920   0.783   0.438   2.632
 8674SOL    HW126921   0.694   0.414   2.672
 8674SOL    HW226922   0.784   0.535   2.609
 8675SOL     OW26923   1.952   2.694   2.536
 8675SOL    HW126924   1.965   2.596   2.552
 8675SOL    HW226925   1.895   2.707   2.455
 8676SOL     OW26926   4.126   0.498   4.119
 8676SOL    HW126927   4.129   0.579   4.178
 8676SOL    HW226928   4.198   0.504   4.050
 8677SOL     OW26929   2.214   4.482   5.482
 8677SOL    HW126930   2.212   4.539   5.564
 8677SOL    HW226931   2.274   4.403   5.497
 8678SOL     OW26932   1.505   1.092   6.096
 8678SOL    HW126933   1.580   1.057   6.041
 8678SOL    HW226934   1.473   1.021   6.158
 8679SOL     OW26935   6.613   2.211   4.669
 8679SOL    HW126936   6.679   2.240   4.600
 8679SOL    HW226937   6.659   2.204   4.758
 8680SOL     OW26938   0.771   3.693   0.785
 8680SOL    HW126939   0.871   3.692   0.792
 8680SOL    HW226940   0.745   3.672   0.691
 8681SOL     OW26941   4.133   3.593   1.430
 8681SOL    HW126942   4.202   3.524   1.453
 8681SOL    HW226943   4.111   3.646   1.512
 8682SOL     OW26944   2.044   5.803   2.501
 8682SOL    HW126945   2.125   5.856   2.475
 8682SOL    HW226946   2.051   5.711   2.462
 8683SOL     OW26947   5.597   2.680   6.722
 8683SOL    HW126948   5.612   2.582   6.729
 8683SOL    HW226949   5.521   2.698   6.659
 8684SOL     OW26950   6.493   2.955   4.683
 8684SOL    HW126951   6.442   2.963   4.597
 8684SOL    HW226952   6.591   2.949   4.663
 8685SOL     OW26953   0.308   1.508   5.404
 8685SOL    HW126954   0.245   1.543   5.335
 8685SOL    HW226955   0.400   1.542   5.384
 8686SOL     OW26956   6.637   1.826   4.056
 8686SOL    HW126957   6.646   1.732   4.024
 8686SOL    HW226958   6.541   1.847   4.072
 8687SOL     OW26959   3.575   0.977   2.775
 8687SOL    HW126960   3.661   0.960   2.821
 8687SOL    HW226961   3.517   0.895   2.782
 8688SOL     OW26962   1.285   0.366   2.062
 8688SOL    HW126963   1.328   0.445   2.019
 8688SOL    HW226964   1.201   0.395   2.109
 8689SOL     OW26965   4.216   5.731   0.719
 8689SOL    HW126966   4.242   5.775   0.805
 8689SOL    HW226967   4.267   5.774   0.644
 8690SOL     OW26968   1.436   0.673   2.581
 8690SOL    HW126969   1.466   0.745   2.519
 8690SOL    HW226970   1.515   0.622   2.614
 8691SOL     OW26971   5.828   1.691   0.488
 8691SOL    HW126972   5.788   1.647   0.408
 8691SOL    HW226973   5.860   1.782   0.463
 8692SOL     OW26974   1.819   1.603   3.972
 8692SOL    HW126975   1.909   1.566   3.950
 8692SOL    HW226976   1.818   1.701   3.954
 8693SOL     OW26977   5.361   2.070   6.865
 8693SOL    HW126978   5.420   1.998   6.902
 8693SOL    HW226979   5.279   2.028   6.825
 8694SOL     OW26980   3.485   6.391   6.820
 8694SOL    HW126981   3.576   6.423   6.793
 8694SOL    HW226982   3.421   6.468   6.818
 8695SOL     OW26983   4.498   4.331   5.220
 8695SOL    HW126984   4.419   4.371   5.173
 8695SOL    HW226985   4.574   4.397   5.220
 8696SOL     OW26986   1.598   5.227   0.686
 8696SOL    HW126987   1.523   5.192   0.631
 8696SOL    HW226988   1.683   5.224   0.634
 8697SOL     OW26989   5.454   4.791   6.683
 8697SOL    HW126990   5.467   4.709   6.738
 8697SOL    HW226991   5.381   4.847   6.725
 8698SOL     OW26992   5.786   6.134   4.197
 8698SOL    HW126993   5.732   6.158   4.278
 8698SOL    HW226994   5.860   6.199   4.185
 8699SOL     OW26995   1.544   1.174   5.430
 8699SOL    HW126996   1.512   1.237   5.500
 8699SOL    HW226997   1.603   1.105   5.472
 8700SOL     OW26998   2.043   1.773   5.934
 8700SOL    HW126999   1.954   1.814   5.949
 8700SOL    HW227000   2.041   1.717   5.850
 8701SOL     OW27001   1.151   2.390   4.233
 8701SOL    HW127002   1.214   2.335   4.178
 8701SOL    HW227003   1.117   2.335   4.309
 8702SOL     OW27004   5.151   5.806   0.043
 8702SOL    HW127005   5.108   5.817   0.132
 8702SOL    HW227006   5.234   5.862   0.039
 8703SOL     OW27007   1.264   5.508   1.417
 8703SOL    HW127008   1.167   5.530   1.421
 8703SOL    HW227009   1.304   5.548   1.334
 8704SOL     OW27010   0.458   4.087   1.846
 8704SOL    HW127011   0.426   4.050   1.758
 8704SOL    HW227012   0.455   4.015   1.915
 8705SOL     OW27013   5.102   6.367   4.436
 8705SOL    HW127014   5.093   6.331   4.343
 8705SOL    HW227015   5.182   6.427   4.441
 8706SOL     OW27016   5.063   1.878   5.861
 8706SOL    HW127017   5.125   1.800   5.861
 8706SOL    HW227018   5.115   1.962   5.853
 8707SOL     OW27019   4.765   2.185   5.380
 8707SOL    HW127020   4.732   2.187   5.285
 8707SOL    HW227021   4.801   2.274   5.405
 8708SOL     OW27022   3.769   1.928   0.746
 8708SOL    HW127023   3.807   1.858   0.807
 8708SOL    HW227024   3.714   1.992   0.800
 8709SOL     OW27025   6.301   3.567   1.029
 8709SOL    HW127026   6.241   3.564   0.948
 8709SOL    HW227027   6.388   3.608   1.004
 8710SOL     OW27028   6.947   2.728   3.448
 8710SOL    HW127029   0.011   2.722   3.504
 8710SOL    HW227030   6.955   2.806   3.385
 8711SOL     OW27031   0.525   1.496   4.160
 8711SOL    HW127032   0.504   1.407   4.201
 8711SOL    HW227033   0.479   1.503   4.072
 8712SOL     OW27034   3.588   1.191   6.313
 8712SOL    HW127035   3.525   1.210   6.238
 8712SOL    HW227036   3.653   1.267   6.322
 8713SOL     OW27037   5.787   4.653   2.389
 8713SOL    HW127038   5.713   4.625   2.449
 8713SOL    HW227039   5.866   4.683   2.444
 8714SOL     OW27040   2.141   1.388   4.471
 8714SOL    HW127041   2.097   1.440   4.545
 8714SOL    HW227042   2.146   1.445   4.389
 8715SOL     OW27043   6.001   1.341   2.143
 8715SOL    HW127044   6.093   1.360   2.108
 8715SOL    HW227045   5.940   1.322   2.067
 8716SOL     OW27046   1.004   1.599   2.111
 8716SOL    HW127047   1.070   1.539   2.155
 8716SOL    HW227048   0.982   1.675   2.173
 8717SOL     OW27049   4.040   3.283   0.603
 8717SOL    HW127050   4.137   3.270   0.585
 8717SOL    HW227051   4.020   3.381   0.611
 8718SOL     OW27052   6.901   3.072   6.009
 8718SOL    HW127053   6.845   3.156   6.010
 8718SOL    HW227054   6.875   3.017   5.930
 8719SOL     OW27055   6.645   0.638   5.812
 8719SOL    HW127056   6.724   0.611   5.866
 8719SOL    HW227057   6.564   0.640   5.870
 8720SOL     OW27058   4.658   3.843   6.065
 8720SOL    HW127059   4.682   3.751   6.095
 8720SOL    HW227060   4.567   3.841   6.023
 8721SOL     OW27061   6.721   1.250   4.555
 8721SOL    HW127062   6.722   1.244   4.455
 8721SOL    HW227063   6.814   1.263   4.589
 8722SOL     OW27064   3.021   3.013   0.652
 8722SOL    HW127065   3.087   3.061   0.594
 8722SOL    HW227066   3.060   3.000   0.743
 8723SOL     OW27067   0.270   5.199   0.116
 8723SOL    HW127068   0.224   5.226   0.032
 8723SOL    HW227069   0.315   5.111   0.103
 8724SOL     OW27070   5.771   5.996   6.604
 8724SOL    HW127071   5.820   5.912   6.625
 8724SOL    HW227072   5.711   5.982   6.526
 8725SOL     OW27073   2.308   6.237   1.194
 8725SOL    HW127074   2.245   6.224   1.118
 8725SOL    HW227075   2.318   6.151   1.244
 8726SOL     OW27076   5.438   0.541   1.260
 8726SOL    HW127077   5.477   0.487   1.335
 8726SOL    HW227078   5.339   0.524   1.255
 8727SOL     OW27079   5.980   6.032   1.009
 8727SOL    HW127080   5.882   6.013   1.000
 8727SOL    HW227081   6.010   6.009   1.101
 8728SOL     OW27082   2.174   6.512   5.535
 8728SOL    HW127083   2.078   6.528   5.561
 8728SOL    HW227084   2.228   6.592   5.561
 8729SOL     OW27085   5.876   6.725   4.255
 8729SOL    HW127086   5.808   6.662   4.217
 8729SOL    HW227087   5.844   6.757   4.344
 8730SOL     OW27088   6.864   6.577   1.147
 8730SOL    HW127089   6.849   6.654   1.209
 8730SOL    HW227090   6.962   6.566   1.130
 8731SOL     OW27091   0.490   1.950   2.454
 8731SOL    HW127092   0.480   2.040   2.411
 8731SOL    HW227093   0.423   1.887   2.416
 8732SOL     OW27094   6.147   5.073   1.747
 8732SOL    HW127095   6.145   4.996   1.811
 8732SOL    HW227096   6.097   5.150   1.785
 8733SOL     OW27097   6.944   6.612   1.531
 8733SOL    HW127098   0.006   6.668   1.553
 8733SOL    HW227099   6.973   6.527   1.488
 8734SOL     OW27100   0.168   5.154   0.376
 8734SOL    HW127101   0.098   5.082   0.372
 8734SOL    HW227102   0.222   5.152   0.292
 8735SOL     OW27103   7.009   2.477   6.478
 8735SOL    HW127104   0.088   2.469   6.456
 8735SOL    HW227105   6.995   2.554   6.540
 8736SOL     OW27106   0.516   4.422   6.217
 8736SOL    HW127107   0.490   4.515   6.244
 8736SOL    HW227108   0.595   4.426   6.155
 8737SOL     OW27109   3.798   6.218   6.871
 8737SOL    HW127110   3.813   6.192   6.775
 8737SOL    HW227111   3.713   6.178   6.904
 8738SOL     OW27112   1.286   3.766   4.972
 8738SOL    HW127113   1.383   3.776   4.949
 8738SOL    HW227114   1.255   3.846   5.023
 8739SOL     OW27115   1.109   3.055   5.318
 8739SOL    HW127116   1.145   3.101   5.399
 8739SOL    HW227117   1.142   3.100   5.236
 8740SOL     OW27118   1.528   6.671   1.393
 8740SOL    HW127119   1.540   6.595   1.457
 8740SOL    HW227120   1.492   6.750   1.442
 8741SOL     OW27121   1.833   3.262   1.784
 8741SOL    HW127122   1.742   3.238   1.817
 8741SOL    HW227123   1.887   3.300   1.859
 8742SOL     OW27124   4.853   6.431   2.159
 8742SOL    HW127125   4.855   6.335   2.130
 8742SOL    HW227126   4.935   6.452   2.211
 8743SOL     OW27127   2.561   4.629   3.347
 8743SOL    HW127128   2.509   4.712   3.329
 8743SOL    HW227129   2.545   4.563   3.273
 8744SOL     OW27130   3.319   3.348   5.756
 8744SOL    HW127131   3.367   3.434   5.740
 8744SOL    HW227132   3.224   3.356   5.724
 8745SOL     OW27133   6.599   1.466   7.018
 8745SOL    HW127134   6.509   1.454   6.975
 8745SOL    HW227135   6.609   1.398   0.073
 8746SOL     OW27136   5.145   4.266   5.296
 8746SOL    HW127137   5.046   4.270   5.286
 8746SOL    HW227138   5.187   4.248   5.207
 8747SOL     OW27139   1.386   2.641   3.912
 8747SOL    HW127140   1.317   2.616   3.980
 8747SOL    HW227141   1.434   2.724   3.942
 8748SOL     OW27142   3.034   0.031   0.032
 8748SOL    HW127143   3.032   0.129   0.013
 8748SOL    HW227144   2.942   0.000   0.057
 8749SOL     OW27145   4.223   1.490   4.095
 8749SOL    HW127146   4.217   1.423   4.169
 8749SOL    HW227147   4.187   1.578   4.126
 8750SOL     OW27148   2.140   0.162   5.110
 8750SOL    HW127149   2.141   0.130   5.205
 8750SOL    HW227150   2.174   0.256   5.105
 8751SOL     OW27151   2.104   0.486   3.300
 8751SOL    HW127152   2.124   0.555   3.369
 8751SOL    HW227153   2.166   0.408   3.311
 8752SOL     OW27154   1.969   2.367   6.146
 8752SOL    HW127155   1.934   2.281   6.184
 8752SOL    HW227156   1.976   2.435   6.219
 8753SOL     OW27157   6.208   1.491   5.041
 8753SOL    HW127158   6.304   1.467   5.023
 8753SOL    HW227159   6.151   1.457   4.966
 8754SOL     OW27160   2.168   0.965   5.042
 8754SOL    HW127161   2.085   0.925   5.081
 8754SOL    HW227162   2.246   0.906   5.062
 8755SOL     OW27163   2.424   1.904   0.744
 8755SOL    HW127164   2.460   1.813   0.725
 8755SOL    HW227165   2.429   1.923   0.842
 8756SOL     OW27166   1.593   3.965   3.727
 8756SOL    HW127167   1.686   3.930   3.736
 8756SOL    HW227168   1.584   4.049   3.781
 8757SOL     OW27169   4.742   6.083   4.308
 8757SOL    HW127170   4.773   6.139   4.385
 8757SOL    HW227171   4.658   6.122   4.270
 8758SOL     OW27172   5.264   6.525   2.091
 8758SOL    HW127173   5.287   6.618   2.064
 8758SOL    HW227174   5.186   6.526   2.154
 8759SOL     OW27175   4.860   1.517   5.178
 8759SOL    HW127176   4.916   1.504   5.259
 8759SOL    HW227177   4.828   1.611   5.173
 8760SOL     OW27178   1.285   2.933   3.777
 8760SOL    HW127179   1.365   2.987   3.803
 8760SOL    HW227180   1.214   2.943   3.847
 8761SOL     OW27181   4.605   6.290   0.727
 8761SOL    HW127182   4.555   6.223   0.672
 8761SOL    HW227183   4.701   6.264   0.734
 8762SOL     OW27184   0.950   3.774   0.163
 8762SOL    HW127185   0.853   3.781   0.139
 8762SOL    HW227186   0.984   3.683   0.138
 8763SOL     OW27187   0.190   6.007   6.119
 8763SOL    HW127188   0.206   5.922   6.170
 8763SOL    HW227189   0.130   6.067   6.172
 8764SOL     OW27190   3.496   2.213   5.486
 8764SOL    HW127191   3.471   2.143   5.419
 8764SOL    HW227192   3.531   2.169   5.569
 8765SOL     OW27193   0.097   0.336   4.951
 8765SOL    HW127194   0.139   0.308   5.037
 8765SOL    HW227195   0.017   0.279   4.933
 8766SOL     OW27196   2.444   4.507   2.359
 8766SOL    HW127197   2.441   4.456   2.274
 8766SOL    HW227198   2.434   4.605   2.340
 8767SOL     OW27199   4.788   1.802   4.894
 8767SOL    HW127200   4.854   1.862   4.850
 8767SOL    HW227201   4.748   1.740   4.826
 8768SOL     OW27202   1.563   4.230   0.102
 8768SOL    HW127203   1.482   4.284   0.126
 8768SOL    HW227204   1.536   4.139   0.073
 8769SOL     OW27205   2.193   0.462   5.073
 8769SOL    HW127206   2.188   0.512   4.986
 8769SOL    HW227207   2.197   0.528   5.149
 8770SOL     OW27208   5.274   1.909   2.857
 8770SOL    HW127209   5.274   2.000   2.899
 8770SOL    HW227210   5.317   1.913   2.767
 8771SOL     OW27211   2.234   2.535   5.337
 8771SOL    HW127212   2.218   2.572   5.428
 8771SOL    HW227213   2.309   2.584   5.293
 8772SOL     OW27214   5.965   5.828   6.673
 8772SOL    HW127215   6.048   5.882   6.655
 8772SOL    HW227216   5.991   5.735   6.698
 8773SOL     OW27217   3.217   1.806   3.090
 8773SOL    HW127218   3.205   1.867   3.169
 8773SOL    HW227219   3.145   1.737   3.091
 8774SOL     OW27220   1.213   0.764   0.562
 8774SOL    HW127221   1.142   0.833   0.575
 8774SOL    HW227222   1.303   0.805   0.576
 8775SOL     OW27223   6.764   6.693   4.017
 8775SOL    HW127224   6.809   6.672   4.104
 8775SOL    HW227225   6.726   6.786   4.022
 8776SOL     OW27226   3.115   3.922   4.816
 8776SOL    HW127227   3.038   3.894   4.873
 8776SOL    HW227228   3.081   3.951   4.726
 8777SOL     OW27229   6.482   5.704   2.260
 8777SOL    HW127230   6.459   5.749   2.174
 8777SOL    HW227231   6.579   5.715   2.279
 8778SOL     OW27232   0.770   1.970   3.167
 8778SOL    HW127233   0.858   2.018   3.169
 8778SOL    HW227234   0.769   1.900   3.238
 8779SOL     OW27235   1.219   4.746   1.072
 8779SOL    HW127236   1.310   4.768   1.039
 8779SOL    HW227237   1.224   4.668   1.135
 8780SOL     OW27238   2.325   6.451   4.432
 8780SOL    HW127239   2.349   6.388   4.505
 8780SOL    HW227240   2.400   6.516   4.418
 8781SOL     OW27241   0.631   2.299   3.022
 8781SOL    HW127242   0.681   2.328   3.104
 8781SOL    HW227243   0.655   2.205   2.999
 8782SOL     OW27244   4.833   1.513   3.075
 8782SOL    HW127245   4.888   1.591   3.104
 8782SOL    HW227246   4.876   1.471   2.994
 8783SOL     OW27247   5.432   2.447   5.770
 8783SOL    HW127248   5.339   2.418   5.793
 8783SOL    HW227249   5.473   2.380   5.709
 8784SOL     OW27250   5.153   4.006   5.793
 8784SOL    HW127251   5.150   4.061   5.876
 8784SOL    HW227252   5.150   4.067   5.713
 8785SOL     OW27253   5.245   4.989   6.398
 8785SOL    HW127254   5.207   4.925   6.465
 8785SOL    HW227255   5.304   4.939   6.334
 8786SOL     OW27256   1.142   6.238   0.924
 8786SOL    HW127257   1.241   6.256   0.921
 8786SOL    HW227258   1.119   6.171   0.853
 8787SOL     OW27259   1.545   2.965   0.093
 8787SOL    HW127260   1.640   2.991   0.073
 8787SOL    HW227261   1.533   2.956   0.192
 8788SOL     OW27262   1.574   1.610   5.112
 8788SOL    HW127263   1.627   1.687   5.076
 8788SOL    HW227264   1.521   1.569   5.037
 8789SOL     OW27265   0.126   0.447   6.591
 8789SOL    HW127266   0.210   0.431   6.642
 8789SOL    HW227267   0.055   0.480   6.653
 8790SOL     OW27268   4.823   1.132   0.076
 8790SOL    HW127269   4.783   1.222   0.060
 8790SOL    HW227270   4.919   1.142   0.103
 8791SOL     OW27271   4.994   6.045   5.601
 8791SOL    HW127272   4.984   5.959   5.651
 8791SOL    HW227273   4.907   6.095   5.603
 8792SOL     OW27274   5.549   0.035   2.715
 8792SOL    HW127275   5.561   6.958   2.742
 8792SOL    HW227276   5.468   0.043   2.656
 8793SOL     OW27277   0.990   4.145   3.695
 8793SOL    HW127278   0.969   4.242   3.681
 8793SOL    HW227279   0.938   4.110   3.772
 8794SOL     OW27280   2.742   6.205   2.545
 8794SOL    HW127281   2.795   6.123   2.523
 8794SOL    HW227282   2.760   6.231   2.640
 8795SOL     OW27283   2.374   5.819   5.152
 8795SOL    HW127284   2.325   5.760   5.088
 8795SOL    HW227285   2.369   5.914   5.122
 8796SOL     OW27286   5.512   2.793   5.574
 8796SOL    HW127287   5.463   2.721   5.525
 8796SOL    HW227288   5.446   2.861   5.608
 8797SOL     OW27289   0.835   6.345   6.520
 8797SOL    HW127290   0.854   6.344   6.618
 8797SOL    HW227291   0.896   6.410   6.475
 8798SOL     OW27292   3.522   3.068   5.998
 8798SOL    HW127293   3.569   3.005   6.059
 8798SOL    HW227294   3.587   3.101   5.929
 8799SOL     OW27295   3.868   6.918   3.184
 8799SOL    HW127296   3.782   6.911   3.236
 8799SOL    HW227297   3.856   6.983   3.110
 8800SOL     OW27298   4.235   5.317   0.440
 8800SOL    HW127299   4.319   5.371   0.440
 8800SOL    HW227300   4.207   5.297   0.346
 8801SOL     OW27301   2.958   6.582   5.248
 8801SOL    HW127302   2.882   6.572   5.184
 8801SOL    HW227303   2.945   6.664   5.303
 8802SOL     OW27304   2.138   6.391   1.690
 8802SOL    HW127305   2.233   6.374   1.718
 8802SOL    HW227306   2.132   6.480   1.646
 8803SOL     OW27307   3.950   6.232   0.978
 8803SOL    HW127308   3.973   6.260   1.071
 8803SOL    HW227309   3.903   6.307   0.932
 8804SOL     OW27310   3.320   0.720   0.976
 8804SOL    HW127311   3.379   0.730   0.896
 8804SOL    HW227312   3.251   0.793   0.975
 8805SOL     OW27313   0.206   0.361   3.358
 8805SOL    HW127314   0.154   0.284   3.319
 8805SOL    HW227315   0.217   0.347   3.456
 8806SOL     OW27316   2.556   5.000   0.229
 8806SOL    HW127317   2.649   5.028   0.252
 8806SOL    HW227318   2.548   4.989   0.130
 8807SOL     OW27319   1.662   6.138   6.308
 8807SOL    HW127320   1.659   6.238   6.307
 8807SOL    HW227321   1.748   6.107   6.348
 8808SOL     OW27322   5.975   2.008   0.875
 8808SOL    HW127323   6.045   1.986   0.943
 8808SOL    HW227324   5.923   1.926   0.852
 8809SOL     OW27325   5.949   4.529   0.908
 8809SOL    HW127326   5.985   4.445   0.867
 8809SOL    HW227327   5.887   4.506   0.983
 8810SOL     OW27328   5.270   1.509   3.878
 8810SOL    HW127329   5.232   1.548   3.794
 8810SOL    HW227330   5.197   1.503   3.947
 8811SOL     OW27331   1.559   1.720   3.831
 8811SOL    HW127332   1.528   1.709   3.925
 8811SOL    HW227333   1.639   1.780   3.829
 8812SOL     OW27334   2.304   0.675   0.090
 8812SOL    HW127335   2.216   0.634   0.115
 8812SOL    HW227336   2.346   0.715   0.171
 8813SOL     OW27337   1.058   5.842   0.887
 8813SOL    HW127338   1.138   5.863   0.943
 8813SOL    HW227339   1.050   5.911   0.814
 8814SOL     OW27340   5.362   6.308   0.275
 8814SOL    HW127341   5.334   6.384   0.217
 8814SOL    HW227342   5.417   6.342   0.351
 8815SOL     OW27343   6.317   5.742   3.241
 8815SOL    HW127344   6.336   5.645   3.253
 8815SOL    HW227345   6.237   5.767   3.296
 8816SOL     OW27346   1.071   5.797   2.200
 8816SOL    HW127347   1.141   5.813   2.271
 8816SOL    HW227348   0.994   5.748   2.239
 8817SOL     OW27349   2.730   4.549   5.369
 8817SOL    HW127350   2.816   4.547   5.318
 8817SOL    HW227351   2.661   4.598   5.316
 8818SOL     OW27352   0.192   4.754   4.796
 8818SOL    HW127353   0.150   4.795   4.877
 8818SOL    HW227354   0.280   4.714   4.822
 8819SOL     OW27355   5.623   0.168   3.962
 8819SOL    HW127356   5.673   0.096   4.009
 8819SOL    HW227357   5.664   0.257   3.984
 8820SOL     OW27358   1.185   3.380   4.165
 8820SOL    HW127359   1.244   3.422   4.095
 8820SOL    HW227360   1.121   3.449   4.199
 8821SOL     OW27361   1.308   6.577   6.416
 8821SOL    HW127362   1.223   6.525   6.429
 8821SOL    HW227363   1.333   6.622   6.502
 8822SOL     OW27364   0.473   1.895   3.917
 8822SOL    HW127365   0.406   1.822   3.934
 8822SOL    HW227366   0.545   1.861   3.857
 8823SOL     OW27367   2.539   4.808   1.653
 8823SOL    HW127368   2.440   4.814   1.668
 8823SOL    HW227369   2.573   4.720   1.684
 8824SOL     OW27370   4.686   3.887   0.916
 8824SOL    HW127371   4.599   3.849   0.885
 8824SOL    HW227372   4.670   3.945   0.996
 8825SOL     OW27373   1.846   2.296   1.025
 8825SOL    HW127374   1.777   2.324   1.091
 8825SOL    HW227375   1.868   2.372   0.964
 8826SOL     OW27376   5.434   0.682   0.314
 8826SOL    HW127377   5.407   0.674   0.218
 8826SOL    HW227378   5.525   0.723   0.320
 8827SOL     OW27379   6.925   0.965   3.321
 8827SOL    HW127380   6.954   1.060   3.314
 8827SOL    HW227381   6.996   0.906   3.281
 8828SOL     OW27382   1.367   6.297   2.864
 8828SOL    HW127383   1.423   6.355   2.923
 8828SOL    HW227384   1.378   6.326   2.769
 8829SOL     OW27385   1.093   1.419   0.665
 8829SOL    HW127386   1.145   1.465   0.594
 8829SOL    HW227387   1.028   1.483   0.707
 8830SOL     OW27388   1.160   1.547   0.413
 8830SOL    HW127389   1.067   1.550   0.378
 8830SOL    HW227390   1.222   1.587   0.345
 8831SOL     OW27391   0.028   1.127   1.994
 8831SOL    HW127392   0.002   1.223   2.001
 8831SOL    HW227393   7.005   1.076   2.070
 8832SOL     OW27394   6.937   0.853   2.036
 8832SOL    HW127395   6.989   0.769   2.027
 8832SOL    HW227396   6.913   0.869   2.131
 8833SOL     OW27397   1.141   4.938   3.250
 8833SOL    HW127398   1.153   5.036   3.236
 8833SOL    HW227399   1.230   4.893   3.250
 8834SOL     OW27400   5.822   4.147   4.014
 8834SOL    HW127401   5.881   4.148   3.934
 8834SOL    HW227402   5.870   4.104   4.090
 8835SOL     OW27403   0.445   0.465   6.393
 8835SOL    HW127404   0.519   0.520   6.354
 8835SOL    HW227405   0.414   0.506   6.478
 8836SOL     OW27406   5.005   1.824   1.614
 8836SOL    HW127407   4.917   1.871   1.606
 8836SOL    HW227408   5.027   1.811   1.710
 8837SOL     OW27409   0.770   2.050   2.247
 8837SOL    HW127410   0.784   2.145   2.276
 8837SOL    HW227411   0.673   2.027   2.255
 8838SOL     OW27412   2.251   5.955   3.159
 8838SOL    HW127413   2.332   6.002   3.194
 8838SOL    HW227414   2.221   5.886   3.226
 8839SOL     OW27415   5.569   6.184   4.089
 8839SOL    HW127416   5.511   6.135   4.154
 8839SOL    HW227417   5.665   6.166   4.109
 8840SOL     OW27418   4.846   1.230   2.536
 8840SOL    HW127419   4.919   1.162   2.530
 8840SOL    HW227420   4.858   1.286   2.618
 8841SOL     OW27421   2.842   0.000   3.875
 8841SOL    HW127422   2.821   6.926   3.844
 8841SOL    HW227423   2.759   0.044   3.909
 8842SOL     OW27424   1.400   2.770   1.840
 8842SOL    HW127425   1.471   2.825   1.796
 8842SOL    HW227426   1.416   2.766   1.938
 8843SOL     OW27427   0.206   3.378   4.748
 8843SOL    HW127428   0.286   3.437   4.750
 8843SOL    HW227429   0.234   3.282   4.748
 8844SOL     OW27430   5.869   1.246   6.139
 8844SOL    HW127431   5.940   1.285   6.197
 8844SOL    HW227432   5.910   1.180   6.076
 8845SOL     OW27433   5.583   3.424   6.958
 8845SOL    HW127434   5.612   3.459   0.029
 8845SOL    HW227435   5.525   3.344   6.971
 8846SOL     OW27436   2.799   4.733   3.381
 8846SOL    HW127437   2.707   4.693   3.375
 8846SOL    HW227438   2.833   4.724   3.475
 8847SOL     OW27439   1.595   0.997   2.700
 8847SOL    HW127440   1.622   1.090   2.725
 8847SOL    HW227441   1.653   0.931   2.747
 8848SOL     OW27442   0.859   0.613   3.359
 8848SOL    HW127443   0.946   0.662   3.347
 8848SOL    HW227444   0.867   0.522   3.319
 8849SOL     OW27445   2.184   6.577   1.307
 8849SOL    HW127446   2.093   6.620   1.311
 8849SOL    HW227447   2.175   6.479   1.328
 8850SOL     OW27448   2.819   2.483   6.910
 8850SOL    HW127449   2.745   2.423   6.879
 8850SOL    HW227450   2.907   2.440   6.890
 8851SOL     OW27451   1.833   3.952   2.126
 8851SOL    HW127452   1.878   3.899   2.055
 8851SOL    HW227453   1.742   3.914   2.143
 8852SOL     OW27454   0.846   1.986   5.174
 8852SOL    HW127455   0.816   2.022   5.085
 8852SOL    HW227456   0.939   2.018   5.192
 8853SOL     OW27457   5.089   0.846   1.595
 8853SOL    HW127458   5.037   0.803   1.670
 8853SOL    HW227459   5.176   0.879   1.630
 8854SOL     OW27460   0.669   2.801   4.918
 8854SOL    HW127461   0.616   2.866   4.864
 8854SOL    HW227462   0.765   2.803   4.890
 8855SOL     OW27463   5.302   4.722   1.402
 8855SOL    HW127464   5.354   4.807   1.397
 8855SOL    HW227465   5.317   4.679   1.491
 8856SOL     OW27466   6.195   0.504   5.701
 8856SOL    HW127467   6.268   0.459   5.648
 8856SOL    HW227468   6.236   0.569   5.766
 8857SOL     OW27469   0.083   1.979   6.144
 8857SOL    HW127470   0.116   1.896   6.098
 8857SOL    HW227471   0.113   1.977   6.239
 8858SOL     OW27472   6.681   5.367   4.824
 8858SOL    HW127473   6.740   5.441   4.791
 8858SOL    HW227474   6.699   5.284   4.772
 8859SOL     OW27475   1.454   5.999   2.922
 8859SOL    HW127476   1.423   6.073   2.862
 8859SOL    HW227477   1.376   5.962   2.972
 8860SOL     OW27478   0.304   3.481   2.468
 8860SOL    HW127479   0.375   3.550   2.483
 8860SOL    HW227480   0.230   3.520   2.413
 8861SOL     OW27481   3.925   2.559   1.666
 8861SOL    HW127482   3.974   2.645   1.678
 8861SOL    HW227483   3.976   2.500   1.603
 8862SOL     OW27484   4.388   4.614   4.669
 8862SOL    HW127485   4.394   4.579   4.763
 8862SOL    HW227486   4.337   4.700   4.669
 8863SOL     OW27487   1.470   3.921   2.619
 8863SOL    HW127488   1.433   3.997   2.564
 8863SOL    HW227489   1.561   3.946   2.653
 8864SOL     OW27490   6.304   2.114   5.603
 8864SOL    HW127491   6.320   2.212   5.587
 8864SOL    HW227492   6.376   2.060   5.560
 8865SOL     OW27493   2.843   2.155   0.262
 8865SOL    HW127494   2.838   2.071   0.206
 8865SOL    HW227495   2.920   2.211   0.231
 8866SOL     OW27496   5.659   6.543   2.361
 8866SOL    HW127497   5.752   6.532   2.396
 8866SOL    HW227498   5.658   6.615   2.291
 8867SOL     OW27499   6.698   3.258   2.873
 8867SOL    HW127500   6.697   3.358   2.863
 8867SOL    HW227501   6.605   3.225   2.890
 8868SOL     OW27502   6.931   3.492   3.667
 8868SOL    HW127503   6.943   3.440   3.752
 8868SOL    HW227504   6.835   3.489   3.639
 8869SOL     OW27505   5.093   0.590   3.594
 8869SOL    HW127506   5.184   0.632   3.586
 8869SOL    HW227507   5.063   0.559   3.504
 8870SOL     OW27508   1.363   1.077   1.978
 8870SOL    HW127509   1.398   1.167   2.003
 8870SOL    HW227510   1.353   1.071   1.879
 8871SOL     OW27511   0.254   0.442   1.353
 8871SOL    HW127512   0.208   0.358   1.325
 8871SOL    HW227513   0.189   0.518   1.352
 8872SOL     OW27514   6.909   3.815   3.181
 8872SOL    HW127515   6.943   3.905   3.208
 8872SOL    HW227516   6.922   3.750   3.255
 8873SOL     OW27517   2.640   2.157   3.153
 8873SOL    HW127518   2.686   2.081   3.106
 8873SOL    HW227519   2.668   2.159   3.248
 8874SOL     OW27520   3.186   6.478   0.883
 8874SOL    HW127521   3.259   6.415   0.913
 8874SOL    HW227522   3.145   6.522   0.963
 8875SOL     OW27523   6.071   2.975   4.947
 8875SOL    HW127524   6.079   3.073   4.932
 8875SOL    HW227525   6.142   2.945   5.010
 8876SOL     OW27526   3.449   0.768   0.745
 8876SOL    HW127527   3.422   0.806   0.657
 8876SOL    HW227528   3.543   0.734   0.740
 8877SOL     OW27529   0.778   4.728   1.054
 8877SOL    HW127530   0.852   4.781   1.095
 8877SOL    HW227531   0.695   4.741   1.109
 8878SOL     OW27532   5.003   3.918   1.589
 8878SOL    HW127533   4.970   3.876   1.674
 8878SOL    HW227534   4.951   4.001   1.571
 8879SOL     OW27535   0.264   4.109   3.055
 8879SOL    HW127536   0.289   4.039   2.988
 8879SOL    HW227537   0.260   4.198   3.010
 8880SOL     OW27538   4.419   2.382   2.947
 8880SOL    HW127539   4.352   2.359   2.877
 8880SOL    HW227540   4.478   2.455   2.915
 8881SOL     OW27541   3.530   5.017   2.832
 8881SOL    HW127542   3.484   5.018   2.921
 8881SOL    HW227543   3.465   4.988   2.762
 8882SOL     OW27544   4.007   0.682   0.923
 8882SOL    HW127545   4.068   0.726   0.857
 8882SOL    HW227546   3.932   0.744   0.945
 8883SOL     OW27547   0.095   6.705   3.286
 8883SOL    HW127548   0.026   6.636   3.264
 8883SOL    HW227549   0.161   6.667   3.351
 8884SOL     OW27550   4.616   3.122   5.825
 8884SOL    HW127551   4.581   3.184   5.755
 8884SOL    HW227552   4.674   3.053   5.782
 8885SOL     OW27553   5.416   6.052   0.492
 8885SOL    HW127554   5.339   6.057   0.555
 8885SOL    HW227555   5.383   6.037   0.399
 8886SOL     OW27556   4.182   6.454   6.777
 8886SOL    HW127557   4.221   6.517   6.710
 8886SOL    HW227558   4.252   6.432   6.846
 8887SOL     OW27559   3.854   0.518   1.797
 8887SOL    HW127560   3.795   0.506   1.876
 8887SOL    HW227561   3.804   0.566   1.725
 8888SOL     OW27562   3.269   2.059   2.407
 8888SOL    HW127563   3.178   2.085   2.377
 8888SOL    HW227564   3.308   1.993   2.343
 8889SOL     OW27565   1.347   4.665   0.532
 8889SOL    HW127566   1.404   4.640   0.610
 8889SOL    HW227567   1.251   4.650   0.554
 8890SOL     OW27568   0.934   6.337   6.779
 8890SOL    HW127569   1.009   6.272   6.773
 8890SOL    HW227570   0.925   6.369   6.873
 8891SOL     OW27571   6.611   3.666   5.755
 8891SOL    HW127572   6.690   3.723   5.781
 8891SOL    HW227573   6.530   3.723   5.748
 8892SOL     OW27574   3.071   5.192   4.756
 8892SOL    HW127575   3.096   5.101   4.791
 8892SOL    HW227576   2.972   5.198   4.747
 8893SOL     OW27577   0.821   4.356   5.636
 8893SOL    HW127578   0.732   4.311   5.642
 8893SOL    HW227579   0.810   4.454   5.654
 8894SOL     OW27580   5.006   1.444   1.712
 8894SOL    HW127581   5.094   1.460   1.756
 8894SOL    HW227582   5.006   1.483   1.620
 8895SOL     OW27583   6.879   3.205   0.936
 8895SOL    HW127584   6.966   3.172   0.973
 8895SOL    HW227585   6.820   3.233   1.012
 8896SOL     OW27586   1.084   1.754   3.656
 8896SOL    HW127587   1.182   1.734   3.650
 8896SOL    HW227588   1.048   1.714   3.740
 8897SOL     OW27589   1.677   5.624   4.011
 8897SOL    HW127590   1.726   5.567   3.944
 8897SOL    HW227591   1.707   5.719   4.001
 8898SOL     OW27592   4.965   3.807   2.179
 8898SOL    HW127593   4.938   3.831   2.085
 8898SOL    HW227594   4.926   3.874   2.242
 8899SOL     OW27595   1.871   3.695   3.120
 8899SOL    HW127596   1.961   3.660   3.096
 8899SOL    HW227597   1.879   3.759   3.196
 8900SOL     OW27598   4.142   1.943   4.486
 8900SOL    HW127599   4.188   2.001   4.552
 8900SOL    HW227600   4.193   1.857   4.474
 8901SOL     OW27601   2.043   5.688   4.969
 8901SOL    HW127602   2.038   5.736   5.057
 8901SOL    HW227603   1.952   5.660   4.941
 8902SOL     OW27604   0.297   5.085   6.863
 8902SOL    HW127605   0.297   5.185   6.872
 8902SOL    HW227606   0.369   5.046   6.920
 8903SOL     OW27607   1.016   0.624   5.193
 8903SOL    HW127608   1.113   0.598   5.200
 8903SOL    HW227609   0.985   0.611   5.099
 8904SOL     OW27610   0.876   0.922   3.739
 8904SOL    HW127611   0.843   0.924   3.834
 8904SOL    HW227612   0.800   0.937   3.677
 8905SOL     OW27613   1.526   4.331   2.156
 8905SOL    HW127614   1.578   4.267   2.212
 8905SOL    HW227615   1.439   4.289   2.129
 8906SOL     OW27616   5.776   0.027   6.897
 8906SOL    HW127617   5.846   0.083   6.854
 8906SOL    HW227618   5.721   7.000   6.827
 8907SOL     OW27619   2.915   3.255   5.167
 8907SOL    HW127620   2.934   3.266   5.069
 8907SOL    HW227621   2.979   3.190   5.206
 8908SOL     OW27622   1.444   4.805   6.484
 8908SOL    HW127623   1.493   4.740   6.543
 8908SOL    HW227624   1.422   4.887   6.536
 8909SOL     OW27625   1.895   5.554   1.441
 8909SOL    HW127626   1.865   5.470   1.488
 8909SOL    HW227627   1.866   5.551   1.346
 8910SOL     OW27628   1.172   0.955   3.501
 8910SOL    HW127629   1.150   0.911   3.589
 8910SOL    HW227630   1.266   0.934   3.476
 8911SOL     OW27631   5.564   2.274   4.526
 8911SOL    HW127632   5.471   2.271   4.564
 8911SOL    HW227633   5.624   2.322   4.589
 8912SOL     OW27634   3.437   3.315   3.938
 8912SOL    HW127635   3.385   3.276   4.014
 8912SOL    HW227636   3.535   3.300   3.953
 8913SOL     OW27637   5.067   6.072   1.131
 8913SOL    HW127638   5.001   5.998   1.146
 8913SOL    HW227639   5.129   6.046   1.057
 8914SOL     OW27640   5.069   5.760   5.381
 8914SOL    HW127641   5.062   5.661   5.367
 8914SOL    HW227642   5.081   5.805   5.293
 8915SOL     OW27643   1.661   0.772   3.182
 8915SOL    HW127644   1.605   0.854   3.190
 8915SOL    HW227645   1.615   0.705   3.124
 8916SOL     OW27646   5.313   0.963   1.337
 8916SOL    HW127647   5.317   1.059   1.362
 8916SOL    HW227648   5.219   0.930   1.342
 8917SOL     OW27649   5.851   1.831   0.058
 8917SOL    HW127650   5.879   1.888   6.999
 8917SOL    HW227651   5.837   1.737   0.027
 8918SOL     OW27652   1.029   3.153   2.853
 8918SOL    HW127653   1.066   3.158   2.761
 8918SOL    HW227654   0.962   3.078   2.858
 8919SOL     OW27655   5.945   2.674   2.407
 8919SOL    HW127656   5.846   2.691   2.404
 8919SOL    HW227657   5.963   2.584   2.368
 8920SOL     OW27658   0.617   1.374   0.253
 8920SOL    HW127659   0.550   1.313   0.210
 8920SOL    HW227660   0.597   1.468   0.225
 8921SOL     OW27661   0.867   3.101   2.073
 8921SOL    HW127662   0.770   3.076   2.075
 8921SOL    HW227663   0.914   3.045   2.005
 8922SOL     OW27664   3.568   4.943   3.807
 8922SOL    HW127665   3.664   4.919   3.793
 8922SOL    HW227666   3.561   5.041   3.826
 8923SOL     OW27667   2.448   1.028   4.375
 8923SOL    HW127668   2.373   1.060   4.433
 8923SOL    HW227669   2.474   1.100   4.311
 8924SOL     OW27670   6.427   5.042   5.032
 8924SOL    HW127671   6.483   4.973   5.077
 8924SOL    HW227672   6.330   5.024   5.051
 8925SOL     OW27673   0.641   6.970   3.131
 8925SOL    HW127674   0.668   6.888   3.081
 8925SOL    HW227675   0.710   0.022   3.120
 8926SOL     OW27676   6.002   0.860   0.004
 8926SOL    HW127677   5.994   0.777   6.966
 8926SOL    HW227678   6.065   0.924   6.977
 8927SOL     OW27679   1.774   0.952   6.877
 8927SOL    HW127680   1.761   1.047   6.904
 8927SOL    HW227681   1.841   0.946   6.804
 8928SOL     OW27682   1.380   6.751   5.841
 8928SOL    HW127683   1.415   6.804   5.918
 8928SOL    HW227684   1.398   6.654   5.858
 8929SOL     OW27685   0.327   1.664   3.953
 8929SOL    HW127686   0.234   1.656   3.990
 8929SOL    HW227687   0.354   1.576   3.913
 8930SOL     OW27688   2.002   5.077   3.803
 8930SOL    HW127689   2.091   5.039   3.830
 8930SOL    HW227690   1.930   5.031   3.854
 8931SOL     OW27691   3.999   3.518   0.310
 8931SOL    HW127692   3.937   3.525   0.388
 8931SOL    HW227693   4.055   3.600   0.303
 8932SOL     OW27694   0.886   3.324   3.464
 8932SOL    HW127695   0.816   3.315   3.535
 8932SOL    HW227696   0.930   3.413   3.473
 8933SOL     OW27697   4.249   1.715   5.977
 8933SOL    HW127698   4.298   1.645   5.925
 8933SOL    HW227699   4.315   1.775   6.023
 8934SOL     OW27700   2.436   6.300   2.779
 8934SOL    HW127701   2.438   6.229   2.708
 8934SOL    HW227702   2.373   6.272   2.852
 8935SOL     OW27703   6.422   5.187   0.195
 8935SOL    HW127704   6.403   5.107   0.251
 8935SOL    HW227705   6.383   5.174   0.104
 8936SOL     OW27706   3.766   2.893   0.320
 8936SOL    HW127707   3.786   2.944   0.404
 8936SOL    HW227708   3.837   2.823   0.307
 8937SOL     OW27709   0.751   0.204   5.541
 8937SOL    HW127710   0.753   0.235   5.445
 8937SOL    HW227711   0.662   0.164   5.561
 8938SOL     OW27712   4.924   6.186   1.508
 8938SOL    HW127713   4.983   6.121   1.556
 8938SOL    HW227714   4.980   6.249   1.454
 8939SOL     OW27715   4.964   1.920   5.120
 8939SOL    HW127716   4.956   1.876   5.209
 8939SOL    HW227717   4.900   1.879   5.056
 8940SOL     OW27718   5.848   6.911   2.484
 8940SOL    HW127719   5.874   6.817   2.463
 8940SOL    HW227720   5.763   6.934   2.438
 8941SOL     OW27721   4.436   1.368   6.497
 8941SOL    HW127722   4.453   1.288   6.440
 8941SOL    HW227723   4.503   1.371   6.571
 8942SOL     OW27724   1.546   2.648   5.242
 8942SOL    HW127725   1.527   2.737   5.199
 8942SOL    HW227726   1.581   2.585   5.173
 8943SOL     OW27727   4.929   3.248   1.336
 8943SOL    HW127728   5.012   3.195   1.356
 8943SOL    HW227729   4.849   3.198   1.370
 8944SOL     OW27730   3.959   5.684   1.593
 8944SOL    HW127731   3.989   5.589   1.586
 8944SOL    HW227732   4.038   5.744   1.594
 8945SOL     OW27733   2.536   1.429   4.652
 8945SOL    HW127734   2.482   1.408   4.570
 8945SOL    HW227735   2.476   1.469   4.722
 8946SOL     OW27736   4.163   1.204   4.935
 8946SOL    HW127737   4.199   1.163   4.851
 8946SOL    HW227738   4.092   1.270   4.912
 8947SOL     OW27739   3.916   3.799   5.158
 8947SOL    HW127740   3.960   3.888   5.154
 8947SOL    HW227741   3.866   3.783   5.073
 8948SOL     OW27742   5.794   4.787   2.780
 8948SOL    HW127743   5.755   4.877   2.801
 8948SOL    HW227744   5.815   4.739   2.865
 8949SOL     OW27745   2.071   5.292   5.791
 8949SOL    HW127746   2.167   5.294   5.821
 8949SOL    HW227747   2.068   5.298   5.691
 8950SOL     OW27748   4.951   2.479   4.796
 8950SOL    HW127749   4.869   2.459   4.743
 8950SOL    HW227750   4.933   2.557   4.857
 8951SOL     OW27751   2.501   1.433   5.521
 8951SOL    HW127752   2.528   1.521   5.483
 8951SOL    HW227753   2.493   1.366   5.447
 8952SOL     OW27754   6.564   6.693   3.472
 8952SOL    HW127755   6.658   6.722   3.453
 8952SOL    HW227756   6.552   6.597   3.445
 8953SOL     OW27757   1.319   4.995   6.621
 8953SOL    HW127758   1.270   4.919   6.664
 8953SOL    HW227759   1.260   5.076   6.618
 8954SOL     OW27760   2.007   6.215   5.607
 8954SOL    HW127761   1.910   6.198   5.627
 8954SOL    HW227762   2.051   6.253   5.689
 8955SOL     OW27763   6.492   3.676   4.506
 8955SOL    HW127764   6.399   3.668   4.471
 8955SOL    HW227765   6.490   3.691   4.605
 8956SOL     OW27766   1.441   0.561   4.574
 8956SOL    HW127767   1.487   0.519   4.496
 8956SOL    HW227768   1.457   0.505   4.655
 8957SOL     OW27769   2.475   5.804   1.606
 8957SOL    HW127770   2.377   5.818   1.598
 8957SOL    HW227771   2.520   5.892   1.623
 8958SOL     OW27772   2.486   0.185   4.171
 8958SOL    HW127773   2.418   0.112   4.176
 8958SOL    HW227774   2.476   0.245   4.251
 8959SOL     OW27775   2.955   5.594   0.397
 8959SOL    HW127776   2.881   5.579   0.463
 8959SOL    HW227777   2.938   5.541   0.314
 8960SOL     OW27778   3.568   5.693   0.943
 8960SOL    HW127779   3.628   5.661   0.870
 8960SOL    HW227780   3.622   5.717   1.023
 8961SOL     OW27781   1.552   2.425   3.990
 8961SOL    HW127782   1.646   2.455   4.004
 8961SOL    HW227783   1.492   2.505   3.991
 8962SOL     OW27784   4.899   0.642   3.111
 8962SOL    HW127785   4.951   0.669   3.030
 8962SOL    HW227786   4.801   0.649   3.091
 8963SOL     OW27787   0.050   0.981   3.614
 8963SOL    HW127788   6.994   1.030   3.570
 8963SOL    HW227789   0.104   0.933   3.544
 8964SOL     OW27790   0.092   3.594   3.186
 8964SOL    HW127791   0.049   3.624   3.101
 8964SOL    HW227792   0.022   3.577   3.255
 8965SOL     OW27793   1.027   5.136   1.553
 8965SOL    HW127794   1.087   5.165   1.479
 8965SOL    HW227795   1.062   5.171   1.640
 8966SOL     OW27796   3.427   2.425   5.325
 8966SOL    HW127797   3.344   2.393   5.279
 8966SOL    HW227798   3.468   2.349   5.376
 8967SOL     OW27799   4.420   6.698   0.793
 8967SOL    HW127800   4.424   6.669   0.698
 8967SOL    HW227801   4.325   6.695   0.826
 8968SOL     OW27802   5.101   4.448   3.340
 8968SOL    HW127803   5.027   4.430   3.274
 8968SOL    HW227804   5.184   4.472   3.290
 8969SOL     OW27805   6.422   0.573   4.148
 8969SOL    HW127806   6.349   0.513   4.179
 8969SOL    HW227807   6.490   0.583   4.221
 8970SOL     OW27808   3.744   2.075   1.318
 8970SOL    HW127809   3.738   2.009   1.243
 8970SOL    HW227810   3.653   2.095   1.353
 8971SOL     OW27811   4.368   6.065   3.085
 8971SOL    HW127812   4.340   5.969   3.086
 8971SOL    HW227813   4.288   6.123   3.102
 8972SOL     OW27814   5.706   0.219   4.763
 8972SOL    HW127815   5.640   0.284   4.726
 8972SOL    HW227816   5.659   0.150   4.817
 8973SOL     OW27817   1.823   5.109   0.113
 8973SOL    HW127818   1.788   5.034   0.057
 8973SOL    HW227819   1.914   5.084   0.148
 8974SOL     OW27820   0.528   3.295   3.868
 8974SOL    HW127821   0.609   3.311   3.811
 8974SOL    HW227822   0.486   3.208   3.842
 8975SOL     OW27823   3.751   0.585   6.423
 8975SOL    HW127824   3.829   0.528   6.398
 8975SOL    HW227825   3.746   0.663   6.361
 8976SOL     OW27826   0.966   4.960   4.229
 8976SOL    HW127827   0.946   4.950   4.131
 8976SOL    HW227828   0.924   4.884   4.279
 8977SOL     OW27829   5.623   0.926   6.784
 8977SOL    HW127830   5.620   0.827   6.770
 8977SOL    HW227831   5.575   0.950   6.868
 8978SOL     OW27832   5.612   4.994   0.895
 8978SOL    HW127833   5.706   5.026   0.904
 8978SOL    HW227834   5.565   5.003   0.982
 8979SOL     OW27835   1.809   5.049   5.022
 8979SOL    HW127836   1.874   5.125   5.024
 8979SOL    HW227837   1.722   5.079   5.060
 8980SOL     OW27838   3.960   3.046   4.479
 8980SOL    HW127839   4.003   3.001   4.558
 8980SOL    HW227840   3.900   2.981   4.433
 8981SOL     OW27841   2.752   1.305   5.682
 8981SOL    HW127842   2.683   1.372   5.656
 8981SOL    HW227843   2.784   1.325   5.775
 8982SOL     OW27844   4.418   4.310   0.862
 8982SOL    HW127845   4.374   4.311   0.772
 8982SOL    HW227846   4.420   4.217   0.897
 8983SOL     OW27847   4.796   5.259   0.710
 8983SOL    HW127848   4.760   5.348   0.740
 8983SOL    HW227849   4.859   5.273   0.634
 8984SOL     OW27850   1.375   6.664   3.611
 8984SOL    HW127851   1.442   6.731   3.643
 8984SOL    HW227852   1.321   6.631   3.688
 8985SOL     OW27853   2.796   3.010   6.170
 8985SOL    HW127854   2.838   2.930   6.212
 8985SOL    HW227855   2.738   2.982   6.093
 8986SOL     OW27856   3.716   6.227   2.834
 8986SOL    HW127857   3.732   6.160   2.762
 8986SOL    HW227858   3.801   6.245   2.883
 8987SOL     OW27859   5.160   6.033   1.485
 8987SOL    HW127860   5.133   5.941   1.456
 8987SOL    HW227861   5.258   6.034   1.502
 8988SOL     OW27862   1.098   5.219   5.068
 8988SOL    HW127863   1.116   5.208   5.166
 8988SOL    HW227864   1.159   5.158   5.016
 8989SOL     OW27865   2.851   2.756   6.846
 8989SOL    HW127866   2.821   2.815   6.921
 8989SOL    HW227867   2.836   2.661   6.871
 8990SOL     OW27868   0.419   5.863   3.256
 8990SOL    HW127869   0.416   5.948   3.308
 8990SOL    HW227870   0.381   5.879   3.165
 8991SOL     OW27871   1.406   2.055   5.215
 8991SOL    HW127872   1.436   2.023   5.305
 8991SOL    HW227873   1.365   1.979   5.165
 8992SOL     OW27874   7.003   2.152   1.066
 8992SOL    HW127875   6.954   2.138   0.980
 8992SOL    HW227876   0.011   2.063   1.104
 8993SOL     OW27877   4.758   1.808   0.678
 8993SOL    HW127878   4.663   1.782   0.692
 8993SOL    HW227879   4.787   1.873   0.748
 8994SOL     OW27880   1.951   5.744   2.948
 8994SOL    HW127881   1.874   5.808   2.951
 8994SOL    HW227882   2.002   5.757   2.863
 8995SOL     OW27883   0.264   0.398   0.945
 8995SOL    HW127884   0.344   0.432   0.896
 8995SOL    HW227885   0.294   0.343   1.023
 8996SOL     OW27886   3.901   6.716   6.034
 8996SOL    HW127887   3.982   6.699   6.090
 8996SOL    HW227888   3.928   6.718   5.937
 8997SOL     OW27889   6.116   0.786   4.676
 8997SOL    HW127890   6.145   0.772   4.582
 8997SOL    HW227891   6.095   0.883   4.691
 8998SOL     OW27892   6.427   3.340   4.898
 8998SOL    HW127893   6.489   3.279   4.947
 8998SOL    HW227894   6.455   3.435   4.912
 8999SOL     OW27895   3.669   6.838   6.059
 8999SOL    HW127896   3.686   6.936   6.064
 8999SOL    HW227897   3.757   6.790   6.051
 9000SOL     OW27898   1.639   4.106   1.116
 9000SOL    HW127899   1.563   4.133   1.176
 9000SOL    HW227900   1.668   4.184   1.061
 9001SOL     OW27901   0.855   5.637   1.775
 9001SOL    HW127902   0.836   5.732   1.748
 9001SOL    HW227903   0.806   5.575   1.714
 9002SOL     OW27904   0.809   4.634   6.314
 9002SOL    HW127905   0.813   4.554   6.374
 9002SOL    HW227906   0.763   4.610   6.229
 9003SOL     OW27907   5.219   0.202   1.561
 9003SOL    HW127908   5.298   0.142   1.566
 9003SOL    HW227909   5.238   0.287   1.612
 9004SOL     OW27910   4.779   4.834   0.295
 9004SOL    HW127911   4.814   4.869   0.382
 9004SOL    HW227912   4.747   4.911   0.239
 9005SOL     OW27913   5.410   1.345   5.635
 9005SOL    HW127914   5.372   1.428   5.595
 9005SOL    HW227915   5.360   1.265   5.602
 9006SOL     OW27916   3.782   6.034   0.434
 9006SOL    HW127917   3.869   5.986   0.433
 9006SOL    HW227918   3.798   6.131   0.452
 9007SOL     OW27919   1.849   1.152   3.119
 9007SOL    HW127920   1.922   1.151   3.051
 9007SOL    HW227921   1.763   1.127   3.075
 9008SOL     OW27922   0.818   5.813   2.550
 9008SOL    HW127923   0.881   5.856   2.615
 9008SOL    HW227924   0.806   5.872   2.470
 9009SOL     OW27925   3.484   6.443   1.619
 9009SOL    HW127926   3.566   6.390   1.600
 9009SOL    HW227927   3.435   6.402   1.696
 9010SOL     OW27928   1.352   5.990   4.149
 9010SOL    HW127929   1.266   6.040   4.158
 9010SOL    HW227930   1.345   5.923   4.075
 9011SOL     OW27931   2.430   2.606   2.098
 9011SOL    HW127932   2.484   2.621   2.181
 9011SOL    HW227933   2.486   2.558   2.031
 9012SOL     OW27934   1.657   6.536   7.000
 9012SOL    HW127935   1.755   6.528   6.986
 9012SOL    HW227936   1.624   6.460   0.036
 9013SOL     OW27937   2.157   6.754   4.614
 9013SOL    HW127938   2.097   6.774   4.691
 9013SOL    HW227939   2.243   6.715   4.648
 9014SOL     OW27940   5.189   3.035   3.972
 9014SOL    HW127941   5.097   2.997   3.974
 9014SOL    HW227942   5.184   3.134   3.986
 9015SOL     OW27943   4.692   1.243   6.261
 9015SOL    HW127944   4.597   1.217   6.276
 9015SOL    HW227945   4.736   1.177   6.200
 9016SOL     OW27946   5.033   5.500   5.888
 9016SOL    HW127947   5.064   5.444   5.966
 9016SOL    HW227948   5.111   5.548   5.848
 9017SOL     OW27949   4.247   0.243   4.649
 9017SOL    HW127950   4.253   0.147   4.676
 9017SOL    HW227951   4.257   0.251   4.550
 9018SOL     OW27952   3.799   4.792   6.416
 9018SOL    HW127953   3.710   4.782   6.461
 9018SOL    HW227954   3.798   4.742   6.329
 9019SOL     OW27955   0.070   3.391   4.023
 9019SOL    HW127956   0.071   3.479   4.069
 9019SOL    HW227957   7.006   3.341   4.048
 9020SOL     OW27958   5.147   4.843   3.007
 9020SOL    HW127959   5.218   4.818   3.072
 9020SOL    HW227960   5.120   4.938   3.023
 9021SOL     OW27961   0.659   1.082   4.191
 9021SOL    HW127962   0.606   1.124   4.265
 9021SOL    HW227963   0.750   1.058   4.224
 9022SOL     OW27964   4.506   4.271   6.517
 9022SOL    HW127965   4.510   4.317   6.429
 9022SOL    HW227966   4.564   4.190   6.515
 9023SOL     OW27967   6.265   4.173   0.384
 9023SOL    HW127968   6.172   4.210   0.386
 9023SOL    HW227969   6.297   4.155   0.477
 9024SOL     OW27970   2.193   5.947   5.895
 9024SOL    HW127971   2.243   6.034   5.891
 9024SOL    HW227972   2.180   5.912   5.802
 9025SOL     OW27973   0.987   5.689   1.148
 9025SOL    HW127974   0.971   5.734   1.061
 9025SOL    HW227975   1.085   5.686   1.167
 9026SOL     OW27976   5.130   1.135   0.462
 9026SOL    HW127977   5.176   1.156   0.549
 9026SOL    HW227978   5.033   1.119   0.479
 9027SOL     OW27979   1.015   4.012   3.422
 9027SOL    HW127980   1.072   4.065   3.359
 9027SOL    HW227981   1.011   4.060   3.510
 9028SOL     OW27982   3.292   4.841   6.117
 9028SOL    HW127983   3.269   4.789   6.199
 9028SOL    HW227984   3.291   4.939   6.139
 9029SOL     OW27985   4.907   0.181   4.567
 9029SOL    HW127986   4.978   0.203   4.500
 9029SOL    HW227987   4.832   0.246   4.559
 9030SOL     OW27988   3.100   1.396   2.145
 9030SOL    HW127989   3.129   1.300   2.144
 9030SOL    HW227990   3.017   1.406   2.091
 9031SOL     OW27991   4.450   6.780   4.853
 9031SOL    HW127992   4.484   6.686   4.853
 9031SOL    HW227993   4.480   6.826   4.769
 9032SOL     OW27994   5.199   3.169   1.928
 9032SOL    HW127995   5.238   3.082   1.899
 9032SOL    HW227996   5.099   3.163   1.925
 9033SOL     OW27997   0.129   0.057   2.806
 9033SOL    HW127998   0.188   0.126   2.849
 9033SOL    HW227999   0.157   0.045   2.710
 9034SOL     OW28000   4.670   6.822   4.182
 9034SOL    HW128001   4.697   6.795   4.274
 9034SOL    HW228002   4.745   6.801   4.118
 9035SOL     OW28003   2.573   5.586   6.958
 9035SOL    HW128004   2.614   5.495   6.962
 9035SOL    HW228005   2.574   5.619   6.864
 9036SOL     OW28006   1.247   4.560   5.300
 9036SOL    HW128007   1.332   4.551   5.247
 9036SOL    HW228008   1.235   4.479   5.357
 9037SOL     OW28009   0.616   0.776   2.863
 9037SOL    HW128010   0.535   0.731   2.900
 9037SOL    HW228011   0.652   0.722   2.787
 9038SOL     OW28012   4.629   2.902   5.198
 9038SOL    HW128013   4.655   2.898   5.294
 9038SOL    HW228014   4.550   2.844   5.181
 9039SOL     OW28015   4.310   6.102   6.407
 9039SOL    HW128016   4.383   6.134   6.346
 9039SOL    HW228017   4.329   6.007   6.434
 9040SOL     OW28018   2.277   1.924   1.476
 9040SOL    HW128019   2.348   1.989   1.502
 9040SOL    HW228020   2.238   1.882   1.558
 9041SOL     OW28021   6.962   2.083   2.396
 9041SOL    HW128022   6.902   2.061   2.472
 9041SOL    HW228023   6.944   2.175   2.364
 9042SOL     OW28024   3.637   6.249   0.728
 9042SOL    HW128025   3.684   6.174   0.775
 9042SOL    HW228026   3.700   6.294   0.665
 9043SOL     OW28027   3.164   2.963   0.938
 9043SOL    HW128028   3.186   2.865   0.943
 9043SOL    HW228029   3.245   3.014   0.910
 9044SOL     OW28030   0.795   0.874   0.638
 9044SOL    HW128031   0.799   0.946   0.707
 9044SOL    HW228032   0.879   0.874   0.585
 9045SOL     OW28033   4.304   1.542   3.251
 9045SOL    HW128034   4.372   1.472   3.231
 9045SOL    HW228035   4.257   1.569   3.167
 9046SOL     OW28036   3.079   3.071   2.101
 9046SOL    HW128037   3.178   3.057   2.101
 9046SOL    HW228038   3.037   3.010   2.034
 9047SOL     OW28039   1.437   4.435   6.480
 9047SOL    HW128040   1.450   4.459   6.383
 9047SOL    HW228041   1.377   4.355   6.486
 9048SOL     OW28042   6.769   1.406   5.986
 9048SOL    HW128043   6.721   1.358   5.912
 9048SOL    HW228044   6.865   1.420   5.960
 9049SOL     OW28045   2.688   6.785   5.573
 9049SOL    HW128046   2.649   6.859   5.520
 9049SOL    HW228047   2.672   6.698   5.526
 9050SOL     OW28048   1.077   4.440   1.047
 9050SOL    HW128049   1.130   4.371   0.998
 9050SOL    HW228050   0.983   4.440   1.013
 9051SOL     OW28051   2.411   1.092   1.576
 9051SOL    HW128052   2.498   1.050   1.599
 9051SOL    HW228053   2.428   1.183   1.538
 9052SOL     OW28054   1.459   2.614   5.711
 9052SOL    HW128055   1.538   2.627   5.651
 9052SOL    HW228056   1.486   2.564   5.793
 9053SOL     OW28057   0.779   0.986   0.154
 9053SOL    HW128058   0.728   1.025   0.078
 9053SOL    HW228059   0.868   0.955   0.122
 9054SOL     OW28060   2.232   5.898   2.299
 9054SOL    HW128061   2.240   5.865   2.205
 9054SOL    HW228062   2.178   5.982   2.301
 9055SOL     OW28063   0.123   2.739   5.463
 9055SOL    HW128064   0.211   2.733   5.417
 9055SOL    HW228065   0.121   2.821   5.521
 9056SOL     OW28066   6.000   2.907   3.194
 9056SOL    HW128067   5.979   3.004   3.204
 9056SOL    HW228068   6.098   2.892   3.200
 9057SOL     OW28069   4.410   2.289   3.998
 9057SOL    HW128070   4.452   2.199   4.001
 9057SOL    HW228071   4.468   2.352   3.946
 9058SOL     OW28072   2.595   0.781   5.749
 9058SOL    HW128073   2.506   0.736   5.758
 9058SOL    HW228074   2.608   0.843   5.827
 9059SOL     OW28075   1.393   2.259   3.114
 9059SOL    HW128076   1.314   2.314   3.086
 9059SOL    HW228077   1.419   2.283   3.208
 9060SOL     OW28078   5.001   2.949   5.697
 9060SOL    HW128079   5.044   2.965   5.786
 9060SOL    HW228080   4.972   3.037   5.659
 9061SOL     OW28081   2.602   6.000   2.803
 9061SOL    HW128082   2.691   5.978   2.843
 9061SOL    HW228083   2.592   6.100   2.799
 9062SOL     OW28084   1.718   5.988   1.410
 9062SOL    HW128085   1.808   6.029   1.428
 9062SOL    HW228086   1.698   5.918   1.478
 9063SOL     OW28087   2.535   2.109   2.190
 9063SOL    HW128088   2.601   2.179   2.217
 9063SOL    HW228089   2.451   2.153   2.158
 9064SOL     OW28090   5.143   3.272   0.712
 9064SOL    HW128091   5.124   3.363   0.674
 9064SOL    HW228092   5.064   3.242   0.766
 9065SOL     OW28093   2.788   0.408   0.216
 9065SOL    HW128094   2.878   0.418   0.257
 9065SOL    HW228095   2.791   0.435   0.120
 9066SOL     OW28096   5.054   6.757   0.050
 9066SOL    HW128097   5.008   6.845   0.060
 9066SOL    HW228098   4.988   6.683   0.058
 9067SOL     OW28099   1.046   0.651   1.899
 9067SOL    HW128100   0.981   0.624   1.827
 9067SOL    HW228101   0.996   0.693   1.974
 9068SOL     OW28102   1.324   6.015   6.534
 9068SOL    HW128103   1.360   6.064   6.454
 9068SOL    HW228104   1.353   5.920   6.530
 9069SOL     OW28105   1.640   2.182   6.377
 9069SOL    HW128106   1.711   2.183   6.307
 9069SOL    HW228107   1.651   2.101   6.434
 9070SOL     OW28108   1.281   4.716   3.330
 9070SOL    HW128109   1.360   4.755   3.375
 9070SOL    HW228110   1.295   4.617   3.317
 9071SOL     OW28111   4.454   5.910   0.275
 9071SOL    HW128112   4.493   5.958   0.196
 9071SOL    HW228113   4.467   5.812   0.264
 9072SOL     OW28114   5.226   4.706   0.209
 9072SOL    HW128115   5.255   4.650   0.287
 9072SOL    HW228116   5.268   4.796   0.215
 9073SOL     OW28117   1.997   0.763   1.175
 9073SOL    HW128118   2.036   0.699   1.109
 9073SOL    HW228119   2.037   0.748   1.265
 9074SOL     OW28120   0.485   0.467   3.311
 9074SOL    HW128121   0.547   0.394   3.284
 9074SOL    HW228122   0.398   0.428   3.340
 9075SOL     OW28123   0.329   0.522   1.687
 9075SOL    HW128124   0.243   0.553   1.645
 9075SOL    HW228125   0.346   0.574   1.770
 9076SOL     OW28126   0.691   1.264   5.152
 9076SOL    HW128127   0.729   1.199   5.087
 9076SOL    HW228128   0.606   1.302   5.115
 9077SOL     OW28129   6.165   6.202   1.425
 9077SOL    HW128130   6.108   6.185   1.505
 9077SOL    HW228131   6.245   6.255   1.452
 9078SOL     OW28132   4.240   3.166   5.659
 9078SOL    HW128133   4.184   3.201   5.583
 9078SOL    HW228134   4.336   3.163   5.630
 9079SOL     OW28135   4.148   0.839   5.487
 9079SOL    HW128136   4.106   0.925   5.517
 9079SOL    HW228137   4.248   0.847   5.494
 9080SOL     OW28138   4.940   1.318   6.777
 9080SOL    HW128139   4.948   1.295   6.680
 9080SOL    HW228140   5.031   1.316   6.819
 9081SOL     OW28141   5.572   6.949   3.426
 9081SOL    HW128142   5.475   6.973   3.435
 9081SOL    HW228143   5.616   6.952   3.515
 9082SOL     OW28144   2.887   0.741   2.800
 9082SOL    HW128145   2.899   0.767   2.896
 9082SOL    HW228146   2.934   0.806   2.741
 9083SOL     OW28147   4.736   4.065   4.324
 9083SOL    HW128148   4.691   4.086   4.236
 9083SOL    HW228149   4.751   4.151   4.373
 9084SOL     OW28150   4.119   3.645   2.829
 9084SOL    HW128151   4.114   3.547   2.844
 9084SOL    HW228152   4.086   3.667   2.737
 9085SOL     OW28153   0.953   2.323   0.831
 9085SOL    HW128154   0.884   2.395   0.832
 9085SOL    HW228155   0.997   2.320   0.741
 9086SOL     OW28156   6.769   3.801   0.171
 9086SOL    HW128157   6.777   3.735   0.245
 9086SOL    HW228158   6.679   3.846   0.176
 9087SOL     OW28159   5.360   3.906   2.271
 9087SOL    HW128160   5.296   3.839   2.235
 9087SOL    HW228161   5.310   3.984   2.309
 9088SOL     OW28162   4.890   6.200   0.755
 9088SOL    HW128163   4.918   6.134   0.685
 9088SOL    HW228164   4.971   6.248   0.789
 9089SOL     OW28165   4.195   0.504   5.872
 9089SOL    HW128166   4.290   0.477   5.858
 9089SOL    HW228167   4.160   0.548   5.790
 9090SOL     OW28168   6.030   1.746   3.222
 9090SOL    HW128169   6.063   1.838   3.204
 9090SOL    HW228170   6.108   1.684   3.231
 9091SOL     OW28171   4.006   2.636   5.924
 9091SOL    HW128172   4.092   2.660   5.969
 9091SOL    HW228173   3.931   2.683   5.969
 9092SOL     OW28174   6.781   3.582   6.613
 9092SOL    HW128175   6.847   3.652   6.640
 9092SOL    HW228176   6.804   3.495   6.656
 9093SOL     OW28177   2.367   6.548   5.075
 9093SOL    HW128178   2.373   6.503   4.986
 9093SOL    HW228179   2.442   6.613   5.084
 9094SOL     OW28180   1.874   3.693   1.099
 9094SOL    HW128181   1.809   3.764   1.128
 9094SOL    HW228182   1.959   3.703   1.151
 9095SOL     OW28183   6.637   6.811   6.326
 9095SOL    HW128184   6.658   6.869   6.248
 9095SOL    HW228185   6.539   6.816   6.346
 9096SOL     OW28186   5.455   5.395   4.909
 9096SOL    HW128187   5.516   5.407   4.831
 9096SOL    HW228188   5.383   5.464   4.907
 9097SOL     OW28189   1.390   2.217   5.880
 9097SOL    HW128190   1.460   2.146   5.871
 9097SOL    HW228191   1.359   2.244   5.789
 9098SOL     OW28192   2.193   4.537   3.688
 9098SOL    HW128193   2.136   4.577   3.760
 9098SOL    HW228194   2.207   4.604   3.615
 9099SOL     OW28195   2.082   1.436   6.694
 9099SOL    HW128196   2.049   1.436   6.789
 9099SOL    HW228197   2.023   1.379   6.638
 9100SOL     OW28198   1.628   4.684   3.958
 9100SOL    HW128199   1.568   4.762   3.973
 9100SOL    HW228200   1.584   4.618   3.897
 9101SOL     OW28201   0.294   2.283   0.419
 9101SOL    HW128202   0.214   2.290   0.359
 9101SOL    HW228203   0.291   2.197   0.469
 9102SOL     OW28204   3.854   0.421   2.891
 9102SOL    HW128205   3.756   0.426   2.908
 9102SOL    HW228206   3.872   0.350   2.823
 9103SOL     OW28207   6.024   1.041   1.374
 9103SOL    HW128208   6.035   0.988   1.290
 9103SOL    HW228209   6.072   0.995   1.449
 9104SOL     OW28210   6.057   1.984   6.100
 9104SOL    HW128211   5.982   1.971   6.036
 9104SOL    HW228212   6.117   2.057   6.067
 9105SOL     OW28213   3.023   1.215   6.258
 9105SOL    HW128214   3.072   1.144   6.309
 9105SOL    HW228215   2.926   1.214   6.285
 9106SOL     OW28216   2.165   3.416   6.887
 9106SOL    HW128217   2.083   3.436   6.941
 9106SOL    HW228218   2.143   3.351   6.815
 9107SOL     OW28219   3.440   1.330   0.522
 9107SOL    HW128220   3.417   1.393   0.447
 9107SOL    HW228221   3.369   1.260   0.529
 9108SOL     OW28222   0.032   5.809   5.688
 9108SOL    HW128223   0.069   5.883   5.744
 9108SOL    HW228224   6.951   5.805   5.699
 9109SOL     OW28225   5.714   4.067   2.714
 9109SOL    HW128226   5.614   4.066   2.712
 9109SOL    HW228227   5.747   4.160   2.699
 9110SOL     OW28228   1.464   6.444   3.089
 9110SOL    HW128229   1.477   6.534   3.047
 9110SOL    HW228230   1.368   6.434   3.119
 9111SOL     OW28231   3.707   2.350   5.694
 9111SOL    HW128232   3.651   2.271   5.718
 9111SOL    HW228233   3.779   2.362   5.762
 9112SOL     OW28234   0.375   5.265   2.262
 9112SOL    HW128235   0.462   5.255   2.214
 9112SOL    HW228236   0.374   5.353   2.310
 9113SOL     OW28237   5.980   0.467   3.995
 9113SOL    HW128238   6.030   0.554   3.999
 9113SOL    HW228239   5.890   0.483   3.956
 9114SOL     OW28240   1.171   0.077   5.697
 9114SOL    HW128241   1.258   0.029   5.687
 9114SOL    HW228242   1.144   0.078   5.793
 9115SOL     OW28243   4.748   4.402   5.339
 9115SOL    HW128244   4.768   4.328   5.403
 9115SOL    HW228245   4.765   4.370   5.246
 9116SOL     OW28246   1.648   0.106   3.647
 9116SOL    HW128247   1.735   0.156   3.643
 9116SOL    HW228248   1.585   0.144   3.580
 9117SOL     OW28249   1.648   6.808   0.245
 9117SOL    HW128250   1.630   6.796   0.147
 9117SOL    HW228251   1.610   6.896   0.274
 9118SOL     OW28252   6.658   3.749   1.699
 9118SOL    HW128253   6.612   3.702   1.775
 9118SOL    HW228254   6.720   3.818   1.735
 9119SOL     OW28255   3.004   1.453   1.143
 9119SOL    HW128256   3.018   1.462   1.242
 9119SOL    HW228257   2.909   1.426   1.125
 9120SOL     OW28258   6.366   4.034   4.705
 9120SOL    HW128259   6.329   3.949   4.744
 9120SOL    HW228260   6.291   4.100   4.692
 9121SOL     OW28261   4.211   1.107   4.435
 9121SOL    HW128262   4.261   1.109   4.522
 9121SOL    HW228263   4.113   1.109   4.453
 9122SOL     OW28264   0.047   2.674   1.652
 9122SOL    HW128265   0.125   2.637   1.601
 9122SOL    HW228266   0.072   2.762   1.692
 9123SOL     OW28267   0.651   6.142   4.016
 9123SOL    HW128268   0.627   6.118   4.110
 9123SOL    HW228269   0.589   6.214   3.983
 9124SOL     OW28270   3.784   5.966   0.780
 9124SOL    HW128271   3.833   5.930   0.859
 9124SOL    HW228272   3.850   5.989   0.708
 9125SOL     OW28273   5.359   6.385   1.459
 9125SOL    HW128274   5.346   6.323   1.382
 9125SOL    HW228275   5.289   6.368   1.528
 9126SOL     OW28276   4.631   4.665   0.709
 9126SOL    HW128277   4.619   4.570   0.677
 9126SOL    HW228278   4.594   4.727   0.640
 9127SOL     OW28279   6.386   4.411   5.313
 9127SOL    HW128280   6.410   4.317   5.288
 9127SOL    HW228281   6.467   4.457   5.350
 9128SOL     OW28282   5.831   3.801   6.025
 9128SOL    HW128283   5.870   3.778   6.115
 9128SOL    HW228284   5.749   3.746   6.010
 9129SOL     OW28285   0.762   2.952   0.733
 9129SOL    HW128286   0.676   2.985   0.695
 9129SOL    HW228287   0.771   2.983   0.828
 9130SOL     OW28288   2.992   3.555   5.478
 9130SOL    HW128289   2.959   3.484   5.416
 9130SOL    HW228290   2.922   3.624   5.489
 9131SOL     OW28291   5.406   2.780   0.727
 9131SOL    HW128292   5.320   2.729   0.718
 9131SOL    HW228293   5.438   2.774   0.822
 9132SOL     OW28294   0.864   4.091   3.923
 9132SOL    HW128295   0.919   4.041   3.991
 9132SOL    HW228296   0.802   4.153   3.970
 9133SOL     OW28297   5.601   6.849   1.420
 9133SOL    HW128298   5.519   6.824   1.369
 9133SOL    HW228299   5.681   6.833   1.363
 9134SOL     OW28300   5.250   4.935   6.802
 9134SOL    HW128301   5.297   5.000   6.863
 9134SOL    HW228302   5.160   4.914   6.840
 9135SOL     OW28303   6.523   5.390   2.286
 9135SOL    HW128304   6.440   5.337   2.269
 9135SOL    HW228305   6.538   5.454   2.211
 9136SOL     OW28306   0.727   5.040   0.593
 9136SOL    HW128307   0.765   5.013   0.681
 9136SOL    HW228308   0.634   5.003   0.583
 9137SOL     OW28309   5.669   5.754   5.716
 9137SOL    HW128310   5.593   5.723   5.658
 9137SOL    HW228311   5.744   5.787   5.659
 9138SOL     OW28312   2.171   4.418   6.197
 9138SOL    HW128313   2.121   4.496   6.159
 9138SOL    HW228314   2.146   4.335   6.148
 9139SOL     OW28315   0.348   0.229   1.636
 9139SOL    HW128316   0.304   0.190   1.717
 9139SOL    HW228317   0.343   0.329   1.641
 9140SOL     OW28318   1.954   4.191   2.124
 9140SOL    HW128319   1.913   4.100   2.136
 9140SOL    HW228320   1.882   4.259   2.112
 9141SOL     OW28321   0.499   5.594   4.379
 9141SOL    HW128322   0.532   5.583   4.285
 9141SOL    HW228323   0.408   5.636   4.377
 9142SOL     OW28324   1.376   4.335   3.203
 9142SOL    HW128325   1.324   4.342   3.288
 9142SOL    HW228326   1.452   4.400   3.205
 9143SOL     OW28327   6.103   3.716   2.785
 9143SOL    HW128328   6.032   3.648   2.769
 9143SOL    HW228329   6.061   3.805   2.804
 9144SOL     OW28330   3.125   4.031   5.420
 9144SOL    HW128331   3.119   4.129   5.399
 9144SOL    HW228332   3.181   3.986   5.351
 9145SOL     OW28333   1.695   6.279   5.644
 9145SOL    HW128334   1.727   6.288   5.738
 9145SOL    HW228335   1.617   6.216   5.641
 9146SOL     OW28336   5.966   2.294   3.691
 9146SOL    HW128337   5.981   2.305   3.789
 9146SOL    HW228338   6.015   2.212   3.659
 9147SOL     OW28339   4.144   0.839   6.045
 9147SOL    HW128340   4.070   0.773   6.035
 9147SOL    HW228341   4.163   0.881   5.957
 9148SOL     OW28342   4.498   5.781   1.870
 9148SOL    HW128343   4.558   5.737   1.804
 9148SOL    HW228344   4.552   5.815   1.947
 9149SOL     OW28345   0.883   3.853   1.694
 9149SOL    HW128346   0.845   3.911   1.622
 9149SOL    HW228347   0.809   3.823   1.754
 9150SOL     OW28348   3.140   3.810   0.027
 9150SOL    HW128349   3.176   3.852   0.110
 9150SOL    HW228350   3.040   3.805   0.033
 9151SOL     OW28351   2.227   3.061   3.570
 9151SOL    HW128352   2.253   3.000   3.495
 9151SOL    HW228353   2.235   3.156   3.540
 9152SOL     OW28354   2.145   4.969   2.308
 9152SOL    HW128355   2.160   4.993   2.213
 9152SOL    HW228356   2.214   5.013   2.365
 9153SOL     OW28357   0.369   3.174   0.219
 9153SOL    HW128358   0.347   3.244   0.286
 9153SOL    HW228359   0.387   3.217   0.130
 9154SOL     OW28360   4.908   4.685   3.661
 9154SOL    HW128361   4.820   4.725   3.635
 9154SOL    HW228362   4.895   4.623   3.739
 9155SOL     OW28363   0.902   6.346   2.639
 9155SOL    HW128364   0.930   6.372   2.731
 9155SOL    HW228365   0.804   6.361   2.628
 9156SOL     OW28366   0.279   3.888   5.625
 9156SOL    HW128367   0.195   3.834   5.616
 9156SOL    HW228368   0.358   3.827   5.625
 9157SOL     OW28369   2.029   4.898   5.084
 9157SOL    HW128370   1.966   4.975   5.091
 9157SOL    HW228371   2.101   4.907   5.152
 9158SOL     OW28372   6.911   3.161   4.828
 9158SOL    HW128373   6.864   3.193   4.745
 9158SOL    HW228374   6.859   3.190   4.908
 9159SOL     OW28375   2.573   1.287   3.962
 9159SOL    HW128376   2.547   1.375   4.001
 9159SOL    HW228377   2.517   1.268   3.881
 9160SOL     OW28378   1.113   2.897   6.743
 9160SOL    HW128379   1.032   2.955   6.759
 9160SOL    HW228380   1.186   2.953   6.705
 9161SOL     OW28381   5.824   3.082   3.282
 9161SOL    HW128382   5.822   3.096   3.381
 9161SOL    HW228383   5.796   3.167   3.236
 9162SOL     OW28384   3.919   2.250   1.749
 9162SOL    HW128385   3.823   2.254   1.778
 9162SOL    HW228386   3.948   2.339   1.717
 9163SOL     OW28387   1.509   2.837   4.034
 9163SOL    HW128388   1.540   2.881   3.950
 9163SOL    HW228389   1.536   2.893   4.113
 9164SOL     OW28390   2.616   6.223   6.932
 9164SOL    HW128391   2.604   6.322   6.930
 9164SOL    HW228392   2.637   6.194   0.007
 9165SOL     OW28393   5.763   0.975   6.213
 9165SOL    HW128394   5.774   1.074   6.229
 9165SOL    HW228395   5.732   0.931   6.297
 9166SOL     OW28396   4.226   6.495   2.057
 9166SOL    HW128397   4.163   6.514   1.982
 9166SOL    HW228398   4.319   6.520   2.031
 9167SOL     OW28399   1.474   1.742   4.101
 9167SOL    HW128400   1.514   1.695   4.180
 9167SOL    HW228401   1.389   1.787   4.129
 9168SOL     OW28402   6.448   5.807   4.925
 9168SOL    HW128403   6.424   5.774   5.016
 9168SOL    HW228404   6.548   5.806   4.915
 9169SOL     OW28405   6.496   6.107   6.982
 9169SOL    HW128406   6.482   6.144   0.056
 9169SOL    HW228407   6.531   6.179   6.922
 9170SOL     OW28408   2.320   0.726   5.734
 9170SOL    HW128409   2.250   0.682   5.678
 9170SOL    HW228410   2.279   0.757   5.820
 9171SOL     OW28411   3.664   5.745   6.962
 9171SOL    HW128412   3.601   5.684   7.010
 9171SOL    HW228413   3.612   5.800   6.896
 9172SOL     OW28414   4.402   1.443   5.496
 9172SOL    HW128415   4.418   1.360   5.550
 9172SOL    HW228416   4.361   1.417   5.409
 9173SOL     OW28417   6.106   3.587   5.287
 9173SOL    HW128418   6.008   3.575   5.269
 9173SOL    HW228419   6.120   3.602   5.385
 9174SOL     OW28420   6.137   4.670   0.757
 9174SOL    HW128421   6.100   4.714   0.675
 9174SOL    HW228422   6.068   4.611   0.798
 9175SOL     OW28423   2.119   1.142   1.256
 9175SOL    HW128424   2.191   1.084   1.294
 9175SOL    HW228425   2.161   1.214   1.200
 9176SOL     OW28426   1.634   1.258   2.792
 9176SOL    HW128427   1.733   1.259   2.780
 9176SOL    HW228428   1.597   1.349   2.775
 9177SOL     OW28429   1.067   5.572   3.470
 9177SOL    HW128430   0.989   5.537   3.419
 9177SOL    HW228431   1.097   5.503   3.537
 9178SOL     OW28432   1.313   3.699   1.294
 9178SOL    HW128433   1.259   3.616   1.308
 9178SOL    HW228434   1.389   3.701   1.359
 9179SOL     OW28435   4.177   4.839   3.742
 9179SOL    HW128436   4.188   4.824   3.644
 9179SOL    HW228437   4.204   4.756   3.791
 9180SOL     OW28438   0.719   0.653   5.201
 9180SOL    HW128439   0.811   0.625   5.225
 9180SOL    HW228440   0.694   0.614   5.112
 9181SOL     OW28441   2.686   1.861   3.533
 9181SOL    HW128442   2.721   1.871   3.626
 9181SOL    HW228443   2.642   1.771   3.523
 9182SOL     OW28444   6.762   1.585   2.955
 9182SOL    HW128445   6.721   1.671   2.924
 9182SOL    HW228446   6.861   1.588   2.938
 9183SOL     OW28447   2.323   1.169   5.786
 9183SOL    HW128448   2.325   1.077   5.746
 9183SOL    HW228449   2.296   1.235   5.715
 9184SOL     OW28450   2.685   4.480   1.423
 9184SOL    HW128451   2.664   4.563   1.473
 9184SOL    HW228452   2.766   4.437   1.462
 9185SOL     OW28453   1.311   0.766   5.689
 9185SOL    HW128454   1.397   0.715   5.699
 9185SOL    HW228455   1.330   0.863   5.682
 9186SOL     OW28456   5.709   6.232   6.234
 9186SOL    HW128457   5.766   6.254   6.313
 9186SOL    HW228458   5.693   6.314   6.180
 9187SOL     OW28459   5.058   2.683   1.245
 9187SOL    HW128460   5.040   2.671   1.343
 9187SOL    HW228461   4.996   2.753   1.208
 9188SOL     OW28462   1.345   0.629   1.953
 9188SOL    HW128463   1.252   0.660   1.934
 9188SOL    HW228464   1.410   0.699   1.923
 9189SOL     OW28465   3.127   0.672   5.988
 9189SOL    HW128466   3.160   0.592   5.939
 9189SOL    HW228467   3.205   0.722   6.026
 9190SOL     OW28468   4.140   1.113   5.488
 9190SOL    HW128469   4.116   1.101   5.392
 9190SOL    HW228470   4.117   1.206   5.517
 9191SOL     OW28471   5.313   6.621   1.640
 9191SOL    HW128472   5.245   6.694   1.637
 9191SOL    HW228473   5.267   6.532   1.639
 9192SOL     OW28474   4.788   4.014   4.816
 9192SOL    HW128475   4.764   4.043   4.908
 9192SOL    HW228476   4.746   4.075   4.749
 9193SOL     OW28477   4.115   3.373   3.233
 9193SOL    HW128478   4.021   3.345   3.210
 9193SOL    HW228479   4.155   3.307   3.296
 9194SOL     OW28480   3.750   4.881   2.922
 9194SOL    HW128481   3.822   4.863   2.855
 9194SOL    HW228482   3.661   4.868   2.880
 9195SOL     OW28483   0.867   2.559   3.497
 9195SOL    HW128484   0.897   2.542   3.591
 9195SOL    HW228485   0.808   2.640   3.495
 9196SOL     OW28486   5.256   5.826   3.487
 9196SOL    HW128487   5.309   5.793   3.566
 9196SOL    HW228488   5.246   5.752   3.421
 9197SOL     OW28489   4.593   1.498   0.188
 9197SOL    HW128490   4.503   1.456   0.171
 9197SOL    HW228491   4.646   1.498   0.103
 9198SOL     OW28492   5.813   2.685   5.540
 9198SOL    HW128493   5.758   2.763   5.570
 9198SOL    HW228494   5.757   2.626   5.481
 9199SOL     OW28495   1.009   3.628   6.549
 9199SOL    HW128496   0.948   3.571   6.494
 9199SOL    HW228497   1.104   3.602   6.531
 9200SOL     OW28498   5.341   5.921   1.192
 9200SOL    HW128499   5.265   5.870   1.231
 9200SOL    HW228500   5.343   6.013   1.233
 9201SOL     OW28501   7.018   2.886   2.080
 9201SOL    HW128502   6.963   2.963   2.048
 9201SOL    HW228503   0.001   2.815   2.010
 9202SOL     OW28504   2.672   6.318   4.318
 9202SOL    HW128505   2.758   6.267   4.314
 9202SOL    HW228506   2.607   6.271   4.377
 9203SOL     OW28507   5.446   1.285   0.364
 9203SOL    HW128508   5.361   1.301   0.414
 9203SOL    HW228509   5.509   1.360   0.380
 9204SOL     OW28510   5.018   4.630   2.880
 9204SOL    HW128511   4.922   4.609   2.902
 9204SOL    HW228512   5.042   4.720   2.917
 9205SOL     OW28513   4.277   2.437   1.329
 9205SOL    HW128514   4.300   2.343   1.309
 9205SOL    HW228515   4.341   2.499   1.283
 9206SOL     OW28516   6.683   6.133   5.285
 9206SOL    HW128517   6.610   6.201   5.273
 9206SOL    HW228518   6.767   6.168   5.243
 9207SOL     OW28519   4.604   6.433   0.477
 9207SOL    HW128520   4.514   6.475   0.493
 9207SOL    HW228521   4.645   6.409   0.564
 9208SOL     OW28522   4.705   4.294   1.366
 9208SOL    HW128523   4.727   4.338   1.279
 9208SOL    HW228524   4.614   4.322   1.396
 9209SOL     OW28525   4.297   0.542   3.937
 9209SOL    HW128526   4.362   0.613   3.913
 9209SOL    HW228527   4.251   0.509   3.854
 9210SOL     OW28528   0.995   0.085   6.793
 9210SOL    HW128529   1.033   0.172   6.825
 9210SOL    HW228530   1.051   0.009   6.825
 9211SOL     OW28531   5.023   0.982   6.708
 9211SOL    HW128532   5.040   0.929   6.791
 9211SOL    HW228533   4.957   1.055   6.728
 9212SOL     OW28534   6.155   3.283   5.806
 9212SOL    HW128535   6.125   3.252   5.896
 9212SOL    HW228536   6.107   3.231   5.735
 9213SOL     OW28537   6.544   5.747   1.849
 9213SOL    HW128538   6.542   5.836   1.895
 9213SOL    HW228539   6.456   5.731   1.803
 9214SOL     OW28540   1.800   1.771   6.676
 9214SOL    HW128541   1.849   1.744   6.593
 9214SOL    HW228542   1.846   1.730   6.755
 9215SOL     OW28543   0.385   3.826   3.589
 9215SOL    HW128544   0.305   3.767   3.601
 9215SOL    HW228545   0.457   3.797   3.652
 9216SOL     OW28546   2.655   6.681   3.830
 9216SOL    HW128547   2.698   6.708   3.916
 9216SOL    HW228548   2.681   6.745   3.758
 9217SOL     OW28549   3.636   2.336   6.836
 9217SOL    HW128550   3.699   2.335   6.758
 9217SOL    HW228551   3.682   2.301   6.917
 9218SOL     OW28552   4.921   5.836   5.770
 9218SOL    HW128553   4.830   5.839   5.731
 9218SOL    HW228554   4.923   5.773   5.847
 9219SOL     OW28555   3.253   2.142   5.743
 9219SOL    HW128556   3.234   2.194   5.660
 9219SOL    HW228557   3.175   2.149   5.805
 9220SOL     OW28558   0.606   6.599   3.238
 9220SOL    HW128559   0.626   6.645   3.151
 9220SOL    HW228560   0.669   6.522   3.250
 9221SOL     OW28561   2.747   1.803   1.484
 9221SOL    HW128562   2.701   1.867   1.546
 9221SOL    HW228563   2.813   1.853   1.428
 9222SOL     OW28564   1.867   5.367   3.159
 9222SOL    HW128565   1.882   5.450   3.213
 9222SOL    HW228566   1.888   5.385   3.063
 9223SOL     OW28567   6.667   2.791   4.974
 9223SOL    HW128568   6.570   2.813   4.968
 9223SOL    HW228569   6.716   2.835   4.899
 9224SOL     OW28570   1.452   5.123   2.123
 9224SOL    HW128571   1.402   5.062   2.184
 9224SOL    HW228572   1.419   5.216   2.134
 9225SOL     OW28573   0.873   5.594   6.174
 9225SOL    HW128574   0.845   5.664   6.109
 9225SOL    HW228575   0.973   5.592   6.182
 9226SOL     OW28576   0.845   0.427   4.700
 9226SOL    HW128577   0.791   0.351   4.663
 9226SOL    HW228578   0.874   0.487   4.625
 9227SOL     OW28579   3.717   3.693   0.185
 9227SOL    HW128580   3.742   3.655   0.096
 9227SOL    HW228581   3.680   3.620   0.243
 9228SOL     OW28582   3.520   3.528   5.125
 9228SOL    HW128583   3.433   3.568   5.155
 9228SOL    HW228584   3.587   3.534   5.199
 9229SOL     OW28585   0.435   4.851   0.326
 9229SOL    HW128586   0.506   4.783   0.344
 9229SOL    HW228587   0.351   4.805   0.296
 9230SOL     OW28588   4.301   6.844   5.329
 9230SOL    HW128589   4.273   6.776   5.261
 9230SOL    HW228590   4.340   6.797   5.408
 9231SOL     OW28591   6.573   6.087   1.811
 9231SOL    HW128592   6.485   6.134   1.803
 9231SOL    HW228593   6.610   6.069   1.720
 9232SOL     OW28594   1.297   5.833   2.339
 9232SOL    HW128595   1.387   5.876   2.331
 9232SOL    HW228596   1.310   5.735   2.360
 9233SOL     OW28597   1.087   0.230   5.489
 9233SOL    HW128598   1.069   0.321   5.525
 9233SOL    HW228599   1.120   0.171   5.562
 9234SOL     OW28600   3.404   4.496   6.076
 9234SOL    HW128601   3.322   4.470   6.024
 9234SOL    HW228602   3.474   4.529   6.013
 9235SOL     OW28603   2.301   2.656   3.031
 9235SOL    HW128604   2.263   2.671   3.122
 9235SOL    HW228605   2.369   2.583   3.036
 9236SOL     OW28606   1.568   3.393   6.174
 9236SOL    HW128607   1.646   3.443   6.138
 9236SOL    HW228608   1.485   3.446   6.161
 9237SOL     OW28609   6.498   4.940   3.423
 9237SOL    HW128610   6.507   5.040   3.420
 9237SOL    HW228611   6.422   4.916   3.484
 9238SOL     OW28612   1.444   2.821   5.076
 9238SOL    HW128613   1.393   2.896   5.034
 9238SOL    HW228614   1.457   2.748   5.009
 9239SOL     OW28615   1.236   6.124   5.643
 9239SOL    HW128616   1.205   6.111   5.548
 9239SOL    HW228617   1.163   6.166   5.696
 9240SOL     OW28618   3.394   1.450   4.220
 9240SOL    HW128619   3.355   1.373   4.271
 9240SOL    HW228620   3.393   1.532   4.276
 9241SOL     OW28621   5.503   6.352   0.516
 9241SOL    HW128622   5.455   6.271   0.550
 9241SOL    HW228623   5.601   6.333   0.509
 9242SOL     OW28624   2.308   2.969   0.259
 9242SOL    HW128625   2.404   2.983   0.238
 9242SOL    HW228626   2.299   2.924   0.347
 9243SOL     OW28627   2.090   6.894   0.325
 9243SOL    HW128628   2.056   6.986   0.304
 9243SOL    HW228629   2.013   6.834   0.347
 9244SOL     OW28630   2.475   6.100   6.742
 9244SOL    HW128631   2.380   6.092   6.774
 9244SOL    HW228632   2.526   6.159   6.805
 9245SOL     OW28633   0.713   4.960   2.762
 9245SOL    HW128634   0.631   4.925   2.806
 9245SOL    HW228635   0.712   4.937   2.664
 9246SOL     OW28636   4.811   6.581   0.088
 9246SOL    HW128637   4.819   6.579   0.187
 9246SOL    HW228638   4.714   6.577   0.062
 9247SOL     OW28639   3.569   6.626   2.677
 9247SOL    HW128640   3.518   6.548   2.712
 9247SOL    HW228641   3.517   6.710   2.693
 9248SOL     OW28642   2.558   0.365   6.777
 9248SOL    HW128643   2.575   0.275   6.819
 9248SOL    HW228644   2.597   0.436   6.835
 9249SOL     OW28645   3.198   0.417   0.363
 9249SOL    HW128646   3.126   0.478   0.396
 9249SOL    HW228647   3.276   0.422   0.425
 9250SOL     OW28648   0.635   3.965   2.886
 9250SOL    HW128649   0.631   3.909   2.803
 9250SOL    HW228650   0.589   3.918   2.961
 9251SOL     OW28651   3.997   1.658   1.324
 9251SOL    HW128652   3.916   1.710   1.297
 9251SOL    HW228653   3.981   1.560   1.308
 9252SOL     OW28654   5.709   1.242   4.865
 9252SOL    HW128655   5.749   1.179   4.799
 9252SOL    HW228656   5.679   1.192   4.946
 9253SOL     OW28657   2.279   5.316   4.108
 9253SOL    HW128658   2.282   5.393   4.044
 9253SOL    HW228659   2.296   5.231   4.058
 9254SOL     OW28660   0.106   5.687   2.313
 9254SOL    HW128661   0.021   5.671   2.262
 9254SOL    HW228662   0.133   5.782   2.302
 9255SOL     OW28663   6.192   3.448   0.785
 9255SOL    HW128664   6.140   3.507   0.724
 9255SOL    HW228665   6.260   3.396   0.731
 9256SOL     OW28666   2.527   6.493   0.774
 9256SOL    HW128667   2.503   6.421   0.840
 9256SOL    HW228668   2.445   6.523   0.726
 9257SOL     OW28669   6.643   5.925   4.732
 9257SOL    HW128670   6.552   5.955   4.759
 9257SOL    HW228671   6.681   5.866   4.803
 9258SOL     OW28672   5.206   4.994   2.120
 9258SOL    HW128673   5.205   4.956   2.028
 9258SOL    HW228674   5.161   5.083   2.120
 9259SOL     OW28675   0.924   2.363   6.966
 9259SOL    HW128676   0.871   2.437   7.009
 9259SOL    HW228677   0.911   2.366   6.867
 9260SOL     OW28678   5.067   4.022   4.844
 9260SOL    HW128679   5.118   3.976   4.772
 9260SOL    HW228680   4.977   3.978   4.855
 9261SOL     OW28681   1.718   3.661   1.793
 9261SOL    HW128682   1.809   3.665   1.833
 9261SOL    HW228683   1.691   3.752   1.762
 9262SOL     OW28684   6.945   6.525   6.183
 9262SOL    HW128685   6.929   6.515   6.085
 9262SOL    HW228686   6.989   6.441   6.217
 9263SOL     OW28687   2.408   4.634   2.831
 9263SOL    HW128688   2.454   4.720   2.810
 9263SOL    HW228689   2.392   4.583   2.746
 9264SOL     OW28690   4.987   3.186   5.599
 9264SOL    HW128691   4.906   3.235   5.570
 9264SOL    HW228692   5.018   3.221   5.687
 9265SOL     OW28693   5.149   0.286   1.881
 9265SOL    HW128694   5.113   0.324   1.966
 9265SOL    HW228695   5.135   0.187   1.880
 9266SOL     OW28696   0.969   4.972   0.928
 9266SOL    HW128697   1.014   4.959   1.016
 9266SOL    HW228698   0.909   5.051   0.932
 9267SOL     OW28699   6.910   1.610   3.873
 9267SOL    HW128700   6.984   1.590   3.937
 9267SOL    HW228701   6.924   1.701   3.833
 9268SOL     OW28702   0.746   1.465   1.704
 9268SOL    HW128703   0.660   1.480   1.752
 9268SOL    HW228704   0.819   1.452   1.771
 9269SOL     OW28705   4.152   0.311   1.367
 9269SOL    HW128706   4.136   0.361   1.452
 9269SOL    HW228707   4.082   0.336   1.301
 9270SOL     OW28708   2.602   0.921   5.257
 9270SOL    HW128709   2.635   1.013   5.233
 9270SOL    HW228710   2.544   0.927   5.339
 9271SOL     OW28711   1.385   4.393   5.621
 9271SOL    HW128712   1.324   4.400   5.542
 9271SOL    HW228713   1.370   4.305   5.667
 9272SOL     OW28714   6.762   6.368   5.646
 9272SOL    HW128715   6.678   6.372   5.592
 9272SOL    HW228716   6.841   6.377   5.586
 9273SOL     OW28717   5.797   3.578   4.267
 9273SOL    HW128718   5.739   3.497   4.251
 9273SOL    HW228719   5.817   3.586   4.364
 9274SOL     OW28720   0.437   3.520   6.910
 9274SOL    HW128721   0.348   3.542   6.871
 9274SOL    HW228722   0.509   3.568   6.860
 9275SOL     OW28723   5.563   1.554   0.458
 9275SOL    HW128724   5.591   1.531   0.551
 9275SOL    HW228725   5.463   1.562   0.454
 9276SOL     OW28726   2.549   4.003   0.095
 9276SOL    HW128727   2.582   4.001   0.189
 9276SOL    HW228728   2.623   3.981   0.032
 9277SOL     OW28729   4.245   5.696   2.555
 9277SOL    HW128730   4.171   5.763   2.556
 9277SOL    HW228731   4.299   5.707   2.472
 9278SOL     OW28732   0.844   0.194   5.825
 9278SOL    HW128733   0.871   0.098   5.839
 9278SOL    HW228734   0.817   0.208   5.730
 9279SOL     OW28735   3.107   6.124   1.760
 9279SOL    HW128736   3.067   6.166   1.678
 9279SOL    HW228737   3.170   6.189   1.803
 9280SOL     OW28738   1.082   5.371   2.249
 9280SOL    HW128739   1.155   5.346   2.185
 9280SOL    HW228740   0.998   5.323   2.223
 9281SOL     OW28741   1.256   5.478   0.970
 9281SOL    HW128742   1.187   5.421   0.925
 9281SOL    HW228743   1.316   5.420   1.026
 9282SOL     OW28744   2.220   0.115   4.535
 9282SOL    HW128745   2.184   0.208   4.528
 9282SOL    HW228746   2.164   0.062   4.600
 9283SOL     OW28747   4.509   5.725   6.955
 9283SOL    HW128748   4.590   5.763   6.910
 9283SOL    HW228749   4.432   5.789   6.944
 9284SOL     OW28750   4.173   6.692   0.971
 9284SOL    HW128751   4.207   6.599   0.954
 9284SOL    HW228752   4.073   6.693   0.965
 9285SOL     OW28753   0.019   6.015   3.627
 9285SOL    HW128754   0.018   6.062   3.538
 9285SOL    HW228755   6.943   5.995   3.655
 9286SOL     OW28756   4.750   6.947   1.689
 9286SOL    HW128757   4.778   6.894   1.769
 9286SOL    HW228758   4.756   0.026   1.710
 9287SOL     OW28759   4.428   4.288   0.053
 9287SOL    HW128760   4.372   4.370   0.053
 9287SOL    HW228761   4.379   4.214   0.099
 9288SOL     OW28762   3.848   1.850   2.452
 9288SOL    HW128763   3.753   1.838   2.423
 9288SOL    HW228764   3.888   1.761   2.473
 9289SOL     OW28765   4.630   5.892   2.069
 9289SOL    HW128766   4.570   5.972   2.060
 9289SOL    HW228767   4.647   5.874   2.165
 9290SOL     OW28768   5.300   1.134   3.347
 9290SOL    HW128769   5.257   1.092   3.267
 9290SOL    HW228770   5.361   1.208   3.316
 9291SOL     OW28771   0.497   3.990   5.426
 9291SOL    HW128772   0.456   4.079   5.447
 9291SOL    HW228773   0.439   3.941   5.361
 9292SOL     OW28774   0.976   1.589   6.853
 9292SOL    HW128775   0.988   1.508   6.910
 9292SOL    HW228776   0.881   1.594   6.821
 9293SOL     OW28777   4.722   1.187   5.897
 9293SOL    HW128778   4.635   1.232   5.876
 9293SOL    HW228779   4.709   1.122   5.972
 9294SOL     OW28780   5.216   6.214   6.666
 9294SOL    HW128781   5.132   6.225   6.612
 9294SOL    HW228782   5.252   6.122   6.652
 9295SOL     OW28783   6.470   0.554   3.159
 9295SOL    HW128784   6.434   0.464   3.182
 9295SOL    HW228785   6.517   0.550   3.071
 9296SOL     OW28786   1.931   4.209   5.873
 9296SOL    HW128787   1.971   4.229   5.784
 9296SOL    HW228788   2.002   4.176   5.935
 9297SOL     OW28789   6.858   4.781   2.052
 9297SOL    HW128790   6.851   4.739   2.142
 9297SOL    HW228791   6.882   4.877   2.061
 9298SOL     OW28792   0.543   4.146   6.167
 9298SOL    HW128793   0.532   4.245   6.175
 9298SOL    HW228794   0.513   4.116   6.077
 9299SOL     OW28795   3.137   1.885   3.934
 9299SOL    HW128796   3.127   1.873   3.835
 9299SOL    HW228797   3.157   1.797   3.977
 9300SOL     OW28798   2.547   5.726   5.559
 9300SOL    HW128799   2.620   5.767   5.614
 9300SOL    HW228800   2.559   5.752   5.464
 9301SOL     OW28801   1.070   4.283   4.416
 9301SOL    HW128802   1.001   4.261   4.485
 9301SOL    HW228803   1.075   4.383   4.405
 9302SOL     OW28804   3.292   5.417   4.007
 9302SOL    HW128805   3.313   5.468   3.923
 9302SOL    HW228806   3.297   5.479   4.085
 9303SOL     OW28807   2.560   4.601   0.276
 9303SOL    HW128808   2.595   4.512   0.305
 9303SOL    HW228809   2.625   4.644   0.213
 9304SOL     OW28810   5.507   5.739   6.415
 9304SOL    HW128811   5.409   5.723   6.428
 9304SOL    HW228812   5.521   5.832   6.381
 9305SOL     OW28813   1.702   1.671   1.075
 9305SOL    HW128814   1.677   1.753   1.023
 9305SOL    HW228815   1.746   1.605   1.015
 9306SOL     OW28816   6.968   6.140   4.450
 9306SOL    HW128817   6.926   6.084   4.379
 9306SOL    HW228818   6.942   6.104   4.540
 9307SOL     OW28819   2.212   3.851   1.492
 9307SOL    HW128820   2.257   3.828   1.578
 9307SOL    HW228821   2.218   3.950   1.476
 9308SOL     OW28822   2.400   3.696   1.695
 9308SOL    HW128823   2.361   3.630   1.759
 9308SOL    HW228824   2.443   3.646   1.619
 9309SOL     OW28825   4.963   5.113   6.111
 9309SOL    HW128826   4.866   5.124   6.091
 9309SOL    HW228827   5.014   5.102   6.025
 9310SOL     OW28828   6.066   6.329   5.515
 9310SOL    HW128829   6.076   6.230   5.511
 9310SOL    HW228830   6.156   6.372   5.517
 9311SOL     OW28831   5.765   4.167   0.867
 9311SOL    HW128832   5.828   4.237   0.899
 9311SOL    HW228833   5.692   4.209   0.813
 9312SOL     OW28834   5.976   2.736   4.552
 9312SOL    HW128835   5.948   2.772   4.464
 9312SOL    HW228836   5.942   2.643   4.563
 9313SOL     OW28837   0.586   0.909   2.253
 9313SOL    HW128838   0.642   0.909   2.337
 9313SOL    HW228839   0.634   0.960   2.182
 9314SOL     OW28840   5.378   5.084   1.054
 9314SOL    HW128841   5.335   5.172   1.037
 9314SOL    HW228842   5.340   5.016   0.991
 9315SOL     OW28843   6.002   5.349   5.694
 9315SOL    HW128844   5.942   5.428   5.680
 9315SOL    HW228845   5.979   5.278   5.627
 9316SOL     OW28846   5.215   6.940   0.791
 9316SOL    HW128847   5.126   6.925   0.749
 9316SOL    HW228848   5.283   6.881   0.748
 9317SOL     OW28849   2.481   6.130   3.582
 9317SOL    HW128850   2.435   6.168   3.662
 9317SOL    HW228851   2.432   6.156   3.499
 9318SOL     OW28852   3.377   6.590   2.942
 9318SOL    HW128853   3.311   6.631   2.879
 9318SOL    HW228854   3.445   6.658   2.969
 9319SOL     OW28855   4.002   1.912   0.263
 9319SOL    HW128856   3.942   1.941   0.337
 9319SOL    HW228857   4.077   1.978   0.253
 9320SOL     OW28858   6.712   6.831   6.636
 9320SOL    HW128859   6.770   6.879   6.703
 9320SOL    HW228860   6.691   6.893   6.561
 9321SOL     OW28861   0.611   2.950   3.898
 9321SOL    HW128862   0.604   2.852   3.877
 9321SOL    HW228863   0.521   2.984   3.925
 9322SOL     OW28864   4.856   2.703   0.153
 9322SOL    HW128865   4.914   2.783   0.170
 9322SOL    HW228866   4.913   2.621   0.146
 9323SOL     OW28867   0.468   2.224   5.401
 9323SOL    HW128868   0.567   2.239   5.391
 9323SOL    HW228869   0.446   2.131   5.372
 9324SOL     OW28870   0.550   4.789   1.217
 9324SOL    HW128871   0.513   4.839   1.295
 9324SOL    HW228872   0.492   4.803   1.137
 9325SOL     OW28873   0.915   5.128   3.416
 9325SOL    HW128874   0.875   5.041   3.388
 9325SOL    HW228875   0.966   5.169   3.340
 9326SOL     OW28876   5.072   4.601   0.897
 9326SOL    HW128877   5.012   4.630   0.822
 9326SOL    HW228878   5.060   4.663   0.975
 9327SOL     OW28879   2.442   1.539   3.055
 9327SOL    HW128880   2.410   1.538   3.150
 9327SOL    HW228881   2.390   1.607   3.003
 9328SOL     OW28882   1.385   0.229   3.194
 9328SOL    HW128883   1.285   0.227   3.199
 9328SOL    HW228884   1.417   0.150   3.141
 9329SOL     OW28885   1.217   5.355   6.427
 9329SOL    HW128886   1.251   5.431   6.484
 9329SOL    HW228887   1.123   5.374   6.400
 9330SOL     OW28888   0.566   6.856   1.034
 9330SOL    HW128889   0.624   6.795   1.087
 9330SOL    HW228890   0.596   6.854   0.938
 9331SOL     OW28891   2.037   4.593   4.247
 9331SOL    HW128892   2.110   4.628   4.189
 9331SOL    HW228893   1.954   4.646   4.232
 9332SOL     OW28894   6.969   4.993   0.327
 9332SOL    HW128895   6.936   5.084   0.304
 9332SOL    HW228896   6.892   4.929   0.326
 9333SOL     OW28897   2.325   5.031   1.087
 9333SOL    HW128898   2.341   4.992   1.178
 9333SOL    HW228899   2.234   5.074   1.085
 9334SOL     OW28900   0.015   5.468   6.782
 9334SOL    HW128901   6.952   5.511   6.820
 9334SOL    HW228902   0.065   5.536   6.727
 9335SOL     OW28903   0.327   3.496   1.213
 9335SOL    HW128904   0.396   3.439   1.168
 9335SOL    HW228905   0.361   3.590   1.221
 9336SOL     OW28906   4.564   5.968   5.272
 9336SOL    HW128907   4.523   5.991   5.360
 9336SOL    HW228908   4.642   5.907   5.286
 9337SOL     OW28909   2.564   1.674   5.413
 9337SOL    HW128910   2.472   1.676   5.373
 9337SOL    HW228911   2.585   1.765   5.449
 9338SOL     OW28912   4.786   6.525   0.823
 9338SOL    HW128913   4.811   6.540   0.919
 9338SOL    HW228914   4.699   6.477   0.819
 9339SOL     OW28915   6.882   3.458   5.453
 9339SOL    HW128916   6.796   3.508   5.460
 9339SOL    HW228917   6.873   3.369   5.499
 9340SOL     OW28918   2.829   4.710   2.515
 9340SOL    HW128919   2.839   4.810   2.524
 9340SOL    HW228920   2.891   4.677   2.443
 9341SOL     OW28921   5.729   5.458   0.271
 9341SOL    HW128922   5.723   5.443   0.370
 9341SOL    HW228923   5.644   5.426   0.228
 9342SOL     OW28924   3.165   0.592   5.094
 9342SOL    HW128925   3.237   0.548   5.147
 9342SOL    HW228926   3.186   0.585   4.997
 9343SOL     OW28927   5.058   3.647   1.491
 9343SOL    HW128928   5.059   3.746   1.504
 9343SOL    HW228929   4.964   3.614   1.490
 9344SOL     OW28930   5.896   0.096   4.605
 9344SOL    HW128931   5.821   0.140   4.655
 9344SOL    HW228932   5.906   0.139   4.516
 9345SOL     OW28933   0.141   4.650   6.632
 9345SOL    HW128934   0.209   4.594   6.584
 9345SOL    HW228935   0.055   4.650   6.581
 9346SOL     OW28936   5.400   0.377   2.133
 9346SOL    HW128937   5.391   0.410   2.227
 9346SOL    HW228938   5.314   0.389   2.084
 9347SOL     OW28939   4.915   6.372   1.780
 9347SOL    HW128940   4.945   6.335   1.868
 9347SOL    HW228941   4.863   6.302   1.730
 9348SOL     OW28942   2.461   4.842   2.098
 9348SOL    HW128943   2.416   4.795   2.023
 9348SOL    HW228944   2.550   4.800   2.116
 9349SOL     OW28945   6.202   5.809   0.920
 9349SOL    HW128946   6.186   5.879   0.850
 9349SOL    HW228947   6.209   5.720   0.876
 9350SOL     OW28948   6.323   0.078   0.487
 9350SOL    HW128949   6.298   7.011   0.440
 9350SOL    HW228950   6.396   0.059   0.553
 9351SOL     OW28951   4.446   3.645   6.550
 9351SOL    HW128952   4.533   3.636   6.599
 9351SOL    HW228953   4.395   3.559   6.556
 9352SOL     OW28954   2.461   2.009   6.578
 9352SOL    HW128955   2.369   2.032   6.610
 9352SOL    HW228956   2.518   2.091   6.580
 9353SOL     OW28957   1.133   2.598   1.574
 9353SOL    HW128958   1.116   2.659   1.652
 9353SOL    HW228959   1.204   2.532   1.598
 9354SOL     OW28960   5.491   1.782   2.287
 9354SOL    HW128961   5.553   1.708   2.313
 9354SOL    HW228962   5.400   1.745   2.271
 9355SOL     OW28963   0.120   1.875   2.420
 9355SOL    HW128964   0.094   1.779   2.419
 9355SOL    HW228965   0.065   1.925   2.352
 9356SOL     OW28966   5.249   3.096   2.613
 9356SOL    HW128967   5.261   3.111   2.711
 9356SOL    HW228968   5.152   3.090   2.591
 9357SOL     OW28969   2.529   4.806   0.437
 9357SOL    HW128970   2.555   4.888   0.386
 9357SOL    HW228971   2.533   4.727   0.376
 9358SOL     OW28972   5.038   3.756   2.463
 9358SOL    HW128973   4.974   3.681   2.447
 9358SOL    HW228974   4.998   3.841   2.428
 9359SOL     OW28975   4.468   5.391   6.045
 9359SOL    HW128976   4.483   5.441   6.131
 9359SOL    HW228977   4.475   5.455   5.969
 9360SOL     OW28978   1.400   0.914   4.832
 9360SOL    HW128979   1.344   0.831   4.835
 9360SOL    HW228980   1.357   0.985   4.887
 9361SOL     OW28981   2.147   1.320   2.455
 9361SOL    HW128982   2.208   1.326   2.376
 9361SOL    HW228983   2.168   1.393   2.519
 9362SOL     OW28984   2.350   1.805   3.226
 9362SOL    HW128985   2.346   1.717   3.272
 9362SOL    HW228986   2.344   1.879   3.293
 9363SOL     OW28987   1.432   6.463   2.172
 9363SOL    HW128988   1.436   6.562   2.167
 9363SOL    HW228989   1.336   6.433   2.175
 9364SOL     OW28990   5.482   4.698   1.029
 9364SOL    HW128991   5.477   4.639   0.949
 9364SOL    HW228992   5.577   4.725   1.045
 9365SOL     OW28993   2.246   1.266   4.076
 9365SOL    HW128994   2.326   1.288   4.131
 9365SOL    HW228995   2.172   1.330   4.098
 9366SOL     OW28996   3.407   1.481   2.098
 9366SOL    HW128997   3.419   1.391   2.139
 9366SOL    HW228998   3.318   1.485   2.052
 9367SOL     OW28999   6.362   6.394   4.018
 9367SOL    HW129000   6.318   6.308   4.043
 9367SOL    HW229001   6.310   6.470   4.057
 9368SOL     OW29002   4.590   3.112   0.455
 9368SOL    HW129003   4.548   3.182   0.397
 9368SOL    HW229004   4.650   3.155   0.522
 9369SOL     OW29005   0.602   1.962   5.301
 9369SOL    HW129006   0.604   2.020   5.382
 9369SOL    HW229007   0.691   1.964   5.256
 9370SOL     OW29008   5.713   5.624   2.894
 9370SOL    HW129009   5.742   5.624   2.799
 9370SOL    HW229010   5.680   5.533   2.919
 9371SOL     OW29011   0.807   0.063   0.419
 9371SOL    HW129012   0.876   7.013   0.447
 9371SOL    HW229013   0.769   0.106   0.501
 9372SOL     OW29014   5.904   6.498   0.398
 9372SOL    HW129015   5.921   6.545   0.485
 9372SOL    HW229016   5.820   6.444   0.406
 9373SOL     OW29017   5.688   1.977   4.534
 9373SOL    HW129018   5.778   1.971   4.490
 9373SOL    HW229019   5.640   2.057   4.500
 9374SOL     OW29020   4.719   4.124   0.360
 9374SOL    HW129021   4.732   4.206   0.416
 9374SOL    HW229022   4.800   4.066   0.367
 9375SOL     OW29023   6.615   1.193   4.156
 9375SOL    HW129024   6.620   1.277   4.210
 9375SOL    HW229025   6.679   1.198   4.079
 9376SOL     OW29026   2.096   2.716   1.544
 9376SOL    HW129027   2.011   2.698   1.594
 9376SOL    HW229028   2.097   2.811   1.512
 9377SOL     OW29029   5.955   4.697   2.596
 9377SOL    HW129030   5.877   4.724   2.652
 9377SOL    HW229031   6.023   4.652   2.654
 9378SOL     OW29032   3.407   6.209   1.333
 9378SOL    HW129033   3.422   6.132   1.272
 9378SOL    HW229034   3.482   6.214   1.399
 9379SOL     OW29035   5.748   4.909   5.241
 9379SOL    HW129036   5.784   4.945   5.155
 9379SOL    HW229037   5.796   4.952   5.318
 9380SOL     OW29038   6.438   5.602   6.092
 9380SOL    HW129039   6.479   5.693   6.098
 9380SOL    HW229040   6.488   5.539   6.150
 9381SOL     OW29041   1.063   0.740   0.297
 9381SOL    HW129042   1.112   0.753   0.383
 9381SOL    HW229043   0.990   0.673   0.310
 9382SOL     OW29044   5.210   2.035   2.429
 9382SOL    HW129045   5.277   1.982   2.479
 9382SOL    HW229046   5.181   2.114   2.484
 9383SOL     OW29047   6.491   5.458   5.829
 9383SOL    HW129048   6.423   5.464   5.756
 9383SOL    HW229049   6.521   5.550   5.854
 9384SOL     OW29050   3.925   6.279   3.179
 9384SOL    HW129051   3.878   6.226   3.250
 9384SOL    HW229052   3.879   6.367   3.168
 9385SOL     OW29053   3.930   1.121   4.397
 9385SOL    HW129054   3.912   1.214   4.365
 9385SOL    HW229055   3.917   1.056   4.322
 9386SOL     OW29056   4.164   0.390   5.548
 9386SOL    HW129057   4.095   0.371   5.477
 9386SOL    HW229058   4.186   0.305   5.595
 9387SOL     OW29059   3.738   5.768   1.136
 9387SOL    HW129060   3.814   5.818   1.094
 9387SOL    HW229061   3.769   5.727   1.222
 9388SOL     OW29062   6.298   6.633   2.354
 9388SOL    HW129063   6.361   6.705   2.385
 9388SOL    HW229064   6.248   6.664   2.274
 9389SOL     OW29065   3.511   1.765   0.030
 9389SOL    HW129066   3.609   1.744   0.024
 9389SOL    HW229067   3.478   1.796   6.959
 9390SOL     OW29068   2.920   5.523   1.385
 9390SOL    HW129069   2.952   5.552   1.475
 9390SOL    HW229070   2.998   5.520   1.322
 9391SOL     OW29071   6.783   1.218   5.204
 9391SOL    HW129072   6.854   1.170   5.258
 9391SOL    HW229073   6.824   1.254   5.121
 9392SOL     OW29074   1.302   6.822   4.446
 9392SOL    HW129075   1.397   6.852   4.454
 9392SOL    HW229076   1.275   6.773   4.529
 9393SOL     OW29077   3.830   1.944   5.243
 9393SOL    HW129078   3.832   2.040   5.214
 9393SOL    HW229079   3.735   1.913   5.250
 9394SOL     OW29080   5.742   2.446   1.643
 9394SOL    HW129081   5.711   2.538   1.668
 9394SOL    HW229082   5.665   2.382   1.649
 9395SOL     OW29083   2.046   2.893   6.189
 9395SOL    HW129084   1.987   2.817   6.159
 9395SOL    HW229085   2.067   2.952   6.112
 9396SOL     OW29086   6.903   0.863   6.181
 9396SOL    HW129087   6.890   0.955   6.143
 9396SOL    HW229088   6.868   0.861   6.274
 9397SOL     OW29089   2.687   1.975   0.966
 9397SOL    HW129090   2.672   2.070   0.938
 9397SOL    HW229091   2.610   1.945   1.023
 9398SOL     OW29092   2.405   1.593   0.959
 9398SOL    HW129093   2.346   1.652   1.014
 9398SOL    HW229094   2.355   1.564   0.877
 9399SOL     OW29095   6.688   0.254   5.545
 9399SOL    HW129096   6.712   0.350   5.559
 9399SOL    HW229097   6.769   0.197   5.555
 9400SOL     OW29098   4.085   1.710   3.571
 9400SOL    HW129099   4.115   1.704   3.476
 9400SOL    HW229100   4.053   1.620   3.602
 9401SOL     OW29101   4.253   6.758   3.605
 9401SOL    HW129102   4.168   6.732   3.559
 9401SOL    HW229103   4.231   6.800   3.694
 9402SOL     OW29104   2.343   5.129   0.352
 9402SOL    HW129105   2.421   5.072   0.327
 9402SOL    HW229106   2.351   5.218   0.307
 9403SOL     OW29107   5.540   0.538   4.959
 9403SOL    HW129108   5.497   0.505   5.043
 9403SOL    HW229109   5.632   0.499   4.951
 9404SOL     OW29110   1.483   3.871   5.638
 9404SOL    HW129111   1.468   3.962   5.677
 9404SOL    HW229112   1.407   3.849   5.576
 9405SOL     OW29113   6.983   7.017   0.906
 9405SOL    HW129114   0.036   6.953   0.875
 9405SOL    HW229115   6.997   0.088   0.863
 9406SOL     OW29116   6.799   1.003   5.490
 9406SOL    HW129117   6.807   0.972   5.585
 9406SOL    HW229118   6.870   0.960   5.435
 9407SOL     OW29119   4.018   5.860   3.228
 9407SOL    HW129120   3.957   5.868   3.150
 9407SOL    HW229121   4.103   5.815   3.199
 9408SOL     OW29122   4.259   1.754   0.399
 9408SOL    HW129123   4.225   1.734   0.307
 9408SOL    HW229124   4.229   1.683   0.462
 9409SOL     OW29125   5.762   3.685   3.715
 9409SOL    HW129126   5.751   3.770   3.767
 9409SOL    HW229127   5.673   3.652   3.685
 9410SOL     OW29128   4.580   6.364   2.007
 9410SOL    HW129129   4.621   6.453   2.028
 9410SOL    HW229130   4.521   6.373   1.926
 9411SOL     OW29131   4.567   5.688   1.617
 9411SOL    HW129132   4.606   5.608   1.571
 9411SOL    HW229133   4.629   5.766   1.604
 9412SOL     OW29134   5.891   2.993   2.673
 9412SOL    HW129135   5.975   2.962   2.718
 9412SOL    HW229136   5.811   2.954   2.719
 9413SOL     OW29137   3.548   4.901   4.097
 9413SOL    HW129138   3.555   4.899   3.997
 9413SOL    HW229139   3.578   4.813   4.134
 9414SOL     OW29140   2.215   0.988   2.414
 9414SOL    HW129141   2.284   1.061   2.412
 9414SOL    HW229142   2.176   0.977   2.323
 9415SOL     OW29143   2.234   1.208   2.173
 9415SOL    HW129144   2.224   1.114   2.141
 9415SOL    HW229145   2.145   1.251   2.177
 9416SOL     OW29146   1.700   2.403   1.213
 9416SOL    HW129147   1.665   2.482   1.263
 9416SOL    HW229148   1.759   2.349   1.273
 9417SOL     OW29149   1.861   0.289   4.704
 9417SOL    HW129150   1.926   0.212   4.709
 9417SOL    HW229151   1.908   0.374   4.729
 9418SOL     OW29152   4.479   4.308   1.495
 9418SOL    HW129153   4.436   4.275   1.411
 9418SOL    HW229154   4.409   4.315   1.567
 9419SOL     OW29155   3.400   5.413   4.418
 9419SOL    HW129156   3.335   5.341   4.443
 9419SOL    HW229157   3.483   5.403   4.473
 9420SOL     OW29158   1.317   1.583   4.562
 9420SOL    HW129159   1.363   1.671   4.560
 9420SOL    HW229160   1.321   1.541   4.472
 9421SOL     OW29161   1.928   5.572   4.289
 9421SOL    HW129162   1.952   5.508   4.215
 9421SOL    HW229163   1.867   5.643   4.254
 9422SOL     OW29164   4.466   1.309   2.812
 9422SOL    HW129165   4.473   1.388   2.873
 9422SOL    HW229166   4.459   1.226   2.867
 9423SOL     OW29167   4.936   6.949   4.647
 9423SOL    HW129168   4.930   0.018   4.599
 9423SOL    HW229169   4.858   6.939   4.709
 9424SOL     OW29170   2.967   6.384   4.303
 9424SOL    HW129171   3.054   6.432   4.292
 9424SOL    HW229172   2.963   6.306   4.242
 9425SOL     OW29173   1.192   5.233   3.257
 9425SOL    HW129174   1.155   5.294   3.186
 9425SOL    HW229175   1.219   5.286   3.337
 9426SOL     OW29176   2.992   5.716   1.122
 9426SOL    HW129177   3.019   5.809   1.149
 9426SOL    HW229178   3.032   5.695   1.033
 9427SOL     OW29179   2.968   4.897   4.658
 9427SOL    HW129180   2.934   4.990   4.670
 9427SOL    HW229181   2.898   4.832   4.686
 9428SOL     OW29182   5.136   6.178   2.269
 9428SOL    HW129183   5.119   6.179   2.368
 9428SOL    HW229184   5.053   6.151   2.221
 9429SOL     OW29185   0.199   3.244   2.881
 9429SOL    HW129186   0.191   3.147   2.905
 9429SOL    HW229187   0.291   3.276   2.902
 9430SOL     OW29188   5.626   6.987   2.354
 9430SOL    HW129189   5.527   6.987   2.348
 9430SOL    HW229190   5.664   0.003   2.268
 9431SOL     OW29191   6.513   3.853   0.850
 9431SOL    HW129192   6.423   3.818   0.823
 9431SOL    HW229193   6.552   3.796   0.922
 9432SOL     OW29194   6.618   6.549   4.711
 9432SOL    HW129195   6.568   6.555   4.624
 9432SOL    HW229196   6.565   6.595   4.782
 9433SOL     OW29197   3.180   4.930   4.887
 9433SOL    HW129198   3.266   4.907   4.932
 9433SOL    HW229199   3.156   4.859   4.821
 9434SOL     OW29200   5.682   4.653   3.243
 9434SOL    HW129201   5.659   4.561   3.272
 9434SOL    HW229202   5.735   4.650   3.158
 9435SOL     OW29203   1.931   2.255   4.769
 9435SOL    HW129204   1.988   2.295   4.841
 9435SOL    HW229205   1.854   2.316   4.751
 9436SOL     OW29206   2.364   2.151   6.021
 9436SOL    HW129207   2.414   2.064   6.023
 9436SOL    HW229208   2.418   2.222   6.066
 9437SOL     OW29209   0.920   5.361   4.006
 9437SOL    HW129210   0.925   5.460   4.015
 9437SOL    HW229211   0.838   5.337   3.954
 9438SOL     OW29212   0.616   6.958   2.336
 9438SOL    HW129213   0.626   6.886   2.268
 9438SOL    HW229214   0.585   0.024   2.292
 9439SOL     OW29215   1.577   2.997   1.474
 9439SOL    HW129216   1.586   3.046   1.561
 9439SOL    HW229217   1.517   2.918   1.487
 9440SOL     OW29218   4.281   5.746   4.835
 9440SOL    HW129219   4.320   5.831   4.869
 9440SOL    HW229220   4.251   5.758   4.741
 9441SOL     OW29221   1.353   5.884   5.249
 9441SOL    HW129222   1.433   5.845   5.294
 9441SOL    HW229223   1.270   5.849   5.292
 9442SOL     OW29224   0.699   3.581   1.347
 9442SOL    HW129225   0.768   3.579   1.419
 9442SOL    HW229226   0.743   3.599   1.259
 9443SOL     OW29227   1.901   3.102   1.358
 9443SOL    HW129228   1.934   3.193   1.330
 9443SOL    HW229229   1.807   3.109   1.391
 9444SOL     OW29230   1.364   4.129   5.723
 9444SOL    HW129231   1.265   4.141   5.720
 9444SOL    HW229232   1.392   4.103   5.815
 9445SOL     OW29233   6.416   3.333   1.769
 9445SOL    HW129234   6.503   3.297   1.735
 9445SOL    HW229235   6.433   3.390   1.850
 9446SOL     OW29236   5.854   4.379   0.621
 9446SOL    HW129237   5.783   4.309   0.616
 9446SOL    HW229238   5.930   4.345   0.678
 9447SOL     OW29239   5.924   1.946   1.582
 9447SOL    HW129240   5.861   1.987   1.515
 9447SOL    HW229241   5.947   2.013   1.651
 9448SOL     OW29242   6.194   6.227   0.585
 9448SOL    HW129243   6.117   6.239   0.522
 9448SOL    HW229244   6.262   6.299   0.568
 9449SOL     OW29245   6.556   4.864   5.216
 9449SOL    HW129246   6.498   4.810   5.277
 9449SOL    HW229247   6.631   4.905   5.267
 9450SOL     OW29248   2.750   6.028   4.317
 9450SOL    HW129249   2.686   6.056   4.388
 9450SOL    HW229250   2.828   5.982   4.358
 9451SOL     OW29251   4.225   4.242   5.665
 9451SOL    HW129252   4.141   4.223   5.614
 9451SOL    HW229253   4.216   4.330   5.711
 9452SOL     OW29254   3.558   4.803   1.018
 9452SOL    HW129255   3.633   4.860   0.984
 9452SOL    HW229256   3.477   4.818   0.962
 9453SOL     OW29257   2.742   5.292   1.454
 9453SOL    HW129258   2.771   5.374   1.503
 9453SOL    HW229259   2.748   5.308   1.355
 9454SOL     OW29260   2.007   1.717   5.528
 9454SOL    HW129261   1.913   1.703   5.560
 9454SOL    HW229262   2.006   1.745   5.432
 9455SOL     OW29263   2.421   2.259   2.437
 9455SOL    HW129264   2.486   2.199   2.389
 9455SOL    HW229265   2.455   2.353   2.435
 9456SOL     OW29266   1.041   3.456   0.692
 9456SOL    HW129267   1.081   3.478   0.781
 9456SOL    HW229268   0.976   3.380   0.704
 9457SOL     OW29269   6.959   3.583   0.335
 9457SOL    HW129270   6.883   3.522   0.359
 9457SOL    HW229271   6.955   3.665   0.394
 9458SOL     OW29272   0.878   5.722   4.503
 9458SOL    HW129273   0.945   5.761   4.441
 9458SOL    HW229274   0.847   5.633   4.468
 9459SOL     OW29275   4.366   6.474   1.752
 9459SOL    HW129276   4.298   6.544   1.768
 9459SOL    HW229277   4.446   6.514   1.706
 9460SOL     OW29278   1.054   2.413   5.764
 9460SOL    HW129279   1.009   2.337   5.811
 9460SOL    HW229280   0.985   2.471   5.721
 9461SOL     OW29281   1.834   0.523   2.468
 9461SOL    HW129282   1.738   0.507   2.444
 9461SOL    HW229283   1.891   0.511   2.387
 9462SOL     OW29284   0.156   2.973   3.188
 9462SOL    HW129285   0.136   2.929   3.101
 9462SOL    HW229286   0.230   3.039   3.176
 9463SOL     OW29287   5.295   1.794   6.496
 9463SOL    HW129288   5.246   1.774   6.411
 9463SOL    HW229289   5.392   1.777   6.483
 9464SOL     OW29290   4.383   6.893   6.074
 9464SOL    HW129291   4.331   6.876   6.157
 9464SOL    HW229292   4.356   6.828   6.003
 9465SOL     OW29293   5.490   6.909   4.235
 9465SOL    HW129294   5.485   6.927   4.333
 9465SOL    HW229295   5.431   6.974   4.187
 9466SOL     OW29296   2.250   1.630   6.860
 9466SOL    HW129297   2.206   1.619   6.771
 9466SOL    HW229298   2.330   1.690   6.851
 9467SOL     OW29299   2.014   3.347   1.984
 9467SOL    HW129300   2.078   3.424   1.978
 9467SOL    HW229301   2.012   3.312   2.078
 9468SOL     OW29302   0.419   2.453   6.656
 9468SOL    HW129303   0.426   2.526   6.724
 9468SOL    HW229304   0.503   2.398   6.659
 9469SOL     OW29305   6.579   3.909   2.688
 9469SOL    HW129306   6.634   3.827   2.672
 9469SOL    HW229307   6.532   3.900   2.776
 9470SOL     OW29308   6.303   3.424   1.514
 9470SOL    HW129309   6.203   3.433   1.514
 9470SOL    HW229310   6.332   3.370   1.593
 9471SOL     OW29311   0.221   2.851   6.196
 9471SOL    HW129312   0.126   2.881   6.206
 9471SOL    HW229313   0.222   2.759   6.157
 9472SOL     OW29314   6.831   2.566   4.476
 9472SOL    HW129315   6.772   2.558   4.556
 9472SOL    HW229316   6.810   2.493   4.411
 9473SOL     OW29317   3.591   5.386   4.598
 9473SOL    HW129318   3.635   5.305   4.560
 9473SOL    HW229319   3.620   5.397   4.693
 9474SOL     OW29320   3.589   5.200   3.893
 9474SOL    HW129321   3.532   5.264   3.842
 9474SOL    HW229322   3.685   5.221   3.876
 9475SOL     OW29323   1.940   3.382   1.373
 9475SOL    HW129324   1.890   3.409   1.455
 9475SOL    HW229325   1.879   3.388   1.294
 9476SOL     OW29326   3.428   3.110   5.619
 9476SOL    HW129327   3.400   3.187   5.676
 9476SOL    HW229328   3.361   3.096   5.546
 9477SOL     OW29329   0.398   1.860   0.934
 9477SOL    HW129330   0.374   1.955   0.913
 9477SOL    HW229331   0.359   1.799   0.865
 9478SOL     OW29332   5.016   3.722   5.524
 9478SOL    HW129333   5.088   3.723   5.593
 9478SOL    HW229334   5.023   3.639   5.469
 9479SOL     OW29335   6.429   5.513   4.830
 9479SOL    HW129336   6.435   5.613   4.837
 9479SOL    HW229337   6.521   5.474   4.830
 9480SOL     OW29338   5.525   3.889   6.286
 9480SOL    HW129339   5.454   3.856   6.224
 9480SOL    HW229340   5.604   3.827   6.281
 9481SOL     OW29341   6.629   3.633   2.563
 9481SOL    HW129342   6.720   3.627   2.522
 9481SOL    HW229343   6.560   3.627   2.490
 9482SOL     OW29344   4.585   6.936   2.875
 9482SOL    HW129345   4.590   0.013   2.906
 9482SOL    HW229346   4.553   6.878   2.950
 9483SOL     OW29347   2.094   1.940   0.552
 9483SOL    HW129348   2.191   1.935   0.528
 9483SOL    HW229349   2.059   2.030   0.527
 9484SOL     OW29350   6.010   0.927   2.676
 9484SOL    HW129351   5.986   0.857   2.743
 9484SOL    HW229352   5.944   0.925   2.600
 9485SOL     OW29353   1.143   0.204   2.672
 9485SOL    HW129354   1.212   0.141   2.637
 9485SOL    HW229355   1.181   0.256   2.748
 9486SOL     OW29356   2.804   6.000   2.386
 9486SOL    HW129357   2.816   5.958   2.297
 9486SOL    HW229358   2.759   5.935   2.448
 9487SOL     OW29359   2.959   3.287   3.176
 9487SOL    HW129360   2.978   3.297   3.273
 9487SOL    HW229361   2.921   3.372   3.141
 9488SOL     OW29362   1.322   1.563   1.424
 9488SOL    HW129363   1.394   1.591   1.361
 9488SOL    HW229364   1.364   1.524   1.506
 9489SOL     OW29365   3.178   4.299   0.772
 9489SOL    HW129366   3.185   4.269   0.677
 9489SOL    HW229367   3.216   4.391   0.780
 9490SOL     OW29368   5.223   1.805   0.055
 9490SOL    HW129369   5.181   1.853   6.996
 9490SOL    HW229370   5.322   1.800   0.041
 9491SOL     OW29371   0.261   4.918   5.222
 9491SOL    HW129372   0.227   4.926   5.316
 9491SOL    HW229373   0.340   4.978   5.210
 9492SOL     OW29374   2.983   4.192   1.398
 9492SOL    HW129375   3.054   4.239   1.346
 9492SOL    HW229376   2.983   4.225   1.493
 9493SOL     OW29377   5.453   6.367   2.258
 9493SOL    HW129378   5.393   6.427   2.206
 9493SOL    HW229379   5.533   6.419   2.288
 9494SOL     OW29380   3.166   2.942   6.236
 9494SOL    HW129381   3.245   2.892   6.270
 9494SOL    HW229382   3.176   2.957   6.138
 9495SOL     OW29383   5.678   1.792   4.735
 9495SOL    HW129384   5.646   1.860   4.669
 9495SOL    HW229385   5.602   1.764   4.794
 9496SOL     OW29386   5.725   3.609   0.103
 9496SOL    HW129387   5.730   3.665   0.186
 9496SOL    HW229388   5.813   3.612   0.055
 9497SOL     OW29389   0.540   6.577   6.171
 9497SOL    HW129390   0.599   6.497   6.180
 9497SOL    HW229391   0.547   6.612   6.078
 9498SOL     OW29392   3.990   0.606   6.194
 9498SOL    HW129393   4.068   0.634   6.251
 9498SOL    HW229394   3.944   0.687   6.159
 9499SOL     OW29395   4.329   4.564   6.367
 9499SOL    HW129396   4.351   4.505   6.290
 9499SOL    HW229397   4.323   4.508   6.450
 9500SOL     OW29398   5.326   5.682   1.805
 9500SOL    HW129399   5.414   5.637   1.790
 9500SOL    HW229400   5.341   5.775   1.838
 9501SOL     OW29401   3.283   1.746   4.860
 9501SOL    HW129402   3.300   1.834   4.904
 9501SOL    HW229403   3.233   1.686   4.923
 9502SOL     OW29404   4.499   3.440   5.798
 9502SOL    HW129405   4.491   3.415   5.894
 9502SOL    HW229406   4.413   3.480   5.766
 9503SOL     OW29407   1.663   6.989   1.030
 9503SOL    HW129408   1.564   6.982   1.037
 9503SOL    HW229409   1.689   0.059   0.991
 9504SOL     OW29410   1.037   2.998   0.102
 9504SOL    HW129411   0.966   3.061   0.072
 9504SOL    HW229412   1.102   3.047   0.160
 9505SOL     OW29413   4.844   3.480   3.388
 9505SOL    HW129414   4.894   3.423   3.323
 9505SOL    HW229415   4.746   3.463   3.380
 9506SOL     OW29416   6.901   2.439   0.981
 9506SOL    HW129417   6.832   2.503   1.011
 9506SOL    HW229418   6.963   2.418   1.057
 9507SOL     OW29419   1.299   1.915   4.307
 9507SOL    HW129420   1.224   1.926   4.373
 9507SOL    HW229421   1.377   1.969   4.337
 9508SOL     OW29422   4.928   1.799   6.135
 9508SOL    HW129423   4.929   1.720   6.075
 9508SOL    HW229424   4.870   1.871   6.096
 9509SOL     OW29425   2.935   6.464   5.616
 9509SOL    HW129426   2.900   6.514   5.695
 9509SOL    HW229427   3.025   6.501   5.591
 9510SOL     OW29428   6.449   4.123   3.156
 9510SOL    HW129429   6.480   4.029   3.170
 9510SOL    HW229430   6.350   4.123   3.141
 9511SOL     OW29431   1.976   1.417   1.326
 9511SOL    HW129432   1.996   1.508   1.289
 9511SOL    HW229433   2.028   1.349   1.275
 9512SOL     OW29434   1.414   2.938   4.764
 9512SOL    HW129435   1.324   2.895   4.773
 9512SOL    HW229436   1.458   2.907   4.680
 9513SOL     OW29437   2.221   4.186   4.136
 9513SOL    HW129438   2.143   4.245   4.152
 9513SOL    HW229439   2.302   4.242   4.116
 9514SOL     OW29440   2.745   2.727   6.048
 9514SOL    HW129441   2.691   2.745   6.130
 9514SOL    HW229442   2.762   2.813   6.000
 9515SOL     OW29443   2.435   5.098   5.817
 9515SOL    HW129444   2.444   5.034   5.740
 9515SOL    HW229445   2.357   5.072   5.873
 9516SOL     OW29446   5.428   3.986   5.528
 9516SOL    HW129447   5.502   4.023   5.472
 9516SOL    HW229448   5.351   4.049   5.527
 9517SOL     OW29449   0.778   5.962   1.720
 9517SOL    HW129450   0.861   6.018   1.722
 9517SOL    HW229451   0.743   5.958   1.626
 9518SOL     OW29452   0.871   3.015   5.117
 9518SOL    HW129453   0.839   3.081   5.186
 9518SOL    HW229454   0.923   2.943   5.163
 9519SOL     OW29455   3.561   2.902   3.673
 9519SOL    HW129456   3.531   2.867   3.584
 9519SOL    HW229457   3.545   3.000   3.677
 9520SOL     OW29458   4.988   6.895   6.142
 9520SOL    HW129459   5.043   6.893   6.226
 9520SOL    HW229460   5.028   6.832   6.076
 9521SOL     OW29461   3.384   1.339   1.262
 9521SOL    HW129462   3.422   1.248   1.279
 9521SOL    HW229463   3.368   1.385   1.349
 9522SOL     OW29464   3.510   5.927   1.967
 9522SOL    HW129465   3.513   5.879   1.879
 9522SOL    HW229466   3.472   5.867   2.037
 9523SOL     OW29467   2.688   4.715   4.160
 9523SOL    HW129468   2.714   4.680   4.070
 9523SOL    HW229469   2.590   4.735   4.161
 9524SOL     OW29470   2.105   3.723   0.910
 9524SOL    HW129471   2.073   3.734   0.816
 9524SOL    HW229472   2.029   3.695   0.969
 9525SOL     OW29473   2.413   3.197   5.421
 9525SOL    HW129474   2.434   3.143   5.339
 9525SOL    HW229475   2.342   3.264   5.398
 9526SOL     OW29476   5.321   5.700   6.872
 9526SOL    HW129477   5.249   5.734   6.932
 9526SOL    HW229478   5.410   5.720   6.913
 9527SOL     OW29479   4.160   6.800   4.559
 9527SOL    HW129480   4.066   6.773   4.541
 9527SOL    HW229481   4.219   6.719   4.556
 9528SOL     OW29482   5.456   2.141   0.653
 9528SOL    HW129483   5.356   2.137   0.656
 9528SOL    HW229484   5.486   2.236   0.648
 9529SOL     OW29485   5.687   0.838   2.015
 9529SOL    HW129486   5.681   0.763   1.949
 9529SOL    HW229487   5.649   0.921   1.976
 9530SOL     OW29488   1.463   5.767   3.599
 9530SOL    HW129489   1.558   5.766   3.631
 9530SOL    HW229490   1.406   5.713   3.661
 9531SOL     OW29491   3.314   5.480   2.648
 9531SOL    HW129492   3.334   5.384   2.630
 9531SOL    HW229493   3.217   5.498   2.632
 9532SOL     OW29494   6.543   5.057   3.872
 9532SOL    HW129495   6.548   5.076   3.970
 9532SOL    HW229496   6.468   5.109   3.831
 9533SOL     OW29497   1.911   3.888   3.309
 9533SOL    HW129498   1.864   3.972   3.337
 9533SOL    HW229499   2.007   3.893   3.337
 9534SOL     OW29500   5.365   5.059   4.689
 9534SOL    HW129501   5.376   5.096   4.782
 9534SOL    HW229502   5.305   4.979   4.693
 9535SOL     OW29503   0.158   1.702   4.389
 9535SOL    HW129504   0.125   1.782   4.339
 9535SOL    HW229505   0.252   1.682   4.361
 9536SOL     OW29506   3.516   3.876   4.788
 9536SOL    HW129507   3.477   3.864   4.696
 9536SOL    HW229508   3.605   3.922   4.780
 9537SOL     OW29509   6.650   1.427   4.313
 9537SOL    HW129510   6.636   1.450   4.409
 9537SOL    HW229511   6.727   1.480   4.277
 9538SOL     OW29512   5.291   6.922   4.886
 9538SOL    HW129513   5.210   6.881   4.845
 9538SOL    HW229514   5.266   7.008   4.930
 9539SOL     OW29515   3.232   3.877   2.486
 9539SOL    HW129516   3.210   3.784   2.514
 9539SOL    HW229517   3.237   3.882   2.387
 9540SOL     OW29518   4.535   4.888   3.314
 9540SOL    HW129519   4.617   4.915   3.263
 9540SOL    HW229520   4.515   4.792   3.295
 9541SOL     OW29521   2.319   5.243   5.445
 9541SOL    HW129522   2.370   5.169   5.489
 9541SOL    HW229523   2.238   5.265   5.500
 9542SOL     OW29524   6.054   4.390   3.909
 9542SOL    HW129525   6.111   4.397   3.828
 9542SOL    HW229526   5.994   4.470   3.916
 9543SOL     OW29527   2.582   0.047   5.953
 9543SOL    HW129528   2.678   0.063   5.980
 9543SOL    HW229529   2.569   0.077   5.859
 9544SOL     OW29530   5.635   3.217   4.721
 9544SOL    HW129531   5.602   3.123   4.711
 9544SOL    HW229532   5.734   3.216   4.735
 9545SOL     OW29533   6.769   4.543   1.857
 9545SOL    HW129534   6.669   4.533   1.862
 9545SOL    HW229535   6.793   4.640   1.863
 9546SOL     OW29536   2.901   2.861   1.078
 9546SOL    HW129537   2.835   2.934   1.096
 9546SOL    HW229538   2.954   2.884   0.996
 9547SOL     OW29539   4.461   0.384   3.562
 9547SOL    HW129540   4.402   0.303   3.556
 9547SOL    HW229541   4.445   0.443   3.483
 9548SOL     OW29542   1.183   4.978   6.210
 9548SOL    HW129543   1.100   4.974   6.264
 9548SOL    HW229544   1.161   5.006   6.117
 9549SOL     OW29545   4.840   1.721   1.031
 9549SOL    HW129546   4.904   1.645   1.015
 9549SOL    HW229547   4.835   1.740   1.129
 9550SOL     OW29548   6.208   3.210   1.877
 9550SOL    HW129549   6.174   3.152   1.803
 9550SOL    HW229550   6.287   3.262   1.844
 9551SOL     OW29551   5.914   3.183   6.401
 9551SOL    HW129552   5.969   3.128   6.338
 9551SOL    HW229553   5.962   3.190   6.488
 9552SOL     OW29554   3.255   1.464   0.311
 9552SOL    HW129555   3.182   1.532   0.319
 9552SOL    HW229556   3.227   1.394   0.245
 9553SOL     OW29557   5.545   1.321   6.363
 9553SOL    HW129558   5.610   1.384   6.321
 9553SOL    HW229559   5.587   1.231   6.372
 9554SOL     OW29560   3.075   0.832   3.802
 9554SOL    HW129561   3.137   0.905   3.775
 9554SOL    HW229562   2.984   0.848   3.762
 9555SOL     OW29563   6.788   0.026   3.974
 9555SOL    HW129564   6.875   0.069   3.951
 9555SOL    HW229565   6.763   6.979   3.901
 9556SOL     OW29566   2.204   4.947   6.815
 9556SOL    HW129567   2.177   5.027   6.868
 9556SOL    HW229568   2.130   4.879   6.817
 9557SOL     OW29569   5.607   0.751   1.747
 9557SOL    HW129570   5.695   0.790   1.718
 9557SOL    HW229571   5.538   0.767   1.677
 9558SOL     OW29572   5.045   6.561   6.264
 9558SOL    HW129573   5.009   6.612   6.186
 9558SOL    HW229574   4.972   6.504   6.302
 9559SOL     OW29575   1.712   4.554   0.203
 9559SOL    HW129576   1.727   4.492   0.280
 9559SOL    HW229577   1.742   4.510   0.119
 9560SOL     OW29578   3.211   0.267   2.679
 9560SOL    HW129579   3.148   0.190   2.679
 9560SOL    HW229580   3.169   0.345   2.634
 9561SOL     OW29581   0.451   1.053   0.373
 9561SOL    HW129582   0.509   0.981   0.336
 9561SOL    HW229583   0.433   1.034   0.470
 9562SOL     OW29584   2.454   6.547   2.582
 9562SOL    HW129585   2.432   6.455   2.613
 9562SOL    HW229586   2.464   6.607   2.662
 9563SOL     OW29587   0.784   5.623   6.442
 9563SOL    HW129588   0.708   5.557   6.440
 9563SOL    HW229589   0.831   5.621   6.354
 9564SOL     OW29590   2.025   0.521   0.178
 9564SOL    HW129591   2.044   0.473   0.264
 9564SOL    HW229592   2.045   0.461   0.101
 9565SOL     OW29593   3.012   1.823   4.520
 9565SOL    HW129594   2.945   1.850   4.450
 9565SOL    HW229595   2.984   1.736   4.561
 9566SOL     OW29596   3.547   0.711   0.025
 9566SOL    HW129597   3.450   0.738   0.023
 9566SOL    HW229598   3.555   0.616   7.013
 9567SOL     OW29599   0.177   3.956   1.187
 9567SOL    HW129600   0.152   4.051   1.166
 9567SOL    HW229601   0.252   3.955   1.253
 9568SOL     OW29602   4.768   1.353   6.980
 9568SOL    HW129603   4.843   1.327   6.918
 9568SOL    HW229604   4.716   1.428   6.939
 9569SOL     OW29605   6.017   0.449   2.038
 9569SOL    HW129606   6.052   0.517   2.102
 9569SOL    HW229607   5.926   0.475   2.007
 9570SOL     OW29608   0.578   3.107   1.669
 9570SOL    HW129609   0.666   3.147   1.644
 9570SOL    HW229610   0.509   3.131   1.600
 9571SOL     OW29611   1.545   2.111   6.832
 9571SOL    HW129612   1.590   2.193   6.867
 9571SOL    HW229613   1.531   2.046   6.907
 9572SOL     OW29614   1.858   4.186   3.784
 9572SOL    HW129615   1.799   4.214   3.860
 9572SOL    HW229616   1.886   4.267   3.732
 9573SOL     OW29617   6.335   0.585   4.465
 9573SOL    HW129618   6.424   0.544   4.446
 9573SOL    HW229619   6.262   0.518   4.448
 9574SOL     OW29620   3.710   3.198   1.054
 9574SOL    HW129621   3.731   3.113   1.006
 9574SOL    HW229622   3.782   3.265   1.036
 9575SOL     OW29623   5.419   6.027   1.556
 9575SOL    HW129624   5.502   6.084   1.561
 9575SOL    HW229625   5.429   5.949   1.618
 9576SOL     OW29626   1.367   0.708   6.471
 9576SOL    HW129627   1.371   0.796   6.517
 9576SOL    HW229628   1.283   0.660   6.497
 9577SOL     OW29629   6.394   5.096   2.717
 9577SOL    HW129630   6.322   5.035   2.750
 9577SOL    HW229631   6.429   5.063   2.629
 9578SOL     OW29632   2.093   3.629   2.808
 9578SOL    HW129633   2.117   3.640   2.905
 9578SOL    HW229634   2.166   3.667   2.751
 9579SOL     OW29635   6.118   5.936   2.252
 9579SOL    HW129636   6.041   5.889   2.294
 9579SOL    HW229637   6.171   5.871   2.197
 9580SOL     OW29638   5.362   3.849   3.384
 9580SOL    HW129639   5.456   3.881   3.402
 9580SOL    HW229640   5.302   3.928   3.373
 9581SOL     OW29641   6.172   1.003   6.852
 9581SOL    HW129642   6.104   1.074   6.865
 9581SOL    HW229643   6.245   1.013   6.919
 9582SOL     OW29644   5.637   6.357   4.658
 9582SOL    HW129645   5.549   6.334   4.702
 9582SOL    HW229646   5.630   6.448   4.616
 9583SOL     OW29647   3.642   4.914   1.730
 9583SOL    HW129648   3.646   4.936   1.827
 9583SOL    HW229649   3.657   4.816   1.718
 9584SOL     OW29650   2.321   5.496   3.810
 9584SOL    HW129651   2.244   5.541   3.855
 9584SOL    HW229652   2.399   5.493   3.873
 9585SOL     OW29653   4.215   5.936   1.209
 9585SOL    HW129654   4.155   5.993   1.265
 9585SOL    HW229655   4.300   5.920   1.260
 9586SOL     OW29656   4.283   5.047   2.882
 9586SOL    HW129657   4.365   5.101   2.901
 9586SOL    HW229658   4.212   5.068   2.949
 9587SOL     OW29659   2.828   5.940   1.219
 9587SOL    HW129660   2.905   5.948   1.281
 9587SOL    HW229661   2.753   5.891   1.265
 9588SOL     OW29662   6.662   6.002   0.212
 9588SOL    HW129663   6.727   5.935   0.177
 9588SOL    HW229664   6.651   6.076   0.146
 9589SOL     OW29665   1.763   3.269   6.753
 9589SOL    HW129666   1.749   3.262   6.852
 9589SOL    HW229667   1.813   3.352   6.732
 9590SOL     OW29668   6.250   0.691   1.139
 9590SOL    HW129669   6.161   0.665   1.103
 9590SOL    HW229670   6.297   0.750   1.073
 9591SOL     OW29671   3.874   0.628   0.356
 9591SOL    HW129672   3.890   0.610   0.453
 9591SOL    HW229673   3.831   0.549   0.313
 9592SOL     OW29674   2.550   6.438   5.889
 9592SOL    HW129675   2.632   6.493   5.872
 9592SOL    HW229676   2.569   6.342   5.869
 9593SOL     OW29677   1.913   2.252   3.825
 9593SOL    HW129678   1.908   2.257   3.925
 9593SOL    HW229679   1.821   2.239   3.788
 9594SOL     OW29680   0.325   6.445   4.070
 9594SOL    HW129681   0.262   6.518   4.045
 9594SOL    HW229682   0.359   6.400   3.988
 9595SOL     OW29683   0.529   3.327   3.535
 9595SOL    HW129684   0.495   3.251   3.592
 9595SOL    HW229685   0.551   3.293   3.444
 9596SOL     OW29686   0.756   6.284   0.672
 9596SOL    HW129687   0.663   6.294   0.634
 9596SOL    HW229688   0.751   6.277   0.771
 9597SOL     OW29689   1.301   3.421   2.254
 9597SOL    HW129690   1.301   3.361   2.334
 9597SOL    HW229691   1.207   3.450   2.235
 9598SOL     OW29692   1.954   4.417   3.578
 9598SOL    HW129693   2.050   4.437   3.599
 9598SOL    HW229694   1.897   4.492   3.613
 9599SOL     OW29695   4.603   6.534   4.048
 9599SOL    HW129696   4.526   6.594   4.068
 9599SOL    HW229697   4.569   6.452   4.001
 9600SOL     OW29698   3.607   1.324   1.556
 9600SOL    HW129699   3.642   1.252   1.496
 9600SOL    HW229700   3.681   1.385   1.583
 9601SOL     OW29701   1.203   3.562   0.905
 9601SOL    HW129702   1.151   3.642   0.933
 9601SOL    HW229703   1.295   3.566   0.943
 9602SOL     OW29704   4.564   5.221   5.338
 9602SOL    HW129705   4.510   5.180   5.264
 9602SOL    HW229706   4.612   5.150   5.389
 9603SOL     OW29707   5.119   6.157   5.387
 9603SOL    HW129708   5.065   6.144   5.471
 9603SOL    HW229709   5.118   6.253   5.362
 9604SOL     OW29710   5.121   6.624   0.334
 9604SOL    HW129711   5.027   6.591   0.342
 9604SOL    HW229712   5.123   6.722   0.352
 9605SOL     OW29713   6.032   5.561   2.466
 9605SOL    HW129714   6.131   5.559   2.458
 9605SOL    HW229715   5.999   5.471   2.495
 9606SOL     OW29716   1.794   1.132   0.179
 9606SOL    HW129717   1.729   1.056   0.171
 9606SOL    HW229718   1.759   1.211   0.128
 9607SOL     OW29719   2.466   2.415   6.072
 9607SOL    HW129720   2.526   2.436   5.995
 9607SOL    HW229721   2.374   2.449   6.053
 9608SOL     OW29722   6.384   3.120   4.393
 9608SOL    HW129723   6.291   3.089   4.411
 9608SOL    HW229724   6.382   3.209   4.346
 9609SOL     OW29725   4.254   3.401   6.584
 9609SOL    HW129726   4.175   3.429   6.638
 9609SOL    HW229727   4.299   3.324   6.628
 9610SOL     OW29728   0.767   4.983   3.126
 9610SOL    HW129729   0.756   5.079   3.152
 9610SOL    HW229730   0.768   4.926   3.208
 9611SOL     OW29731   2.066   0.391   0.420
 9611SOL    HW129732   2.145   0.350   0.465
 9611SOL    HW229733   2.034   0.469   0.474
 9612SOL     OW29734   6.533   3.191   3.982
 9612SOL    HW129735   6.582   3.269   4.022
 9612SOL    HW229736   6.546   3.111   4.041
 9613SOL     OW29737   6.187   5.537   3.009
 9613SOL    HW129738   6.150   5.460   2.957
 9613SOL    HW229739   6.114   5.604   3.024
 9614SOL     OW29740   4.548   2.502   3.902
 9614SOL    HW129741   4.581   2.548   3.984
 9614SOL    HW229742   4.563   2.560   3.822
 9615SOL     OW29743   2.883   3.948   1.313
 9615SOL    HW129744   2.904   4.043   1.334
 9615SOL    HW229745   2.832   3.942   1.227
 9616SOL     OW29746   4.049   3.758   6.914
 9616SOL    HW129747   4.130   3.756   6.972
 9616SOL    HW229748   4.032   3.851   6.883
 9617SOL     OW29749   1.648   2.427   3.288
 9617SOL    HW129750   1.592   2.499   3.247
 9617SOL    HW229751   1.717   2.396   3.223
 9618SOL     OW29752   2.107   1.518   0.976
 9618SOL    HW129753   2.124   1.532   0.879
 9618SOL    HW229754   2.026   1.571   1.004
 9619SOL     OW29755   3.196   1.256   5.547
 9619SOL    HW129756   3.170   1.166   5.582
 9619SOL    HW229757   3.165   1.265   5.452
 9620SOL     OW29758   6.054   0.906   5.517
 9620SOL    HW129759   6.091   0.867   5.433
 9620SOL    HW229760   6.014   0.833   5.573
 9621SOL     OW29761   1.733   2.926   3.666
 9621SOL    HW129762   1.765   2.831   3.670
 9621SOL    HW229763   1.642   2.929   3.624
 9622SOL     OW29764   5.532   0.100   1.169
 9622SOL    HW129765   5.532   0.191   1.125
 9622SOL    HW229766   5.491   0.034   1.106
 9623SOL     OW29767   2.484   3.376   6.700
 9623SOL    HW129768   2.478   3.302   6.767
 9623SOL    HW229769   2.426   3.354   6.621
 9624SOL     OW29770   6.483   3.064   3.754
 9624SOL    HW129771   6.500   3.091   3.849
 9624SOL    HW229772   6.546   2.990   3.730
 9625SOL     OW29773   5.711   5.897   0.998
 9625SOL    HW129774   5.661   5.974   0.960
 9625SOL    HW229775   5.647   5.827   1.029
 9626SOL     OW29776   3.268   6.515   0.010
 9626SOL    HW129777   3.174   6.492   0.036
 9626SOL    HW229778   3.331   6.478   0.078
 9627SOL     OW29779   1.040   6.627   6.634
 9627SOL    HW129780   1.007   6.653   6.724
 9627SOL    HW229781   1.058   6.528   6.632
 9628SOL     OW29782   3.642   6.430   2.248
 9628SOL    HW129783   3.667   6.452   2.343
 9628SOL    HW229784   3.718   6.453   2.188
 9629SOL     OW29785   2.153   6.884   1.149
 9629SOL    HW129786   2.066   6.837   1.159
 9629SOL    HW229787   2.222   6.821   1.113
 9630SOL     OW29788   6.921   1.124   6.069
 9630SOL    HW129789   6.822   1.109   6.059
 9630SOL    HW229790   6.964   1.115   5.979
 9631SOL     OW29791   6.115   6.347   0.314
 9631SOL    HW129792   6.057   6.407   0.370
 9631SOL    HW229793   6.081   6.348   0.220
 9632SOL     OW29794   1.447   5.897   1.773
 9632SOL    HW129795   1.466   5.991   1.803
 9632SOL    HW229796   1.395   5.849   1.843
 9633SOL     OW29797   6.822   4.862   5.932
 9633SOL    HW129798   6.817   4.770   5.969
 9633SOL    HW229799   6.756   4.921   5.979
 9634SOL     OW29800   1.354   6.034   4.998
 9634SOL    HW129801   1.340   5.998   5.090
 9634SOL    HW229802   1.269   6.076   4.966
 9635SOL     OW29803   1.106   5.753   5.317
 9635SOL    HW129804   1.150   5.693   5.385
 9635SOL    HW229805   1.035   5.702   5.268
 9636SOL     OW29806   4.137   1.744   6.902
 9636SOL    HW129807   4.092   1.692   6.829
 9636SOL    HW229808   4.113   1.841   6.892
 9637SOL     OW29809   2.164   1.336   0.302
 9637SOL    HW129810   2.077   1.309   0.343
 9637SOL    HW229811   2.147   1.404   0.230
 9638SOL     OW29812   6.506   2.122   6.179
 9638SOL    HW129813   6.474   2.028   6.163
 9638SOL    HW229814   6.606   2.124   6.177
 9639SOL     OW29815   4.060   1.036   2.643
 9639SOL    HW129816   3.998   1.070   2.713
 9639SOL    HW229817   4.007   1.003   2.564
 9640SOL     OW29818   1.938   2.369   2.298
 9640SOL    HW129819   2.034   2.384   2.275
 9640SOL    HW229820   1.928   2.284   2.349
 9641SOL     OW29821   5.754   5.629   0.049
 9641SOL    HW129822   5.743   5.558   0.119
 9641SOL    HW229823   5.850   5.657   0.046
 9642SOL     OW29824   3.398   0.127   3.640
 9642SOL    HW129825   3.306   0.152   3.670
 9642SOL    HW229826   3.450   0.092   3.718
 9643SOL     OW29827   3.828   5.007   3.146
 9643SOL    HW129828   3.801   4.967   3.058
 9643SOL    HW229829   3.870   4.936   3.202
 9644SOL     OW29830   2.808   2.052   6.862
 9644SOL    HW129831   2.874   2.097   6.802
 9644SOL    HW229832   2.726   2.109   6.871
 9645SOL     OW29833   3.401   5.176   5.237
 9645SOL    HW129834   3.335   5.244   5.271
 9645SOL    HW229835   3.464   5.151   5.311
 9646SOL     OW29836   4.153   5.159   3.695
 9646SOL    HW129837   4.167   5.204   3.783
 9646SOL    HW229838   4.227   5.094   3.678
 9647SOL     OW29839   6.431   3.037   6.926
 9647SOL    HW129840   6.512   3.088   6.956
 9647SOL    HW229841   6.364   3.100   6.888
 9648SOL     OW29842   4.185   3.521   1.147
 9648SOL    HW129843   4.112   3.582   1.116
 9648SOL    HW229844   4.189   3.523   1.247
 9649SOL     OW29845   1.979   6.104   1.059
 9649SOL    HW129846   1.983   6.042   1.138
 9649SOL    HW229847   1.967   6.051   0.976
 9650SOL     OW29848   0.131   0.043   1.470
 9650SOL    HW129849   0.091   0.101   1.399
 9650SOL    HW229850   0.212   0.087   1.507
 9651SOL     OW29851   0.561   1.806   5.926
 9651SOL    HW129852   0.654   1.806   5.889
 9651SOL    HW229853   0.523   1.899   5.922
 9652SOL     OW29854   0.301   5.312   2.624
 9652SOL    HW129855   0.208   5.313   2.661
 9652SOL    HW229856   0.307   5.375   2.546
 9653SOL     OW29857   6.611   6.049   4.353
 9653SOL    HW129858   6.605   6.102   4.268
 9653SOL    HW229859   6.567   6.100   4.427
 9654SOL     OW29860   2.147   3.230   2.525
 9654SOL    HW129861   2.165   3.164   2.598
 9654SOL    HW229862   2.136   3.321   2.565
 9655SOL     OW29863   5.823   1.694   6.543
 9655SOL    HW129864   5.727   1.708   6.519
 9655SOL    HW229865   5.881   1.754   6.487
 9656SOL     OW29866   3.339   1.097   2.926
 9656SOL    HW129867   3.358   1.195   2.929
 9656SOL    HW229868   3.407   1.051   2.868
 9657SOL     OW29869   0.631   0.019   5.261
 9657SOL    HW129870   0.582   0.106   5.253
 9657SOL    HW229871   0.564   6.963   5.269
 9658SOL     OW29872   5.632   1.896   3.279
 9658SOL    HW129873   5.663   1.804   3.302
 9658SOL    HW229874   5.697   1.939   3.216
 9659SOL     OW29875   1.107   4.834   7.015
 9659SOL    HW129876   1.166   4.831   6.934
 9659SOL    HW229877   1.056   4.748   0.003
 9660SOL     OW29878   0.494   4.901   0.606
 9660SOL    HW129879   0.486   4.875   0.510
 9660SOL    HW229880   0.403   4.914   0.644
 9661SOL     OW29881   4.570   6.642   1.057
 9661SOL    HW129882   4.518   6.632   1.142
 9661SOL    HW229883   4.509   6.672   0.984
 9662SOL     OW29884   4.848   1.021   4.745
 9662SOL    HW129885   4.886   0.953   4.683
 9662SOL    HW229886   4.750   1.006   4.755
 9663SOL     OW29887   2.288   6.436   3.219
 9663SOL    HW129888   2.203   6.478   3.187
 9663SOL    HW229889   2.352   6.508   3.246
 9664SOL     OW29890   2.187   5.834   1.613
 9664SOL    HW129891   2.093   5.868   1.616
 9664SOL    HW229892   2.189   5.747   1.565
 9665SOL     OW29893   5.440   4.210   3.905
 9665SOL    HW129894   5.385   4.283   3.946
 9665SOL    HW229895   5.381   4.150   3.850
 9666SOL     OW29896   5.349   4.565   4.855
 9666SOL    HW129897   5.437   4.559   4.808
 9666SOL    HW229898   5.279   4.519   4.802
 9667SOL     OW29899   3.355   3.273   3.259
 9667SOL    HW129900   3.299   3.194   3.284
 9667SOL    HW229901   3.306   3.327   3.190
 9668SOL     OW29902   0.536   1.347   4.780
 9668SOL    HW129903   0.631   1.317   4.779
 9668SOL    HW229904   0.532   1.446   4.787
 9669SOL     OW29905   1.678   6.413   0.348
 9669SOL    HW129906   1.719   6.440   0.261
 9669SOL    HW229907   1.590   6.368   0.332
 9670SOL     OW29908   6.016   4.592   6.511
 9670SOL    HW129909   6.057   4.626   6.427
 9670SOL    HW229910   5.940   4.652   6.538
 9671SOL     OW29911   0.196   0.259   6.914
 9671SOL    HW129912   0.270   0.308   6.868
 9671SOL    HW229913   0.174   0.305   7.000
 9672SOL     OW29914   1.540   6.254   4.741
 9672SOL    HW129915   1.444   6.269   4.719
 9672SOL    HW229916   1.554   6.263   4.840
 9673SOL     OW29917   2.593   2.519   5.852
 9673SOL    HW129918   2.577   2.490   5.758
 9673SOL    HW229919   2.615   2.616   5.854
 9674SOL     OW29920   2.669   6.970   2.383
 9674SOL    HW129921   2.696   6.974   2.287
 9674SOL    HW229922   2.591   6.909   2.393
 9675SOL     OW29923   0.014   2.533   2.096
 9675SOL    HW129924   0.043   2.493   2.009
 9675SOL    HW229925   6.982   2.465   2.149
 9676SOL     OW29926   0.159   3.295   5.094
 9676SOL    HW129927   0.213   3.329   5.016
 9676SOL    HW229928   0.067   3.332   5.089
 9677SOL     OW29929   1.639   3.490   5.019
 9677SOL    HW129930   1.739   3.480   5.018
 9677SOL    HW229931   1.613   3.568   4.961
 9678SOL     OW29932   3.749   3.334   2.953
 9678SOL    HW129933   3.805   3.281   2.889
 9678SOL    HW229934   3.704   3.272   3.017
 9679SOL     OW29935   0.480   3.864   1.006
 9679SOL    HW129936   0.391   3.821   0.987
 9679SOL    HW229937   0.526   3.881   0.919
 9680SOL     OW29938   5.221   4.837   3.465
 9680SOL    HW129939   5.281   4.876   3.534
 9680SOL    HW229940   5.208   4.739   3.482
 9681SOL     OW29941   0.917   0.941   4.272
 9681SOL    HW129942   1.009   0.976   4.290
 9681SOL    HW229943   0.919   0.887   4.188
 9682SOL     OW29944   0.089   5.279   3.007
 9682SOL    HW129945   0.160   5.272   3.076
 9682SOL    HW229946   0.030   5.199   3.012
 9683SOL     OW29947   4.822   6.595   6.550
 9683SOL    HW129948   4.898   6.551   6.598
 9683SOL    HW229949   4.758   6.525   6.517
 9684SOL     OW29950   0.813   4.296   3.524
 9684SOL    HW129951   0.761   4.210   3.518
 9684SOL    HW229952   0.758   4.371   3.488
 9685SOL     OW29953   1.698   2.439   0.087
 9685SOL    HW129954   1.735   2.394   0.006
 9685SOL    HW229955   1.610   2.399   0.110
 9686SOL     OW29956   5.661   1.172   1.237
 9686SOL    HW129957   5.643   1.258   1.188
 9686SOL    HW229958   5.645   1.186   1.335
 9687SOL     OW29959   3.997   1.658   3.868
 9687SOL    HW129960   3.997   1.703   3.957
 9687SOL    HW229961   3.955   1.719   3.800
 9688SOL     OW29962   6.282   1.992   3.829
 9688SOL    HW129963   6.340   2.064   3.788
 9688SOL    HW229964   6.199   1.983   3.775
 9689SOL     OW29965   1.551   5.823   5.682
 9689SOL    HW129966   1.463   5.797   5.721
 9689SOL    HW229967   1.550   5.921   5.660
 9690SOL     OW29968   5.989   4.002   0.845
 9690SOL    HW129969   6.010   3.983   0.941
 9690SOL    HW229970   5.906   4.057   0.840
 9691SOL     OW29971   1.465   4.279   1.233
 9691SOL    HW129972   1.409   4.302   1.154
 9691SOL    HW229973   1.409   4.284   1.316
 9692SOL     OW29974   2.058   5.624   0.850
 9692SOL    HW129975   1.966   5.660   0.835
 9692SOL    HW229976   2.119   5.659   0.778
 9693SOL     OW29977   6.383   5.364   1.869
 9693SOL    HW129978   6.421   5.455   1.852
 9693SOL    HW229979   6.423   5.326   1.952
 9694SOL     OW29980   1.521   1.806   0.397
 9694SOL    HW129981   1.528   1.814   0.497
 9694SOL    HW229982   1.571   1.881   0.354
 9695SOL     OW29983   6.591   4.034   0.675
 9695SOL    HW129984   6.625   3.982   0.596
 9695SOL    HW229985   6.562   3.970   0.746
 9696SOL     OW29986   3.535   4.405   0.825
 9696SOL    HW129987   3.457   4.467   0.834
 9696SOL    HW229988   3.518   4.322   0.878
 9697SOL     OW29989   0.685   5.901   6.471
 9697SOL    HW129990   0.741   5.826   6.506
 9697SOL    HW229991   0.744   5.977   6.445
 9698SOL     OW29992   5.155   1.200   5.603
 9698SOL    HW129993   5.186   1.193   5.698
 9698SOL    HW229994   5.056   1.211   5.601
 9699SOL     OW29995   2.102   3.090   0.143
 9699SOL    HW129996   2.194   3.059   0.167
 9699SOL    HW229997   2.108   3.167   0.080
 9700SOL     OW29998   3.240   4.091   3.821
 9700SOL    HW129999   3.181   4.105   3.900
 9700SOL    HW230000   3.201   4.017   3.764
 9701SOL     OW30001   4.804   4.300   5.090
 9701SOL    HW130002   4.728   4.348   5.048
 9701SOL    HW230003   4.788   4.201   5.086
 9702SOL     OW30004   4.547   0.143   0.579
 9702SOL    HW130005   4.537   0.156   0.480
 9702SOL    HW230006   4.616   0.206   0.614
 9703SOL     OW30007   3.342   6.286   4.115
 9703SOL    HW130008   3.431   6.321   4.086
 9703SOL    HW230009   3.304   6.346   4.186
 9704SOL     OW30010   2.569   1.009   3.704
 9704SOL    HW130011   2.556   0.932   3.641
 9704SOL    HW230012   2.508   0.999   3.783
 9705SOL     OW30013   3.914   3.936   0.909
 9705SOL    HW130014   3.955   4.021   0.943
 9705SOL    HW230015   3.814   3.946   0.906
 9706SOL     OW30016   6.431   2.533   2.768
 9706SOL    HW130017   6.469   2.624   2.789
 9706SOL    HW230018   6.357   2.542   2.702
 9707SOL     OW30019   2.665   5.637   3.060
 9707SOL    HW130020   2.674   5.652   2.961
 9707SOL    HW230021   2.647   5.724   3.105
 9708SOL     OW30022   2.062   1.980   2.546
 9708SOL    HW130023   2.108   2.069   2.548
 9708SOL    HW230024   2.103   1.920   2.614
 9709SOL     OW30025   2.110   5.097   2.738
 9709SOL    HW130026   2.035   5.048   2.694
 9709SOL    HW230027   2.114   5.190   2.701
 9710SOL     OW30028   0.606   0.475   4.081
 9710SOL    HW130029   0.517   0.494   4.041
 9710SOL    HW230030   0.606   0.501   4.178
 9711SOL     OW30031   1.890   3.323   6.490
 9711SOL    HW130032   1.849   3.414   6.496
 9711SOL    HW230033   1.818   3.256   6.470
 9712SOL     OW30034   4.846   3.028   4.429
 9712SOL    HW130035   4.827   3.102   4.493
 9712SOL    HW230036   4.921   2.972   4.464
 9713SOL     OW30037   6.631   5.244   2.497
 9713SOL    HW130038   6.560   5.175   2.503
 9713SOL    HW230039   6.597   5.323   2.446
 9714SOL     OW30040   1.508   2.480   2.080
 9714SOL    HW130041   1.470   2.415   2.014
 9714SOL    HW230042   1.580   2.435   2.133
 9715SOL     OW30043   5.830   5.550   5.594
 9715SOL    HW130044   5.773   5.586   5.667
 9715SOL    HW230045   5.774   5.530   5.513
 9716SOL     OW30046   3.933   2.327   5.896
 9716SOL    HW130047   3.957   2.244   5.946
 9716SOL    HW230048   4.014   2.362   5.849
 9717SOL     OW30049   6.140   4.907   3.307
 9717SOL    HW130050   6.154   4.986   3.247
 9717SOL    HW230051   6.056   4.918   3.358
 9718SOL     OW30052   4.489   3.493   1.668
 9718SOL    HW130053   4.437   3.576   1.651
 9718SOL    HW230054   4.427   3.414   1.669
 9719SOL     OW30055   0.520   1.585   0.498
 9719SOL    HW130056   0.492   1.665   0.550
 9719SOL    HW230057   0.595   1.539   0.547
 9720SOL     OW30058   0.742   0.451   0.612
 9720SOL    HW130059   0.700   0.529   0.566
 9720SOL    HW230060   0.758   0.474   0.708
 9721SOL     OW30061   6.777   2.738   3.182
 9721SOL    HW130062   6.718   2.668   3.143
 9721SOL    HW230063   6.855   2.694   3.227
 9722SOL     OW30064   6.632   0.402   4.747
 9722SOL    HW130065   6.544   0.450   4.750
 9722SOL    HW230066   6.676   0.407   4.836
 9723SOL     OW30067   6.325   1.288   3.723
 9723SOL    HW130068   6.248   1.227   3.704
 9723SOL    HW230069   6.292   1.368   3.774
 9724SOL     OW30070   3.792   2.963   0.943
 9724SOL    HW130071   3.855   2.917   0.880
 9724SOL    HW230072   3.717   2.901   0.966
 9725SOL     OW30073   4.293   3.861   5.513
 9725SOL    HW130074   4.333   3.772   5.493
 9725SOL    HW230075   4.241   3.893   5.434
 9726SOL     OW30076   6.067   5.574   4.669
 9726SOL    HW130077   6.087   5.487   4.715
 9726SOL    HW230078   6.140   5.639   4.687
 9727SOL     OW30079   1.304   1.297   6.572
 9727SOL    HW130080   1.389   1.346   6.557
 9727SOL    HW230081   1.296   1.223   6.505
 9728SOL     OW30082   2.908   5.674   0.049
 9728SOL    HW130083   3.006   5.652   0.051
 9728SOL    HW230084   2.887   5.737   0.124
 9729SOL     OW30085   3.009   4.912   2.302
 9729SOL    HW130086   2.933   4.862   2.261
 9729SOL    HW230087   2.979   5.003   2.330
 9730SOL     OW30088   5.684   3.546   3.156
 9730SOL    HW130089   5.742   3.607   3.103
 9730SOL    HW230090   5.732   3.459   3.170
 9731SOL     OW30091   4.860   5.844   1.185
 9731SOL    HW130092   4.792   5.903   1.142
 9731SOL    HW230093   4.825   5.811   1.273
 9732SOL     OW30094   6.361   5.484   3.860
 9732SOL    HW130095   6.363   5.462   3.957
 9732SOL    HW230096   6.453   5.508   3.829
 9733SOL     OW30097   6.043   4.852   5.917
 9733SOL    HW130098   6.044   4.766   5.968
 9733SOL    HW230099   6.131   4.865   5.871
 9734SOL     OW30100   5.657   2.135   4.808
 9734SOL    HW130101   5.665   2.061   4.742
 9734SOL    HW230102   5.708   2.112   4.891
 9735SOL     OW30103   2.675   4.338   0.212
 9735SOL    HW130104   2.707   4.244   0.217
 9735SOL    HW230105   2.752   4.400   0.227
 9736SOL     OW30106   3.421   1.843   1.539
 9736SOL    HW130107   3.478   1.779   1.487
 9736SOL    HW230108   3.409   1.809   1.632
 9737SOL     OW30109   4.134   2.247   4.854
 9737SOL    HW130110   4.127   2.276   4.949
 9737SOL    HW230111   4.049   2.202   4.826
 9738SOL     OW30112   2.104   0.961   2.153
 9738SOL    HW130113   2.153   0.976   2.067
 9738SOL    HW230114   2.010   0.931   2.133
 9739SOL     OW30115   5.447   4.872   1.738
 9739SOL    HW130116   5.429   4.775   1.722
 9739SOL    HW230117   5.485   4.913   1.655
 9740SOL     OW30118   6.240   3.805   3.283
 9740SOL    HW130119   6.236   3.902   3.309
 9740SOL    HW230120   6.302   3.756   3.345
 9741SOL     OW30121   4.123   1.742   2.116
 9741SOL    HW130122   4.027   1.716   2.114
 9741SOL    HW230123   4.131   1.840   2.094
 9742SOL     OW30124   4.556   1.585   3.622
 9742SOL    HW130125   4.596   1.602   3.712
 9742SOL    HW230126   4.602   1.507   3.579
 9743SOL     OW30127   1.672   1.845   5.442
 9743SOL    HW130128   1.730   1.925   5.458
 9743SOL    HW230129   1.688   1.809   5.350
 9744SOL     OW30130   2.467   0.452   1.765
 9744SOL    HW130131   2.430   0.544   1.779
 9744SOL    HW230132   2.393   0.385   1.775
 9745SOL     OW30133   0.301   0.984   4.691
 9745SOL    HW130134   0.357   0.989   4.609
 9745SOL    HW230135   0.344   1.037   4.764
 9746SOL     OW30136   6.403   0.797   3.982
 9746SOL    HW130137   6.339   0.871   3.960
 9746SOL    HW230138   6.353   0.721   4.024
 9747SOL     OW30139   0.120   0.232   6.385
 9747SOL    HW130140   0.024   0.244   6.412
 9747SOL    HW230141   0.176   0.298   6.435
 9748SOL     OW30142   0.441   5.012   4.435
 9748SOL    HW130143   0.532   5.009   4.474
 9748SOL    HW230144   0.373   4.993   4.506
 9749SOL     OW30145   0.272   4.222   4.261
 9749SOL    HW130146   0.304   4.264   4.346
 9749SOL    HW230147   0.326   4.139   4.243
 9750SOL     OW30148   3.560   5.255   3.148
 9750SOL    HW130149   3.484   5.196   3.176
 9750SOL    HW230150   3.639   5.238   3.206
 9751SOL     OW30151   1.913   2.536   0.716
 9751SOL    HW130152   1.953   2.598   0.783
 9751SOL    HW230153   1.908   2.582   0.627
 9752SOL     OW30154   3.982   1.969   6.270
 9752SOL    HW130155   3.995   2.032   6.346
 9752SOL    HW230156   3.941   1.884   6.303
 9753SOL     OW30157   6.910   6.528   5.916
 9753SOL    HW130158   6.879   6.433   5.910
 9753SOL    HW230159   6.993   6.539   5.862
 9754SOL     OW30160   6.865   2.691   6.264
 9754SOL    HW130161   6.826   2.621   6.323
 9754SOL    HW230162   6.851   2.665   6.168
 9755SOL     OW30163   3.695   5.351   5.559
 9755SOL    HW130164   3.645   5.289   5.499
 9755SOL    HW230165   3.738   5.299   5.633
 9756SOL     OW30166   4.785   2.565   5.674
 9756SOL    HW130167   4.782   2.664   5.662
 9756SOL    HW230168   4.696   2.526   5.650
 9757SOL     OW30169   6.236   1.013   3.592
 9757SOL    HW130170   6.145   1.033   3.554
 9757SOL    HW230171   6.299   0.990   3.518
 9758SOL     OW30172   3.150   0.621   0.155
 9758SOL    HW130173   3.113   0.700   0.205
 9758SOL    HW230174   3.153   0.542   0.216
 9759SOL     OW30175   3.336   5.921   1.492
 9759SOL    HW130176   3.392   5.849   1.453
 9759SOL    HW230177   3.368   6.010   1.459
 9760SOL     OW30178   6.042   4.586   6.053
 9760SOL    HW130179   5.950   4.602   6.089
 9760SOL    HW230180   6.035   4.530   5.970
 9761SOL     OW30181   5.280   5.316   2.910
 9761SOL    HW130182   5.298   5.338   2.814
 9761SOL    HW230183   5.336   5.238   2.937
 9762SOL     OW30184   3.101   0.919   3.367
 9762SOL    HW130185   3.081   0.841   3.426
 9762SOL    HW230186   3.114   1.001   3.423
 9763SOL     OW30187   2.009   1.679   2.417
 9763SOL    HW130188   2.030   1.611   2.347
 9763SOL    HW230189   1.984   1.765   2.373
 9764SOL     OW30190   1.443   2.864   2.409
 9764SOL    HW130191   1.448   2.818   2.320
 9764SOL    HW230192   1.429   2.796   2.481
 9765SOL     OW30193   0.345   0.970   5.093
 9765SOL    HW130194   0.387   0.884   5.121
 9765SOL    HW230195   0.374   0.994   5.001
 9766SOL     OW30196   2.018   0.318   2.616
 9766SOL    HW130197   1.987   0.272   2.699
 9766SOL    HW230198   1.961   0.398   2.599
 9767SOL     OW30199   4.972   6.978   5.470
 9767SOL    HW130200   5.008   0.036   5.524
 9767SOL    HW230201   4.954   7.010   5.376
 9768SOL     OW30202   5.004   2.468   4.041
 9768SOL    HW130203   4.982   2.409   3.964
 9768SOL    HW230204   5.098   2.501   4.033
 9769SOL     OW30205   0.574   1.743   1.457
 9769SOL    HW130206   0.649   1.677   1.462
 9769SOL    HW230207   0.609   1.835   1.478
 9770SOL     OW30208   6.912   3.420   5.901
 9770SOL    HW130209   6.826   3.396   5.856
 9770SOL    HW230210   6.980   3.446   5.832
 9771SOL     OW30211   2.821   5.405   3.912
 9771SOL    HW130212   2.779   5.365   3.994
 9771SOL    HW230213   2.877   5.483   3.939
 9772SOL     OW30214   6.148   0.058   1.286
 9772SOL    HW130215   6.051   0.058   1.309
 9772SOL    HW230216   6.202   0.062   1.371
 9773SOL     OW30217   4.956   5.060   3.752
 9773SOL    HW130218   4.936   5.028   3.845
 9773SOL    HW230219   4.881   5.036   3.691
 9774SOL     OW30220   0.328   4.769   3.923
 9774SOL    HW130221   0.370   4.678   3.914
 9774SOL    HW230222   0.293   4.780   4.016
 9775SOL     OW30223   2.896   2.175   4.939
 9775SOL    HW130224   2.979   2.217   4.976
 9775SOL    HW230225   2.828   2.167   5.012
 9776SOL     OW30226   0.209   4.855   4.180
 9776SOL    HW130227   0.208   4.948   4.218
 9776SOL    HW230228   0.288   4.806   4.215
 9777SOL     OW30229   5.881   4.869   6.168
 9777SOL    HW130230   5.940   4.895   6.092
 9777SOL    HW230231   5.811   4.806   6.135
 9778SOL     OW30232   3.856   0.910   3.892
 9778SOL    HW130233   3.856   1.010   3.888
 9778SOL    HW230234   3.840   0.880   3.986
 9779SOL     OW30235   3.004   1.910   6.630
 9779SOL    HW130236   3.044   1.943   6.715
 9779SOL    HW230237   3.072   1.913   6.557
 9780SOL     OW30238   3.236   4.236   0.445
 9780SOL    HW130239   3.256   4.141   0.465
 9780SOL    HW230240   3.322   4.287   0.438
 9781SOL     OW30241   1.645   6.203   4.373
 9781SOL    HW130242   1.660   6.165   4.282
 9781SOL    HW230243   1.615   6.298   4.365
 9782SOL     OW30244   6.224   0.515   0.869
 9782SOL    HW130245   6.205   0.434   0.815
 9782SOL    HW230246   6.138   0.551   0.907
 9783SOL     OW30247   6.083   0.891   3.272
 9783SOL    HW130248   6.132   0.811   3.307
 9783SOL    HW230249   5.986   0.883   3.296
 9784SOL     OW30250   5.792   0.687   4.291
 9784SOL    HW130251   5.767   0.631   4.370
 9784SOL    HW230252   5.715   0.692   4.228
 9785SOL     OW30253   0.508   2.769   0.985
 9785SOL    HW130254   0.417   2.734   1.005
 9785SOL    HW230255   0.572   2.739   1.056
 9786SOL     OW30256   2.748   0.147   4.768
 9786SOL    HW130257   2.782   0.147   4.674
 9786SOL    HW230258   2.707   0.236   4.788
 9787SOL     OW30259   6.395   4.231   1.554
 9787SOL    HW130260   6.363   4.274   1.470
 9787SOL    HW230261   6.439   4.300   1.612
 9788SOL     OW30262   6.962   0.924   5.276
 9788SOL    HW130263   6.968   0.825   5.282
 9788SOL    HW230264   6.892   0.950   5.209
 9789SOL     OW30265   2.026   5.419   4.527
 9789SOL    HW130266   1.948   5.441   4.585
 9789SOL    HW230267   2.015   5.461   4.437
 9790SOL     OW30268   6.536   1.046   3.684
 9790SOL    HW130269   6.493   1.132   3.710
 9790SOL    HW230270   6.603   1.063   3.611
 9791SOL     OW30271   1.257   2.376   1.295
 9791SOL    HW130272   1.192   2.332   1.357
 9791SOL    HW230273   1.220   2.378   1.202
 9792SOL     OW30274   3.545   5.604   2.553
 9792SOL    HW130275   3.623   5.592   2.615
 9792SOL    HW230276   3.476   5.534   2.572
 9793SOL     OW30277   5.296   6.275   1.946
 9793SOL    HW130278   5.266   6.347   2.010
 9793SOL    HW230279   5.307   6.189   1.996
 9794SOL     OW30280   3.052   3.558   6.837
 9794SOL    HW130281   3.038   3.541   6.739
 9794SOL    HW230282   3.033   3.474   6.888
 9795SOL     OW30283   2.357   5.109   3.924
 9795SOL    HW130284   2.452   5.128   3.898
 9795SOL    HW230285   2.315   5.051   3.854
 9796SOL     OW30286   3.579   4.687   0.661
 9796SOL    HW130287   3.511   4.627   0.705
 9796SOL    HW230288   3.534   4.742   0.591
 9797SOL     OW30289   5.550   2.729   4.823
 9797SOL    HW130290   5.534   2.631   4.812
 9797SOL    HW230291   5.633   2.742   4.877
 9798SOL     OW30292   2.485   1.605   1.676
 9798SOL    HW130293   2.484   1.514   1.717
 9798SOL    HW230294   2.575   1.622   1.636
 9799SOL     OW30295   3.450   4.155   2.237
 9799SOL    HW130296   3.395   4.230   2.274
 9799SOL    HW230297   3.482   4.097   2.312
 9800SOL     OW30298   3.946   5.232   0.041
 9800SOL    HW130299   3.882   5.275   0.105
 9800SOL    HW230300   3.958   5.136   0.065
 9801SOL     OW30301   5.005   5.796   0.947
 9801SOL    HW130302   4.985   5.702   0.917
 9801SOL    HW230303   4.959   5.813   1.035
 9802SOL     OW30304   0.443   5.157   1.655
 9802SOL    HW130305   0.372   5.150   1.725
 9802SOL    HW230306   0.400   5.177   1.567
 9803SOL     OW30307   4.900   0.103   6.352
 9803SOL    HW130308   4.901   0.005   6.372
 9803SOL    HW230309   4.989   0.130   6.315
 9804SOL     OW30310   5.398   5.710   4.251
 9804SOL    HW130311   5.474   5.774   4.261
 9804SOL    HW230312   5.431   5.616   4.262
 9805SOL     OW30313   3.500   4.187   0.993
 9805SOL    HW130314   3.553   4.194   1.077
 9805SOL    HW230315   3.412   4.144   1.012
 9806SOL     OW30316   0.009   1.749   2.707
 9806SOL    HW130317   0.096   1.793   2.729
 9806SOL    HW230318   0.017   1.703   2.618
 9807SOL     OW30319   2.687   3.102   0.978
 9807SOL    HW130320   2.633   3.029   0.936
 9807SOL    HW230321   2.628   3.179   0.999
 9808SOL     OW30322   1.531   1.832   4.793
 9808SOL    HW130323   1.558   1.819   4.698
 9808SOL    HW230324   1.610   1.859   4.847
 9809SOL     OW30325   0.586   0.555   4.349
 9809SOL    HW130326   0.559   0.497   4.426
 9809SOL    HW230327   0.636   0.635   4.384
 9810SOL     OW30328   4.635   1.894   2.686
 9810SOL    HW130329   4.733   1.882   2.676
 9810SOL    HW230330   4.588   1.816   2.644
 9811SOL     OW30331   1.366   0.040   2.552
 9811SOL    HW130332   1.450   0.094   2.544
 9811SOL    HW230333   1.379   6.969   2.510
 9812SOL     OW30334   5.405   2.951   5.324
 9812SOL    HW130335   5.334   3.013   5.358
 9812SOL    HW230336   5.436   2.892   5.398
 9813SOL     OW30337   6.657   3.873   0.419
 9813SOL    HW130338   6.745   3.834   0.449
 9813SOL    HW230339   6.585   3.805   0.434
 9814SOL     OW30340   6.782   0.582   5.580
 9814SOL    HW130341   6.764   0.593   5.678
 9814SOL    HW230342   6.873   0.615   5.558
 9815SOL     OW30343   0.312   3.852   2.870
 9815SOL    HW130344   0.368   3.840   2.952
 9815SOL    HW230345   0.332   3.779   2.805
 9816SOL     OW30346   5.704   0.954   5.814
 9816SOL    HW130347   5.680   0.934   5.719
 9816SOL    HW230348   5.689   1.052   5.832
 9817SOL     OW30349   2.519   0.892   0.910
 9817SOL    HW130350   2.526   0.853   0.818
 9817SOL    HW230351   2.436   0.947   0.916
 9818SOL     OW30352   0.246   0.053   2.302
 9818SOL    HW130353   0.162   0.030   2.252
 9818SOL    HW230354   0.316   0.083   2.237
 9819SOL     OW30355   6.533   2.438   4.254
 9819SOL    HW130356   6.529   2.348   4.298
 9819SOL    HW230357   6.439   2.472   4.240
 9820SOL     OW30358   3.858   1.728   6.302
 9820SOL    HW130359   3.760   1.712   6.302
 9820SOL    HW230360   3.899   1.685   6.222
 9821SOL     OW30361   4.219   3.332   0.369
 9821SOL    HW130362   4.146   3.401   0.361
 9821SOL    HW230363   4.192   3.250   0.318
 9822SOL     OW30364   3.425   5.208   4.199
 9822SOL    HW130365   3.387   5.279   4.258
 9822SOL    HW230366   3.445   5.246   4.109
 9823SOL     OW30367   3.807   6.105   3.375
 9823SOL    HW130368   3.756   6.086   3.459
 9823SOL    HW230369   3.896   6.143   3.399
 9824SOL     OW30370   1.558   5.791   5.401
 9824SOL    HW130371   1.591   5.698   5.388
 9824SOL    HW230372   1.538   5.807   5.497
 9825SOL     OW30373   0.310   5.999   5.006
 9825SOL    HW130374   0.234   5.938   4.984
 9825SOL    HW230375   0.393   5.946   5.021
 9826SOL     OW30376   1.792   5.595   6.044
 9826SOL    HW130377   1.813   5.674   6.101
 9826SOL    HW230378   1.805   5.620   5.947
 9827SOL     OW30379   2.091   4.636   1.837
 9827SOL    HW130380   2.051   4.593   1.756
 9827SOL    HW230381   2.028   4.627   1.914
 9828SOL     OW30382   4.464   2.122   4.896
 9828SOL    HW130383   4.508   2.148   4.810
 9828SOL    HW230384   4.447   2.203   4.951
 9829SOL     OW30385   5.376   4.243   5.805
 9829SOL    HW130386   5.461   4.296   5.814
 9829SOL    HW230387   5.314   4.291   5.743
 9830SOL     OW30388   5.747   1.671   3.392
 9830SOL    HW130389   5.840   1.697   3.368
 9830SOL    HW230390   5.743   1.643   3.488
 9831SOL     OW30391   0.372   4.353   2.239
 9831SOL    HW130392   0.400   4.428   2.180
 9831SOL    HW230393   0.352   4.388   2.331
 9832SOL     OW30394   4.924   5.690   4.562
 9832SOL    HW130395   4.998   5.627   4.585
 9832SOL    HW230396   4.913   5.694   4.463
 9833SOL     OW30397   3.953   3.397   4.881
 9833SOL    HW130398   4.044   3.432   4.901
 9833SOL    HW230399   3.919   3.437   4.796
 9834SOL     OW30400   3.467   6.110   5.520
 9834SOL    HW130401   3.472   6.122   5.421
 9834SOL    HW230402   3.373   6.122   5.550
 9835SOL     OW30403   4.077   3.300   3.804
 9835SOL    HW130404   4.108   3.337   3.716
 9835SOL    HW230405   4.125   3.347   3.878
 9836SOL     OW30406   6.606   3.178   5.540
 9836SOL    HW130407   6.646   3.220   5.621
 9836SOL    HW230408   6.678   3.134   5.486
 9837SOL     OW30409   6.378   0.957   3.365
 9837SOL    HW130410   6.450   1.026   3.359
 9837SOL    HW230411   6.322   0.960   3.282
 9838SOL     OW30412   0.341   5.920   0.460
 9838SOL    HW130413   0.349   5.846   0.393
 9838SOL    HW230414   0.375   5.888   0.548
 9839SOL     OW30415   4.411   6.026   3.480
 9839SOL    HW130416   4.411   6.101   3.546
 9839SOL    HW230417   4.427   6.062   3.388
 9840SOL     OW30418   6.476   1.610   6.734
 9840SOL    HW130419   6.535   1.627   6.655
 9840SOL    HW230420   6.410   1.538   6.712
 9841SOL     OW30421   0.181   5.994   2.315
 9841SOL    HW130422   0.218   6.081   2.283
 9841SOL    HW230423   0.255   5.940   2.356
 9842SOL     OW30424   3.386   0.455   0.573
 9842SOL    HW130425   3.339   0.493   0.653
 9842SOL    HW230426   3.485   0.464   0.585
 9843SOL     OW30427   6.859   0.457   1.134
 9843SOL    HW130428   6.816   0.442   1.045
 9843SOL    HW230429   6.877   0.555   1.146
 9844SOL     OW30430   5.011   0.390   5.370
 9844SOL    HW130431   4.997   0.336   5.453
 9844SOL    HW230432   5.093   0.356   5.322
 9845SOL     OW30433   1.060   3.935   2.213
 9845SOL    HW130434   1.157   3.912   2.205
 9845SOL    HW230435   1.006   3.851   2.216
 9846SOL     OW30436   5.599   1.749   1.939
 9846SOL    HW130437   5.652   1.833   1.928
 9846SOL    HW230438   5.502   1.769   1.930
 9847SOL     OW30439   3.860   4.610   6.792
 9847SOL    HW130440   3.819   4.542   6.731
 9847SOL    HW230441   3.947   4.575   6.827
 9848SOL     OW30442   2.804   4.683   5.613
 9848SOL    HW130443   2.760   4.635   5.538
 9848SOL    HW230444   2.902   4.661   5.613
 9849SOL     OW30445   1.889   2.673   3.908
 9849SOL    HW130446   1.915   2.763   3.943
 9849SOL    HW230447   1.933   2.658   3.819
 9850SOL     OW30448   1.210   0.024   4.273
 9850SOL    HW130449   1.223   0.109   4.324
 9850SOL    HW230450   1.248   6.966   4.325
 9851SOL     OW30451   4.051   5.708   3.853
 9851SOL    HW130452   4.146   5.681   3.841
 9851SOL    HW230453   3.991   5.637   3.815
 9852SOL     OW30454   1.575   6.298   0.098
 9852SOL    HW130455   1.504   6.289   0.168
 9852SOL    HW230456   1.632   6.216   0.098
 9853SOL     OW30457   0.309   4.439   4.122
 9853SOL    HW130458   0.316   4.342   4.148
 9853SOL    HW230459   0.214   4.461   4.101
 9854SOL     OW30460   6.667   3.467   6.897
 9854SOL    HW130461   6.644   3.560   6.927
 9854SOL    HW230462   6.764   3.463   6.871
 9855SOL     OW30463   0.828   6.103   6.372
 9855SOL    HW130464   0.927   6.093   6.367
 9855SOL    HW230465   0.805   6.181   6.430
 9856SOL     OW30466   4.903   4.031   3.229
 9856SOL    HW130467   4.916   3.934   3.245
 9856SOL    HW230468   4.828   4.044   3.164
 9857SOL     OW30469   5.038   0.194   5.968
 9857SOL    HW130470   5.089   0.227   6.048
 9857SOL    HW230471   4.957   0.144   5.998
 9858SOL     OW30472   6.291   5.547   2.423
 9858SOL    HW130473   6.339   5.499   2.496
 9858SOL    HW230474   6.355   5.569   2.349
 9859SOL     OW30475   1.052   5.540   2.584
 9859SOL    HW130476   1.075   5.600   2.507
 9859SOL    HW230477   1.006   5.459   2.550
 9860SOL     OW30478   1.583   3.274   4.007
 9860SOL    HW130479   1.675   3.315   4.010
 9860SOL    HW230480   1.537   3.289   4.094
 9861SOL     OW30481   3.785   2.029   3.446
 9861SOL    HW130482   3.834   1.973   3.513
 9861SOL    HW230483   3.849   2.060   3.375
 9862SOL     OW30484   1.771   3.573   6.500
 9862SOL    HW130485   1.837   3.631   6.547
 9862SOL    HW230486   1.679   3.592   6.534
 9863SOL     OW30487   4.256   6.716   2.522
 9863SOL    HW130488   4.216   6.677   2.439
 9863SOL    HW230489   4.203   6.796   2.551
 9864SOL     OW30490   2.690   6.524   5.494
 9864SOL    HW130491   2.762   6.473   5.540
 9864SOL    HW230492   2.644   6.465   5.429
 9865SOL     OW30493   2.114   6.327   5.830
 9865SOL    HW130494   2.110   6.404   5.893
 9865SOL    HW230495   2.203   6.282   5.839
 9866SOL     OW30496   6.676   5.275   5.920
 9866SOL    HW130497   6.723   5.304   6.004
 9866SOL    HW230498   6.616   5.348   5.889
 9867SOL     OW30499   4.435   1.437   2.135
 9867SOL    HW130500   4.429   1.425   2.234
 9867SOL    HW230501   4.435   1.348   2.090
 9868SOL     OW30502   2.099   4.983   3.441
 9868SOL    HW130503   2.109   4.974   3.342
 9868SOL    HW230504   2.083   5.079   3.464
 9869SOL     OW30505   6.528   2.807   2.522
 9869SOL    HW130506   6.565   2.744   2.454
 9869SOL    HW230507   6.591   2.883   2.535
 9870SOL     OW30508   1.944   2.153   3.298
 9870SOL    HW130509   1.969   2.177   3.392
 9870SOL    HW230510   1.954   2.234   3.239
 9871SOL     OW30511   5.557   5.656   3.305
 9871SOL    HW130512   5.539   5.748   3.272
 9871SOL    HW230513   5.515   5.589   3.243
 9872SOL     OW30514   0.607   5.872   5.544
 9872SOL    HW130515   0.641   5.809   5.474
 9872SOL    HW230516   0.591   5.821   5.629
 9873SOL     OW30517   0.702   0.981   5.015
 9873SOL    HW130518   0.766   0.960   5.089
 9873SOL    HW230519   0.693   0.901   4.956
 9874SOL     OW30520   0.278   2.359   3.848
 9874SOL    HW130521   0.211   2.415   3.799
 9874SOL    HW230522   0.257   2.361   3.946
 9875SOL     OW30523   6.458   6.052   0.862
 9875SOL    HW130524   6.489   6.138   0.903
 9875SOL    HW230525   6.358   6.048   0.864
 9876SOL     OW30526   0.129   6.875   3.825
 9876SOL    HW130527   0.197   6.897   3.895
 9876SOL    HW230528   0.129   6.946   3.754
 9877SOL     OW30529   1.116   6.121   4.876
 9877SOL    HW130530   1.039   6.185   4.877
 9877SOL    HW230531   1.086   6.033   4.914
 9878SOL     OW30532   3.387   2.380   6.775
 9878SOL    HW130533   3.484   2.362   6.795
 9878SOL    HW230534   3.349   2.439   6.846
 9879SOL     OW30535   6.569   5.614   4.060
 9879SOL    HW130536   6.537   5.703   4.093
 9879SOL    HW230537   6.613   5.625   3.971
 9880SOL     OW30538   3.612   1.472   1.213
 9880SOL    HW130539   3.522   1.427   1.210
 9880SOL    HW230540   3.679   1.409   1.252
 9881SOL     OW30541   6.038   0.425   3.378
 9881SOL    HW130542   6.032   0.365   3.298
 9881SOL    HW230543   5.954   0.418   3.431
 9882SOL     OW30544   3.559   3.356   4.771
 9882SOL    HW130545   3.608   3.296   4.708
 9882SOL    HW230546   3.600   3.350   4.862
 9883SOL     OW30547   1.675   6.414   2.294
 9883SOL    HW130548   1.668   6.381   2.388
 9883SOL    HW230549   1.584   6.413   2.252
 9884SOL     OW30550   3.118   2.575   5.368
 9884SOL    HW130551   3.149   2.505   5.303
 9884SOL    HW230552   3.180   2.576   5.447
 9885SOL     OW30553   4.522   2.465   5.568
 9885SOL    HW130554   4.499   2.423   5.480
 9885SOL    HW230555   4.502   2.563   5.565
 9886SOL     OW30556   2.333   6.159   1.459
 9886SOL    HW130557   2.333   6.099   1.539
 9886SOL    HW230558   2.421   6.206   1.453
 9887SOL     OW30559   3.438   1.144   0.127
 9887SOL    HW130560   3.347   1.167   0.094
 9887SOL    HW230561   3.494   1.227   0.131
 9888SOL     OW30562   6.914   6.438   3.647
 9888SOL    HW130563   6.817   6.417   3.655
 9888SOL    HW230564   6.967   6.366   3.693
 9889SOL     OW30565   6.625   5.725   2.990
 9889SOL    HW130566   6.673   5.652   3.039
 9889SOL    HW230567   6.599   5.692   2.899
 9890SOL     OW30568   1.303   3.428   2.890
 9890SOL    HW130569   1.259   3.485   2.821
 9890SOL    HW230570   1.347   3.350   2.845
 9891SOL     OW30571   4.718   6.605   1.995
 9891SOL    HW130572   4.770   6.556   2.065
 9891SOL    HW230573   4.772   6.613   1.912
 9892SOL     OW30574   1.663   6.159   3.463
 9892SOL    HW130575   1.671   6.241   3.407
 9892SOL    HW230576   1.609   6.180   3.545
 9893SOL     OW30577   6.285   4.368   5.604
 9893SOL    HW130578   6.263   4.380   5.507
 9893SOL    HW230579   6.381   4.346   5.615
 9894SOL     OW30580   4.595   4.093   5.308
 9894SOL    HW130581   4.570   4.076   5.403
 9894SOL    HW230582   4.549   4.177   5.277
 9895SOL     OW30583   5.093   2.040   6.151
 9895SOL    HW130584   5.187   2.029   6.120
 9895SOL    HW230585   5.039   1.961   6.123
 9896SOL     OW30586   4.141   3.793   6.544
 9896SOL    HW130587   4.180   3.884   6.558
 9896SOL    HW230588   4.211   3.723   6.561
 9897SOL     OW30589   0.619   1.401   3.108
 9897SOL    HW130590   0.573   1.377   3.023
 9897SOL    HW230591   0.567   1.366   3.186
 9898SOL     OW30592   0.977   4.614   0.049
 9898SOL    HW130593   1.019   4.554   0.116
 9898SOL    HW230594   0.980   4.570   6.977
 9899SOL     OW30595   4.280   5.419   2.380
 9899SOL    HW130596   4.206   5.466   2.331
 9899SOL    HW230597   4.286   5.454   2.473
 9900SOL     OW30598   2.084   4.649   3.910
 9900SOL    HW130599   2.044   4.569   3.955
 9900SOL    HW230600   2.052   4.732   3.957
 9901SOL     OW30601   2.461   1.879   5.937
 9901SOL    HW130602   2.544   1.844   5.979
 9901SOL    HW230603   2.384   1.820   5.962
 9902SOL     OW30604   4.224   4.015   6.906
 9902SOL    HW130605   4.149   4.021   6.972
 9902SOL    HW230606   4.279   3.934   6.926
 9903SOL     OW30607   3.085   1.749   1.107
 9903SOL    HW130608   3.031   1.687   1.051
 9903SOL    HW230609   3.154   1.697   1.158
 9904SOL     OW30610   0.101   6.397   2.273
 9904SOL    HW130611   0.101   6.356   2.364
 9904SOL    HW230612   0.018   6.371   2.224
 9905SOL     OW30613   2.237   6.897   5.924
 9905SOL    HW130614   2.294   6.820   5.897
 9905SOL    HW230615   2.284   6.950   5.995
 9906SOL     OW30616   3.214   4.225   6.142
 9906SOL    HW130617   3.196   4.135   6.102
 9906SOL    HW230618   3.291   4.219   6.205
 9907SOL     OW30619   1.114   6.650   3.027
 9907SOL    HW130620   1.104   6.552   3.044
 9907SOL    HW230621   1.101   6.700   3.113
 9908SOL     OW30622   6.245   2.964   5.602
 9908SOL    HW130623   6.336   2.940   5.567
 9908SOL    HW230624   6.177   2.902   5.564
 9909SOL     OW30625   3.051   0.095   2.945
 9909SOL    HW130626   3.056   0.087   2.846
 9909SOL    HW230627   3.133   0.141   2.979
 9910SOL     OW30628   0.792   5.513   0.794
 9910SOL    HW130629   0.812   5.435   0.735
 9910SOL    HW230630   0.709   5.494   0.847
 9911SOL     OW30631   3.395   4.927   2.494
 9911SOL    HW130632   3.310   4.877   2.511
 9911SOL    HW230633   3.395   5.011   2.550
 9912SOL     OW30634   4.815   6.817   0.871
 9912SOL    HW130635   4.814   6.726   0.828
 9912SOL    HW230636   4.732   6.866   0.846
 9913SOL     OW30637   5.092   2.148   3.091
 9913SOL    HW130638   5.106   2.072   3.154
 9913SOL    HW230639   5.023   2.123   3.023
 9914SOL     OW30640   2.382   5.874   4.361
 9914SOL    HW130641   2.316   5.819   4.413
 9914SOL    HW230642   2.342   5.963   4.340
 9915SOL     OW30643   6.118   4.159   4.616
 9915SOL    HW130644   6.042   4.203   4.665
 9915SOL    HW230645   6.127   4.200   4.525
 9916SOL     OW30646   2.799   3.813   0.567
 9916SOL    HW130647   2.806   3.790   0.470
 9916SOL    HW230648   2.816   3.910   0.580
 9917SOL     OW30649   2.279   3.017   4.625
 9917SOL    HW130650   2.259   3.025   4.722
 9917SOL    HW230651   2.374   2.987   4.613
 9918SOL     OW30652   2.379   0.613   4.422
 9918SOL    HW130653   2.295   0.667   4.427
 9918SOL    HW230654   2.457   0.671   4.444
 9919SOL     OW30655   0.668   5.380   1.935
 9919SOL    HW130656   0.684   5.409   1.841
 9919SOL    HW230657   0.572   5.352   1.946
 9920SOL     OW30658   4.287   0.027   2.759
 9920SOL    HW130659   4.377   7.012   2.786
 9920SOL    HW230660   4.298   0.111   2.705
 9921SOL     OW30661   4.619   0.447   2.884
 9921SOL    HW130662   4.696   0.476   2.827
 9921SOL    HW230663   4.550   0.520   2.886
 9922SOL     OW30664   5.432   2.258   2.377
 9922SOL    HW130665   5.381   2.199   2.314
 9922SOL    HW230666   5.371   2.288   2.450
 9923SOL     OW30667   5.800   0.384   6.792
 9923SOL    HW130668   5.850   0.470   6.801
 9923SOL    HW230669   5.740   0.372   6.871
 9924SOL     OW30670   5.319   1.231   3.842
 9924SOL    HW130671   5.248   1.171   3.880
 9924SOL    HW230672   5.287   1.326   3.845
 9925SOL     OW30673   3.786   2.117   4.560
 9925SOL    HW130674   3.790   2.216   4.569
 9925SOL    HW230675   3.749   2.093   4.471
 9926SOL     OW30676   2.041   0.835   5.432
 9926SOL    HW130677   1.963   0.890   5.401
 9926SOL    HW230678   2.094   0.886   5.499
 9927SOL     OW30679   0.934   2.816   3.031
 9927SOL    HW130680   1.028   2.842   3.008
 9927SOL    HW230681   0.933   2.766   3.117
 9928SOL     OW30682   0.127   3.008   2.284
 9928SOL    HW130683   0.081   2.952   2.216
 9928SOL    HW230684   0.172   2.949   2.351
 9929SOL     OW30685   0.912   5.296   5.800
 9929SOL    HW130686   0.899   5.206   5.757
 9929SOL    HW230687   0.899   5.288   5.899
 9930SOL     OW30688   6.572   5.437   6.238
 9930SOL    HW130689   6.670   5.419   6.235
 9930SOL    HW230690   6.521   5.354   6.215
 9931SOL     OW30691   2.033   4.723   6.884
 9931SOL    HW130692   1.945   4.691   6.850
 9931SOL    HW230693   2.031   4.727   6.984
 9932SOL     OW30694   2.652   2.628   0.929
 9932SOL    HW130695   2.563   2.648   0.970
 9932SOL    HW230696   2.716   2.599   1.000
 9933SOL     OW30697   0.895   1.425   3.101
 9933SOL    HW130698   0.798   1.432   3.076
 9933SOL    HW230699   0.903   1.393   3.195
 9934SOL     OW30700   5.152   0.227   6.237
 9934SOL    HW130701   5.197   0.314   6.216
 9934SOL    HW230702   5.215   0.169   6.289
 9935SOL     OW30703   2.576   2.892   0.860
 9935SOL    HW130704   2.665   2.851   0.839
 9935SOL    HW230705   2.530   2.839   0.930
 9936SOL     OW30706   5.225   6.244   6.985
 9936SOL    HW130707   5.191   6.270   6.895
 9936SOL    HW230708   5.251   6.326   0.018
 9937SOL     OW30709   1.624   6.511   4.107
 9937SOL    HW130710   1.577   6.494   4.194
 9937SOL    HW230711   1.712   6.465   4.107
 9938SOL     OW30712   6.719   1.082   3.478
 9938SOL    HW130713   6.791   1.041   3.421
 9938SOL    HW230714   6.653   1.129   3.420
 9939SOL     OW30715   2.461   3.748   1.374
 9939SOL    HW130716   2.493   3.781   1.285
 9939SOL    HW230717   2.377   3.795   1.399
 9940SOL     OW30718   0.290   0.297   3.619
 9940SOL    HW130719   0.255   0.370   3.676
 9940SOL    HW230720   0.390   0.297   3.623
 9941SOL     OW30721   5.452   3.394   0.781
 9941SOL    HW130722   5.504   3.331   0.838
 9941SOL    HW230723   5.497   3.405   0.692
 9942SOL     OW30724   6.387   5.677   2.805
 9942SOL    HW130725   6.361   5.742   2.876
 9942SOL    HW230726   6.362   5.585   2.833
 9943SOL     OW30727   1.539   4.058   5.333
 9943SOL    HW130728   1.598   4.079   5.411
 9943SOL    HW230729   1.589   3.998   5.270
 9944SOL     OW30730   2.246   5.716   6.677
 9944SOL    HW130731   2.248   5.666   6.590
 9944SOL    HW230732   2.236   5.814   6.660
 9945SOL     OW30733   6.439   3.733   6.749
 9945SOL    HW130734   6.471   3.682   6.669
 9945SOL    HW230735   6.517   3.770   6.799
 9946SOL     OW30736   5.147   2.481   1.597
 9946SOL    HW130737   5.077   2.540   1.557
 9946SOL    HW230738   5.105   2.396   1.628
 9947SOL     OW30739   1.004   1.031   3.012
 9947SOL    HW130740   0.919   1.076   2.985
 9947SOL    HW230741   1.043   1.077   3.092
 9948SOL     OW30742   5.697   0.626   5.303
 9948SOL    HW130743   5.713   0.611   5.401
 9948SOL    HW230744   5.785   0.636   5.256
 9949SOL     OW30745   6.981   3.608   2.810
 9949SOL    HW130746   6.971   3.698   2.852
 9949SOL    HW230747   6.976   3.538   2.880
 9950SOL     OW30748   4.149   5.483   5.738
 9950SOL    HW130749   4.187   5.411   5.796
 9950SOL    HW230750   4.205   5.565   5.745
 9951SOL     OW30751   0.298   2.035   2.987
 9951SOL    HW130752   0.207   2.075   2.987
 9951SOL    HW230753   0.348   2.064   3.069
 9952SOL     OW30754   1.074   4.874   1.452
 9952SOL    HW130755   1.155   4.822   1.482
 9952SOL    HW230756   1.070   4.960   1.503
 9953SOL     OW30757   6.155   4.469   4.848
 9953SOL    HW130758   6.200   4.481   4.937
 9953SOL    HW230759   6.219   4.426   4.784
 9954SOL     OW30760   4.050   1.043   0.981
 9954SOL    HW130761   4.082   1.013   1.071
 9954SOL    HW230762   4.070   0.974   0.913
 9955SOL     OW30763   6.282   4.974   1.122
 9955SOL    HW130764   6.246   4.880   1.121
 9955SOL    HW230765   6.228   5.031   1.060
 9956SOL     OW30766   1.446   3.752   3.624
 9956SOL    HW130767   1.493   3.686   3.684
 9956SOL    HW230768   1.490   3.841   3.631
 9957SOL     OW30769   4.979   0.019   0.178
 9957SOL    HW130770   4.883   0.006   0.151
 9957SOL    HW230771   5.016   0.099   0.132
 9958SOL     OW30772   6.083   6.154   6.080
 9958SOL    HW130773   6.048   6.084   6.142
 9958SOL    HW230774   6.050   6.135   5.987
 9959SOL     OW30775   5.780   4.906   6.941
 9959SOL    HW130776   5.785   4.816   6.899
 9959SOL    HW230777   5.823   4.973   6.881
 9960SOL     OW30778   6.652   0.492   6.721
 9960SOL    HW130779   6.741   0.464   6.757
 9960SOL    HW230780   6.657   0.587   6.691
 9961SOL     OW30781   3.153   6.305   0.517
 9961SOL    HW130782   3.095   6.360   0.578
 9961SOL    HW230783   3.229   6.267   0.570
 9962SOL     OW30784   3.164   0.660   1.494
 9962SOL    HW130785   3.072   0.654   1.533
 9962SOL    HW230786   3.231   0.669   1.567
 9963SOL     OW30787   1.058   0.732   6.368
 9963SOL    HW130788   1.090   0.817   6.410
 9963SOL    HW230789   1.096   0.724   6.276
 9964SOL     OW30790   4.658   5.407   5.097
 9964SOL    HW130791   4.635   5.333   5.161
 9964SOL    HW230792   4.578   5.426   5.040
 9965SOL     OW30793   2.649   4.814   4.439
 9965SOL    HW130794   2.631   4.758   4.519
 9965SOL    HW230795   2.676   4.756   4.362
 9966SOL     OW30796   2.754   5.655   2.798
 9966SOL    HW130797   2.775   5.576   2.740
 9966SOL    HW230798   2.731   5.733   2.740
 9967SOL     OW30799   0.505   0.365   2.644
 9967SOL    HW130800   0.429   0.301   2.632
 9967SOL    HW230801   0.486   0.449   2.593
 9968SOL     OW30802   4.870   6.302   6.727
 9968SOL    HW130803   4.905   6.292   6.634
 9968SOL    HW230804   4.888   6.395   6.759
 9969SOL     OW30805   0.277   5.930   3.008
 9969SOL    HW130806   0.307   6.023   2.985
 9969SOL    HW230807   0.268   5.876   2.924
 9970SOL     OW30808   6.821   3.103   2.028
 9970SOL    HW130809   6.809   3.038   2.103
 9970SOL    HW230810   6.733   3.146   2.008
 9971SOL     OW30811   0.261   5.171   4.919
 9971SOL    HW130812   0.170   5.203   4.944
 9971SOL    HW230813   0.328   5.242   4.937
 9972SOL     OW30814   2.828   4.779   6.023
 9972SOL    HW130815   2.808   4.841   5.947
 9972SOL    HW230816   2.917   4.802   6.063
 9973SOL     OW30817   3.311   2.154   3.203
 9973SOL    HW130818   3.312   2.117   3.110
 9973SOL    HW230819   3.405   2.164   3.236
 9974SOL     OW30820   0.809   2.444   3.252
 9974SOL    HW130821   0.821   2.461   3.349
 9974SOL    HW230822   0.744   2.509   3.214
 9975SOL     OW30823   2.394   4.334   6.594
 9975SOL    HW130824   2.383   4.391   6.512
 9975SOL    HW230825   2.341   4.374   6.669
 9976SOL     OW30826   3.821   6.390   5.483
 9976SOL    HW130827   3.743   6.450   5.500
 9976SOL    HW230828   3.827   6.321   5.555
 9977SOL     OW30829   4.355   0.325   5.273
 9977SOL    HW130830   4.447   0.362   5.284
 9977SOL    HW230831   4.346   0.242   5.327
 9978SOL     OW30832   6.985   2.926   6.848
 9978SOL    HW130833   6.957   2.863   6.920
 9978SOL    HW230834   0.062   2.952   6.862
 9979SOL     OW30835   3.748   3.795   4.458
 9979SOL    HW130836   3.661   3.781   4.409
 9979SOL    HW230837   3.761   3.722   4.525
 9980SOL     OW30838   0.402   0.352   6.745
 9980SOL    HW130839   0.445   0.310   6.665
 9980SOL    HW230840   0.468   0.356   6.820
 9981SOL     OW30841   5.960   0.743   0.256
 9981SOL    HW130842   6.043   0.736   0.310
 9981SOL    HW230843   5.982   0.781   0.166
 9982SOL     OW30844   2.879   2.231   4.385
 9982SOL    HW130845   2.957   2.225   4.323
 9982SOL    HW230846   2.911   2.226   4.480
 9983SOL     OW30847   0.688   2.719   2.359
 9983SOL    HW130848   0.715   2.696   2.266
 9983SOL    HW230849   0.675   2.818   2.367
 9984SOL     OW30850   0.830   4.474   0.968
 9984SOL    HW130851   0.821   4.560   1.017
 9984SOL    HW230852   0.752   4.415   0.989
 9985SOL     OW30853   4.721   4.509   0.351
 9985SOL    HW130854   4.813   4.500   0.388
 9985SOL    HW230855   4.725   4.529   0.253
 9986SOL     OW30856   5.540   4.901   0.420
 9986SOL    HW130857   5.479   4.974   0.390
 9986SOL    HW230858   5.513   4.869   0.511
 9987SOL     OW30859   4.813   2.352   1.076
 9987SOL    HW130860   4.901   2.389   1.107
 9987SOL    HW230861   4.829   2.268   1.024
 9988SOL     OW30862   5.810   6.566   3.835
 9988SOL    HW130863   5.748   6.537   3.908
 9988SOL    HW230864   5.900   6.525   3.850
 9989SOL     OW30865   6.674   5.552   1.979
 9989SOL    HW130866   6.618   5.633   1.965
 9989SOL    HW230867   6.763   5.565   1.937
 9990SOL     OW30868   0.557   6.177   3.123
 9990SOL    HW130869   0.505   6.228   3.054
 9990SOL    HW230870   0.513   6.187   3.212
 9991SOL     OW30871   2.139   4.382   2.203
 9991SOL    HW130872   2.090   4.305   2.163
 9991SOL    HW230873   2.121   4.385   2.302
 9992SOL     OW30874   2.810   5.047   0.340
 9992SOL    HW130875   2.801   5.003   0.430
 9992SOL    HW230876   2.875   4.995   0.285
 9993SOL     OW30877   4.272   0.272   4.936
 9993SOL    HW130878   4.335   0.336   4.981
 9993SOL    HW230879   4.311   0.242   4.849
 9994SOL     OW30880   6.040   5.337   4.851
 9994SOL    HW130881   6.003   5.254   4.810
 9994SOL    HW230882   5.968   5.386   4.900
 9995SOL     OW30883   4.410   1.578   6.315
 9995SOL    HW130884   4.321   1.619   6.334
 9995SOL    HW230885   4.429   1.507   6.384
 9996SOL     OW30886   2.969   4.470   0.991
 9996SOL    HW130887   2.876   4.479   1.026
 9996SOL    HW230888   2.970   4.404   0.916
 9997SOL     OW30889   6.749   1.231   3.117
 9997SOL    HW130890   6.844   1.199   3.130
 9997SOL    HW230891   6.731   1.241   3.019
 9998SOL     OW30892   5.232   4.110   2.388
 9998SOL    HW130893   5.270   4.188   2.438
 9998SOL    HW230894   5.165   4.143   2.321
 9999SOL     OW30895   0.558   6.873   4.769
 9999SOL    HW130896   0.544   6.892   4.672
 9999SOL    HW230897   0.539   6.956   4.822
10000SOL     OW30898   4.559   2.328   1.309
10000SOL    HW130899   4.548   2.240   1.355
10000SOL    HW230900   4.494   2.334   1.234
10001SOL     OW30901   3.916   6.450   1.640
10001SOL    HW130902   3.881   6.471   1.549
10001SOL    HW230903   3.864   6.501   1.709
10002SOL     OW30904   2.462   6.909   1.974
10002SOL    HW130905   2.402   6.876   2.047
10002SOL    HW230906   2.448   6.855   1.892
10003SOL     OW30907   1.347   1.076   2.304
10003SOL    HW130908   1.251   1.058   2.280
10003SOL    HW230909   1.378   1.158   2.255
10004SOL     OW30910   0.227   4.008   3.875
10004SOL    HW130911   0.276   4.076   3.820
10004SOL    HW230912   0.130   4.034   3.882
10005SOL     OW30913   2.601   5.396   3.402
10005SOL    HW130914   2.574   5.489   3.379
10005SOL    HW230915   2.665   5.398   3.479
10006SOL     OW30916   5.124   1.565   5.287
10006SOL    HW130917   5.175   1.578   5.202
10006SOL    HW230918   5.088   1.653   5.318
10007SOL     OW30919   1.712   5.226   3.904
10007SOL    HW130920   1.628   5.238   3.957
10007SOL    HW230921   1.765   5.151   3.944
10008SOL     OW30922   4.235   1.082   6.137
10008SOL    HW130923   4.211   1.101   6.042
10008SOL    HW230924   4.191   0.997   6.166
10009SOL     OW30925   0.764   4.767   2.540
10009SOL    HW130926   0.811   4.755   2.452
10009SOL    HW230927   0.829   4.758   2.615
10010SOL     OW30928   1.765   4.485   1.185
10010SOL    HW130929   1.784   4.567   1.131
10010SOL    HW230930   1.831   4.479   1.260
10011SOL     OW30931   3.262   3.104   0.479
10011SOL    HW130932   3.347   3.154   0.465
10011SOL    HW230933   3.211   3.098   0.392
10012SOL     OW30934   5.559   1.789   3.951
10012SOL    HW130935   5.522   1.877   3.920
10012SOL    HW230936   5.600   1.800   4.041
10013SOL     OW30937   0.770   6.475   4.396
10013SOL    HW130938   0.734   6.492   4.304
10013SOL    HW230939   0.730   6.541   4.460
10014SOL     OW30940   1.086   0.786   3.297
10014SOL    HW130941   1.178   0.754   3.273
10014SOL    HW230942   1.092   0.847   3.377
10015SOL     OW30943   3.851   6.947   6.349
10015SOL    HW130944   3.894   6.867   6.391
10015SOL    HW230945   3.901   6.971   6.265
10016SOL     OW30946   2.765   1.230   4.617
10016SOL    HW130947   2.677   1.239   4.571
10016SOL    HW230948   2.836   1.209   4.550
10017SOL     OW30949   3.049   1.702   2.754
10017SOL    HW130950   3.047   1.749   2.665
10017SOL    HW230951   3.144   1.677   2.776
10018SOL     OW30952   6.998   4.241   5.224
10018SOL    HW130953   0.052   4.261   5.158
10018SOL    HW230954   6.947   4.325   5.244
10019SOL     OW30955   6.817   2.280   1.873
10019SOL    HW130956   6.787   2.207   1.811
10019SOL    HW230957   6.742   2.305   1.934
10020SOL     OW30958   6.729   1.229   2.286
10020SOL    HW130959   6.799   1.159   2.268
10020SOL    HW230960   6.667   1.196   2.357
10021SOL     OW30961   0.835   3.199   1.647
10021SOL    HW130962   0.874   3.214   1.738
10021SOL    HW230963   0.909   3.183   1.581
10022SOL     OW30964   1.467   6.461   5.867
10022SOL    HW130965   1.494   6.400   5.941
10022SOL    HW230966   1.374   6.439   5.837
10023SOL     OW30967   0.161   1.978   5.811
10023SOL    HW130968   0.193   1.906   5.872
10023SOL    HW230969   0.062   1.969   5.798
10024SOL     OW30970   1.921   4.515   3.084
10024SOL    HW130971   1.872   4.511   2.997
10024SOL    HW230972   1.953   4.423   3.109
10025SOL     OW30973   0.837   3.340   1.233
10025SOL    HW130974   0.835   3.397   1.151
10025SOL    HW230975   0.752   3.353   1.284
10026SOL     OW30976   5.605   1.167   5.126
10026SOL    HW130977   5.549   1.235   5.173
10026SOL    HW230978   5.673   1.129   5.189
10027SOL     OW30979   3.339   1.523   5.294
10027SOL    HW130980   3.415   1.534   5.229
10027SOL    HW230981   3.375   1.498   5.384
10028SOL     OW30982   4.196   6.909   2.192
10028SOL    HW130983   4.106   6.950   2.178
10028SOL    HW230984   4.185   6.820   2.236
10029SOL     OW30985   0.024   4.331   4.198
10029SOL    HW130986   0.106   4.274   4.201
10029SOL    HW230987   0.035   4.401   4.127
10030SOL     OW30988   2.488   0.102   4.604
10030SOL    HW130989   2.509   0.093   4.701
10030SOL    HW230990   2.390   0.116   4.592
10031SOL     OW30991   2.045   6.126   3.273
10031SOL    HW130992   1.966   6.081   3.316
10031SOL    HW230993   2.102   6.058   3.228
10032SOL     OW30994   3.214   5.951   4.531
10032SOL    HW130995   3.208   5.898   4.616
10032SOL    HW230996   3.270   5.902   4.465
10033SOL     OW30997   3.475   1.107   5.248
10033SOL    HW130998   3.472   1.050   5.330
10033SOL    HW230999   3.385   1.148   5.232
10034SOL     OW31000   2.642   1.482   2.337
10034SOL    HW131001   2.666   1.553   2.403
10034SOL    HW231002   2.719   1.420   2.326
10035SOL     OW31003   6.676   3.005   2.599
10035SOL    HW131004   6.756   2.952   2.625
10035SOL    HW231005   6.696   3.102   2.608
10036SOL     OW31006   1.020   0.895   0.068
10036SOL    HW131007   1.106   0.947   0.070
10036SOL    HW231008   1.026   0.818   0.132
10037SOL     OW31009   5.800   6.703   6.523
10037SOL    HW131010   5.735   6.628   6.516
10037SOL    HW231011   5.831   6.730   6.431
10038SOL     OW31012   5.012   6.272   6.487
10038SOL    HW131013   5.037   6.179   6.460
10038SOL    HW231014   4.965   6.317   6.411
10039SOL     OW31015   0.405   5.745   2.172
10039SOL    HW131016   0.494   5.714   2.137
10039SOL    HW231017   0.363   5.807   2.106
10040SOL     OW31018   2.622   6.668   0.173
10040SOL    HW131019   2.699   6.702   0.227
10040SOL    HW231020   2.564   6.611   0.232
10041SOL     OW31021   5.586   5.565   5.115
10041SOL    HW131022   5.515   5.635   5.126
10041SOL    HW231023   5.569   5.512   5.032
10042SOL     OW31024   6.788   0.524   5.223
10042SOL    HW131025   6.793   0.495   5.319
10042SOL    HW231026   6.869   0.579   5.201
10043SOL     OW31027   0.601   0.697   3.358
10043SOL    HW131028   0.700   0.696   3.370
10043SOL    HW231029   0.568   0.604   3.342
10044SOL     OW31030   3.093   1.897   0.166
10044SOL    HW131031   3.124   1.972   0.224
10044SOL    HW231032   2.994   1.902   0.155
10045SOL     OW31033   4.192   6.499   4.802
10045SOL    HW131034   4.170   6.436   4.877
10045SOL    HW231035   4.160   6.591   4.826
10046SOL     OW31036   5.977   2.444   1.791
10046SOL    HW131037   6.019   2.508   1.726
10046SOL    HW231038   5.894   2.405   1.750
10047SOL     OW31039   0.327   2.441   3.361
10047SOL    HW131040   0.364   2.395   3.442
10047SOL    HW231041   0.391   2.512   3.331
10048SOL     OW31042   3.686   2.560   1.774
10048SOL    HW131043   3.778   2.560   1.735
10048SOL    HW231044   3.671   2.476   1.826
10049SOL     OW31045   2.035   6.346   4.532
10049SOL    HW131046   1.937   6.337   4.549
10049SOL    HW231047   2.054   6.436   4.491
10050SOL     OW31048   5.436   1.193   4.443
10050SOL    HW131049   5.497   1.263   4.407
10050SOL    HW231050   5.412   1.129   4.370
10051SOL     OW31051   6.197   2.008   0.031
10051SOL    HW131052   6.270   2.060   0.076
10051SOL    HW231053   6.138   2.071   6.998
10052SOL     OW31054   1.206   4.538   1.938
10052SOL    HW131055   1.255   4.479   1.873
10052SOL    HW231056   1.263   4.616   1.962
10053SOL     OW31057   2.939   6.917   3.260
10053SOL    HW131058   2.880   6.997   3.268
10053SOL    HW231059   2.979   6.895   3.349
10054SOL     OW31060   4.413   5.829   3.811
10054SOL    HW131061   4.467   5.894   3.758
10054SOL    HW231062   4.451   5.821   3.903
10055SOL     OW31063   6.229   3.407   6.502
10055SOL    HW131064   6.208   3.362   6.415
10055SOL    HW231065   6.239   3.337   6.574
10056SOL     OW31066   6.605   4.847   1.957
10056SOL    HW131067   6.602   4.931   2.010
10056SOL    HW231068   6.649   4.775   2.011
10057SOL     OW31069   2.671   2.145   3.988
10057SOL    HW131070   2.655   2.164   4.085
10057SOL    HW231071   2.586   2.117   3.944
10058SOL     OW31072   0.832   4.560   3.869
10058SOL    HW131073   0.765   4.553   3.796
10058SOL    HW231074   0.866   4.654   3.876
10059SOL     OW31075   5.778   6.953   1.610
10059SOL    HW131076   5.722   6.931   1.530
10059SOL    HW231077   5.719   6.963   1.690
10060SOL     OW31078   2.267   2.866   2.359
10060SOL    HW131079   2.300   2.772   2.351
10060SOL    HW231080   2.252   2.888   2.455
10061SOL     OW31081   6.362   2.022   4.883
10061SOL    HW131082   6.325   2.108   4.847
10061SOL    HW231083   6.311   1.945   4.845
10062SOL     OW31084   5.993   5.765   3.055
10062SOL    HW131085   5.964   5.716   3.137
10062SOL    HW231086   6.023   5.858   3.081
10063SOL     OW31087   0.832   2.385   2.854
10063SOL    HW131088   0.908   2.360   2.913
10063SOL    HW231089   0.746   2.381   2.907
10064SOL     OW31090   5.804   5.878   5.300
10064SOL    HW131091   5.862   5.821   5.242
10064SOL    HW231092   5.825   5.861   5.396
10065SOL     OW31093   0.413   6.466   3.097
10065SOL    HW131094   0.471   6.532   3.144
10065SOL    HW231095   0.430   6.470   2.998
10066SOL     OW31096   0.706   0.337   3.234
10066SOL    HW131097   0.744   0.308   3.322
10066SOL    HW231098   0.750   0.285   3.161
10067SOL     OW31099   4.947   6.683   3.600
10067SOL    HW131100   4.901   6.734   3.527
10067SOL    HW231101   4.888   6.608   3.630
10068SOL     OW31102   4.857   3.678   5.756
10068SOL    HW131103   4.850   3.765   5.804
10068SOL    HW231104   4.882   3.694   5.660
10069SOL     OW31105   5.077   0.896   3.726
10069SOL    HW131106   5.039   0.863   3.640
10069SOL    HW231107   5.161   0.947   3.708
10070SOL     OW31108   0.984   6.741   4.462
10070SOL    HW131109   0.900   6.700   4.498
10070SOL    HW231110   1.048   6.758   4.537
10071SOL     OW31111   5.222   5.189   5.183
10071SOL    HW131112   5.130   5.178   5.221
10071SOL    HW231113   5.288   5.193   5.258
10072SOL     OW31114   0.885   0.019   3.608
10072SOL    HW131115   0.967   0.005   3.552
10072SOL    HW231116   0.835   0.098   3.574
10073SOL     OW31117   0.352   5.141   6.496
10073SOL    HW131118   0.443   5.156   6.536
10073SOL    HW231119   0.338   5.043   6.482
10074SOL     OW31120   2.701   6.663   5.812
10074SOL    HW131121   2.659   6.712   5.888
10074SOL    HW231122   2.707   6.723   5.733
10075SOL     OW31123   1.640   2.400   3.714
10075SOL    HW131124   1.598   2.474   3.661
10075SOL    HW231125   1.596   2.395   3.804
10076SOL     OW31126   5.478   0.300   4.496
10076SOL    HW131127   5.421   0.288   4.577
10076SOL    HW231128   5.422   0.290   4.414
10077SOL     OW31129   2.974   1.005   6.833
10077SOL    HW131130   2.895   0.972   6.782
10077SOL    HW231131   2.996   1.098   6.804
10078SOL     OW31132   5.785   6.190   5.275
10078SOL    HW131133   5.774   6.096   5.243
10078SOL    HW231134   5.824   6.190   5.367
10079SOL     OW31135   6.441   2.759   6.425
10079SOL    HW131136   6.470   2.841   6.475
10079SOL    HW231137   6.410   2.785   6.334
10080SOL     OW31138   1.416   2.451   6.376
10080SOL    HW131139   1.358   2.488   6.304
10080SOL    HW231140   1.411   2.351   6.376
10081SOL     OW31141   0.404   1.024   6.918
10081SOL    HW131142   0.461   0.966   6.859
10081SOL    HW231143   0.324   1.055   6.867
10082SOL     OW31144   6.627   0.917   0.757
10082SOL    HW131145   6.687   0.933   0.835
10082SOL    HW231146   6.554   0.986   0.755
10083SOL     OW31147   5.066   1.200   4.319
10083SOL    HW131148   5.025   1.229   4.232
10083SOL    HW231149   5.152   1.249   4.334
10084SOL     OW31150   2.151   0.845   6.207
10084SOL    HW131151   2.058   0.808   6.210
10084SOL    HW231152   2.147   0.944   6.193
10085SOL     OW31153   0.718   5.588   2.663
10085SOL    HW131154   0.772   5.521   2.713
10085SOL    HW231155   0.777   5.644   2.605
10086SOL     OW31156   6.518   3.688   2.293
10086SOL    HW131157   6.609   3.715   2.261
10086SOL    HW231158   6.504   3.590   2.275
10087SOL     OW31159   1.573   6.847   3.733
10087SOL    HW131160   1.594   6.784   3.807
10087SOL    HW231161   1.644   6.917   3.728
10088SOL     OW31162   6.788   0.423   4.966
10088SOL    HW131163   6.767   0.450   5.060
10088SOL    HW231164   6.887   0.418   4.954
10089SOL     OW31165   1.832   3.030   2.104
10089SOL    HW131166   1.919   2.982   2.095
10089SOL    HW231167   1.781   2.992   2.182
10090SOL     OW31168   0.490   4.406   1.582
10090SOL    HW131169   0.543   4.322   1.595
10090SOL    HW231170   0.427   4.395   1.505
10091SOL     OW31171   0.403   2.414   4.370
10091SOL    HW131172   0.484   2.455   4.411
10091SOL    HW231173   0.324   2.431   4.429
10092SOL     OW31174   1.721   3.219   4.672
10092SOL    HW131175   1.779   3.147   4.709
10092SOL    HW231176   1.642   3.233   4.732
10093SOL     OW31177   6.871   5.068   6.560
10093SOL    HW131178   6.889   5.059   6.658
10093SOL    HW231179   6.873   4.977   6.518
10094SOL     OW31180   1.532   1.296   2.183
10094SOL    HW131181   1.604   1.243   2.139
10094SOL    HW231182   1.532   1.390   2.147
10095SOL     OW31183   0.379   0.925   5.982
10095SOL    HW131184   0.323   1.006   5.969
10095SOL    HW231185   0.474   0.945   5.955
10096SOL     OW31186   0.392   4.559   2.050
10096SOL    HW131187   0.431   4.646   2.018
10096SOL    HW231188   0.349   4.512   1.973
10097SOL     OW31189   0.994   2.286   6.286
10097SOL    HW131190   1.032   2.330   6.367
10097SOL    HW231191   0.977   2.355   6.215
10098SOL     OW31192   3.364   4.722   6.797
10098SOL    HW131193   3.310   4.647   6.834
10098SOL    HW231194   3.328   4.809   6.832
10099SOL     OW31195   6.494   4.555   4.345
10099SOL    HW131196   6.548   4.591   4.421
10099SOL    HW231197   6.548   4.556   4.261
10100SOL     OW31198   5.553   0.733   5.598
10100SOL    HW131199   5.498   0.663   5.644
10100SOL    HW231200   5.642   0.694   5.574
10101SOL     OW31201   6.960   4.496   2.292
10101SOL    HW131202   6.905   4.580   2.296
10101SOL    HW231203   0.039   4.520   2.303
10102SOL     OW31204   3.797   0.979   3.342
10102SOL    HW131205   3.745   1.043   3.397
10102SOL    HW231206   3.789   0.887   3.381
10103SOL     OW31207   2.340   1.728   0.253
10103SOL    HW131208   2.427   1.707   0.209
10103SOL    HW231209   2.308   1.817   0.222
10104SOL     OW31210   2.025   5.796   5.206
10104SOL    HW131211   2.040   5.704   5.243
10104SOL    HW231212   2.085   5.860   5.254
10105SOL     OW31213   2.666   0.584   6.576
10105SOL    HW131214   2.721   0.514   6.621
10105SOL    HW231215   2.603   0.541   6.512
10106SOL     OW31216   5.519   5.732   0.778
10106SOL    HW131217   5.470   5.802   0.830
10106SOL    HW231218   5.617   5.741   0.795
10107SOL     OW31219   5.648   0.701   5.962
10107SOL    HW131220   5.663   0.785   5.911
10107SOL    HW231221   5.733   0.674   6.007
10108SOL     OW31222   5.933   6.356   7.007
10108SOL    HW131223   5.868   6.302   6.954
10108SOL    HW231224   6.023   6.312   7.006
10109SOL     OW31225   4.749   5.002   3.612
10109SOL    HW131226   4.715   5.076   3.555
10109SOL    HW231227   4.671   4.946   3.643
10110SOL     OW31228   3.589   1.405   5.884
10110SOL    HW131229   3.609   1.369   5.793
10110SOL    HW231230   3.545   1.495   5.875
10111SOL     OW31231   0.367   2.580   2.595
10111SOL    HW131232   0.399   2.562   2.502
10111SOL    HW231233   0.445   2.607   2.652
10112SOL     OW31234   4.138   4.352   6.162
10112SOL    HW131235   4.143   4.299   6.077
10112SOL    HW231236   4.172   4.296   6.237
10113SOL     OW31237   3.868   6.289   0.488
10113SOL    HW131238   3.846   6.363   0.424
10113SOL    HW231239   3.964   6.263   0.477
10114SOL     OW31240   4.199   1.783   1.435
10114SOL    HW131241   4.192   1.784   1.535
10114SOL    HW231242   4.116   1.743   1.397
10115SOL     OW31243   0.740   2.112   3.847
10115SOL    HW131244   0.650   2.123   3.888
10115SOL    HW231245   0.751   2.018   3.814
10116SOL     OW31246   0.821   0.638   1.127
10116SOL    HW131247   0.821   0.736   1.107
10116SOL    HW231248   0.785   0.623   1.219
10117SOL     OW31249   5.124   0.427   5.742
10117SOL    HW131250   5.118   0.390   5.835
10117SOL    HW231251   5.065   0.507   5.735
10118SOL     OW31252   6.706   4.783   2.635
10118SOL    HW131253   6.655   4.772   2.721
10118SOL    HW231254   6.720   4.880   2.617
10119SOL     OW31255   2.636   0.273   5.452
10119SOL    HW131256   2.718   0.328   5.471
10119SOL    HW231257   2.565   0.331   5.413
10120SOL     OW31258   6.050   2.591   4.174
10120SOL    HW131259   6.044   2.492   4.188
10120SOL    HW231260   5.986   2.618   4.102
10121SOL     OW31261   5.945   5.141   4.233
10121SOL    HW131262   6.010   5.090   4.289
10121SOL    HW231263   5.935   5.234   4.270
10122SOL     OW31264   5.328   3.345   0.491
10122SOL    HW131265   5.428   3.350   0.496
10122SOL    HW231266   5.290   3.352   0.583
10123SOL     OW31267   6.951   6.998   0.203
10123SOL    HW131268   0.018   7.017   0.251
10123SOL    HW231269   6.967   7.003   0.104
10124SOL     OW31270   2.867   4.607   0.609
10124SOL    HW131271   2.961   4.607   0.643
10124SOL    HW231272   2.807   4.565   0.677
10125SOL     OW31273   1.415   0.242   1.224
10125SOL    HW131274   1.352   0.283   1.157
10125SOL    HW231275   1.505   0.285   1.215
10126SOL     OW31276   5.597   5.012   0.112
10126SOL    HW131277   5.669   4.985   0.048
10126SOL    HW231278   5.636   5.023   0.203
10127SOL     OW31279   3.446   4.551   5.351
10127SOL    HW131280   3.361   4.500   5.346
10127SOL    HW231281   3.522   4.492   5.323
10128SOL     OW31282   0.216   2.182   1.353
10128SOL    HW131283   0.176   2.260   1.306
10128SOL    HW231284   0.270   2.128   1.289
10129SOL     OW31285   5.481   2.533   3.460
10129SOL    HW131286   5.435   2.460   3.409
10129SOL    HW231287   5.575   2.505   3.479
10130SOL     OW31288   6.660   5.274   1.949
10130SOL    HW131289   6.744   5.231   1.982
10130SOL    HW231290   6.667   5.373   1.958
10131SOL     OW31291   6.495   0.873   1.015
10131SOL    HW131292   6.422   0.914   0.961
10131SOL    HW231293   6.543   0.945   1.065
10132SOL     OW31294   2.766   0.142   2.873
10132SOL    HW131295   2.719   0.230   2.873
10132SOL    HW231296   2.847   0.147   2.931
10133SOL     OW31297   5.135   5.205   3.374
10133SOL    HW131298   5.092   5.117   3.358
10133SOL    HW231299   5.132   5.226   3.472
10134SOL     OW31300   0.350   1.583   2.257
10134SOL    HW131301   0.328   1.552   2.350
10134SOL    HW231302   0.437   1.633   2.259
10135SOL     OW31303   3.094   5.927   2.930
10135SOL    HW131304   3.097   5.839   2.883
10135SOL    HW231305   3.183   5.972   2.924
10136SOL     OW31306   6.353   0.263   2.114
10136SOL    HW131307   6.419   0.273   2.039
10136SOL    HW231308   6.268   0.224   2.079
10137SOL     OW31309   5.657   5.110   4.600
10137SOL    HW131310   5.557   5.119   4.600
10137SOL    HW231311   5.681   5.013   4.600
10138SOL     OW31312   5.500   2.295   6.924
10138SOL    HW131313   5.553   2.301   6.840
10138SOL    HW231314   5.439   2.215   6.921
10139SOL     OW31315   3.625   2.880   3.135
10139SOL    HW131316   3.527   2.887   3.156
10139SOL    HW231317   3.671   2.831   3.208
10140SOL     OW31318   0.750   4.794   5.477
10140SOL    HW131319   0.667   4.765   5.524
10140SOL    HW231320   0.741   4.889   5.448
10141SOL     OW31321   1.874   0.312   3.909
10141SOL    HW131322   1.902   0.343   4.000
10141SOL    HW231323   1.845   0.391   3.854
10142SOL     OW31324   4.787   6.063   4.662
10142SOL    HW131325   4.726   5.984   4.671
10142SOL    HW231326   4.739   6.137   4.616
10143SOL     OW31327   5.317   6.197   1.246
10143SOL    HW131328   5.307   6.279   1.189
10143SOL    HW231329   5.229   6.149   1.250
10144SOL     OW31330   2.987   5.196   3.275
10144SOL    HW131331   3.014   5.233   3.364
10144SOL    HW231332   2.909   5.135   3.286
10145SOL     OW31333   3.095   6.304   5.837
10145SOL    HW131334   3.186   6.275   5.868
10145SOL    HW231335   3.105   6.376   5.768
10146SOL     OW31336   5.227   4.807   4.748
10146SOL    HW131337   5.154   4.848   4.803
10146SOL    HW231338   5.266   4.729   4.796
10147SOL     OW31339   4.926   5.187   4.425
10147SOL    HW131340   4.998   5.217   4.488
10147SOL    HW231341   4.904   5.262   4.362
10148SOL     OW31342   5.770   5.101   0.550
10148SOL    HW131343   5.781   5.032   0.479
10148SOL    HW231344   5.768   5.057   0.640
10149SOL     OW31345   3.993   3.673   0.985
10149SOL    HW131346   3.986   3.772   0.978
10149SOL    HW231347   4.033   3.636   0.901
10150SOL     OW31348   5.115   4.182   1.180
10150SOL    HW131349   5.086   4.103   1.234
10150SOL    HW231350   5.134   4.259   1.242
10151SOL     OW31351   1.765   6.488   5.831
10151SOL    HW131352   1.831   6.534   5.771
10151SOL    HW231353   1.673   6.519   5.808
10152SOL     OW31354   0.164   4.999   3.622
10152SOL    HW131355   0.237   4.933   3.603
10152SOL    HW231356   0.185   5.085   3.575
10153SOL     OW31357   5.451   6.614   3.557
10153SOL    HW131358   5.537   6.564   3.554
10153SOL    HW231359   5.398   6.595   3.474
10154SOL     OW31360   6.477   5.449   5.405
10154SOL    HW131361   6.464   5.365   5.352
10154SOL    HW231362   6.503   5.524   5.343
10155SOL     OW31363   3.792   1.729   0.006
10155SOL    HW131364   3.784   1.681   6.937
10155SOL    HW231365   3.866   1.797   7.018
10156SOL     OW31366   5.701   0.229   2.499
10156SOL    HW131367   5.793   0.264   2.481
10156SOL    HW231368   5.694   0.135   2.468
10157SOL     OW31369   5.371   0.902   5.751
10157SOL    HW131370   5.289   0.851   5.724
10157SOL    HW231371   5.438   0.900   5.677
10158SOL     OW31372   4.472   4.099   6.245
10158SOL    HW131373   4.535   4.047   6.186
10158SOL    HW231374   4.500   4.195   6.248
10159SOL     OW31375   1.329   1.121   6.374
10159SOL    HW131376   1.390   1.066   6.431
10159SOL    HW231377   1.291   1.063   6.301
10160SOL     OW31378   0.992   5.733   3.190
10160SOL    HW131379   0.946   5.822   3.186
10160SOL    HW231380   0.936   5.670   3.243
10161SOL     OW31381   2.245   5.667   5.871
10161SOL    HW131382   2.292   5.697   5.954
10161SOL    HW231383   2.164   5.724   5.856
10162SOL     OW31384   3.109   1.990   6.925
10162SOL    HW131385   3.130   2.086   6.941
10162SOL    HW231386   3.114   1.940   7.011
10163SOL     OW31387   6.647   2.735   5.355
10163SOL    HW131388   6.601   2.658   5.310
10163SOL    HW231389   6.736   2.706   5.388
10164SOL     OW31390   0.899   2.683   5.489
10164SOL    HW131391   0.938   2.748   5.555
10164SOL    HW231392   0.855   2.608   5.538
10165SOL     OW31393   6.705   2.104   3.394
10165SOL    HW131394   6.707   2.076   3.298
10165SOL    HW231395   6.657   2.191   3.403
10166SOL     OW31396   0.973   0.881   2.237
10166SOL    HW131397   1.038   0.900   2.164
10166SOL    HW231398   1.004   0.925   2.321
10167SOL     OW31399   4.160   0.587   0.229
10167SOL    HW131400   4.148   0.553   0.322
10167SOL    HW231401   4.121   0.678   0.222
10168SOL     OW31402   6.558   4.175   4.284
10168SOL    HW131403   6.655   4.196   4.297
10168SOL    HW231404   6.508   4.197   4.367
10169SOL     OW31405   6.167   4.187   4.311
10169SOL    HW131406   6.166   4.090   4.334
10169SOL    HW231407   6.107   4.203   4.233
10170SOL     OW31408   1.697   3.897   4.409
10170SOL    HW131409   1.779   3.899   4.351
10170SOL    HW231410   1.721   3.857   4.497
10171SOL     OW31411   6.077   3.173   6.068
10171SOL    HW131412   6.059   3.118   5.987
10171SOL    HW231413   5.999   3.233   6.086
10172SOL     OW31414   5.180   1.532   3.623
10172SOL    HW131415   5.235   1.468   3.569
10172SOL    HW231416   5.087   1.535   3.587
10173SOL     OW31417   2.340   1.722   2.171
10173SOL    HW131418   2.379   1.717   2.079
10173SOL    HW231419   2.276   1.646   2.184
10174SOL     OW31420   6.258   4.699   1.024
10174SOL    HW131421   6.214   4.689   0.934
10174SOL    HW231422   6.291   4.610   1.055
10175SOL     OW31423   6.038   2.147   6.355
10175SOL    HW131424   6.013   2.051   6.342
10175SOL    HW231425   6.116   2.169   6.296
10176SOL     OW31426   2.426   4.269   0.153
10176SOL    HW131427   2.412   4.180   0.110
10176SOL    HW231428   2.520   4.275   0.187
10177SOL     OW31429   1.738   0.126   6.057
10177SOL    HW131430   1.669   0.198   6.045
10177SOL    HW231431   1.804   0.155   6.127
10178SOL     OW31432   5.746   2.405   4.344
10178SOL    HW131433   5.684   2.328   4.357
10178SOL    HW231434   5.694   2.486   4.318
10179SOL     OW31435   1.491   3.342   6.939
10179SOL    HW131436   1.460   3.403   6.866
10179SOL    HW231437   1.427   3.266   6.948
10180SOL     OW31438   2.444   6.346   5.582
10180SOL    HW131439   2.523   6.399   5.614
10180SOL    HW231440   2.367   6.407   5.568
10181SOL     OW31441   6.065   3.157   1.527
10181SOL    HW131442   6.107   3.104   1.454
10181SOL    HW231443   5.970   3.128   1.539
10182SOL     OW31444   5.752   1.012   0.542
10182SOL    HW131445   5.820   0.950   0.581
10182SOL    HW231446   5.741   1.091   0.601
10183SOL     OW31447   1.680   1.996   6.595
10183SOL    HW131448   1.628   2.039   6.669
10183SOL    HW231449   1.718   1.909   6.628
10184SOL     OW31450   4.406   0.531   6.143
10184SOL    HW131451   4.316   0.495   6.121
10184SOL    HW231452   4.477   0.470   6.107
10185SOL     OW31453   4.939   0.626   6.773
10185SOL    HW131454   4.963   0.696   6.841
10185SOL    HW231455   4.840   0.620   6.766
10186SOL     OW31456   4.268   2.217   3.120
10186SOL    HW131457   4.328   2.286   3.080
10186SOL    HW231458   4.304   2.189   3.209
10187SOL     OW31459   1.236   2.090   2.473
10187SOL    HW131460   1.176   2.089   2.392
10187SOL    HW231461   1.213   2.012   2.531
10188SOL     OW31462   3.433   5.094   1.277
10188SOL    HW131463   3.380   5.120   1.196
10188SOL    HW231464   3.380   5.115   1.360
10189SOL     OW31465   1.439   6.445   5.145
10189SOL    HW131466   1.342   6.459   5.128
10189SOL    HW231467   1.454   6.430   5.243
10190SOL     OW31468   5.629   2.599   0.232
10190SOL    HW131469   5.585   2.614   0.143
10190SOL    HW231470   5.559   2.605   0.304
10191SOL     OW31471   6.477   4.554   6.937
10191SOL    HW131472   6.468   4.514   0.010
10191SOL    HW231473   6.535   4.496   6.880
10192SOL     OW31474   3.184   0.882   6.667
10192SOL    HW131475   3.282   0.893   6.684
10192SOL    HW231476   3.132   0.934   6.735
10193SOL     OW31477   4.174   3.709   0.249
10193SOL    HW131478   4.218   3.724   0.160
10193SOL    HW231479   4.243   3.706   0.321
10194SOL     OW31480   4.966   3.588   6.010
10194SOL    HW131481   5.030   3.512   6.001
10194SOL    HW231482   4.925   3.608   5.920
10195SOL     OW31483   6.544   4.120   1.866
10195SOL    HW131484   6.596   4.070   1.797
10195SOL    HW231485   6.449   4.088   1.866
10196SOL     OW31486   0.498   1.630   4.834
10196SOL    HW131487   0.567   1.696   4.803
10196SOL    HW231488   0.436   1.609   4.759
10197SOL     OW31489   5.668   0.673   6.700
10197SOL    HW131490   5.752   0.666   6.754
10197SOL    HW231491   5.687   0.646   6.606
10198SOL     OW31492   4.255   0.145   3.627
10198SOL    HW131493   4.159   0.128   3.607
10198SOL    HW231494   4.265   0.234   3.672
10199SOL     OW31495   1.308   2.331   5.656
10199SOL    HW131496   1.210   2.329   5.678
10199SOL    HW231497   1.350   2.411   5.700
10200SOL     OW31498   5.763   2.079   1.387
10200SOL    HW131499   5.847   2.111   1.345
10200SOL    HW231500   5.685   2.107   1.331
10201SOL     OW31501   0.699   3.608   0.532
10201SOL    HW131502   0.698   3.509   0.549
10201SOL    HW231503   0.782   3.632   0.482
10202SOL     OW31504   4.119   0.830   4.103
10202SOL    HW131505   4.056   0.772   4.154
10202SOL    HW231506   4.115   0.805   4.006
10203SOL     OW31507   6.737   2.609   4.718
10203SOL    HW131508   6.753   2.590   4.815
10203SOL    HW231509   6.761   2.703   4.697
10204SOL     OW31510   5.702   5.109   6.485
10204SOL    HW131511   5.738   5.188   6.536
10204SOL    HW231512   5.774   5.073   6.425
10205SOL     OW31513   1.093   0.738   5.839
10205SOL    HW131514   1.042   0.824   5.836
10205SOL    HW231515   1.175   0.745   5.783
10206SOL     OW31516   1.689   1.073   4.641
10206SOL    HW131517   1.673   1.117   4.729
10206SOL    HW231518   1.621   1.000   4.628
10207SOL     OW31519   2.106   2.029   5.259
10207SOL    HW131520   2.166   1.969   5.311
10207SOL    HW231521   2.092   2.115   5.308
10208SOL     OW31522   6.584   5.633   5.203
10208SOL    HW131523   6.656   5.703   5.199
10208SOL    HW231524   6.623   5.544   5.181
10209SOL     OW31525   0.138   6.927   5.363
10209SOL    HW131526   0.187   6.842   5.384
10209SOL    HW231527   0.046   6.923   5.402
10210SOL     OW31528   2.822   6.808   1.816
10210SOL    HW131529   2.792   6.762   1.899
10210SOL    HW231530   2.907   6.858   1.834
10211SOL     OW31531   5.319   5.917   6.167
10211SOL    HW131532   5.263   5.956   6.094
10211SOL    HW231533   5.357   5.991   6.223
10212SOL     OW31534   0.632   0.604   6.286
10212SOL    HW131535   0.670   0.687   6.327
10212SOL    HW231536   0.705   0.551   6.243
10213SOL     OW31537   6.456   2.014   1.207
10213SOL    HW131538   6.503   1.932   1.241
10213SOL    HW231539   6.440   2.077   1.283
10214SOL     OW31540   0.894   2.109   0.098
10214SOL    HW131541   0.879   2.169   0.019
10214SOL    HW231542   0.927   2.163   0.175
10215SOL     OW31543   2.958   3.427   2.277
10215SOL    HW131544   3.051   3.462   2.283
10215SOL    HW231545   2.895   3.502   2.259
10216SOL     OW31546   0.503   6.326   1.956
10216SOL    HW131547   0.555   6.332   2.041
10216SOL    HW231548   0.532   6.398   1.893
10217SOL     OW31549   3.721   1.451   4.670
10217SOL    HW131550   3.772   1.365   4.667
10217SOL    HW231551   3.762   1.512   4.738
10218SOL     OW31552   1.361   3.134   2.349
10218SOL    HW131553   1.369   3.135   2.249
10218SOL    HW231554   1.402   3.050   2.385
10219SOL     OW31555   0.082   6.003   3.292
10219SOL    HW131556   0.024   5.969   3.218
10219SOL    HW231557   0.174   5.966   3.282
10220SOL     OW31558   3.371   2.899   0.679
10220SOL    HW131559   3.404   2.954   0.755
10220SOL    HW231560   3.333   2.960   0.608
10221SOL     OW31561   0.741   5.189   4.139
10221SOL    HW131562   0.794   5.274   4.149
10221SOL    HW231563   0.800   5.110   4.153
10222SOL     OW31564   3.615   3.455   4.201
10222SOL    HW131565   3.550   3.438   4.275
10222SOL    HW231566   3.597   3.391   4.126
10223SOL     OW31567   1.526   6.056   0.981
10223SOL    HW131568   1.523   6.141   1.033
10223SOL    HW231569   1.518   6.076   0.884
10224SOL     OW31570   5.930   3.976   3.201
10224SOL    HW131571   5.971   4.015   3.284
10224SOL    HW231572   5.928   4.045   3.129
10225SOL     OW31573   2.369   3.701   5.643
10225SOL    HW131574   2.342   3.696   5.547
10225SOL    HW231575   2.379   3.609   5.680
10226SOL     OW31576   4.964   2.958   0.187
10226SOL    HW131577   4.920   2.989   0.103
10226SOL    HW231578   5.032   3.026   0.216
10227SOL     OW31579   5.757   3.287   1.328
10227SOL    HW131580   5.833   3.280   1.264
10227SOL    HW231581   5.746   3.382   1.358
10228SOL     OW31582   5.181   0.682   0.721
10228SOL    HW131583   5.258   0.684   0.657
10228SOL    HW231584   5.176   0.592   0.765
10229SOL     OW31585   0.238   2.991   5.074
10229SOL    HW131586   0.314   2.963   5.132
10229SOL    HW231587   0.204   3.081   5.103
10230SOL     OW31588   0.305   5.948   2.007
10230SOL    HW131589   0.310   6.041   2.041
10230SOL    HW231590   0.209   5.925   1.987
10231SOL     OW31591   0.538   5.363   2.762
10231SOL    HW131592   0.581   5.444   2.722
10231SOL    HW231593   0.461   5.335   2.705
10232SOL     OW31594   5.125   4.563   3.597
10232SOL    HW131595   5.045   4.619   3.620
10232SOL    HW231596   5.104   4.503   3.520
10233SOL     OW31597   2.802   4.284   5.595
10233SOL    HW131598   2.879   4.309   5.536
10233SOL    HW231599   2.809   4.187   5.619
10234SOL     OW31600   0.605   1.403   2.139
10234SOL    HW131601   0.585   1.493   2.179
10234SOL    HW231602   0.523   1.346   2.142
10235SOL     OW31603   1.531   1.003   3.203
10235SOL    HW131604   1.481   1.030   3.285
10235SOL    HW231605   1.475   1.020   3.122
10236SOL     OW31606   1.708   6.897   2.086
10236SOL    HW131607   1.772   6.930   2.016
10236SOL    HW231608   1.733   6.804   2.112
10237SOL     OW31609   0.459   3.833   4.738
10237SOL    HW131610   0.442   3.908   4.674
10237SOL    HW231611   0.546   3.847   4.784
10238SOL     OW31612   2.989   0.107   1.678
10238SOL    HW131613   2.899   0.145   1.659
10238SOL    HW231614   3.059   0.172   1.648
10239SOL     OW31615   0.707   2.162   4.313
10239SOL    HW131616   0.628   2.110   4.345
10239SOL    HW231617   0.685   2.205   4.226
10240SOL     OW31618   1.719   6.284   0.820
10240SOL    HW131619   1.797   6.305   0.878
10240SOL    HW231620   1.681   6.369   0.783
10241SOL     OW31621   4.399   2.908   1.270
10241SOL    HW131622   4.342   2.989   1.283
10241SOL    HW231623   4.342   2.833   1.237
10242SOL     OW31624   0.247   3.003   6.559
10242SOL    HW131625   0.266   2.906   6.553
10242SOL    HW231626   0.250   3.044   6.468
10243SOL     OW31627   2.600   5.839   1.319
10243SOL    HW131628   2.585   5.761   1.259
10243SOL    HW231629   2.538   5.834   1.398
10244SOL     OW31630   2.425   5.238   2.069
10244SOL    HW131631   2.464   5.259   1.979
10244SOL    HW231632   2.498   5.233   2.137
10245SOL     OW31633   4.952   4.235   0.950
10245SOL    HW131634   5.010   4.198   1.022
10245SOL    HW231635   4.989   4.323   0.919
10246SOL     OW31636   2.940   3.293   4.148
10246SOL    HW131637   2.951   3.386   4.114
10246SOL    HW231638   2.856   3.253   4.110
10247SOL     OW31639   0.854   3.038   4.010
10247SOL    HW131640   0.771   2.994   3.978
10247SOL    HW231641   0.842   3.138   4.008
10248SOL     OW31642   1.152   1.174   4.267
10248SOL    HW131643   1.147   1.236   4.345
10248SOL    HW231644   1.076   1.192   4.205
10249SOL     OW31645   2.814   5.341   6.465
10249SOL    HW131646   2.781   5.249   6.445
10249SOL    HW231647   2.747   5.409   6.436
10250SOL     OW31648   3.625   2.564   0.552
10250SOL    HW131649   3.715   2.521   0.556
10250SOL    HW231650   3.625   2.645   0.611
10251SOL     OW31651   1.614   0.571   4.362
10251SOL    HW131652   1.542   0.636   4.339
10251SOL    HW231653   1.703   0.614   4.345
10252SOL     OW31654   5.394   4.609   6.026
10252SOL    HW131655   5.354   4.535   6.079
10252SOL    HW231656   5.491   4.589   6.008
10253SOL     OW31657   3.442   6.147   6.271
10253SOL    HW131658   3.478   6.142   6.364
10253SOL    HW231659   3.518   6.155   6.206
10254SOL     OW31660   5.863   1.960   5.887
10254SOL    HW131661   5.849   1.942   5.790
10254SOL    HW231662   5.801   1.904   5.941
10255SOL     OW31663   4.024   4.238   1.655
10255SOL    HW131664   4.014   4.253   1.556
10255SOL    HW231665   3.934   4.241   1.698
10256SOL     OW31666   3.629   1.154   3.473
10256SOL    HW131667   3.698   1.196   3.532
10256SOL    HW231668   3.539   1.190   3.497
10257SOL     OW31669   4.056   5.884   2.896
10257SOL    HW131670   4.153   5.866   2.881
10257SOL    HW231671   4.035   5.978   2.869
10258SOL     OW31672   2.433   1.432   2.131
10258SOL    HW131673   2.520   1.433   2.180
10258SOL    HW231674   2.378   1.355   2.162
10259SOL     OW31675   1.959   4.391   4.063
10259SOL    HW131676   1.860   4.387   4.049
10259SOL    HW231677   1.978   4.404   4.160
10260SOL     OW31678   0.175   0.477   2.737
10260SOL    HW131679   0.125   0.494   2.822
10260SOL    HW231680   0.270   0.452   2.758
10261SOL     OW31681   0.391   3.733   0.288
10261SOL    HW131682   0.439   3.815   0.257
10261SOL    HW231683   0.385   3.733   0.388
10262SOL     OW31684   4.109   1.114   0.253
10262SOL    HW131685   4.192   1.124   0.198
10262SOL    HW231686   4.098   1.018   0.280
10263SOL     OW31687   5.499   0.683   2.609
10263SOL    HW131688   5.424   0.646   2.664
10263SOL    HW231689   5.494   0.646   2.517
10264SOL     OW31690   6.533   0.248   6.703
10264SOL    HW131691   6.482   0.286   6.625
10264SOL    HW231692   6.582   0.321   6.750
10265SOL     OW31693   2.221   2.125   0.855
10265SOL    HW131694   2.277   2.066   0.798
10265SOL    HW231695   2.279   2.195   0.897
10266SOL     OW31696   2.570   3.335   1.713
10266SOL    HW131697   2.597   3.397   1.640
10266SOL    HW231698   2.510   3.383   1.777
10267SOL     OW31699   5.468   0.327   0.982
10267SOL    HW131700   5.563   0.349   1.004
10267SOL    HW231701   5.407   0.378   1.042
10268SOL     OW31702   3.693   6.122   2.176
10268SOL    HW131703   3.643   6.115   2.262
10268SOL    HW231704   3.643   6.181   2.113
10269SOL     OW31705   2.734   2.040   0.505
10269SOL    HW131706   2.781   2.077   0.425
10269SOL    HW231707   2.644   2.082   0.513
10270SOL     OW31708   3.068   0.720   3.195
10270SOL    HW131709   2.977   0.740   3.158
10270SOL    HW231710   3.097   0.794   3.255
10271SOL     OW31711   1.608   1.706   6.494
10271SOL    HW131712   1.655   1.713   6.582
10271SOL    HW231713   1.553   1.788   6.479
10272SOL     OW31714   6.097   0.382   4.535
10272SOL    HW131715   6.056   0.384   4.444
10272SOL    HW231716   6.188   0.341   4.529
10273SOL     OW31717   2.287   5.293   3.638
10273SOL    HW131718   2.288   5.371   3.700
10273SOL    HW231719   2.193   5.276   3.607
10274SOL     OW31720   1.290   4.913   4.895
10274SOL    HW131721   1.381   4.872   4.886
10274SOL    HW231722   1.300   5.012   4.911
10275SOL     OW31723   6.806   0.355   1.965
10275SOL    HW131724   6.866   0.433   1.943
10275SOL    HW231725   6.711   0.381   1.950
10276SOL     OW31726   3.697   5.559   4.840
10276SOL    HW131727   3.775   5.604   4.885
10276SOL    HW231728   3.637   5.520   4.910
10277SOL     OW31729   0.967   5.605   3.768
10277SOL    HW131730   0.913   5.623   3.850
10277SOL    HW231731   0.994   5.692   3.727
10278SOL     OW31732   6.805   0.200   5.193
10278SOL    HW131733   6.790   0.104   5.214
10278SOL    HW231734   6.804   0.214   5.094
10279SOL     OW31735   1.263   6.181   3.915
10279SOL    HW131736   1.231   6.265   3.872
10279SOL    HW231737   1.342   6.201   3.973
10280SOL     OW31738   6.668   4.919   0.039
10280SOL    HW131739   6.629   4.882   0.123
10280SOL    HW231740   6.706   4.844   7.003
10281SOL     OW31741   6.045   1.233   3.531
10281SOL    HW131742   6.000   1.189   3.453
10281SOL    HW231743   5.975   1.264   3.596
10282SOL     OW31744   4.946   3.451   3.637
10282SOL    HW131745   4.904   3.464   3.547
10282SOL    HW231746   4.945   3.537   3.687
10283SOL     OW31747   1.167   2.833   0.947
10283SOL    HW131748   1.123   2.768   0.885
10283SOL    HW231749   1.234   2.887   0.896
10284SOL     OW31750   7.001   4.010   4.423
10284SOL    HW131751   0.037   4.049   4.498
10284SOL    HW231752   0.007   3.914   4.411
10285SOL     OW31753   5.913   6.605   5.902
10285SOL    HW131754   6.009   6.602   5.931
10285SOL    HW231755   5.857   6.557   5.970
10286SOL     OW31756   2.628   1.850   3.203
10286SOL    HW131757   2.528   1.849   3.201
10286SOL    HW231758   2.660   1.925   3.260
10287SOL     OW31759   1.897   6.043   2.674
10287SOL    HW131760   1.928   5.950   2.654
10287SOL    HW231761   1.962   6.109   2.637
10288SOL     OW31762   3.745   6.410   5.186
10288SOL    HW131763   3.669   6.375   5.131
10288SOL    HW231764   3.758   6.351   5.266
10289SOL     OW31765   2.747   5.846   6.902
10289SOL    HW131766   2.786   5.794   6.978
10289SOL    HW231767   2.812   5.917   6.874
10290SOL     OW31768   3.646   3.062   1.923
10290SOL    HW131769   3.702   3.031   1.846
10290SOL    HW231770   3.642   3.162   1.922
10291SOL     OW31771   2.432   1.806   1.876
10291SOL    HW131772   2.469   1.742   1.808
10291SOL    HW231773   2.499   1.877   1.895
10292SOL     OW31774   6.705   7.002   5.784
10292SOL    HW131775   6.701   6.917   5.838
10292SOL    HW231776   6.799   7.015   5.751
10293SOL     OW31777   1.167   4.437   4.671
10293SOL    HW131778   1.203   4.516   4.621
10293SOL    HW231779   1.234   4.363   4.668
10294SOL     OW31780   3.646   0.991   2.396
10294SOL    HW131781   3.710   0.943   2.335
10294SOL    HW231782   3.553   0.960   2.377
10295SOL     OW31783   1.309   1.648   6.441
10295SOL    HW131784   1.365   1.566   6.454
10295SOL    HW231785   1.280   1.653   6.346
10296SOL     OW31786   6.094   1.242   5.894
10296SOL    HW131787   6.016   1.280   5.844
10296SOL    HW231788   6.162   1.313   5.909
10297SOL     OW31789   3.168   1.299   0.104
10297SOL    HW131790   3.243   1.345   0.056
10297SOL    HW231791   3.085   1.354   0.095
10298SOL     OW31792   0.211   2.692   2.227
10298SOL    HW131793   0.132   2.637   2.199
10298SOL    HW231794   0.251   2.736   2.146
10299SOL     OW31795   4.541   7.001   3.171
10299SOL    HW131796   4.565   6.904   3.158
10299SOL    HW231797   4.451   7.007   3.214
10300SOL     OW31798   1.230   4.137   1.775
10300SOL    HW131799   1.265   4.046   1.799
10300SOL    HW231800   1.173   4.130   1.693
10301SOL     OW31801   3.649   0.767   0.312
10301SOL    HW131802   3.732   0.721   0.345
10301SOL    HW231803   3.608   0.712   0.238
10302SOL     OW31804   2.871   6.286   5.345
10302SOL    HW131805   2.943   6.269   5.278
10302SOL    HW231806   2.889   6.370   5.394
10303SOL     OW31807   0.502   5.264   4.660
10303SOL    HW131808   0.426   5.298   4.605
10303SOL    HW231809   0.485   5.169   4.685
10304SOL     OW31810   5.888   6.522   1.130
10304SOL    HW131811   5.830   6.441   1.121
10304SOL    HW231812   5.962   6.518   1.063
10305SOL     OW31813   3.398   3.890   5.889
10305SOL    HW131814   3.389   3.877   5.791
10305SOL    HW231815   3.317   3.938   5.924
10306SOL     OW31816   4.008   0.705   1.264
10306SOL    HW131817   4.012   0.722   1.166
10306SOL    HW231818   3.993   0.608   1.280
10307SOL     OW31819   2.202   0.323   5.671
10307SOL    HW131820   2.209   0.421   5.654
10307SOL    HW231821   2.195   0.306   5.769
10308SOL     OW31822   2.918   4.796   1.945
10308SOL    HW131823   2.872   4.846   2.019
10308SOL    HW231824   2.861   4.720   1.916
10309SOL     OW31825   0.461   1.114   4.887
10309SOL    HW131826   0.548   1.078   4.922
10309SOL    HW231827   0.475   1.207   4.855
10310SOL     OW31828   2.241   3.935   5.735
10310SOL    HW131829   2.276   3.844   5.714
10310SOL    HW231830   2.297   4.004   5.688
10311SOL     OW31831   5.108   5.092   7.003
10311SOL    HW131832   5.168   5.139   0.049
10311SOL    HW231833   5.117   5.134   6.913
10312SOL     OW31834   3.946   7.005   2.154
10312SOL    HW131835   3.971   6.957   2.070
10312SOL    HW231836   3.882   0.060   2.133
10313SOL     OW31837   5.349   6.560   2.979
10313SOL    HW131838   5.431   6.617   2.977
10313SOL    HW231839   5.366   6.478   3.035
10314SOL     OW31840   0.403   0.016   0.918
10314SOL    HW131841   0.342   0.057   0.986
10314SOL    HW231842   0.467   6.972   0.964
10315SOL     OW31843   5.782   5.195   3.545
10315SOL    HW131844   5.727   5.157   3.620
10315SOL    HW231845   5.831   5.275   3.578
10316SOL     OW31846   0.225   2.053   6.805
10316SOL    HW131847   0.323   2.038   6.817
10316SOL    HW231848   0.202   2.048   6.708
10317SOL     OW31849   3.366   6.214   4.886
10317SOL    HW131850   3.451   6.264   4.904
10317SOL    HW231851   3.342   6.225   4.790
10318SOL     OW31852   6.490   0.159   0.139
10318SOL    HW131853   6.391   0.162   0.126
10318SOL    HW231854   6.512   0.093   0.211
10319SOL     OW31855   0.549   4.104   3.788
10319SOL    HW131856   0.618   4.034   3.770
10319SOL    HW231857   0.492   4.118   3.707
10320SOL     OW31858   0.344   6.560   3.688
10320SOL    HW131859   0.417   6.612   3.731
10320SOL    HW231860   0.343   6.579   3.589
10321SOL     OW31861   5.292   2.967   2.354
10321SOL    HW131862   5.304   3.029   2.276
10321SOL    HW231863   5.303   3.018   2.439
10322SOL     OW31864   4.647   4.473   4.948
10322SOL    HW131865   4.707   4.539   4.994
10322SOL    HW231866   4.553   4.508   4.947
10323SOL     OW31867   0.911   4.272   5.937
10323SOL    HW131868   0.823   4.223   5.932
10323SOL    HW231869   0.956   4.269   5.848
10324SOL     OW31870   2.945   3.318   1.984
10324SOL    HW131871   2.974   3.263   2.062
10324SOL    HW231872   2.885   3.265   1.925
10325SOL     OW31873   6.565   5.789   3.781
10325SOL    HW131874   6.588   5.695   3.807
10325SOL    HW231875   6.510   5.789   3.698
10326SOL     OW31876   5.223   3.922   6.762
10326SOL    HW131877   5.287   3.989   6.801
10326SOL    HW231878   5.143   3.914   6.822
10327SOL     OW31879   2.185   4.574   0.739
10327SOL    HW131880   2.268   4.528   0.769
10327SOL    HW231881   2.138   4.614   0.818
10328SOL     OW31882   5.714   2.140   2.409
10328SOL    HW131883   5.695   2.238   2.402
10328SOL    HW231884   5.668   2.091   2.335
10329SOL     OW31885   3.547   2.127   2.859
10329SOL    HW131886   3.452   2.122   2.892
10329SOL    HW231887   3.546   2.140   2.760
10330SOL     OW31888   5.344   0.706   2.066
10330SOL    HW131889   5.323   0.778   1.999
10330SOL    HW231890   5.259   0.666   2.099
10331SOL     OW31891   6.235   5.728   5.952
10331SOL    HW131892   6.273   5.661   6.015
10331SOL    HW231893   6.257   5.820   5.985
10332SOL     OW31894   1.263   1.278   6.061
10332SOL    HW131895   1.204   1.305   6.138
10332SOL    HW231896   1.309   1.193   6.083
10333SOL     OW31897   1.349   4.194   4.375
10333SOL    HW131898   1.378   4.100   4.394
10333SOL    HW231899   1.253   4.205   4.403
10334SOL     OW31900   3.175   1.360   3.710
10334SOL    HW131901   3.151   1.456   3.694
10334SOL    HW231902   3.163   1.338   3.806
10335SOL     OW31903   1.084   2.145   5.239
10335SOL    HW131904   1.040   2.209   5.177
10335SOL    HW231905   1.154   2.193   5.292
10336SOL     OW31906   5.517   6.933   3.096
10336SOL    HW131907   5.581   6.863   3.129
10336SOL    HW231908   5.427   6.916   3.135
10337SOL     OW31909   6.816   5.591   6.854
10337SOL    HW131910   6.845   5.669   6.908
10337SOL    HW231911   6.724   5.607   6.819
10338SOL     OW31912   1.156   6.540   2.020
10338SOL    HW131913   1.139   6.465   2.084
10338SOL    HW231914   1.088   6.612   2.035
10339SOL     OW31915   5.923   2.642   6.081
10339SOL    HW131916   6.008   2.636   6.028
10339SOL    HW231917   5.919   2.568   6.148
10340SOL     OW31918   2.554   3.322   6.104
10340SOL    HW131919   2.479   3.312   6.169
10340SOL    HW231920   2.639   3.336   6.154
10341SOL     OW31921   2.125   3.337   3.152
10341SOL    HW131922   2.116   3.328   3.251
10341SOL    HW231923   2.212   3.380   3.130
10342SOL     OW31924   0.200   1.126   3.816
10342SOL    HW131925   0.178   1.095   3.909
10342SOL    HW231926   0.136   1.084   3.752
10343SOL     OW31927   3.269   5.644   2.396
10343SOL    HW131928   3.355   5.652   2.446
10343SOL    HW231929   3.206   5.587   2.448
10344SOL     OW31930   4.623   6.158   6.399
10344SOL    HW131931   4.675   6.228   6.448
10344SOL    HW231932   4.594   6.195   6.311
10345SOL     OW31933   1.873   3.508   4.409
10345SOL    HW131934   1.957   3.547   4.370
10345SOL    HW231935   1.813   3.477   4.335
10346SOL     OW31936   0.088   6.135   0.041
10346SOL    HW131937   0.068   6.080   0.123
10346SOL    HW231938   0.070   6.231   0.060
10347SOL     OW31939   4.998   1.733   4.473
10347SOL    HW131940   4.950   1.711   4.388
10347SOL    HW231941   4.931   1.755   4.544
10348SOL     OW31942   6.416   4.476   0.502
10348SOL    HW131943   6.445   4.442   0.413
10348SOL    HW231944   6.319   4.496   0.501
10349SOL     OW31945   1.121   0.163   5.989
10349SOL    HW131946   1.124   0.257   6.023
10349SOL    HW231947   1.040   0.117   6.026
10350SOL     OW31948   2.885   0.066   6.023
10350SOL    HW131949   2.921   0.159   6.014
10350SOL    HW231950   2.961   0.001   6.016
10351SOL     OW31951   4.073   5.535   6.355
10351SOL    HW131952   4.015   5.613   6.378
10351SOL    HW231953   4.025   5.475   6.291
10352SOL     OW31954   3.423   4.216   6.310
10352SOL    HW131955   3.517   4.235   6.280
10352SOL    HW231956   3.394   4.287   6.375
10353SOL     OW31957   0.874   3.242   4.714
10353SOL    HW131958   0.811   3.233   4.637
10353SOL    HW231959   0.935   3.319   4.699
10354SOL     OW31960   5.263   1.812   1.483
10354SOL    HW131961   5.167   1.814   1.511
10354SOL    HW231962   5.270   1.775   1.391
10355SOL     OW31963   1.310   5.129   2.828
10355SOL    HW131964   1.291   5.177   2.914
10355SOL    HW231965   1.396   5.079   2.835
10356SOL     OW31966   0.183   2.495   4.526
10356SOL    HW131967   0.130   2.454   4.600
10356SOL    HW231968   0.135   2.575   4.490
10357SOL     OW31969   2.832   1.965   0.087
10357SOL    HW131970   2.840   1.999   7.012
10357SOL    HW231971   2.759   1.896   0.092
10358SOL     OW31972   0.232   1.487   2.037
10358SOL    HW131973   0.226   1.561   1.970
10358SOL    HW231974   0.289   1.517   2.114
10359SOL     OW31975   0.702   1.716   1.177
10359SOL    HW131976   0.725   1.676   1.266
10359SOL    HW231977   0.652   1.802   1.191
10360SOL     OW31978   6.964   5.636   2.922
10360SOL    HW131979   0.041   5.609   2.934
10360SOL    HW231980   6.958   5.711   2.856
10361SOL     OW31981   1.599   4.886   1.264
10361SOL    HW131982   1.612   4.914   1.359
10361SOL    HW231983   1.562   4.793   1.262
10362SOL     OW31984   1.720   5.230   4.549
10362SOL    HW131985   1.760   5.199   4.463
10362SOL    HW231986   1.662   5.310   4.532
10363SOL     OW31987   6.024   0.071   3.371
10363SOL    HW131988   5.938   0.122   3.372
10363SOL    HW231989   6.072   0.088   3.285
10364SOL     OW31990   1.541   4.603   1.303
10364SOL    HW131991   1.619   4.547   1.274
10364SOL    HW231992   1.501   4.565   1.386
10365SOL     OW31993   4.625   6.007   0.053
10365SOL    HW131994   4.545   6.032   7.017
10365SOL    HW231995   4.708   6.024   7.018
10366SOL     OW31996   3.779   6.638   3.773
10366SOL    HW131997   3.720   6.678   3.843
10366SOL    HW231998   3.823   6.712   3.721
10367SOL     OW31999   6.630   1.978   3.133
10367SOL    HW132000   6.541   2.017   3.157
10367SOL    HW232001   6.622   1.878   3.128
10368SOL     OW32002   2.914   0.155   1.249
10368SOL    HW132003   2.908   0.065   1.205
10368SOL    HW232004   2.844   0.215   1.210
10369SOL     OW32005   4.404   2.995   0.009
10369SOL    HW132006   4.427   2.918   6.967
10369SOL    HW232007   4.320   3.038   6.994
10370SOL     OW32008   4.139   0.470   5.175
10370SOL    HW132009   4.128   0.425   5.087
10370SOL    HW232010   4.211   0.425   5.227
10371SOL     OW32011   5.060   6.502   5.674
10371SOL    HW132012   5.147   6.509   5.625
10371SOL    HW232013   5.076   6.472   5.768
10372SOL     OW32014   1.101   0.361   3.576
10372SOL    HW132015   1.177   0.388   3.635
10372SOL    HW232016   1.047   0.442   3.552
10373SOL     OW32017   1.765   5.467   5.208
10373SOL    HW132018   1.862   5.489   5.206
10373SOL    HW232019   1.734   5.463   5.303
10374SOL     OW32020   2.870   1.922   4.745
10374SOL    HW132021   2.940   1.890   4.682
10374SOL    HW232022   2.894   2.013   4.778
10375SOL     OW32023   0.266   2.027   0.516
10375SOL    HW132024   0.196   2.027   0.587
10375SOL    HW232025   0.226   1.997   0.430
10376SOL     OW32026   6.520   0.723   3.367
10376SOL    HW132027   6.466   0.808   3.373
10376SOL    HW232028   6.490   0.671   3.287
10377SOL     OW32029   0.493   6.931   4.498
10377SOL    HW132030   0.572   6.948   4.439
10377SOL    HW232031   0.409   6.936   4.443
10378SOL     OW32032   6.496   6.975   5.558
10378SOL    HW132033   6.557   7.004   5.631
10378SOL    HW232034   6.498   6.876   5.550
10379SOL     OW32035   4.897   1.470   4.661
10379SOL    HW132036   4.898   1.375   4.630
10379SOL    HW232037   4.939   1.528   4.592
10380SOL     OW32038   4.566   1.238   3.916
10380SOL    HW132039   4.646   1.293   3.892
10380SOL    HW232040   4.595   1.158   3.968
10381SOL     OW32041   4.414   5.551   4.995
10381SOL    HW132042   4.466   5.502   4.925
10381SOL    HW232043   4.359   5.622   4.951
10382SOL     OW32044   1.550   5.935   0.691
10382SOL    HW132045   1.632   5.962   0.639
10382SOL    HW232046   1.571   5.854   0.746
10383SOL     OW32047   5.468   2.547   7.011
10383SOL    HW132048   5.422   2.604   6.943
10383SOL    HW232049   5.453   2.451   6.989
10384SOL     OW32050   6.152   0.826   6.638
10384SOL    HW132051   6.240   0.778   6.635
10384SOL    HW232052   6.153   0.892   6.714
10385SOL     OW32053   5.949   2.034   6.866
10385SOL    HW132054   6.003   2.037   6.782
10385SOL    HW232055   5.939   2.126   6.902
10386SOL     OW32056   6.385   1.751   6.305
10386SOL    HW132057   6.444   1.772   6.227
10386SOL    HW232058   6.407   1.811   6.381
10387SOL     OW32059   2.083   4.139   2.550
10387SOL    HW132060   2.126   4.224   2.519
10387SOL    HW232061   2.096   4.068   2.482
10388SOL     OW32062   1.561   5.295   2.368
10388SOL    HW132063   1.628   5.369   2.373
10388SOL    HW232064   1.592   5.217   2.422
10389SOL     OW32065   0.708   5.422   3.763
10389SOL    HW132066   0.637   5.388   3.826
10389SOL    HW232067   0.698   5.376   3.675
10390SOL     OW32068   2.137   3.631   3.356
10390SOL    HW132069   2.125   3.600   3.451
10390SOL    HW232070   2.173   3.724   3.356
10391SOL     OW32071   3.599   6.318   4.968
10391SOL    HW132072   3.604   6.227   5.009
10391SOL    HW232073   3.641   6.316   4.877
10392SOL     OW32074   6.562   5.292   6.794
10392SOL    HW132075   6.555   5.194   6.812
10392SOL    HW232076   6.656   5.315   6.768
10393SOL     OW32077   0.950   1.249   4.079
10393SOL    HW132078   0.854   1.277   4.066
10393SOL    HW232079   0.984   1.209   3.994
10394SOL     OW32080   3.261   6.600   0.652
10394SOL    HW132081   3.172   6.629   0.618
10394SOL    HW232082   3.249   6.529   0.721
10395SOL     OW32083   1.414   1.538   4.922
10395SOL    HW132084   1.317   1.513   4.928
10395SOL    HW232085   1.444   1.532   4.827
10396SOL     OW32086   0.842   6.854   4.781
10396SOL    HW132087   0.770   6.919   4.803
10396SOL    HW232088   0.842   6.779   4.847
10397SOL     OW32089   4.123   1.828   2.746
10397SOL    HW132090   4.073   1.899   2.797
10397SOL    HW232091   4.062   1.786   2.679
10398SOL     OW32092   6.798   3.709   2.175
10398SOL    HW132093   6.852   3.703   2.092
10398SOL    HW232094   6.846   3.764   2.243
10399SOL     OW32095   6.191   2.604   5.958
10399SOL    HW132096   6.153   2.515   5.983
10399SOL    HW232097   6.189   2.614   5.859
10400SOL     OW32098   1.276   4.970   2.325
10400SOL    HW132099   1.256   5.031   2.402
10400SOL    HW232100   1.191   4.931   2.291
10401SOL     OW32101   0.476   5.219   0.764
10401SOL    HW132102   0.383   5.256   0.762
10401SOL    HW232103   0.478   5.130   0.719
10402SOL     OW32104   0.992   1.940   4.748
10402SOL    HW132105   1.091   1.941   4.759
10402SOL    HW232106   0.954   2.029   4.773
10403SOL     OW32107   4.700   1.109   2.157
10403SOL    HW132108   4.732   1.018   2.186
10403SOL    HW232109   4.693   1.112   2.058
10404SOL     OW32110   6.959   0.295   4.118
10404SOL    HW132111   6.919   0.238   4.190
10404SOL    HW232112   7.001   0.236   4.049
10405SOL     OW32113   1.906   6.554   6.659
10405SOL    HW132114   1.889   6.457   6.642
10405SOL    HW232115   1.820   6.604   6.650
10406SOL     OW32116   2.125   5.886   5.638
10406SOL    HW132117   2.111   5.955   5.567
10406SOL    HW232118   2.173   5.807   5.600
10407SOL     OW32119   1.834   1.177   6.322
10407SOL    HW132120   1.763   1.244   6.299
10407SOL    HW232121   1.901   1.173   6.247
10408SOL     OW32122   4.120   6.087   3.387
10408SOL    HW132123   4.148   5.992   3.368
10408SOL    HW232124   4.136   6.143   3.305
10409SOL     OW32125   6.723   4.459   2.554
10409SOL    HW132126   6.678   4.415   2.631
10409SOL    HW232127   6.684   4.423   2.468
10410SOL     OW32128   5.626   6.443   0.799
10410SOL    HW132129   5.546   6.385   0.787
10410SOL    HW232130   5.613   6.501   0.879
10411SOL     OW32131   1.536   4.964   2.765
10411SOL    HW132132   1.521   4.984   2.668
10411SOL    HW232133   1.563   4.869   2.776
10412SOL     OW32134   6.934   2.235   6.354
10412SOL    HW132135   6.970   2.176   6.426
10412SOL    HW232136   6.959   2.330   6.372
10413SOL     OW32137   0.576   2.005   5.599
10413SOL    HW132138   0.672   2.034   5.593
10413SOL    HW232139   0.542   2.020   5.692
10414SOL     OW32140   5.740   6.416   5.093
10414SOL    HW132141   5.706   6.502   5.131
10414SOL    HW232142   5.756   6.351   5.167
10415SOL     OW32143   0.210   5.577   2.997
10415SOL    HW132144   0.261   5.500   3.036
10415SOL    HW232145   0.272   5.635   2.944
10416SOL     OW32146   4.793   0.041   0.385
10416SOL    HW132147   4.872   0.047   0.323
10416SOL    HW232148   4.724   0.107   0.357
10417SOL     OW32149   4.426   4.798   4.214
10417SOL    HW132150   4.339   4.799   4.165
10417SOL    HW232151   4.446   4.890   4.248
10418SOL     OW32152   5.895   4.173   6.692
10418SOL    HW132153   5.888   4.242   6.620
10418SOL    HW232154   5.804   4.154   6.728
10419SOL     OW32155   2.111   0.368   4.500
10419SOL    HW132156   2.058   0.414   4.571
10419SOL    HW232157   2.112   0.425   4.418
10420SOL     OW32158   5.909   3.522   4.923
10420SOL    HW132159   5.869   3.437   4.889
10420SOL    HW232160   6.008   3.519   4.911
10421SOL     OW32161   1.466   4.440   3.853
10421SOL    HW132162   1.423   4.454   3.942
10421SOL    HW232163   1.431   4.356   3.812
10422SOL     OW32164   5.715   3.239   5.863
10422SOL    HW132165   5.731   3.163   5.926
10422SOL    HW232166   5.618   3.260   5.861
10423SOL     OW32167   2.752   5.402   3.618
10423SOL    HW132168   2.821   5.467   3.588
10423SOL    HW232169   2.778   5.367   3.709
10424SOL     OW32170   3.985   1.249   1.866
10424SOL    HW132171   3.943   1.306   1.936
10424SOL    HW232172   3.978   1.294   1.777
10425SOL     OW32173   1.676   3.691   0.363
10425SOL    HW132174   1.666   3.673   0.460
10425SOL    HW232175   1.679   3.605   0.312
10426SOL     OW32176   6.091   2.027   6.607
10426SOL    HW132177   6.043   2.066   6.529
10426SOL    HW232178   6.155   2.095   6.644
10427SOL     OW32179   5.824   0.821   3.360
10427SOL    HW132180   5.774   0.906   3.380
10427SOL    HW232181   5.769   0.743   3.388
10428SOL     OW32182   1.399   6.687   4.839
10428SOL    HW132183   1.332   6.685   4.913
10428SOL    HW232184   1.380   6.613   4.775
10429SOL     OW32185   2.132   4.362   1.660
10429SOL    HW132186   2.227   4.391   1.645
10429SOL    HW232187   2.122   4.267   1.632
10430SOL     OW32188   3.992   0.173   4.765
10430SOL    HW132189   4.081   0.130   4.754
10430SOL    HW232190   3.920   0.104   4.753
10431SOL     OW32191   4.125   1.720   4.229
10431SOL    HW132192   4.049   1.770   4.188
10431SOL    HW232193   4.096   1.682   4.317
10432SOL     OW32194   1.363   5.149   0.505
10432SOL    HW132195   1.311   5.107   0.579
10432SOL    HW232196   1.418   5.079   0.459
10433SOL     OW32197   4.134   6.648   3.985
10433SOL    HW132198   4.230   6.672   3.997
10433SOL    HW232199   4.094   6.625   4.074
10434SOL     OW32200   4.260   1.063   6.717
10434SOL    HW132201   4.212   1.012   6.646
10434SOL    HW232202   4.359   1.057   6.702
10435SOL     OW32203   2.264   1.452   1.591
10435SOL    HW132204   2.313   1.537   1.612
10435SOL    HW232205   2.311   1.404   1.517
10436SOL     OW32206   1.177   3.678   4.447
10436SOL    HW132207   1.114   3.601   4.434
10436SOL    HW232208   1.256   3.647   4.501
10437SOL     OW32209   6.986   6.085   4.953
10437SOL    HW132210   0.009   5.995   4.968
10437SOL    HW232211   6.940   6.087   4.864
10438SOL     OW32212   6.932   5.935   6.592
10438SOL    HW132213   6.836   5.928   6.621
10438SOL    HW232214   6.990   5.943   6.674
10439SOL     OW32215   6.413   5.500   4.553
10439SOL    HW132216   6.422   5.489   4.652
10439SOL    HW232217   6.428   5.596   4.529
10440SOL     OW32218   6.049   2.597   1.187
10440SOL    HW132219   6.052   2.668   1.117
10440SOL    HW232220   6.142   2.574   1.215
10441SOL     OW32221   4.514   2.250   7.006
10441SOL    HW132222   4.516   2.281   0.083
10441SOL    HW232223   4.520   2.150   7.004
10442SOL     OW32224   3.097   1.276   5.024
10442SOL    HW132225   3.155   1.211   4.974
10442SOL    HW232226   3.018   1.299   4.968
10443SOL     OW32227   0.483   0.477   0.124
10443SOL    HW132228   0.418   0.551   0.139
10443SOL    HW232229   0.489   0.421   0.206
10444SOL     OW32230   4.554   4.827   3.670
10444SOL    HW132231   4.476   4.785   3.625
10444SOL    HW232232   4.579   4.774   3.751
10445SOL     OW32233   1.031   3.168   3.659
10445SOL    HW132234   1.059   3.118   3.578
10445SOL    HW232235   1.094   3.245   3.675
10446SOL     OW32236   2.253   5.048   4.845
10446SOL    HW132237   2.156   5.060   4.824
10446SOL    HW232238   2.273   4.950   4.854
10447SOL     OW32239   1.050   1.963   2.671
10447SOL    HW132240   1.029   1.896   2.741
10447SOL    HW232241   0.982   2.037   2.673
10448SOL     OW32242   1.327   6.129   2.363
10448SOL    HW132243   1.346   6.120   2.265
10448SOL    HW232244   1.293   6.042   2.398
10449SOL     OW32245   3.982   4.874   4.599
10449SOL    HW132246   3.944   4.783   4.615
10449SOL    HW232247   3.956   4.905   4.508
10450SOL     OW32248   0.593   2.358   4.144
10450SOL    HW132249   0.517   2.364   4.209
10450SOL    HW232250   0.568   2.295   4.070
10451SOL     OW32251   3.380   2.139   3.792
10451SOL    HW132252   3.372   2.040   3.786
10451SOL    HW232253   3.386   2.178   3.700
10452SOL     OW32254   6.904   2.847   4.857
10452SOL    HW132255   6.911   2.947   4.856
10452SOL    HW232256   6.972   2.810   4.920
10453SOL     OW32257   4.121   5.694   4.286
10453SOL    HW132258   4.215   5.671   4.261
10453SOL    HW232259   4.070   5.610   4.305
10454SOL     OW32260   6.799   1.006   6.824
10454SOL    HW132261   6.896   1.003   6.847
10454SOL    HW232262   6.771   1.102   6.809
10455SOL     OW32263   0.510   6.154   2.475
10455SOL    HW132264   0.544   6.097   2.399
10455SOL    HW232265   0.438   6.214   2.442
10456SOL     OW32266   1.451   5.566   5.897
10456SOL    HW132267   1.479   5.647   5.949
10456SOL    HW232268   1.483   5.484   5.944
10457SOL     OW32269   4.274   1.669   0.121
10457SOL    HW132270   4.318   1.581   0.102
10457SOL    HW232271   4.204   1.687   0.052
10458SOL     OW32272   1.392   6.184   6.884
10458SOL    HW132273   1.413   6.282   6.879
10458SOL    HW232274   1.356   6.154   6.796
10459SOL     OW32275   6.110   5.626   1.130
10459SOL    HW132276   6.016   5.598   1.150
10459SOL    HW232277   6.109   5.702   1.066
10460SOL     OW32278   6.210   0.600   0.191
10460SOL    HW132279   6.272   0.588   0.268
10460SOL    HW232280   6.260   0.634   0.111
10461SOL     OW32281   6.885   4.064   6.301
10461SOL    HW132282   6.817   4.129   6.336
10461SOL    HW232283   6.927   4.016   6.378
10462SOL     OW32284   3.088   3.567   6.299
10462SOL    HW132285   3.085   3.513   6.215
10462SOL    HW232286   3.182   3.599   6.315
10463SOL     OW32287   4.830   2.838   6.449
10463SOL    HW132288   4.818   2.903   6.374
10463SOL    HW232289   4.926   2.811   6.456
10464SOL     OW32290   6.258   4.474   1.858
10464SOL    HW132291   6.225   4.419   1.935
10464SOL    HW232292   6.263   4.570   1.886
10465SOL     OW32293   5.596   4.480   1.501
10465SOL    HW132294   5.687   4.520   1.510
10465SOL    HW232295   5.600   4.384   1.530
10466SOL     OW32296   5.564   3.646   5.677
10466SOL    HW132297   5.624   3.718   5.642
10466SOL    HW232298   5.554   3.655   5.776
10467SOL     OW32299   0.112   2.699   6.677
10467SOL    HW132300   0.058   2.633   6.729
10467SOL    HW232301   0.129   2.663   6.585
10468SOL     OW32302   1.601   4.244   4.215
10468SOL    HW132303   1.518   4.231   4.270
10468SOL    HW232304   1.669   4.295   4.268
10469SOL     OW32305   0.976   1.654   3.890
10469SOL    HW132306   0.883   1.616   3.889
10469SOL    HW232307   0.991   1.701   3.976
10470SOL     OW32308   2.221   4.010   2.078
10470SOL    HW132309   2.291   4.058   2.026
10470SOL    HW232310   2.222   3.913   2.054
10471SOL     OW32311   2.220   5.268   6.595
10471SOL    HW132312   2.146   5.289   6.659
10471SOL    HW232313   2.186   5.207   6.523
10472SOL     OW32314   3.861   5.552   5.961
10472SOL    HW132315   3.901   5.641   5.987
10472SOL    HW232316   3.762   5.561   5.954
10473SOL     OW32317   6.220   4.708   0.213
10473SOL    HW132318   6.234   4.609   0.210
10473SOL    HW232319   6.143   4.733   0.154
10474SOL     OW32320   6.367   6.583   5.143
10474SOL    HW132321   6.358   6.680   5.166
10474SOL    HW232322   6.296   6.559   5.077
10475SOL     OW32323   0.490   4.899   1.447
10475SOL    HW132324   0.452   4.962   1.515
10475SOL    HW232325   0.590   4.900   1.453
10476SOL     OW32326   5.289   6.405   1.062
10476SOL    HW132327   5.194   6.419   1.091
10476SOL    HW232328   5.333   6.494   1.049
10477SOL     OW32329   0.073   5.557   3.723
10477SOL    HW132330   0.079   5.651   3.691
10477SOL    HW232331   0.162   5.527   3.758
10478SOL     OW32332   0.094   0.840   6.376
10478SOL    HW132333   0.034   0.830   6.297
10478SOL    HW232334   0.167   0.772   6.372
10479SOL     OW32335   0.650   3.459   1.979
10479SOL    HW132336   0.654   3.441   1.881
10479SOL    HW232337   0.694   3.546   1.999
10480SOL     OW32338   2.612   0.894   3.016
10480SOL    HW132339   2.594   0.993   3.016
10480SOL    HW232340   2.550   0.848   2.953
10481SOL     OW32341   6.933   1.603   1.472
10481SOL    HW132342   6.945   1.510   1.438
10481SOL    HW232343   6.942   1.668   1.397
10482SOL     OW32344   5.505   3.138   4.239
10482SOL    HW132345   5.406   3.131   4.251
10482SOL    HW232346   5.539   3.060   4.186
10483SOL     OW32347   5.670   0.061   0.134
10483SOL    HW132348   5.696   0.045   0.039
10483SOL    HW232349   5.676   0.159   0.154
10484SOL     OW32350   6.715   0.761   1.910
10484SOL    HW132351   6.698   0.681   1.968
10484SOL    HW232352   6.789   0.816   1.950
10485SOL     OW32353   5.420   3.339   4.878
10485SOL    HW132354   5.513   3.312   4.852
10485SOL    HW232355   5.356   3.269   4.848
10486SOL     OW32356   4.989   2.387   2.818
10486SOL    HW132357   5.086   2.391   2.842
10486SOL    HW232358   4.976   2.418   2.724
10487SOL     OW32359   4.461   6.927   2.464
10487SOL    HW132360   4.543   6.940   2.519
10487SOL    HW232361   4.412   6.846   2.495
10488SOL     OW32362   3.805   3.953   6.882
10488SOL    HW132363   3.721   3.900   6.887
10488SOL    HW232364   3.874   3.901   6.830
10489SOL     OW32365   1.908   5.204   5.304
10489SOL    HW132366   1.953   5.221   5.216
10489SOL    HW232367   1.896   5.106   5.317
10490SOL     OW32368   6.254   0.381   4.249
10490SOL    HW132369   6.182   0.363   4.182
10490SOL    HW232370   6.312   0.300   4.258
10491SOL     OW32371   0.319   4.676   5.185
10491SOL    HW132372   0.227   4.636   5.183
10491SOL    HW232373   0.313   4.772   5.211
10492SOL     OW32374   3.948   4.586   5.882
10492SOL    HW132375   3.917   4.492   5.899
10492SOL    HW232376   3.914   4.616   5.793
10493SOL     OW32377   3.234   1.599   0.788
10493SOL    HW132378   3.255   1.658   0.866
10493SOL    HW232379   3.317   1.551   0.759
10494SOL     OW32380   5.445   1.970   5.684
10494SOL    HW132381   5.517   2.009   5.742
10494SOL    HW232382   5.356   1.997   5.719
10495SOL     OW32383   1.384   0.057   6.557
10495SOL    HW132384   1.476   0.018   6.551
10495SOL    HW232385   1.382   0.129   6.626
10496SOL     OW32386   6.148   0.519   5.211
10496SOL    HW132387   6.193   0.574   5.281
10496SOL    HW232388   6.052   0.544   5.205
10497SOL     OW32389   1.320   1.740   6.714
10497SOL    HW132390   1.282   1.717   6.625
10497SOL    HW232391   1.259   1.804   6.762
10498SOL     OW32392   2.928   4.525   5.997
10498SOL    HW132393   2.898   4.614   6.033
10498SOL    HW232394   2.874   4.503   5.916
10499SOL     OW32395   3.111   5.759   3.227
10499SOL    HW132396   3.085   5.663   3.222
10499SOL    HW232397   3.207   5.769   3.203
10500SOL     OW32398   2.208   2.097   6.664
10500SOL    HW132399   2.127   2.052   6.627
10500SOL    HW232400   2.196   2.196   6.658
10501SOL     OW32401   0.898   3.297   3.079
10501SOL    HW132402   0.937   3.212   3.113
10501SOL    HW232403   0.971   3.365   3.068
10502SOL     OW32404   3.118   5.538   5.097
10502SOL    HW132405   3.054   5.497   5.162
10502SOL    HW232406   3.209   5.540   5.137
10503SOL     OW32407   2.885   3.176   5.507
10503SOL    HW132408   2.808   3.155   5.446
10503SOL    HW232409   2.970   3.147   5.464
10504SOL     OW32410   2.202   3.406   1.453
10504SOL    HW132411   2.202   3.319   1.504
10504SOL    HW232412   2.114   3.417   1.407
10505SOL     OW32413   6.795   6.950   1.089
10505SOL    HW132414   6.847   6.958   1.004
10505SOL    HW232415   6.817   6.863   1.134
10506SOL     OW32416   0.328   3.896   5.187
10506SOL    HW132417   0.315   3.937   5.097
10506SOL    HW232418   0.251   3.835   5.207
10507SOL     OW32419   1.872   0.406   3.447
10507SOL    HW132420   1.938   0.355   3.503
10507SOL    HW232421   1.917   0.487   3.409
10508SOL     OW32422   5.267   3.898   2.633
10508SOL    HW132423   5.195   3.940   2.577
10508SOL    HW232424   5.305   3.819   2.584
10509SOL     OW32425   2.245   0.711   6.006
10509SOL    HW132426   2.297   0.632   6.040
10509SOL    HW232427   2.234   0.778   6.080
10510SOL     OW32428   6.024   6.614   6.934
10510SOL    HW132429   5.980   6.532   6.970
10510SOL    HW232430   5.994   6.630   6.840
10511SOL     OW32431   0.533   1.952   0.534
10511SOL    HW132432   0.447   1.974   0.489
10511SOL    HW232433   0.584   2.036   0.553
10512SOL     OW32434   2.952   0.099   6.324
10512SOL    HW132435   2.992   0.117   6.414
10512SOL    HW232436   2.907   0.010   6.325
10513SOL     OW32437   0.108   2.027   0.288
10513SOL    HW132438   0.176   2.008   0.217
10513SOL    HW232439   0.064   2.115   0.268
10514SOL     OW32440   0.035   3.139   1.378
10514SOL    HW132441   0.036   3.139   1.478
10514SOL    HW232442   0.110   3.196   1.344
10515SOL     OW32443   6.208   2.904   4.639
10515SOL    HW132444   6.168   2.824   4.594
10515SOL    HW232445   6.269   2.874   4.711
10516SOL     OW32446   2.822   6.701   0.868
10516SOL    HW132447   2.810   6.724   0.772
10516SOL    HW232448   2.901   6.750   0.904
10517SOL     OW32449   0.055   2.171   3.091
10517SOL    HW132450   0.042   2.258   3.140
10517SOL    HW232451   0.038   2.185   2.994
10518SOL     OW32452   0.357   6.545   2.502
10518SOL    HW132453   0.430   6.529   2.436
10518SOL    HW232454   0.364   6.638   2.538
10519SOL     OW32455   3.557   3.847   5.359
10519SOL    HW132456   3.568   3.836   5.260
10519SOL    HW232457   3.593   3.936   5.387
10520SOL     OW32458   3.266   4.724   6.358
10520SOL    HW132459   3.246   4.792   6.429
10520SOL    HW232460   3.215   4.640   6.376
10521SOL     OW32461   6.079   5.295   2.142
10521SOL    HW132462   5.984   5.275   2.164
10521SOL    HW232463   6.091   5.296   2.042
10522SOL     OW32464   6.502   0.001   2.226
10522SOL    HW132465   6.588   0.038   2.191
10522SOL    HW232466   6.436   0.075   2.237
10523SOL     OW32467   6.908   5.472   5.871
10523SOL    HW132468   6.910   5.453   5.773
10523SOL    HW232469   6.974   5.544   5.893
10524SOL     OW32470   4.717   0.429   4.661
10524SOL    HW132471   4.778   0.507   4.651
10524SOL    HW232472   4.624   0.457   4.636
10525SOL     OW32473   2.955   6.420   4.939
10525SOL    HW132474   2.863   6.445   4.969
10525SOL    HW232475   2.995   6.496   4.888
10526SOL     OW32476   5.365   0.065   2.276
10526SOL    HW132477   5.409   0.072   2.187
10526SOL    HW232478   5.270   0.096   2.270
10527SOL     OW32479   1.539   2.816   4.537
10527SOL    HW132480   1.503   2.723   4.546
10527SOL    HW232481   1.617   2.815   4.474
10528SOL     OW32482   6.190   5.099   5.483
10528SOL    HW132483   6.171   5.192   5.450
10528SOL    HW232484   6.253   5.103   5.560
10529SOL     OW32485   0.190   5.844   4.705
10529SOL    HW132486   0.154   5.790   4.628
10529SOL    HW232487   0.217   5.934   4.672
10530SOL     OW32488   1.930   1.654   5.270
10530SOL    HW132489   1.891   1.720   5.206
10530SOL    HW232490   2.005   1.605   5.226
10531SOL     OW32491   1.476   2.040   5.475
10531SOL    HW132492   1.536   1.962   5.454
10531SOL    HW232493   1.529   2.111   5.520
10532SOL     OW32494   3.264   3.108   5.121
10532SOL    HW132495   3.347   3.111   5.178
10532SOL    HW232496   3.275   3.170   5.043
10533SOL     OW32497   2.560   1.142   6.629
10533SOL    HW132498   2.642   1.106   6.672
10533SOL    HW232499   2.571   1.240   6.612
10534SOL     OW32500   5.537   5.688   1.100
10534SOL    HW132501   5.531   5.735   1.189
10534SOL    HW232502   5.457   5.631   1.087
10535SOL     OW32503   0.306   1.246   1.888
10535SOL    HW132504   0.284   1.309   1.963
10535SOL    HW232505   0.354   1.166   1.925
10536SOL     OW32506   5.560   5.743   3.642
10536SOL    HW132507   5.651   5.704   3.622
10536SOL    HW232508   5.545   5.745   3.740
10537SOL     OW32509   6.859   5.703   0.748
10537SOL    HW132510   6.905   5.746   0.670
10537SOL    HW232511   6.765   5.736   0.754
10538SOL     OW32512   4.043   4.480   6.945
10538SOL    HW132513   4.016   4.464   0.021
10538SOL    HW232514   4.078   4.395   6.905
10539SOL     OW32515   0.899   3.704   5.131
10539SOL    HW132516   0.978   3.654   5.167
10539SOL    HW232517   0.830   3.713   5.203
10540SOL     OW32518   2.987   0.583   0.464
10540SOL    HW132519   3.044   0.627   0.533
10540SOL    HW232520   2.895   0.567   0.502
10541SOL     OW32521   4.204   2.293   0.611
10541SOL    HW132522   4.233   2.354   0.537
10541SOL    HW232523   4.208   2.342   0.698
10542SOL     OW32524   1.059   2.248   0.296
10542SOL    HW132525   1.127   2.269   0.226
10542SOL    HW232526   1.104   2.225   0.382
10543SOL     OW32527   2.986   0.821   5.066
10543SOL    HW132528   2.946   0.855   5.151
10543SOL    HW232529   3.021   0.729   5.080
10544SOL     OW32530   6.628   2.473   1.554
10544SOL    HW132531   6.597   2.379   1.543
10544SOL    HW232532   6.574   2.533   1.496
10545SOL     OW32533   4.952   0.934   3.129
10545SOL    HW132534   4.938   0.860   3.063
10545SOL    HW232535   5.043   0.972   3.117
10546SOL     OW32536   3.919   1.538   5.418
10546SOL    HW132537   3.977   1.595   5.360
10546SOL    HW232538   3.865   1.595   5.479
10547SOL     OW32539   4.311   6.937   1.602
10547SOL    HW132540   4.289   6.981   1.515
10547SOL    HW232541   4.345   6.845   1.585
10548SOL     OW32542   4.140   4.683   5.454
10548SOL    HW132543   4.198   4.607   5.484
10548SOL    HW232544   4.104   4.731   5.533
10549SOL     OW32545   1.457   1.498   1.646
10549SOL    HW132546   1.537   1.454   1.686
10549SOL    HW232547   1.428   1.573   1.704
10550SOL     OW32548   5.322   6.867   4.522
10550SOL    HW132549   5.239   6.913   4.491
10550SOL    HW232550   5.302   6.770   4.538
10551SOL     OW32551   1.404   2.858   6.213
10551SOL    HW132552   1.436   2.885   6.304
10551SOL    HW232553   1.402   2.758   6.207
10552SOL     OW32554   3.221   2.139   4.772
10552SOL    HW132555   3.173   2.168   4.854
10552SOL    HW232556   3.320   2.141   4.788
10553SOL     OW32557   3.042   5.268   5.707
10553SOL    HW132558   3.131   5.268   5.753
10553SOL    HW232559   2.994   5.353   5.729
10554SOL     OW32560   6.396   4.009   5.979
10554SOL    HW132561   6.325   3.982   6.045
10554SOL    HW232562   6.480   4.032   6.029
10555SOL     OW32563   3.484   2.861   0.950
10555SOL    HW132564   3.451   2.856   1.044
10555SOL    HW232565   3.426   2.806   0.891
10556SOL     OW32566   1.328   3.480   3.973
10556SOL    HW132567   1.403   3.545   3.963
10556SOL    HW232568   1.318   3.428   3.888
10557SOL     OW32569   5.479   1.292   3.207
10557SOL    HW132570   5.556   1.349   3.236
10557SOL    HW232571   5.497   1.256   3.115
10558SOL     OW32572   5.271   5.608   4.910
10558SOL    HW132573   5.275   5.686   4.848
10558SOL    HW232574   5.195   5.548   4.883
10559SOL     OW32575   4.768   2.618   1.061
10559SOL    HW132576   4.774   2.521   1.082
10559SOL    HW232577   4.701   2.632   0.987
10560SOL     OW32578   0.086   2.982   4.234
10560SOL    HW132579   0.138   2.908   4.191
10560SOL    HW232580   0.136   3.068   4.224
10561SOL     OW32581   2.684   4.079   6.296
10561SOL    HW132582   2.621   4.069   6.219
10561SOL    HW232583   2.747   4.154   6.278
10562SOL     OW32584   3.126   1.693   0.383
10562SOL    HW132585   3.120   1.760   0.456
10562SOL    HW232586   3.135   1.740   0.295
10563SOL     OW32587   1.483   1.985   3.095
10563SOL    HW132588   1.571   1.947   3.124
10563SOL    HW232589   1.494   2.082   3.074
10564SOL     OW32590   6.921   2.295   2.148
10564SOL    HW132591   6.850   2.252   2.204
10564SOL    HW232592   6.903   2.276   2.052
10565SOL     OW32593   5.354   1.425   4.833
10565SOL    HW132594   5.430   1.417   4.898
10565SOL    HW232595   5.305   1.337   4.828
10566SOL     OW32596   4.294   5.463   6.913
10566SOL    HW132597   4.382   5.482   6.958
10566SOL    HW232598   4.299   5.375   6.866
10567SOL     OW32599   1.997   5.385   4.097
10567SOL    HW132600   2.088   5.346   4.084
10567SOL    HW232601   1.954   5.400   4.008
10568SOL     OW32602   3.769   1.846   2.831
10568SOL    HW132603   3.827   1.923   2.856
10568SOL    HW232604   3.791   1.817   2.738
10569SOL     OW32605   6.282   2.939   3.173
10569SOL    HW132606   6.293   3.038   3.180
10569SOL    HW232607   6.314   2.907   3.084
10570SOL     OW32608   1.094   4.100   1.535
10570SOL    HW132609   1.035   4.021   1.550
10570SOL    HW232610   1.153   4.083   1.456
10571SOL     OW32611   6.503   6.732   4.884
10571SOL    HW132612   6.497   6.715   4.983
10571SOL    HW232613   6.443   6.808   4.860
10572SOL     OW32614   6.620   3.200   1.660
10572SOL    HW132615   6.574   3.113   1.642
10572SOL    HW232616   6.718   3.184   1.672
10573SOL     OW32617   6.545   4.603   6.182
10573SOL    HW132618   6.523   4.506   6.198
10573SOL    HW232619   6.479   4.660   6.231
10574SOL     OW32620   0.533   2.034   3.570
10574SOL    HW132621   0.618   1.988   3.596
10574SOL    HW232622   0.549   2.090   3.489
10575SOL     OW32623   1.149   6.870   5.963
10575SOL    HW132624   1.161   6.962   6.001
10575SOL    HW232625   1.223   6.850   5.899
10576SOL     OW32626   1.334   5.347   3.447
10576SOL    HW132627   1.390   5.424   3.417
10576SOL    HW232628   1.272   5.376   3.519
10577SOL     OW32629   0.321   2.603   5.831
10577SOL    HW132630   0.340   2.541   5.754
10577SOL    HW232631   0.376   2.686   5.821
10578SOL     OW32632   5.454   0.951   5.444
10578SOL    HW132633   5.474   0.869   5.497
10578SOL    HW232634   5.531   1.014   5.450
10579SOL     OW32635   4.914   0.099   0.852
10579SOL    HW132636   4.889   0.004   0.834
10579SOL    HW232637   4.954   0.106   0.944
10580SOL     OW32638   6.984   6.052   0.264
10580SOL    HW132639   6.985   6.151   0.273
10580SOL    HW232640   0.011   6.010   0.343
10581SOL     OW32641   4.734   2.337   4.262
10581SOL    HW132642   4.646   2.376   4.238
10581SOL    HW232643   4.784   2.314   4.178
10582SOL     OW32644   3.512   4.865   0.110
10582SOL    HW132645   3.473   4.931   0.046
10582SOL    HW232646   3.559   4.793   0.058
10583SOL     OW32647   4.339   0.968   2.000
10583SOL    HW132648   4.410   0.905   1.967
10583SOL    HW232649   4.369   1.062   1.984
10584SOL     OW32650   5.984   0.430   1.299
10584SOL    HW132651   6.078   0.451   1.328
10584SOL    HW232652   5.981   0.422   1.200
10585SOL     OW32653   2.539   4.829   6.522
10585SOL    HW132654   2.450   4.871   6.540
10585SOL    HW232655   2.538   4.784   6.434
10586SOL     OW32656   4.969   1.338   0.754
10586SOL    HW132657   4.937   1.403   0.686
10586SOL    HW232658   4.903   1.264   0.763
10587SOL     OW32659   6.088   2.919   0.247
10587SOL    HW132660   6.115   2.942   0.340
10587SOL    HW232661   5.991   2.895   0.245
10588SOL     OW32662   1.415   5.079   3.295
10588SOL    HW132663   1.492   5.142   3.300
10588SOL    HW232664   1.334   5.128   3.264
10589SOL     OW32665   5.847   1.320   4.216
10589SOL    HW132666   5.892   1.230   4.213
10589SOL    HW232667   5.860   1.366   4.128
10590SOL     OW32668   1.555   0.816   4.642
10590SOL    HW132669   1.520   0.734   4.597
10590SOL    HW232670   1.481   0.863   4.690
10591SOL     OW32671   2.046   2.288   0.698
10591SOL    HW132672   2.003   2.377   0.708
10591SOL    HW232673   2.094   2.265   0.783
10592SOL     OW32674   6.294   1.441   6.624
10592SOL    HW132675   6.292   1.349   6.584
10592SOL    HW232676   6.235   1.502   6.570
10593SOL     OW32677   1.130   5.129   1.849
10593SOL    HW132678   1.154   5.214   1.897
10593SOL    HW232679   1.031   5.117   1.850
10594SOL     OW32680   0.710   1.447   4.363
10594SOL    HW132681   0.723   1.445   4.263
10594SOL    HW232682   0.700   1.542   4.392
10595SOL     OW32683   2.661   5.689   5.029
10595SOL    HW132684   2.622   5.714   4.940
10595SOL    HW232685   2.588   5.666   5.093
10596SOL     OW32686   3.142   1.085   2.065
10596SOL    HW132687   3.159   1.015   1.996
10596SOL    HW232688   3.212   1.078   2.137
10597SOL     OW32689   2.041   0.799   3.712
10597SOL    HW132690   2.031   0.705   3.747
10597SOL    HW232691   1.951   0.838   3.694
10598SOL     OW32692   2.083   0.944   0.367
10598SOL    HW132693   2.164   0.998   0.391
10598SOL    HW232694   2.022   0.940   0.446
10599SOL     OW32695   5.147   0.418   6.681
10599SOL    HW132696   5.113   0.499   6.729
10599SOL    HW232697   5.070   0.369   6.640
10600SOL     OW32698   1.591   2.240   5.578
10600SOL    HW132699   1.580   2.327   5.530
10600SOL    HW232700   1.641   2.255   5.663
10601SOL     OW32701   3.560   6.138   5.262
10601SOL    HW132702   3.576   6.087   5.178
10601SOL    HW232703   3.480   6.197   5.252
10602SOL     OW32704   4.605   0.827   1.072
10602SOL    HW132705   4.650   0.908   1.108
10602SOL    HW232706   4.506   0.836   1.083
10603SOL     OW32707   0.888   5.566   4.855
10603SOL    HW132708   0.863   5.476   4.819
10603SOL    HW232709   0.805   5.619   4.871
10604SOL     OW32710   6.865   4.060   5.582
10604SOL    HW132711   6.887   3.964   5.564
10604SOL    HW232712   6.813   4.097   5.505
10605SOL     OW32713   1.909   5.243   6.284
10605SOL    HW132714   1.813   5.272   6.286
10605SOL    HW232715   1.950   5.271   6.198
10606SOL     OW32716   0.551   0.986   2.662
10606SOL    HW132717   0.643   1.009   2.629
10606SOL    HW232718   0.556   0.903   2.719
10607SOL     OW32719   5.830   4.812   6.570
10607SOL    HW132720   5.732   4.817   6.588
10607SOL    HW232721   5.868   4.904   6.565
10608SOL     OW32722   5.676   0.394   3.076
10608SOL    HW132723   5.689   0.302   3.113
10608SOL    HW232724   5.746   0.455   3.112
10609SOL     OW32725   3.746   6.648   2.878
10609SOL    HW132726   3.695   6.639   2.793
10609SOL    HW232727   3.700   6.714   2.938
10610SOL     OW32728   2.100   4.300   4.388
10610SOL    HW132729   2.122   4.345   4.474
10610SOL    HW232730   2.147   4.211   4.383
10611SOL     OW32731   4.830   2.474   6.231
10611SOL    HW132732   4.730   2.475   6.228
10611SOL    HW232733   4.860   2.429   6.315
10612SOL     OW32734   1.905   0.100   1.472
10612SOL    HW132735   1.973   0.102   1.399
10612SOL    HW232736   1.814   0.089   1.433
10613SOL     OW32737   0.304   6.750   6.336
10613SOL    HW132738   0.297   6.803   6.421
10613SOL    HW232739   0.272   6.657   6.353
10614SOL     OW32740   6.610   0.486   3.452
10614SOL    HW132741   6.564   0.562   3.407
10614SOL    HW232742   6.605   0.498   3.551
10615SOL     OW32743   6.800   5.915   5.685
10615SOL    HW132744   6.826   5.984   5.753
10615SOL    HW232745   6.730   5.953   5.624
10616SOL     OW32746   2.279   6.006   0.807
10616SOL    HW132747   2.314   5.999   0.901
10616SOL    HW232748   2.293   6.100   0.774
10617SOL     OW32749   0.081   1.780   6.667
10617SOL    HW132750   0.134   1.708   6.713
10617SOL    HW232751   7.011   1.789   6.712
10618SOL     OW32752   6.730   3.822   1.132
10618SOL    HW132753   6.694   3.744   1.081
10618SOL    HW232754   6.725   3.802   1.230
10619SOL     OW32755   0.767   4.195   2.977
10619SOL    HW132756   0.717   4.117   2.942
10619SOL    HW232757   0.862   4.168   2.996
10620SOL     OW32758   1.144   5.190   4.044
10620SOL    HW132759   1.211   5.257   4.076
10620SOL    HW232760   1.058   5.236   4.023
10621SOL     OW32761   3.065   6.086   0.752
10621SOL    HW132762   2.999   6.037   0.809
10621SOL    HW232763   3.157   6.079   0.791
10622SOL     OW32764   4.444   1.873   0.916
10622SOL    HW132765   4.461   1.815   0.836
10622SOL    HW232766   4.412   1.817   0.992
10623SOL     OW32767   6.705   0.896   4.233
10623SOL    HW132768   6.677   0.984   4.195
10623SOL    HW232769   6.668   0.822   4.176
10624SOL     OW32770   3.164   1.112   4.178
10624SOL    HW132771   3.216   1.168   4.114
10624SOL    HW232772   3.160   1.018   4.144
10625SOL     OW32773   0.759   2.687   0.347
10625SOL    HW132774   0.760   2.768   0.289
10625SOL    HW232775   0.716   2.708   0.434
10626SOL     OW32776   5.853   1.630   2.118
10626SOL    HW132777   5.803   1.713   2.094
10626SOL    HW232778   5.949   1.640   2.092
10627SOL     OW32779   6.244   5.983   4.396
10627SOL    HW132780   6.214   5.913   4.461
10627SOL    HW232781   6.217   6.074   4.429
10628SOL     OW32782   0.135   5.353   5.656
10628SOL    HW132783   0.112   5.332   5.751
10628SOL    HW232784   0.230   5.327   5.639
10629SOL     OW32785   2.416   4.774   6.915
10629SOL    HW132786   2.338   4.822   6.875
10629SOL    HW232787   2.489   4.839   6.935
10630SOL     OW32788   6.330   0.878   2.096
10630SOL    HW132789   6.348   0.919   2.186
10630SOL    HW232790   6.312   0.781   2.106
10631SOL     OW32791   0.839   6.604   4.936
10631SOL    HW132792   0.902   6.553   4.877
10631SOL    HW232793   0.771   6.541   4.973
10632SOL     OW32794   6.987   2.950   6.235
10632SOL    HW132795   6.958   3.000   6.153
10632SOL    HW232796   6.947   2.859   6.234
10633SOL     OW32797   0.687   4.911   0.869
10633SOL    HW132798   0.724   4.871   0.953
10633SOL    HW232799   0.618   4.850   0.831
10634SOL     OW32800   3.745   6.488   2.518
10634SOL    HW132801   3.737   6.392   2.546
10634SOL    HW232802   3.686   6.545   2.576
10635SOL     OW32803   1.280   1.091   1.736
10635SOL    HW132804   1.220   1.017   1.705
10635SOL    HW232805   1.352   1.106   1.669
10636SOL     OW32806   5.499   1.490   0.746
10636SOL    HW132807   5.468   1.572   0.796
10636SOL    HW232808   5.541   1.426   0.811
10637SOL     OW32809   2.745   4.477   5.783
10637SOL    HW132810   2.769   4.562   5.737
10637SOL    HW232811   2.766   4.399   5.724
10638SOL     OW32812   6.735   6.983   6.118
10638SOL    HW132813   6.760   0.009   6.204
10638SOL    HW232814   6.669   0.021   6.068
10639SOL     OW32815   3.485   2.110   4.802
10639SOL    HW132816   3.516   2.046   4.732
10639SOL    HW232817   3.557   2.123   4.870
10640SOL     OW32818   4.453   6.210   1.353
10640SOL    HW132819   4.362   6.171   1.365
10640SOL    HW232820   4.456   6.261   1.267
10641SOL     OW32821   3.593   0.931   6.391
10641SOL    HW132822   3.503   0.890   6.409
10641SOL    HW232823   3.582   1.029   6.374
10642SOL     OW32824   0.202   4.728   0.229
10642SOL    HW132825   0.141   4.649   0.240
10642SOL    HW232826   0.269   4.708   0.157
10643SOL     OW32827   3.970   3.435   5.458
10643SOL    HW132828   3.930   3.356   5.505
10643SOL    HW232829   4.054   3.406   5.412
10644SOL     OW32830   3.823   1.253   5.042
10644SOL    HW132831   3.725   1.277   5.042
10644SOL    HW232832   3.838   1.175   4.982
10645SOL     OW32833   2.491   0.114   4.883
10645SOL    HW132834   2.473   0.066   4.969
10645SOL    HW232835   2.425   0.189   4.872
10646SOL     OW32836   1.101   4.642   6.635
10646SOL    HW132837   1.070   4.571   6.572
10646SOL    HW232838   1.039   4.720   6.630
10647SOL     OW32839   0.211   6.063   0.848
10647SOL    HW132840   0.302   6.050   0.888
10647SOL    HW232841   0.153   5.985   0.869
10648SOL     OW32842   4.822   5.126   6.761
10648SOL    HW132843   4.875   5.052   6.801
10648SOL    HW232844   4.880   5.180   6.700
10649SOL     OW32845   0.135   3.795   5.986
10649SOL    HW132846   0.150   3.885   5.945
10649SOL    HW232847   0.058   3.801   6.050
10650SOL     OW32848   3.172   0.814   5.316
10650SOL    HW132849   3.085   0.857   5.293
10650SOL    HW232850   3.177   0.799   5.415
10651SOL     OW32851   2.707   0.651   5.255
10651SOL    HW132852   2.768   0.614   5.325
10651SOL    HW232853   2.682   0.745   5.278
10652SOL     OW32854   3.700   1.626   0.714
10652SOL    HW132855   3.709   1.587   0.806
10652SOL    HW232856   3.651   1.562   0.655
10653SOL     OW32857   6.044   3.662   4.235
10653SOL    HW132858   6.053   3.663   4.135
10653SOL    HW232859   5.948   3.651   4.260
10654SOL     OW32860   4.578   0.844   1.801
10654SOL    HW132861   4.563   0.748   1.825
10654SOL    HW232862   4.566   0.856   1.702
10655SOL     OW32863   2.311   5.333   1.523
10655SOL    HW132864   2.263   5.247   1.541
10655SOL    HW232865   2.246   5.409   1.527
10656SOL     OW32866   6.179   2.487   6.671
10656SOL    HW132867   6.213   2.568   6.718
10656SOL    HW232868   6.126   2.514   6.591
10657SOL     OW32869   6.450   0.371   1.442
10657SOL    HW132870   6.414   0.317   1.366
10657SOL    HW232871   6.498   0.310   1.506
10658SOL     OW32872   0.222   6.487   4.393
10658SOL    HW132873   0.312   6.454   4.363
10658SOL    HW232874   0.232   6.576   4.439
10659SOL     OW32875   4.920   0.780   0.582
10659SOL    HW132876   4.866   0.703   0.549
10659SOL    HW232877   4.967   0.754   0.667
10660SOL     OW32878   5.474   5.551   6.215
10660SOL    HW132879   5.508   5.616   6.283
10660SOL    HW232880   5.429   5.600   6.140
10661SOL     OW32881   0.338   0.856   2.196
10661SOL    HW132882   0.426   0.889   2.229
10661SOL    HW232883   0.311   0.910   2.116
10662SOL     OW32884   6.445   1.861   6.818
10662SOL    HW132885   6.463   1.764   6.807
10662SOL    HW232886   6.369   1.875   6.880
10663SOL     OW32887   0.751   1.764   0.498
10663SOL    HW132888   0.675   1.829   0.490
10663SOL    HW232889   0.837   1.814   0.495
10664SOL     OW32890   2.124   5.111   6.392
10664SOL    HW132891   2.168   5.141   6.307
10664SOL    HW232892   2.026   5.126   6.385
10665SOL     OW32893   5.420   1.180   6.823
10665SOL    HW132894   5.450   1.085   6.831
10665SOL    HW232895   5.493   1.241   6.856
10666SOL     OW32896   0.372   0.205   0.243
10666SOL    HW132897   0.390   0.109   0.221
10666SOL    HW232898   0.454   0.246   0.282
10667SOL     OW32899   2.947   2.143   5.943
10667SOL    HW132900   2.917   2.238   5.936
10667SOL    HW232901   2.907   2.090   5.869
10668SOL     OW32902   2.292   1.112   6.555
10668SOL    HW132903   2.233   1.033   6.567
10668SOL    HW232904   2.387   1.085   6.569
10669SOL     OW32905   1.166   6.282   6.254
10669SOL    HW132906   1.249   6.226   6.249
10669SOL    HW232907   1.170   6.352   6.183
10670SOL     OW32908   6.642   4.076   4.697
10670SOL    HW132909   6.653   4.168   4.660
10670SOL    HW232910   6.548   4.044   4.684
10671SOL     OW32911   1.946   2.417   3.202
10671SOL    HW132912   2.043   2.392   3.206
10671SOL    HW232913   1.938   2.513   3.175
10672SOL     OW32914   0.018   2.520   0.561
10672SOL    HW132915   0.057   2.437   0.602
10672SOL    HW232916   6.962   2.554   0.618
10673SOL     OW32917   3.382   3.851   4.546
10673SOL    HW132918   3.440   3.873   4.467
10673SOL    HW232919   3.287   3.844   4.517
10674SOL     OW32920   3.973   1.595   2.533
10674SOL    HW132921   4.042   1.559   2.469
10674SOL    HW232922   3.930   1.519   2.581
10675SOL     OW32923   0.994   1.089   5.650
10675SOL    HW132924   1.035   1.090   5.559
10675SOL    HW232925   1.064   1.107   5.719
10676SOL     OW32926   6.868   0.303   6.456
10676SOL    HW132927   6.829   0.260   6.537
10676SOL    HW232928   6.881   0.401   6.474
10677SOL     OW32929   6.103   1.431   1.024
10677SOL    HW132930   6.191   1.385   1.013
10677SOL    HW232931   6.045   1.378   1.087
10678SOL     OW32932   1.789   5.306   3.493
10678SOL    HW132933   1.707   5.263   3.530
10678SOL    HW232934   1.812   5.264   3.405
10679SOL     OW32935   5.692   4.767   3.880
10679SOL    HW132936   5.729   4.678   3.852
10679SOL    HW232937   5.604   4.753   3.925
10680SOL     OW32938   0.460   2.633   3.611
10680SOL    HW132939   0.531   2.661   3.675
10680SOL    HW232940   0.439   2.536   3.624
10681SOL     OW32941   0.483   2.256   6.942
10681SOL    HW132942   0.392   2.297   6.944
10681SOL    HW232943   0.540   2.298   7.012
10682SOL     OW32944   6.625   1.811   2.858
10682SOL    HW132945   6.646   1.898   2.902
10682SOL    HW232946   6.529   1.788   2.874
10683SOL     OW32947   1.333   0.410   4.313
10683SOL    HW132948   1.271   0.375   4.383
10683SOL    HW232949   1.388   0.334   4.277
10684SOL     OW32950   5.093   5.779   0.532
10684SOL    HW132951   5.177   5.724   0.531
10684SOL    HW232952   5.016   5.722   0.562
10685SOL     OW32953   6.114   2.581   2.603
10685SOL    HW132954   6.170   2.521   2.546
10685SOL    HW232955   6.082   2.658   2.549
10686SOL     OW32956   4.070   4.965   0.814
10686SOL    HW132957   3.999   4.927   0.873
10686SOL    HW232958   4.115   4.891   0.764
10687SOL     OW32959   6.400   5.084   1.340
10687SOL    HW132960   6.489   5.040   1.349
10687SOL    HW232961   6.346   5.038   1.270
10688SOL     OW32962   0.469   5.088   1.056
10688SOL    HW132963   0.433   5.174   1.092
10688SOL    HW232964   0.465   5.089   0.957
10689SOL     OW32965   1.162   0.037   0.951
10689SOL    HW132966   1.093   0.043   1.023
10689SOL    HW232967   1.196   0.128   0.929
10690SOL     OW32968   4.530   6.559   3.258
10690SOL    HW132969   4.544   6.621   3.335
10690SOL    HW232970   4.515   6.466   3.292
10691SOL     OW32971   5.891   1.147   1.749
10691SOL    HW132972   5.847   1.139   1.838
10691SOL    HW232973   5.929   1.239   1.739
10692SOL     OW32974   6.398   6.446   3.748
10692SOL    HW132975   6.421   6.421   3.842
10692SOL    HW232976   6.397   6.545   3.738
10693SOL     OW32977   5.273   2.533   3.987
10693SOL    HW132978   5.243   2.605   3.925
10693SOL    HW232979   5.355   2.562   4.036
10694SOL     OW32980   2.247   6.247   0.443
10694SOL    HW132981   2.246   6.266   0.345
10694SOL    HW232982   2.214   6.154   0.459
10695SOL     OW32983   5.442   3.186   5.925
10695SOL    HW132984   5.355   3.203   5.970
10695SOL    HW232985   5.426   3.147   5.834
10696SOL     OW32986   6.281   0.087   1.530
10696SOL    HW132987   6.334   0.003   1.546
10696SOL    HW232988   6.201   0.087   1.590
10697SOL     OW32989   1.910   6.468   2.763
10697SOL    HW132990   1.847   6.391   2.774
10697SOL    HW232991   2.004   6.437   2.774
10698SOL     OW32992   3.275   0.438   4.398
10698SOL    HW132993   3.195   0.405   4.347
10698SOL    HW232994   3.305   0.368   4.462
10699SOL     OW32995   1.464   2.647   3.656
10699SOL    HW132996   1.450   2.652   3.755
10699SOL    HW232997   1.475   2.740   3.620
10700SOL     OW32998   0.825   2.297   2.356
10700SOL    HW132999   0.743   2.291   2.414
10700SOL    HW233000   0.857   2.392   2.355
10701SOL     OW33001   2.748   0.130   1.533
10701SOL    HW133002   2.745   0.041   1.578
10701SOL    HW233003   2.735   0.119   1.435
10702SOL     OW33004   5.173   2.231   0.942
10702SOL    HW133005   5.241   2.253   0.873
10702SOL    HW233006   5.139   2.315   0.985
10703SOL     OW33007   3.792   2.970   4.037
10703SOL    HW133008   3.840   3.016   3.963
10703SOL    HW233009   3.717   2.916   4.000
10704SOL     OW33010   5.736   6.296   2.135
10704SOL    HW133011   5.665   6.310   2.204
10704SOL    HW233012   5.726   6.364   2.063
10705SOL     OW33013   1.506   3.286   6.613
10705SOL    HW133014   1.574   3.269   6.684
10705SOL    HW233015   1.456   3.370   6.634
10706SOL     OW33016   3.194   3.352   1.063
10706SOL    HW133017   3.142   3.294   1.126
10706SOL    HW233018   3.291   3.341   1.081
10707SOL     OW33019   6.084   6.920   6.475
10707SOL    HW133020   6.111   6.998   6.419
10707SOL    HW233021   6.114   6.935   6.569
10708SOL     OW33022   5.066   1.207   1.444
10708SOL    HW133023   5.166   1.212   1.452
10708SOL    HW233024   5.041   1.120   1.401
10709SOL     OW33025   0.821   6.890   6.325
10709SOL    HW133026   0.911   6.882   6.369
10709SOL    HW233027   0.818   6.974   6.271
10710SOL     OW33028   0.190   6.339   3.572
10710SOL    HW133029   0.213   6.428   3.613
10710SOL    HW233030   0.144   6.354   3.485
10711SOL     OW33031   2.166   4.702   5.700
10711SOL    HW133032   2.262   4.724   5.685
10711SOL    HW233033   2.159   4.617   5.752
10712SOL     OW33034   3.369   1.473   6.462
10712SOL    HW133035   3.344   1.559   6.507
10712SOL    HW233036   3.444   1.489   6.398
10713SOL     OW33037   1.870   6.765   0.422
10713SOL    HW133038   1.792   6.797   0.368
10713SOL    HW233039   1.873   6.812   0.510
10714SOL     OW33040   5.964   5.861   4.589
10714SOL    HW133041   5.935   5.949   4.627
10714SOL    HW233042   6.057   5.841   4.618
10715SOL     OW33043   5.769   0.581   2.684
10715SOL    HW133044   5.756   0.487   2.716
10715SOL    HW233045   5.685   0.615   2.644
10716SOL     OW33046   0.155   0.925   1.603
10716SOL    HW133047   0.188   0.946   1.511
10716SOL    HW233048   0.156   1.008   1.659
10717SOL     OW33049   0.184   6.588   2.009
10717SOL    HW133050   0.179   6.524   2.086
10717SOL    HW233051   0.113   6.658   2.020
10718SOL     OW33052   1.077   4.176   5.264
10718SOL    HW133053   1.024   4.254   5.233
10718SOL    HW233054   1.159   4.208   5.312
10719SOL     OW33055   3.832   5.986   2.389
10719SOL    HW133056   3.782   5.899   2.380
10719SOL    HW233057   3.843   6.028   2.299
10720SOL     OW33058   0.506   3.351   6.295
10720SOL    HW133059   0.433   3.405   6.253
10720SOL    HW233060   0.558   3.304   6.224
10721SOL     OW33061   5.699   1.801   4.215
10721SOL    HW133062   5.747   1.841   4.294
10721SOL    HW233063   5.638   1.728   4.247
10722SOL     OW33064   0.604   5.314   7.009
10722SOL    HW133065   0.544   5.309   0.071
10722SOL    HW233066   0.687   5.260   0.008
10723SOL     OW33067   6.094   4.065   6.089
10723SOL    HW133068   6.076   4.067   6.188
10723SOL    HW233069   6.115   3.972   6.061
10724SOL     OW33070   3.716   6.986   5.638
10724SOL    HW133071   3.767   6.989   5.552
10724SOL    HW233072   3.720   0.058   5.681
10725SOL     OW33073   0.449   6.478   5.180
10725SOL    HW133074   0.428   6.384   5.207
10725SOL    HW233075   0.403   6.541   5.243
10726SOL     OW33076   6.785   0.401   3.271
10726SOL    HW133077   6.707   0.429   3.328
10726SOL    HW233078   6.858   0.366   3.330
10727SOL     OW33079   4.471   6.648   6.365
10727SOL    HW133080   4.523   6.635   6.449
10727SOL    HW233081   4.529   6.693   6.296
10728SOL     OW33082   5.875   5.698   3.636
10728SOL    HW133083   5.926   5.745   3.708
10728SOL    HW233084   5.905   5.730   3.547
10729SOL     OW33085   6.647   3.426   4.184
10729SOL    HW133086   6.557   3.399   4.218
10729SOL    HW233087   6.718   3.380   4.238
10730SOL     OW33088   1.481   6.458   4.335
10730SOL    HW133089   1.389   6.473   4.372
10730SOL    HW233090   1.548   6.509   4.389
10731SOL     OW33091   5.098   5.442   6.465
10731SOL    HW133092   5.001   5.437   6.488
10731SOL    HW233093   5.108   5.459   6.367
10732SOL     OW33094   6.656   6.002   2.434
10732SOL    HW133095   6.735   5.961   2.480
10732SOL    HW233096   6.571   5.967   2.475
10733SOL     OW33097   0.502   1.992   6.157
10733SOL    HW133098   0.424   1.935   6.182
10733SOL    HW233099   0.542   2.032   6.239
10734SOL     OW33100   0.448   0.997   4.454
10734SOL    HW133101   0.489   0.906   4.456
10734SOL    HW233102   0.510   1.063   4.496
10735SOL     OW33103   0.004   0.453   1.796
10735SOL    HW133104   0.020   0.537   1.744
10735SOL    HW233105   0.087   0.428   1.844
10736SOL     OW33106   6.149   5.777   3.868
10736SOL    HW133107   6.184   5.793   3.960
10736SOL    HW233108   6.191   5.842   3.804
10737SOL     OW33109   6.877   0.758   1.435
10737SOL    HW133110   6.792   0.804   1.409
10737SOL    HW233111   6.918   0.805   1.513
10738SOL     OW33112   2.430   6.639   1.493
10738SOL    HW133113   2.354   6.629   1.428
10738SOL    HW233114   2.512   6.667   1.443
10739SOL     OW33115   5.078   2.890   4.251
10739SOL    HW133116   4.994   2.921   4.208
10739SOL    HW233117   5.057   2.835   4.332
10740SOL     OW33118   2.904   0.339   5.783
10740SOL    HW133119   2.880   0.363   5.689
10740SOL    HW233120   2.948   0.249   5.784
10741SOL     OW33121   1.026   2.710   3.917
10741SOL    HW133122   1.056   2.677   4.007
10741SOL    HW233123   1.037   2.809   3.913
10742SOL     OW33124   0.015   0.200   2.026
10742SOL    HW133125   6.940   0.233   2.012
10742SOL    HW233126   0.013   0.124   2.092
10743SOL     OW33127   3.743   1.957   5.951
10743SOL    HW133128   3.693   1.963   6.038
10743SOL    HW233129   3.827   2.011   5.958
10744SOL     OW33130   2.674   2.139   1.349
10744SOL    HW133131   2.768   2.171   1.359
10744SOL    HW233132   2.611   2.216   1.364
10745SOL     OW33133   2.481   5.573   1.450
10745SOL    HW133134   2.511   5.628   1.529
10745SOL    HW233135   2.439   5.489   1.483
10746SOL     OW33136   1.978   5.363   6.047
10746SOL    HW133137   1.910   5.436   6.046
10746SOL    HW233138   2.021   5.357   5.956
10747SOL     OW33139   0.475   0.567   4.691
10747SOL    HW133140   0.485   0.482   4.639
10747SOL    HW233141   0.410   0.627   4.644
10748SOL     OW33142   3.166   6.765   2.436
10748SOL    HW133143   3.074   6.789   2.407
10748SOL    HW233144   3.179   6.666   2.428
10749SOL     OW33145   5.650   4.203   2.125
10749SOL    HW133146   5.679   4.297   2.107
10749SOL    HW233147   5.722   4.139   2.096
10750SOL     OW33148   4.147   2.171   3.955
10750SOL    HW133149   4.201   2.088   3.941
10750SOL    HW233150   4.208   2.246   3.980
10751SOL     OW33151   6.774   6.440   3.900
10751SOL    HW133152   6.779   6.535   3.931
10751SOL    HW233153   6.865   6.408   3.873
10752SOL     OW33154   0.352   6.298   6.659
10752SOL    HW133155   0.372   6.330   6.752
10752SOL    HW233156   0.427   6.326   6.598
10753SOL     OW33157   5.479   6.726   4.834
10753SOL    HW133158   5.421   6.807   4.842
10753SOL    HW233159   5.440   6.652   4.889
10754SOL     OW33160   0.568   5.632   2.418
10754SOL    HW133161   0.636   5.670   2.356
10754SOL    HW233162   0.614   5.579   2.489
10755SOL     OW33163   0.269   2.359   1.958
10755SOL    HW133164   0.242   2.295   2.031
10755SOL    HW233165   0.187   2.387   1.907
10756SOL     OW33166   1.218   0.073   6.310
10756SOL    HW133167   1.191   6.998   6.288
10756SOL    HW233168   1.282   0.071   6.388
10757SOL     OW33169   6.557   3.166   2.020
10757SOL    HW133170   6.496   3.132   1.948
10757SOL    HW233171   6.514   3.243   2.066
10758SOL     OW33172   1.237   1.645   0.774
10758SOL    HW133173   1.154   1.685   0.734
10758SOL    HW233174   1.272   1.706   0.845
10759SOL     OW33175   2.879   3.875   4.936
10759SOL    HW133176   2.796   3.928   4.919
10759SOL    HW233177   2.884   3.852   5.033
10760SOL     OW33178   0.951   5.077   6.963
10760SOL    HW133179   1.016   5.016   7.009
10760SOL    HW233180   0.870   5.090   0.003
10761SOL     OW33181   1.620   1.320   6.218
10761SOL    HW133182   1.682   1.341   6.142
10761SOL    HW233183   1.552   1.253   6.188
10762SOL     OW33184   1.469   6.663   0.441
10762SOL    HW133185   1.534   6.656   0.365
10762SOL    HW233186   1.381   6.697   0.407
10763SOL     OW33187   4.861   1.409   2.746
10763SOL    HW133188   4.904   1.499   2.745
10763SOL    HW233189   4.764   1.418   2.722
10764SOL     OW33190   5.118   5.926   4.923
10764SOL    HW133191   5.042   5.862   4.937
10764SOL    HW233192   5.190   5.881   4.871
10765SOL     OW33193   0.527   2.240   0.842
10765SOL    HW133194   0.455   2.306   0.822
10765SOL    HW233195   0.573   2.266   0.927
10766SOL     OW33196   2.246   5.247   6.142
10766SOL    HW133197   2.228   5.164   6.090
10766SOL    HW233198   2.281   5.318   6.081
10767SOL     OW33199   1.508   5.179   6.505
10767SOL    HW133200   1.452   5.191   6.423
10767SOL    HW233201   1.454   5.137   6.577
10768SOL     OW33202   5.597   6.201   0.100
10768SOL    HW133203   5.591   6.297   0.074
10768SOL    HW233204   5.529   6.180   0.170
10769SOL     OW33205   2.966   3.570   4.570
10769SOL    HW133206   2.950   3.580   4.471
10769SOL    HW233207   3.048   3.621   4.596
10770SOL     OW33208   5.064   0.151   3.608
10770SOL    HW133209   5.031   0.187   3.521
10770SOL    HW233210   5.093   0.056   3.596
10771SOL     OW33211   4.231   5.994   5.887
10771SOL    HW133212   4.298   6.058   5.848
10771SOL    HW233213   4.273   5.945   5.963
10772SOL     OW33214   4.889   4.443   2.648
10772SOL    HW133215   4.904   4.534   2.610
10772SOL    HW233216   4.824   4.393   2.590
10773SOL     OW33217   0.707   3.966   0.422
10773SOL    HW133218   0.776   3.894   0.434
10773SOL    HW233219   0.752   4.049   0.386
10774SOL     OW33220   0.315   3.379   0.800
10774SOL    HW133221   0.402   3.391   0.848
10774SOL    HW233222   0.311   3.287   0.760
10775SOL     OW33223   2.048   4.251   0.371
10775SOL    HW133224   1.960   4.207   0.388
10775SOL    HW233225   2.055   4.334   0.426
10776SOL     OW33226   0.752   3.412   2.898
10776SOL    HW133227   0.815   3.363   2.958
10776SOL    HW233228   0.741   3.362   2.812
10777SOL     OW33229   1.768   0.376   1.431
10777SOL    HW133230   1.846   0.322   1.401
10777SOL    HW233231   1.719   0.328   1.503
10778SOL     OW33232   4.684   0.224   3.596
10778SOL    HW133233   4.736   0.251   3.677
10778SOL    HW233234   4.619   0.296   3.572
10779SOL     OW33235   5.617   2.564   5.940
10779SOL    HW133236   5.644   2.654   5.907
10779SOL    HW233237   5.573   2.513   5.866
10780SOL     OW33238   1.613   5.175   5.190
10780SOL    HW133239   1.684   5.237   5.224
10780SOL    HW233240   1.575   5.123   5.267
10781SOL     OW33241   5.768   2.017   6.488
10781SOL    HW133242   5.697   2.076   6.527
10781SOL    HW233243   5.743   1.992   6.395
10782SOL     OW33244   0.974   3.290   5.040
10782SOL    HW133245   0.982   3.390   5.035
10782SOL    HW233246   0.927   3.257   4.958
10783SOL     OW33247   1.627   4.052   3.292
10783SOL    HW133248   1.603   4.032   3.197
10783SOL    HW233249   1.614   3.970   3.348
10784SOL     OW33250   4.731   5.269   3.934
10784SOL    HW133251   4.827   5.294   3.948
10784SOL    HW233252   4.721   5.170   3.943
10785SOL     OW33253   1.501   5.198   1.488
10785SOL    HW133254   1.427   5.160   1.432
10785SOL    HW233255   1.471   5.204   1.583
10786SOL     OW33256   5.226   1.461   2.577
10786SOL    HW133257   5.311   1.436   2.624
10786SOL    HW233258   5.213   1.400   2.499
10787SOL     OW33259   3.511   1.815   3.540
10787SOL    HW133260   3.446   1.823   3.463
10787SOL    HW233261   3.604   1.819   3.505
10788SOL     OW33262   1.561   3.517   0.132
10788SOL    HW133263   1.555   3.450   0.206
10788SOL    HW233264   1.517   3.481   0.050
10789SOL     OW33265   6.731   1.695   2.365
10789SOL    HW133266   6.633   1.698   2.343
10789SOL    HW233267   6.743   1.715   2.462
10790SOL     OW33268   6.931   1.979   5.443
10790SOL    HW133269   6.879   1.986   5.358
10790SOL    HW233270   6.964   1.885   5.454
10791SOL     OW33271   1.538   3.040   3.855
10791SOL    HW133272   1.609   3.040   3.785
10791SOL    HW233273   1.545   3.123   3.910
10792SOL     OW33274   3.336   0.765   2.195
10792SOL    HW133275   3.278   0.796   2.120
10792SOL    HW233276   3.341   0.836   2.265
10793SOL     OW33277   3.293   1.791   4.589
10793SOL    HW133278   3.280   1.768   4.685
10793SOL    HW233279   3.204   1.791   4.543
10794SOL     OW33280   4.892   3.026   6.744
10794SOL    HW133281   4.811   3.016   6.686
10794SOL    HW233282   4.875   3.096   6.813
10795SOL     OW33283   6.125   3.294   3.319
10795SOL    HW133284   6.086   3.323   3.232
10795SOL    HW233285   6.218   3.260   3.305
10796SOL     OW33286   0.416   1.515   6.037
10796SOL    HW133287   0.474   1.582   6.083
10796SOL    HW233288   0.430   1.520   5.938
10797SOL     OW33289   5.553   4.841   6.437
10797SOL    HW133290   5.602   4.928   6.438
10797SOL    HW233291   5.526   4.818   6.530
10798SOL     OW33292   1.721   6.153   0.579
10798SOL    HW133293   1.655   6.208   0.526
10798SOL    HW233294   1.730   6.191   0.671
10799SOL     OW33295   2.630   0.748   2.662
10799SOL    HW133296   2.719   0.783   2.692
10799SOL    HW233297   2.576   0.721   2.742
10800SOL     OW33298   1.868   0.285   5.010
10800SOL    HW133299   1.818   0.263   5.094
10800SOL    HW233300   1.966   0.280   5.027
10801SOL     OW33301   2.892   6.061   6.837
10801SOL    HW133302   2.820   6.103   6.781
10801SOL    HW233303   2.973   6.047   6.781
10802SOL     OW33304   0.905   4.616   4.182
10802SOL    HW133305   0.990   4.635   4.133
10802SOL    HW233306   0.831   4.602   4.116
10803SOL     OW33307   6.869   3.751   4.909
10803SOL    HW133308   6.813   3.758   4.826
10803SOL    HW233309   6.938   3.824   4.909
10804SOL     OW33310   3.997   4.429   1.087
10804SOL    HW133311   3.911   4.476   1.106
10804SOL    HW233312   4.067   4.462   1.151
10805SOL     OW33313   4.056   6.246   0.251
10805SOL    HW133314   3.962   6.228   0.224
10805SOL    HW233315   4.117   6.185   0.200
10806SOL     OW33316   5.638   3.073   6.484
10806SOL    HW133317   5.549   3.094   6.524
10806SOL    HW233318   5.685   3.158   6.460
10807SOL     OW33319   5.158   2.340   4.885
10807SOL    HW133320   5.077   2.396   4.868
10807SOL    HW233321   5.132   2.257   4.935
10808SOL     OW33322   0.749   2.065   6.638
10808SOL    HW133323   0.710   2.033   6.724
10808SOL    HW233324   0.829   2.010   6.615
10809SOL     OW33325   1.523   0.897   2.429
10809SOL    HW133326   1.544   0.927   2.522
10809SOL    HW233327   1.457   0.961   2.388
10810SOL     OW33328   1.882   1.104   5.969
10810SOL    HW133329   1.865   1.202   5.975
10810SOL    HW233330   1.962   1.087   5.913
10811SOL     OW33331   4.158   5.853   6.659
10811SOL    HW133332   4.118   5.945   6.656
10811SOL    HW233333   4.203   5.839   6.747
10812SOL     OW33334   6.378   2.943   2.916
10812SOL    HW133335   6.391   3.003   2.836
10812SOL    HW233336   6.467   2.923   2.957
10813SOL     OW33337   3.148   6.398   2.448
10813SOL    HW133338   3.140   6.415   2.546
10813SOL    HW233339   3.136   6.301   2.429
10814SOL     OW33340   1.757   6.316   4.597
10814SOL    HW133341   1.683   6.315   4.665
10814SOL    HW233342   1.737   6.250   4.525
10815SOL     OW33343   5.351   1.843   5.444
10815SOL    HW133344   5.415   1.862   5.370
10815SOL    HW233345   5.383   1.886   5.528
10816SOL     OW33346   2.195   1.824   1.707
10816SOL    HW133347   2.286   1.855   1.732
10816SOL    HW233348   2.191   1.724   1.716
10817SOL     OW33349   3.447   1.815   1.928
10817SOL    HW133350   3.456   1.912   1.907
10817SOL    HW233351   3.498   1.794   2.012
10818SOL     OW33352   4.889   3.776   6.372
10818SOL    HW133353   4.887   3.875   6.364
10818SOL    HW233354   4.816   3.736   6.316
10819SOL     OW33355   1.366   4.268   5.325
10819SOL    HW133356   1.405   4.176   5.329
10819SOL    HW233357   1.429   4.329   5.277
10820SOL     OW33358   0.878   5.887   4.718
10820SOL    HW133359   0.953   5.845   4.770
10820SOL    HW233360   0.852   5.826   4.643
10821SOL     OW33361   0.572   0.787   6.788
10821SOL    HW133362   0.631   0.860   6.822
10821SOL    HW233363   0.628   0.715   6.745
10822SOL     OW33364   0.654   4.302   6.469
10822SOL    HW133365   0.683   4.208   6.450
10822SOL    HW233366   0.621   4.345   6.385
10823SOL     OW33367   2.466   2.466   0.560
10823SOL    HW133368   2.403   2.398   0.523
10823SOL    HW233369   2.502   2.523   0.486
10824SOL     OW33370   5.449   1.062   4.216
10824SOL    HW133371   5.543   1.026   4.219
10824SOL    HW233372   5.445   1.139   4.153
10825SOL     OW33373   2.945   1.470   2.563
10825SOL    HW133374   2.848   1.494   2.570
10825SOL    HW233375   2.987   1.473   2.653
10826SOL     OW33376   6.981   3.506   1.176
10826SOL    HW133377   0.036   3.507   1.108
10826SOL    HW233378   6.952   3.412   1.193
10827SOL     OW33379   0.720   2.622   4.498
10827SOL    HW133380   0.623   2.617   4.523
10827SOL    HW233381   0.760   2.530   4.500
10828SOL     OW33382   2.563   5.032   6.925
10828SOL    HW133383   2.648   5.035   6.872
10828SOL    HW233384   2.502   5.105   6.893
10829SOL     OW33385   2.396   4.191   1.924
10829SOL    HW133386   2.321   4.148   1.875
10829SOL    HW233387   2.483   4.150   1.896
10830SOL     OW33388   6.200   0.685   3.603
10830SOL    HW133389   6.258   0.750   3.651
10830SOL    HW233390   6.239   0.665   3.513
10831SOL     OW33391   5.306   2.288   1.865
10831SOL    HW133392   5.275   2.371   1.910
10831SOL    HW233393   5.377   2.245   1.920
10832SOL     OW33394   0.651   3.229   2.670
10832SOL    HW133395   0.612   3.278   2.592
10832SOL    HW233396   0.690   3.143   2.639
10833SOL     OW33397   3.478   0.018   4.572
10833SOL    HW133398   3.460   0.111   4.541
10833SOL    HW233399   3.428   6.971   4.514
10834SOL     OW33400   0.000   1.449   5.889
10834SOL    HW133401   0.030   1.420   5.798
10834SOL    HW233402   0.080   1.459   5.948
10835SOL     OW33403   0.962   1.707   0.701
10835SOL    HW133404   0.938   1.798   0.667
10835SOL    HW233405   0.937   1.700   0.798
10836SOL     OW33406   0.791   2.800   1.183
10836SOL    HW133407   0.878   2.757   1.159
10836SOL    HW233408   0.797   2.835   1.277
10837SOL     OW33409   0.464   5.503   0.688
10837SOL    HW133410   0.534   5.510   0.618
10837SOL    HW233411   0.489   5.432   0.754
10838SOL     OW33412   6.183   6.072   0.837
10838SOL    HW133413   6.159   6.138   0.765
10838SOL    HW233414   6.106   6.063   0.900
10839SOL     OW33415   2.190   1.879   6.407
10839SOL    HW133416   2.281   1.863   6.444
10839SOL    HW233417   2.189   1.963   6.354
10840SOL     OW33418   2.133   0.214   2.360
10840SOL    HW133419   2.188   0.270   2.298
10840SOL    HW233420   2.099   0.271   2.435
10841SOL     OW33421   4.451   3.724   0.862
10841SOL    HW133422   4.428   3.746   0.957
10841SOL    HW233423   4.447   3.807   0.806
10842SOL     OW33424   6.195   2.101   1.734
10842SOL    HW133425   6.282   2.061   1.763
10842SOL    HW233426   6.125   2.082   1.803
10843SOL     OW33427   0.838   2.341   1.674
10843SOL    HW133428   0.906   2.386   1.732
10843SOL    HW233429   0.805   2.259   1.720
10844SOL     OW33430   5.334   0.288   4.237
10844SOL    HW133431   5.346   0.372   4.183
10844SOL    HW233432   5.336   0.209   4.176
10845SOL     OW33433   2.084   3.031   0.939
10845SOL    HW133434   2.142   3.113   0.933
10845SOL    HW233435   1.991   3.058   0.964
10846SOL     OW33436   3.544   2.779   1.891
10846SOL    HW133437   3.598   2.861   1.906
10846SOL    HW233438   3.604   2.704   1.864
10847SOL     OW33439   4.651   2.138   5.135
10847SOL    HW133440   4.571   2.192   5.111
10847SOL    HW233441   4.712   2.132   5.056
10848SOL     OW33442   1.497   0.910   6.836
10848SOL    HW133443   1.596   0.895   6.843
10848SOL    HW233444   1.473   0.994   6.883
10849SOL     OW33445   1.521   4.656   4.254
10849SOL    HW133446   1.581   4.622   4.326
10849SOL    HW233447   1.553   4.623   4.165
10850SOL     OW33448   5.615   0.876   2.288
10850SOL    HW133449   5.604   0.779   2.312
10850SOL    HW233450   5.655   0.883   2.196
10851SOL     OW33451   4.488   2.894   6.778
10851SOL    HW133452   4.537   2.929   6.699
10851SOL    HW233453   4.512   2.798   6.792
10852SOL     OW33454   5.926   0.583   5.993
10852SOL    HW133455   5.898   0.522   6.067
10852SOL    HW233456   5.929   0.677   6.026
10853SOL     OW33457   3.395   0.882   4.583
10853SOL    HW133458   3.406   0.801   4.526
10853SOL    HW233459   3.478   0.898   4.636
10854SOL     OW33460   6.273   6.986   0.854
10854SOL    HW133461   6.263   0.032   0.930
10854SOL    HW233462   6.361   7.001   0.809
10855SOL     OW33463   0.631   5.700   1.227
10855SOL    HW133464   0.637   5.785   1.281
10855SOL    HW233465   0.708   5.640   1.252
10856SOL     OW33466   5.572   6.503   6.859
10856SOL    HW133467   5.552   6.518   6.955
10856SOL    HW233468   5.501   6.445   6.818
10857SOL     OW33469   6.570   6.983   5.039
10857SOL    HW133470   6.479   6.941   5.031
10857SOL    HW233471   6.583   0.029   4.964
10858SOL     OW33472   2.039   2.105   0.109
10858SOL    HW133473   2.067   2.189   0.063
10858SOL    HW233474   1.945   2.082   0.083
10859SOL     OW33475   2.499   5.356   2.661
10859SOL    HW133476   2.475   5.276   2.716
10859SOL    HW233477   2.500   5.437   2.719
10860SOL     OW33478   6.093   1.987   1.360
10860SOL    HW133479   6.115   1.893   1.334
10860SOL    HW233480   6.042   1.988   1.446
10861SOL     OW33481   1.651   4.239   1.483
10861SOL    HW133482   1.747   4.262   1.500
10861SOL    HW233483   1.612   4.302   1.417
10862SOL     OW33484   3.248   4.350   5.381
10862SOL    HW133485   3.156   4.353   5.341
10862SOL    HW233486   3.241   4.341   5.480
10863SOL     OW33487   1.566   0.407   2.758
10863SOL    HW133488   1.592   0.498   2.790
10863SOL    HW233489   1.637   0.341   2.784
10864SOL     OW33490   3.000   3.757   2.170
10864SOL    HW133491   3.088   3.761   2.217
10864SOL    HW233492   2.927   3.740   2.236
10865SOL     OW33493   2.954   2.153   2.732
10865SOL    HW133494   2.940   2.109   2.820
10865SOL    HW233495   3.051   2.147   2.706
10866SOL     OW33496   1.058   3.388   4.448
10866SOL    HW133497   1.069   3.289   4.439
10866SOL    HW233498   1.078   3.414   4.543
10867SOL     OW33499   4.576   3.188   0.102
10867SOL    HW133500   4.501   3.125   0.084
10867SOL    HW233501   4.555   3.242   0.184
10868SOL     OW33502   1.015   6.892   5.171
10868SOL    HW133503   0.972   6.922   5.256
10868SOL    HW233504   1.060   6.804   5.186
10869NA      NA33505   0.193   1.054   6.472
10870NA      NA33506   4.625   4.861   5.201
10871NA      NA33507   0.859   4.884   2.942
10872NA      NA33508   5.961   3.637   3.588
10873NA      NA33509   3.914   2.602   5.438
10874NA      NA33510   2.331   4.382   6.975
10875NA      NA33511   1.374   5.550   0.291
10876NA      NA33512   4.242   5.167   2.009
10877NA      NA33513   5.257   3.526   1.423
10878NA      NA33514   3.811   1.782   0.561
10879NA      NA33515   5.509   6.562   1.472
10880NA      NA33516   2.809   6.999   4.889
10881NA      NA33517   4.219   4.980   2.662
10882NA      NA33518   3.994   4.915   6.524
   7.01833   7.01833   7.01833
