Generated by trjconv : CNT in water t= 177.00000
33518
    1C        C    1   2.845   2.772   4.747
    1C        C    2   2.899   2.720   4.866
    1C        C    3   2.838   2.769   4.982
    1C        C    4   2.845   2.771   4.260
    1C        C    5   2.900   2.724   4.382
    1C        C    6   2.847   2.771   4.504
    1C        C    7   3.013   2.640   4.626
    1C        C    8   2.896   2.719   4.626
    1C        C    9   3.079   2.607   4.747
    1C        C   10   3.015   2.639   4.868
    1C        C   11   3.183   2.490   4.975
    1C        C   12   3.063   2.563   4.975
    1C        C   13   2.851   2.773   3.775
    1C        C   14   2.899   2.720   3.897
    1C        C   15   2.846   2.770   4.018
    1C        C   16   3.014   2.640   4.140
    1C        C   17   2.899   2.721   4.140
    1C        C   18   3.080   2.611   4.261
    1C        C   19   3.019   2.648   4.383
    1C        C   20   3.209   2.556   4.505
    1C        C   21   3.078   2.607   4.505
    1C        C   22   3.280   2.536   4.626
    1C        C   23   3.208   2.548   4.747
    1C        C   24   3.414   2.476   4.863
    1C        C   25   3.273   2.503   4.865
    1C        C   26   3.489   2.486   4.981
    1C        C   27   2.849   2.771   3.285
    1C        C   28   2.904   2.726   3.407
    1C        C   29   2.850   2.769   3.530
    1C        C   30   3.019   2.643   3.650
    1C        C   31   2.903   2.723   3.653
    1C        C   32   3.077   2.605   3.774
    1C        C   33   3.015   2.639   3.896
    1C        C   34   3.209   2.555   4.019
    1C        C   35   3.077   2.605   4.018
    1C        C   36   3.279   2.536   4.140
    1C        C   37   3.213   2.562   4.262
    1C        C   38   3.418   2.509   4.383
    1C        C   39   3.280   2.540   4.384
    1C        C   40   3.491   2.504   4.504
    1C        C   41   3.420   2.515   4.626
    1C        C   42   3.633   2.491   4.750
    1C        C   43   3.491   2.485   4.744
    1C        C   44   3.710   2.490   4.868
    1C        C   45   3.628   2.484   4.982
    1C        C   46   2.836   2.750   2.793
    1C        C   47   2.895   2.715   2.917
    1C        C   48   2.842   2.761   3.039
    1C        C   49   3.015   2.640   3.163
    1C        C   50   2.899   2.721   3.162
    1C        C   51   3.078   2.604   3.284
    1C        C   52   3.019   2.645   3.406
    1C        C   53   3.211   2.554   3.528
    1C        C   54   3.081   2.609   3.528
    1C        C   55   3.278   2.536   3.652
    1C        C   56   3.209   2.556   3.774
    1C        C   57   3.417   2.515   3.895
    1C        C   58   3.277   2.535   3.896
    1C        C   59   3.488   2.509   4.017
    1C        C   60   3.418   2.511   4.139
    1C        C   61   3.630   2.506   4.261
    1C        C   62   3.489   2.504   4.261
    1C        C   63   3.703   2.511   4.382
    1C        C   64   3.632   2.505   4.504
    1C        C   65   3.836   2.550   4.624
    1C        C   66   3.700   2.512   4.627
    1C        C   67   3.909   2.564   4.744
    1C        C   68   3.844   2.534   4.866
    1C        C   69   4.056   2.587   4.982
    1C        C   70   3.924   2.541   4.981
    1C        C   71   2.823   2.736   2.308
    1C        C   72   2.883   2.691   2.428
    1C        C   73   2.834   2.743   2.550
    1C        C   74   3.009   2.627   2.674
    1C        C   75   2.889   2.700   2.672
    1C        C   76   3.073   2.595   2.796
    1C        C   77   3.012   2.636   2.917
    1C        C   78   3.206   2.551   3.039
    1C        C   79   3.076   2.606   3.040
    1C        C   80   3.275   2.528   3.160
    1C        C   81   3.208   2.547   3.282
    1C        C   82   3.415   2.506   3.403
    1C        C   83   3.276   2.533   3.405
    1C        C   84   3.484   2.504   3.526
    1C        C   85   3.417   2.511   3.650
    1C        C   86   3.628   2.504   3.769
    1C        C   87   3.487   2.505   3.772
    1C        C   88   3.698   2.509   3.892
    1C        C   89   3.629   2.504   4.016
    1C        C   90   3.836   2.551   4.137
    1C        C   91   3.699   2.517   4.138
    1C        C   92   3.901   2.581   4.259
    1C        C   93   3.837   2.555   4.382
    1C        C   94   4.032   2.639   4.500
    1C        C   95   3.906   2.575   4.504
    1C        C   96   4.095   2.674   4.622
    1C        C   97   4.038   2.625   4.742
    1C        C   98   4.195   2.763   4.867
    1C        C   99   4.103   2.654   4.864
    1C        C  100   4.214   2.845   4.979
    1C        C  101   2.819   2.731   2.068
    1C        C  102   2.990   2.597   2.192
    1C        C  103   2.876   2.683   2.187
    1C        C  104   3.065   2.575   2.311
    1C        C  105   3.004   2.618   2.431
    1C        C  106   3.203   2.540   2.552
    1C        C  107   3.071   2.592   2.552
    1C        C  108   3.272   2.523   2.674
    1C        C  109   3.205   2.546   2.796
    1C        C  110   3.414   2.508   2.915
    1C        C  111   3.274   2.527   2.918
    1C        C  112   3.486   2.503   3.037
    1C        C  113   3.415   2.509   3.159
    1C        C  114   3.628   2.512   3.282
    1C        C  115   3.487   2.503   3.281
    1C        C  116   3.696   2.520   3.405
    1C        C  117   3.625   2.509   3.527
    1C        C  118   3.837   2.544   3.649
    1C        C  119   3.698   2.517   3.647
    1C        C  120   3.901   2.574   3.772
    1C        C  121   3.835   2.544   3.893
    1C        C  122   4.026   2.641   4.015
    1C        C  123   3.902   2.573   4.014
    1C        C  124   4.086   2.682   4.136
    1C        C  125   4.029   2.642   4.258
    1C        C  126   4.197   2.773   4.382
    1C        C  127   4.094   2.676   4.379
    1C        C  128   4.251   2.822   4.503
    1C        C  129   4.203   2.765   4.623
    1C        C  130   4.332   2.932   4.742
    1C        C  131   4.249   2.816   4.746
    1C        C  132   4.365   3.000   4.862
    1C        C  133   4.291   2.960   4.974
    1C        C  134   3.172   2.472   2.084
    1C        C  135   3.039   2.515   2.085
    1C        C  136   3.262   2.482   2.191
    1C        C  137   3.198   2.525   2.309
    1C        C  138   3.407   2.485   2.428
    1C        C  139   3.270   2.517   2.430
    1C        C  140   3.482   2.485   2.548
    1C        C  141   3.412   2.502   2.670
    1C        C  142   3.623   2.498   2.795
    1C        C  143   3.482   2.495   2.792
    1C        C  144   3.696   2.509   2.916
    1C        C  145   3.627   2.501   3.038
    1C        C  146   3.837   2.542   3.158
    1C        C  147   3.699   2.511   3.160
    1C        C  148   3.904   2.566   3.280
    1C        C  149   3.834   2.551   3.402
    1C        C  150   4.026   2.633   3.526
    1C        C  151   3.900   2.568   3.525
    1C        C  152   4.085   2.674   3.647
    1C        C  153   4.024   2.643   3.771
    1C        C  154   4.199   2.762   3.892
    1C        C  155   4.084   2.681   3.893
    1C        C  156   4.254   2.810   4.013
    1C        C  157   4.201   2.764   4.136
    1C        C  158   4.340   2.925   4.256
    1C        C  159   4.251   2.815   4.258
    1C        C  160   4.384   2.985   4.376
    1C        C  161   4.341   2.930   4.499
    1C        C  162   4.445   3.114   4.617
    1C        C  163   4.375   2.991   4.622
    1C        C  164   4.470   3.182   4.738
    1C        C  165   4.440   3.119   4.861
    1C        C  166   4.524   3.317   4.974
    1C        C  167   4.485   3.183   4.978
    1C        C  168   3.480   2.432   2.074
    1C        C  169   3.402   2.460   2.187
    1C        C  170   3.619   2.469   2.312
    1C        C  171   3.477   2.467   2.307
    1C        C  172   3.695   2.490   2.429
    1C        C  173   3.623   2.496   2.550
    1C        C  174   3.829   2.546   2.669
    1C        C  175   3.691   2.512   2.672
    1C        C  176   3.899   2.561   2.791
    1C        C  177   3.835   2.538   2.914
    1C        C  178   4.030   2.626   3.034
    1C        C  179   3.901   2.569   3.035
    1C        C  180   4.089   2.664   3.157
    1C        C  181   4.030   2.630   3.281
    1C        C  182   4.202   2.753   3.402
    1C        C  183   4.088   2.668   3.404
    1C        C  184   4.249   2.809   3.523
    1C        C  185   4.197   2.761   3.645
    1C        C  186   4.342   2.914   3.769
    1C        C  187   4.250   2.806   3.768
    1C        C  188   4.385   2.975   3.889
    1C        C  189   4.342   2.920   4.012
    1C        C  190   4.444   3.109   4.131
    1C        C  191   4.377   2.984   4.133
    1C        C  192   4.480   3.172   4.252
    1C        C  193   4.452   3.109   4.375
    1C        C  194   4.513   3.316   4.494
    1C        C  195   4.476   3.179   4.495
    1C        C  196   4.526   3.387   4.615
    1C        C  197   4.513   3.318   4.737
    1C        C  198   4.553   3.534   4.853
    1C        C  199   4.539   3.391   4.856
    1C        C  200   4.584   3.622   4.961
    1C        C  201   3.619   2.421   2.077
    1C        C  202   3.830   2.506   2.187
    1C        C  203   3.694   2.463   2.191
    1C        C  204   3.903   2.540   2.305
    1C        C  205   3.831   2.528   2.426
    1C        C  206   4.022   2.626   2.545
    1C        C  207   3.896   2.563   2.546
    1C        C  208   4.086   2.662   2.666
    1C        C  209   4.023   2.629   2.788
    1C        C  210   4.204   2.743   2.908
    1C        C  211   4.087   2.663   2.910
    1C        C  212   4.252   2.793   3.032
    1C        C  213   4.200   2.751   3.156
    1C        C  214   4.338   2.912   3.275
    1C        C  215   4.252   2.799   3.278
    1C        C  216   4.374   2.972   3.397
    1C        C  217   4.336   2.920   3.522
    1C        C  218   4.437   3.102   3.640
    1C        C  219   4.378   2.974   3.646
    1C        C  220   4.464   3.168   3.762
    1C        C  221   4.445   3.103   3.886
    1C        C  222   4.503   3.308   4.006
    1C        C  223   4.470   3.171   4.007
    1C        C  224   4.517   3.378   4.128
    1C        C  225   4.516   3.308   4.250
    1C        C  226   4.524   3.524   4.371
    1C        C  227   4.523   3.383   4.370
    1C        C  228   4.521   3.597   4.492
    1C        C  229   4.531   3.528   4.614
    1C        C  230   4.496   3.743   4.730
    1C        C  231   4.535   3.607   4.732
    1C        C  232   4.492   3.818   4.849
    1C        C  233   4.541   3.755   4.964
    1C        C  234   4.022   2.609   2.065
    1C        C  235   3.900   2.543   2.071
    1C        C  236   4.086   2.651   2.182
    1C        C  237   4.027   2.610   2.303
    1C        C  238   4.201   2.740   2.421
    1C        C  239   4.088   2.654   2.423
    1C        C  240   4.261   2.781   2.543
    1C        C  241   4.204   2.740   2.665
    1C        C  242   4.346   2.899   2.786
    1C        C  243   4.258   2.788   2.786
    1C        C  244   4.384   2.960   2.908
    1C        C  245   4.343   2.900   3.029
    1C        C  246   4.439   3.092   3.148
    1C        C  247   4.381   2.963   3.150
    1C        C  248   4.464   3.159   3.270
    1C        C  249   4.439   3.098   3.395
    1C        C  250   4.503   3.301   3.513
    1C        C  251   4.461   3.166   3.516
    1C        C  252   4.513   3.370   3.636
    1C        C  253   4.503   3.304   3.761
    1C        C  254   4.529   3.515   3.881
    1C        C  255   4.522   3.374   3.882
    1C        C  256   4.517   3.588   4.001
    1C        C  257   4.517   3.520   4.125
    1C        C  258   4.485   3.729   4.241
    1C        C  259   4.514   3.591   4.247
    1C        C  260   4.462   3.799   4.361
    1C        C  261   4.485   3.734   4.485
    1C        C  262   4.415   3.936   4.606
    1C        C  263   4.468   3.805   4.606
    1C        C  264   4.393   4.008   4.725
    1C        C  265   4.430   3.945   4.846
    1C        C  266   4.320   4.135   4.961
    1C        C  267   4.396   4.018   4.961
    1C        C  268   4.270   2.770   2.062
    1C        C  269   4.203   2.731   2.179
    1C        C  270   4.348   2.893   2.298
    1C        C  271   4.255   2.785   2.299
    1C        C  272   4.387   2.949   2.421
    1C        C  273   4.351   2.889   2.544
    1C        C  274   4.452   3.081   2.660
    1C        C  275   4.389   2.955   2.663
    1C        C  276   4.475   3.150   2.781
    1C        C  277   4.448   3.086   2.904
    1C        C  278   4.507   3.291   3.023
    1C        C  279   4.474   3.153   3.026
    1C        C  280   4.514   3.362   3.145
    1C        C  281   4.498   3.296   3.269
    1C        C  282   4.518   3.508   3.391
    1C        C  283   4.518   3.367   3.389
    1C        C  284   4.515   3.579   3.513
    1C        C  285   4.514   3.512   3.637
    1C        C  286   4.487   3.722   3.751
    1C        C  287   4.516   3.584   3.758
    1C        C  288   4.472   3.792   3.873
    1C        C  289   4.490   3.727   3.996
    1C        C  290   4.419   3.929   4.118
    1C        C  291   4.470   3.797   4.117
    1C        C  292   4.391   3.996   4.239
    1C        C  293   4.412   3.931   4.362
    1C        C  294   4.322   4.124   4.481
    1C        C  295   4.384   3.998   4.483
    1C        C  296   4.283   4.188   4.601
    1C        C  297   4.327   4.135   4.723
    1C        C  298   4.200   4.315   4.841
    1C        C  299   4.285   4.200   4.842
    1C        C  300   4.174   4.406   4.949
    1C        C  301   4.357   2.879   2.060
    1C        C  302   4.471   3.069   2.175
    1C        C  303   4.400   2.945   2.176
    1C        C  304   4.485   3.141   2.297
    1C        C  305   4.452   3.075   2.417
    1C        C  306   4.510   3.283   2.538
    1C        C  307   4.478   3.145   2.537
    1C        C  308   4.514   3.358   2.657
    1C        C  309   4.505   3.288   2.780
    1C        C  310   4.526   3.501   2.902
    1C        C  311   4.516   3.360   2.901
    1C        C  312   4.521   3.574   3.022
    1C        C  313   4.522   3.503   3.144
    1C        C  314   4.485   3.712   3.263
    1C        C  315   4.516   3.575   3.266
    1C        C  316   4.464   3.783   3.384
    1C        C  317   4.484   3.717   3.507
    1C        C  318   4.422   3.923   3.627
    1C        C  319   4.468   3.789   3.628
    1C        C  320   4.393   3.987   3.749
    1C        C  321   4.419   3.923   3.873
    1C        C  322   4.318   4.112   3.993
    1C        C  323   4.391   3.991   3.994
    1C        C  324   4.274   4.170   4.114
    1C        C  325   4.323   4.120   4.236
    1C        C  326   4.188   4.285   4.356
    1C        C  327   4.285   4.183   4.357
    1C        C  328   4.137   4.341   4.476
    1C        C  329   4.192   4.297   4.598
    1C        C  330   4.025   4.436   4.714
    1C        C  331   4.142   4.354   4.717
    1C        C  332   3.972   4.489   4.833
    1C        C  333   4.056   4.481   4.945
    1C        C  334   4.550   3.269   2.061
    1C        C  335   4.532   3.130   2.061
    1C        C  336   4.541   3.349   2.176
    1C        C  337   4.521   3.278   2.296
    1C        C  338   4.524   3.494   2.413
    1C        C  339   4.524   3.353   2.416
    1C        C  340   4.523   3.567   2.534
    1C        C  341   4.523   3.499   2.657
    1C        C  342   4.491   3.708   2.774
    1C        C  343   4.526   3.571   2.779
    1C        C  344   4.472   3.780   2.895
    1C        C  345   4.495   3.713   3.017
    1C        C  346   4.423   3.912   3.138
    1C        C  347   4.471   3.779   3.140
    1C        C  348   4.391   3.978   3.259
    1C        C  349   4.422   3.918   3.383
    1C        C  350   4.317   4.104   3.505
    1C        C  351   4.394   3.986   3.503
    1C        C  352   4.272   4.160   3.627
    1C        C  353   4.316   4.105   3.750
    1C        C  354   4.178   4.269   3.870
    1C        C  355   4.277   4.168   3.870
    1C        C  356   4.124   4.318   3.991
    1C        C  357   4.174   4.270   4.114
    1C        C  358   4.012   4.408   4.232
    1C        C  359   4.127   4.325   4.235
    1C        C  360   3.954   4.453   4.352
    1C        C  361   4.021   4.421   4.473
    1C        C  362   3.830   4.522   4.595
    1C        C  363   3.959   4.463   4.593
    1C        C  364   3.764   4.545   4.717
    1C        C  365   3.840   4.541   4.836
    1C        C  366   3.632   4.596   4.947
    1C        C  367   3.770   4.577   4.952
    1C        C  368   4.508   3.565   2.058
    1C        C  369   4.531   3.490   2.174
    1C        C  370   4.495   3.706   2.293
    1C        C  371   4.519   3.566   2.292
    1C        C  372   4.479   3.779   2.412
    1C        C  373   4.496   3.706   2.532
    1C        C  374   4.427   3.910   2.650
    1C        C  375   4.476   3.777   2.652
    1C        C  376   4.394   3.976   2.770
    1C        C  377   4.426   3.913   2.893
    1C        C  378   4.317   4.094   3.015
    1C        C  379   4.395   3.976   3.015
    1C        C  380   4.270   4.149   3.137
    1C        C  381   4.312   4.095   3.261
    1C        C  382   4.176   4.260   3.378
    1C        C  383   4.269   4.154   3.382
    1C        C  384   4.126   4.311   3.500
    1C        C  385   4.179   4.266   3.623
    1C        C  386   4.014   4.398   3.743
    1C        C  387   4.127   4.314   3.746
    1C        C  388   3.950   4.436   3.864
    1C        C  389   4.011   4.402   3.987
    1C        C  390   3.821   4.496   4.109
    1C        C  391   3.951   4.440   4.109
    1C        C  392   3.754   4.522   4.231
    1C        C  393   3.823   4.505   4.353
    1C        C  394   3.618   4.559   4.474
    1C        C  395   3.758   4.536   4.474
    1C        C  396   3.548   4.568   4.597
    1C        C  397   3.624   4.563   4.715
    1C        C  398   3.412   4.550   4.842
    1C        C  399   3.551   4.573   4.835
    1C        C  400   3.345   4.518   4.961
    1C        C  401   4.500   3.704   2.057
    1C        C  402   4.447   3.916   2.166
    1C        C  403   4.488   3.781   2.173
    1C        C  404   4.404   3.976   2.286
    1C        C  405   4.434   3.913   2.409
    1C        C  406   4.322   4.096   2.526
    1C        C  407   4.401   3.979   2.529
    1C        C  408   4.280   4.152   2.649
    1C        C  409   4.319   4.096   2.772
    1C        C  410   4.175   4.253   2.890
    1C        C  411   4.272   4.150   2.894
    1C        C  412   4.124   4.302   3.012
    1C        C  413   4.175   4.253   3.134
    1C        C  414   4.005   4.382   3.254
    1C        C  415   4.123   4.305   3.255
    1C        C  416   3.944   4.414   3.377
    1C        C  417   4.008   4.388   3.501
    1C        C  418   3.818   4.480   3.619
    1C        C  419   3.951   4.434   3.622
    1C        C  420   3.749   4.503   3.741
    1C        C  421   3.818   4.488   3.863
    1C        C  422   3.616   4.543   3.987
    1C        C  423   3.754   4.514   3.986
    1C        C  424   3.545   4.545   4.109
    1C        C  425   3.615   4.544   4.232
    1C        C  426   3.403   4.553   4.357
    1C        C  427   3.544   4.559   4.354
    1C        C  428   3.334   4.545   4.480
    1C        C  429   3.407   4.558   4.600
    1C        C  430   3.197   4.521   4.722
    1C        C  431   3.337   4.545   4.722
    1C        C  432   3.130   4.493   4.844
    1C        C  433   3.207   4.498   4.961
    1C        C  434   4.388   4.129   2.053
    1C        C  435   4.442   4.000   2.054
    1C        C  436   4.304   4.167   2.163
    1C        C  437   4.332   4.099   2.285
    1C        C  438   4.180   4.253   2.401
    1C        C  439   4.278   4.151   2.404
    1C        C  440   4.128   4.301   2.523
    1C        C  441   4.178   4.250   2.645
    1C        C  442   4.010   4.382   2.767
    1C        C  443   4.124   4.299   2.767
    1C        C  444   3.947   4.420   2.887
    1C        C  445   4.009   4.384   3.010
    1C        C  446   3.815   4.474   3.133
    1C        C  447   3.946   4.419   3.131
    1C        C  448   3.748   4.495   3.255
    1C        C  449   3.815   4.472   3.377
    1C        C  450   3.611   4.532   3.498
    1C        C  451   3.749   4.504   3.498
    1C        C  452   3.541   4.542   3.620
    1C        C  453   3.612   4.539   3.743
    1C        C  454   3.404   4.547   3.864
    1C        C  455   3.545   4.556   3.866
    1C        C  456   3.336   4.533   3.987
    1C        C  457   3.404   4.538   4.111
    1C        C  458   3.199   4.499   4.237
    1C        C  459   3.336   4.535   4.235
    1C        C  460   3.132   4.481   4.360
    1C        C  461   3.196   4.515   4.482
    1C        C  462   3.000   4.433   4.605
    1C        C  463   3.125   4.498   4.603
    1C        C  464   2.933   4.402   4.726
    1C        C  465   2.995   4.446   4.846
    1C        C  466   2.807   4.338   4.959
    1C        C  467   2.909   4.434   4.960
    1C        C  468   4.124   4.295   2.045
    1C        C  469   4.190   4.253   2.162
    1C        C  470   4.005   4.375   2.279
    1C        C  471   4.128   4.303   2.280
    1C        C  472   3.944   4.410   2.402
    1C        C  473   4.007   4.373   2.523
    1C        C  474   3.815   4.463   2.644
    1C        C  475   3.947   4.412   2.645
    1C        C  476   3.748   4.492   2.765
    1C        C  477   3.818   4.479   2.887
    1C        C  478   3.611   4.522   3.013
    1C        C  479   3.749   4.495   3.009
    1C        C  480   3.539   4.529   3.134
    1C        C  481   3.610   4.524   3.256
    1C        C  482   3.397   4.543   3.378
    1C        C  483   3.538   4.539   3.377
    1C        C  484   3.326   4.537   3.500
    1C        C  485   3.400   4.543   3.620
    1C        C  486   3.196   4.498   3.747
    1C        C  487   3.331   4.538   3.743
    1C        C  488   3.132   4.475   3.871
    1C        C  489   3.199   4.498   3.993
    1C        C  490   3.007   4.408   4.117
    1C        C  491   3.132   4.473   4.116
    1C        C  492   2.948   4.376   4.241
    1C        C  493   3.006   4.416   4.363
    1C        C  494   2.829   4.301   4.483
    1C        C  495   2.942   4.385   4.485
    1C        C  496   2.774   4.256   4.605
    1C        C  497   2.822   4.313   4.725
    1C        C  498   2.667   4.165   4.845
    1C        C  499   2.761   4.271   4.845
    1C        C  500   2.604   4.115   4.959
    1C        C  501   4.002   4.361   2.040
    1C        C  502   3.817   4.474   2.159
    1C        C  503   3.941   4.407   2.158
    1C        C  504   3.747   4.491   2.280
    1C        C  505   3.812   4.461   2.401
    1C        C  506   3.607   4.514   2.522
    1C        C  507   3.745   4.484   2.524
    1C        C  508   3.538   4.519   2.645
    1C        C  509   3.609   4.514   2.767
    1C        C  510   3.399   4.522   2.889
    1C        C  511   3.540   4.528   2.890
    1C        C  512   3.327   4.526   3.011
    1C        C  513   3.398   4.534   3.133
    1C        C  514   3.192   4.489   3.255
    1C        C  515   3.328   4.529   3.255
    1C        C  516   3.128   4.464   3.379
    1C        C  517   3.191   4.496   3.501
    1C        C  518   3.002   4.410   3.625
    1C        C  519   3.127   4.475   3.626
    1C        C  520   2.945   4.373   3.749
    1C        C  521   3.008   4.408   3.871
    1C        C  522   2.841   4.280   3.998
    1C        C  523   2.950   4.369   3.994
    1C        C  524   2.786   4.235   4.120
    1C        C  525   2.840   4.284   4.241
    1C        C  526   2.692   4.134   4.367
    1C        C  527   2.780   4.245   4.363
    1C        C  528   2.650   4.076   4.488
    1C        C  529   2.692   4.141   4.607
    1C        C  530   2.586   3.958   4.732
    1C        C  531   2.643   4.089   4.729
    1C        C  532   2.544   3.901   4.854
    1C        C  533   2.531   3.996   4.960
    1C        C  534   3.617   4.552   2.037
    1C        C  535   3.753   4.517   2.042
    1C        C  536   3.538   4.536   2.155
    1C        C  537   3.607   4.520   2.278
    1C        C  538   3.395   4.520   2.401
    1C        C  539   3.536   4.522   2.400
    1C        C  540   3.325   4.513   2.523
    1C        C  541   3.397   4.516   2.645
    1C        C  542   3.189   4.481   2.766
    1C        C  543   3.328   4.508   2.768
    1C        C  544   3.123   4.466   2.890
    1C        C  545   3.190   4.490   3.012
    1C        C  546   2.999   4.400   3.136
    1C        C  547   3.123   4.466   3.134
    1C        C  548   2.943   4.359   3.260
    1C        C  549   3.001   4.403   3.381
    1C        C  550   2.832   4.279   3.507
    1C        C  551   2.941   4.369   3.504
    1C        C  552   2.782   4.232   3.631
    1C        C  553   2.835   4.284   3.751
    1C        C  554   2.702   4.124   3.879
    1C        C  555   2.789   4.235   3.875
    1C        C  556   2.661   4.062   4.000
    1C        C  557   2.698   4.125   4.121
    1C        C  558   2.594   3.945   4.249
    1C        C  559   2.658   4.071   4.245
    1C        C  560   2.564   3.879   4.370
    1C        C  561   2.587   3.950   4.490
    1C        C  562   2.532   3.747   4.617
    1C        C  563   2.565   3.884   4.614
    1C        C  564   2.519   3.680   4.741
    1C        C  565   2.513   3.761   4.858
    1C        C  566   2.537   3.546   4.979
    1C        C  567   2.523   3.684   4.975
    1C        C  568   3.329   4.473   2.041
    1C        C  569   3.398   4.512   2.157
    1C        C  570   3.186   4.479   2.282
    1C        C  571   3.324   4.513   2.278
    1C        C  572   3.116   4.459   2.403
    1C        C  573   3.188   4.480   2.523
    1C        C  574   2.991   4.400   2.648
    1C        C  575   3.120   4.457   2.645
    1C        C  576   2.934   4.362   2.771
    1C        C  577   2.999   4.399   2.891
    1C        C  578   2.831   4.272   3.018
    1C        C  579   2.939   4.362   3.014
    1C        C  580   2.779   4.221   3.140
    1C        C  581   2.833   4.270   3.261
    1C        C  582   2.696   4.114   3.386
    1C        C  583   2.784   4.225   3.385
    1C        C  584   2.657   4.060   3.511
    1C        C  585   2.696   4.120   3.633
    1C        C  586   2.597   3.939   3.755
    1C        C  587   2.659   4.066   3.758
    1C        C  588   2.569   3.876   3.879
    1C        C  589   2.592   3.938   4.003
    1C        C  590   2.530   3.741   4.129
    1C        C  591   2.569   3.877   4.128
    1C        C  592   2.519   3.672   4.252
    1C        C  593   2.525   3.743   4.374
    1C        C  594   2.509   3.534   4.499
    1C        C  595   2.514   3.675   4.497
    1C        C  596   2.515   3.464   4.621
    1C        C  597   2.519   3.538   4.741
    1C        C  598   2.534   3.326   4.865
    1C        C  599   2.531   3.467   4.863
    1C        C  600   2.530   3.248   4.982
    1C        C  601   3.194   4.446   2.043
    1C        C  602   2.985   4.397   2.161
    1C        C  603   3.120   4.444   2.162
    1C        C  604   2.923   4.363   2.285
    1C        C  605   2.988   4.399   2.405
    1C        C  606   2.817   4.275   2.529
    1C        C  607   2.928   4.363   2.527
    1C        C  608   2.774   4.223   2.653
    1C        C  609   2.827   4.271   2.775
    1C        C  610   2.690   4.109   2.895
    1C        C  611   2.779   4.219   2.897
    1C        C  612   2.649   4.055   3.019
    1C        C  613   2.687   4.115   3.141
    1C        C  614   2.586   3.930   3.269
    1C        C  615   2.654   4.054   3.265
    1C        C  616   2.565   3.867   3.393
    1C        C  617   2.595   3.933   3.514
    1C        C  618   2.529   3.733   3.639
    1C        C  619   2.568   3.869   3.636
    1C        C  620   2.519   3.665   3.762
    1C        C  621   2.533   3.739   3.882
    1C        C  622   2.510   3.531   4.007
    1C        C  623   2.520   3.672   4.006
    1C        C  624   2.516   3.461   4.130
    1C        C  625   2.517   3.531   4.253
    1C        C  626   2.538   3.324   4.379
    1C        C  627   2.512   3.463   4.376
    1C        C  628   2.562   3.257   4.501
    1C        C  629   2.536   3.324   4.622
    1C        C  630   2.601   3.121   4.745
    1C        C  631   2.555   3.256   4.745
    1C        C  632   2.624   3.054   4.869
    1C        C  633   2.563   3.112   4.984
    1C        C  634   2.786   4.305   2.058
    1C        C  635   2.894   4.394   2.051
    1C        C  636   2.743   4.233   2.170
    1C        C  637   2.807   4.280   2.287
    1C        C  638   2.681   4.110   2.412
    1C        C  639   2.763   4.225   2.409
    1C        C  640   2.643   4.050   2.534
    1C        C  641   2.687   4.111   2.653
    1C        C  642   2.589   3.922   2.780
    1C        C  643   2.645   4.052   2.774
    1C        C  644   2.568   3.857   2.904
    1C        C  645   2.590   3.927   3.024
    1C        C  646   2.531   3.725   3.149
    1C        C  647   2.562   3.862   3.147
    1C        C  648   2.523   3.656   3.273
    1C        C  649   2.535   3.728   3.394
    1C        C  650   2.512   3.521   3.518
    1C        C  651   2.517   3.662   3.517
    1C        C  652   2.518   3.454   3.643
    1C        C  653   2.514   3.524   3.766
    1C        C  654   2.538   3.315   3.891
    1C        C  655   2.514   3.454   3.888
    1C        C  656   2.552   3.249   4.015
    1C        C  657   2.539   3.322   4.135
    1C        C  658   2.610   3.124   4.259
    1C        C  659   2.553   3.253   4.258
    1C        C  660   2.638   3.058   4.381
    1C        C  661   2.608   3.123   4.503
    1C        C  662   2.710   2.937   4.625
    1C        C  663   2.634   3.056   4.625
    1C        C  664   2.753   2.880   4.747
    1C        C  665   2.698   2.931   4.868
    1C        C  666   2.744   2.871   4.986
    1C        C  667   2.670   4.030   2.052
    1C        C  668   2.684   4.105   2.169
    1C        C  669   2.592   3.914   2.293
    1C        C  670   2.646   4.046   2.291
    1C        C  671   2.562   3.851   2.416
    1C        C  672   2.581   3.923   2.536
    1C        C  673   2.520   3.720   2.661
    1C        C  674   2.556   3.857   2.659
    1C        C  675   2.508   3.652   2.784
    1C        C  676   2.526   3.722   2.905
    1C        C  677   2.504   3.513   3.031
    1C        C  678   2.513   3.654   3.028
    1C        C  679   2.510   3.442   3.154
    1C        C  680   2.512   3.515   3.274
    1C        C  681   2.537   3.307   3.400
    1C        C  682   2.516   3.447   3.398
    1C        C  683   2.551   3.241   3.524
    1C        C  684   2.538   3.314   3.644
    1C        C  685   2.604   3.115   3.771
    1C        C  686   2.561   3.249   3.768
    1C        C  687   2.637   3.054   3.894
    1C        C  688   2.607   3.118   4.017
    1C        C  689   2.715   2.936   4.138
    1C        C  690   2.641   3.056   4.139
    1C        C  691   2.752   2.878   4.262
    1C        C  692   2.712   2.938   4.383
    1C        C  693   2.757   2.880   4.504
    1C        C  694   2.628   3.896   2.058
    1C        C  695   2.530   3.705   2.178
    1C        C  696   2.581   3.837   2.176
    1C        C  697   2.509   3.639   2.301
    1C        C  698   2.528   3.714   2.419
    1C        C  699   2.497   3.506   2.543
    1C        C  700   2.505   3.647   2.541
    1C        C  701   2.507   3.438   2.666
    1C        C  702   2.505   3.511   2.787
    1C        C  703   2.531   3.302   2.910
    1C        C  704   2.512   3.442   2.910
    1C        C  705   2.544   3.232   3.033
    1C        C  706   2.533   3.303   3.155
    1C        C  707   2.593   3.102   3.280
    1C        C  708   2.551   3.237   3.278
    1C        C  709   2.632   3.044   3.403
    1C        C  710   2.605   3.110   3.525
    1C        C  711   2.705   2.928   3.651
    1C        C  712   2.630   3.048   3.649
    1C        C  713   2.755   2.876   3.772
    1C        C  714   2.717   2.938   3.894
    1C        C  715   2.758   2.880   4.016
    1C        C  716   2.451   3.501   2.064
    1C        C  717   2.487   3.636   2.064
    1C        C  718   2.465   3.423   2.183
    1C        C  719   2.487   3.498   2.302
    1C        C  720   2.520   3.291   2.427
    1C        C  721   2.489   3.429   2.425
    1C        C  722   2.547   3.224   2.548
    1C        C  723   2.529   3.298   2.667
    1C        C  724   2.592   3.096   2.790
    1C        C  725   2.545   3.230   2.789
    1C        C  726   2.625   3.036   2.913
    1C        C  727   2.598   3.102   3.035
    1C        C  728   2.707   2.923   3.159
    1C        C  729   2.625   3.038   3.158
    1C        C  730   2.751   2.872   3.283
    1C        C  731   2.713   2.929   3.407
    1C        C  732   2.752   2.871   3.530
    1C        C  733   2.488   3.199   2.073
    1C        C  734   2.486   3.281   2.186
    1C        C  735   2.572   3.083   2.303
    1C        C  736   2.524   3.217   2.307
    1C        C  737   2.621   3.025   2.423
    1C        C  738   2.596   3.092   2.545
    1C        C  739   2.701   2.913   2.670
    1C        C  740   2.622   3.030   2.669
    1C        C  741   2.742   2.856   2.792
    1C        C  742   2.700   2.916   2.913
    1C        C  743   2.746   2.865   3.037
    1C        C  744   2.542   3.071   2.073
    1C        C  745   2.683   2.897   2.184
    1C        C  746   2.600   3.011   2.185
    1C        C  747   2.730   2.844   2.306
    1C        C  748   2.690   2.902   2.428
    1C        C  749   2.741   2.850   2.550
    1C        C  750   2.734   2.842   2.066
    1C        C  751   3.656   2.306   1.991
    1C        O  752   3.667   2.186   2.030
    1C        O  753   3.696   2.317   1.858
    1C        C  754   4.616   3.059   1.961
    1C        O  755   4.559   3.043   1.849
    1C        O  756   4.746   3.012   1.978
    1C        C  757   4.456   4.231   1.970
    1C        O  758   4.548   4.298   2.024
    1C        O  759   4.498   4.203   1.840
    1C        C  760   3.594   4.676   1.959
    1C        O  761   3.610   4.787   2.016
    1C        O  762   3.587   4.672   1.819
    1C        C  763   2.855   4.524   1.991
    1C        O  764   2.881   4.547   1.870
    1C        O  765   2.850   4.641   2.068
    1C        C  766   2.337   3.465   1.977
    1C        O  767   2.365   3.415   1.864
    1C        O  768   2.204   3.508   1.989
    1C        C  769   4.689   3.585   5.059
    1C        O  770   4.649   3.584   5.178
    1C        O  771   4.823   3.623   5.049
    1C        C  772   4.287   4.456   5.030
    1C        O  773   4.269   4.477   5.153
    1C        O  774   4.377   4.550   4.980
    1C        C  775   4.146   2.492   5.052
    1C        O  776   4.216   2.416   4.980
    1C        O  777   4.192   2.522   5.181
    1C        C  778   2.868   4.558   5.030
    1C        O  779   2.775   4.634   4.993
    1C        O  780   2.882   4.568   5.169
    1C        C  781   2.466   3.038   5.068
    1C        O  782   2.376   2.961   5.023
    1C        O  783   2.426   3.081   5.194
    1C        C  784   2.393   4.017   5.012
    1C        O  785   2.301   4.073   4.947
    1C        O  786   2.341   3.953   5.124
    1C        C  787   2.941   2.422   2.023
    1C        O  788   2.919   2.423   1.899
    1C        O  789   2.911   2.299   2.081
    1C        C  790   3.188   2.370   5.062
    1C        O  791   3.115   2.271   5.036
    1C        O  792   3.224   2.395   5.195
    1C        H  793   4.252   3.044   5.027
    1C        H  794   4.195   2.805   5.077
    1C        H  795   4.451   3.147   5.072
    1C        H  796   4.579   3.349   5.060
    1C        H  797   4.544   3.801   5.061
    1C        H  798   4.422   3.974   5.055
    1C        H  799   4.279   4.166   5.055
    1C        H  800   4.044   4.552   5.024
    1C        H  801   3.826   4.622   5.031
    1C        H  802   3.585   4.617   5.041
    1C        H  803   3.388   4.539   5.057
    1C        H  804   3.166   4.460   5.052
    1C        H  805   3.878   2.523   5.076
    1C        H  806   3.670   2.472   5.079
    1C        H  807   3.025   2.586   5.073
    1C        H  808   3.441   2.448   5.068
    1C        H  809   2.829   2.699   5.063
    1C        H  810   2.672   2.864   5.065
    1C        H  811   2.467   3.287   5.059
    1C        H  812   2.549   3.500   5.075
    1C        H  813   2.524   3.740   5.066
    1C        H  814   2.588   4.185   5.039
    1C        H  815   2.788   4.294   5.055
    1C        H  816   2.736   2.895   1.973
    1C        H  817   2.845   2.690   1.973
    1C        H  818   3.200   2.425   1.992
    1C        H  819   3.432   2.466   1.985
    1C        H  820   3.846   2.536   1.979
    1C        H  821   4.085   2.594   1.980
    1C        H  822   4.290   2.692   1.992
    1C        H  823   4.391   2.901   1.961
    1C        H  824   4.553   3.318   1.966
    1C        H  825   4.459   3.514   1.977
    1C        H  826   4.516   3.759   1.966
    1C        H  827   3.808   4.534   1.951
    1C        H  828   3.968   4.388   1.942
    1C        H  829   4.157   4.259   1.950
    1C        H  830   4.504   3.975   1.970
    1C        H  831   2.599   3.863   1.960
    1C        H  832   2.658   4.075   1.955
    1C        H  833   2.709   4.310   1.985
    1C        H  834   3.371   4.496   1.945
    1C        H  835   3.139   4.463   1.952
    1C        H  836   2.504   3.011   1.992
    1C        H  837   2.490   3.247   1.977
    1C        H  838   2.522   3.675   1.971
    2V3OU   H29  839   2.797   3.557   1.771
    2V3OU   C27  840   2.781   3.506   1.869
    2V3OU   H27  841   2.722   3.573   1.937
    2V3OU   H28  842   2.727   3.409   1.856
    2V3OU   O11  843   2.909   3.479   1.927
    2V3OU   C15  844   2.926   3.399   2.038
    2V3OU   C13  845   3.057   3.373   2.082
    2V3OU   C14  846   3.078   3.269   2.174
    2V3OU   C16  847   2.974   3.188   2.218
    2V3OU    H6  848   2.995   3.108   2.290
    2V3OU   C12  849   3.211   3.235   2.229
    2V3OU    O2  850   3.236   3.131   2.295
    2V3OU   C10  851   3.327   3.314   2.185
    2V3OU    C8  852   3.453   3.275   2.227
    2V3OU   O10  853   3.485   3.153   2.279
    2V3OU   H26  854   3.402   3.111   2.306
    2V3OU    C6  855   3.566   3.351   2.182
    2V3OU    C5  856   3.537   3.467   2.112
    2V3OU    C4  857   3.703   3.294   2.174
    2V3OU    H4  858   3.725   3.228   2.263
    2V3OU    H5  859   3.711   3.232   2.080
    2V3OU    C2  860   3.816   3.396   2.185
    2V3OU    O6  861   3.808   3.477   2.303
    2V3OU   H21  862   3.759   3.555   2.272
    2V3OU    C3  863   3.788   3.495   2.072
    2V3OU    H2  864   3.870   3.572   2.072
    2V3OU    H3  865   3.785   3.434   1.978
    2V3OU   C25  866   3.953   3.328   2.187
    2V3OU    O7  867   4.011   3.300   2.082
    2V3OU   C26  868   4.028   3.294   2.314
    2V3OU   H22  869   4.071   3.388   2.357
    2V3OU   H23  870   4.118   3.231   2.291
    2V3OU    O8  871   3.967   3.211   2.411
    2V3OU   H24  872   3.932   3.264   2.484
    2V3OU    C1  873   3.652   3.560   2.090
    2V3OU    H1  874   3.627   3.617   1.996
    2V3OU    O3  875   3.656   3.656   2.197
    2V3OU   C19  876   3.622   3.794   2.187
    2V3OU    H9  877   3.525   3.812   2.131
    2V3OU    O4  878   3.714   3.852   2.097
    2V3OU   C20  879   3.846   3.875   2.145
    2V3OU   H10  880   3.892   3.772   2.155
    2V3OU   C24  881   3.612   3.860   2.325
    2V3OU   H16  882   3.549   3.795   2.390
    2V3OU   H17  883   3.561   3.960   2.317
    2V3OU   C23  884   3.754   3.876   2.380
    2V3OU   H15  885   3.797   3.775   2.411
    2V3OU    N1  886   3.737   3.957   2.500
    2V3OU   H19  887   3.809   3.926   2.562
    2V3OU   H20  888   3.644   3.934   2.529
    2V3OU   C21  889   3.849   3.948   2.280
    2V3OU   H11  890   3.952   3.934   2.324
    2V3OU    O5  891   3.827   4.088   2.269
    2V3OU   H18  892   3.779   4.106   2.352
    2V3OU   C22  893   3.914   3.950   2.032
    2V3OU   H12  894   3.867   4.050   2.019
    2V3OU   H13  895   3.906   3.892   1.936
    2V3OU   H14  896   4.021   3.969   2.060
    2V3OU   C11  897   3.165   3.471   2.065
    2V3OU    O1  898   3.138   3.586   2.025
    2V3OU    C9  899   3.301   3.427   2.102
    2V3OU    C7  900   3.408   3.506   2.062
    2V3OU    O9  901   3.387   3.629   2.005
    2V3OU   H25  902   3.290   3.631   1.998
    2V3OU   C17  903   2.820   3.323   2.091
    2V3OU    H7  904   2.721   3.346   2.052
    2V3OU   C18  905   2.845   3.213   2.173
    2V3OU    H8  906   2.767   3.160   2.231
    3SOL     OW  907   2.862   4.199   0.564
    3SOL    HW1  908   2.906   4.112   0.547
    3SOL    HW2  909   2.881   4.262   0.488
    4SOL     OW  910   6.330   5.669   1.682
    4SOL    HW1  911   6.266   5.607   1.637
    4SOL    HW2  912   6.424   5.638   1.667
    5SOL     OW  913   3.683   1.370   3.171
    5SOL    HW1  914   3.729   1.298   3.223
    5SOL    HW2  915   3.726   1.458   3.190
    6SOL     OW  916   4.707   1.549   1.636
    6SOL    HW1  917   4.668   1.468   1.680
    6SOL    HW2  918   4.759   1.521   1.556
    7SOL     OW  919   6.153   3.270   2.449
    7SOL    HW1  920   6.208   3.191   2.421
    7SOL    HW2  921   6.152   3.339   2.377
    8SOL     OW  922   2.919   0.199   5.661
    8SOL    HW1  923   2.858   0.129   5.623
    8SOL    HW2  924   2.948   0.172   5.752
    9SOL     OW  925   6.866   5.317   5.780
    9SOL    HW1  926   6.948   5.260   5.777
    9SOL    HW2  927   6.865   5.379   5.701
   10SOL     OW  928   0.883   4.585   5.749
   10SOL    HW1  929   0.931   4.665   5.786
   10SOL    HW2  930   0.801   4.615   5.700
   11SOL     OW  931   2.941   0.408   0.211
   11SOL    HW1  932   2.906   0.352   0.136
   11SOL    HW2  933   2.997   0.482   0.174
   12SOL     OW  934   4.291   6.384   3.961
   12SOL    HW1  935   4.342   6.330   4.028
   12SOL    HW2  936   4.230   6.447   4.008
   13SOL     OW  937   3.130   5.480   4.057
   13SOL    HW1  938   3.227   5.481   4.035
   13SOL    HW2  939   3.117   5.450   4.151
   14SOL     OW  940   4.799   5.794   6.288
   14SOL    HW1  941   4.812   5.797   6.387
   14SOL    HW2  942   4.713   5.840   6.265
   15SOL     OW  943   0.956   5.349   0.703
   15SOL    HW1  944   0.961   5.261   0.749
   15SOL    HW2  945   0.860   5.376   0.692
   16SOL     OW  946   5.535   2.741   5.729
   16SOL    HW1  947   5.565   2.698   5.644
   16SOL    HW2  948   5.452   2.696   5.761
   17SOL     OW  949   5.150   5.961   5.214
   17SOL    HW1  950   5.220   5.996   5.151
   17SOL    HW2  951   5.193   5.932   5.299
   18SOL     OW  952   2.818   1.289   6.335
   18SOL    HW1  953   2.842   1.345   6.255
   18SOL    HW2  954   2.835   1.193   6.313
   19SOL     OW  955   0.065   6.904   3.187
   19SOL    HW1  956   0.051   6.815   3.143
   19SOL    HW2  957   0.163   6.923   3.195
   20SOL     OW  958   4.827   1.957   4.489
   20SOL    HW1  959   4.799   1.910   4.572
   20SOL    HW2  960   4.894   1.902   4.440
   21SOL     OW  961   3.153   2.093   2.435
   21SOL    HW1  962   3.075   2.135   2.390
   21SOL    HW2  963   3.141   2.098   2.534
   22SOL     OW  964   2.569   6.958   0.568
   22SOL    HW1  965   2.603   6.953   0.662
   22SOL    HW2  966   2.640   6.928   0.505
   23SOL     OW  967   4.562   6.540   3.232
   23SOL    HW1  968   4.463   6.551   3.218
   23SOL    HW2  969   4.578   6.497   3.321
   24SOL     OW  970   5.066   1.092   2.714
   24SOL    HW1  971   4.968   1.072   2.715
   24SOL    HW2  972   5.080   1.191   2.718
   25SOL     OW  973   3.800   6.380   5.955
   25SOL    HW1  974   3.886   6.367   6.005
   25SOL    HW2  975   3.732   6.421   6.015
   26SOL     OW  976   6.094   1.044   0.460
   26SOL    HW1  977   6.176   1.048   0.403
   26SOL    HW2  978   6.073   1.136   0.493
   27SOL     OW  979   0.332   1.729   1.532
   27SOL    HW1  980   0.397   1.705   1.604
   27SOL    HW2  981   0.252   1.670   1.537
   28SOL     OW  982   3.723   1.451   0.056
   28SOL    HW1  983   3.728   1.516   0.132
   28SOL    HW2  984   3.702   1.360   0.092
   29SOL     OW  985   5.241   2.998   2.038
   29SOL    HW1  986   5.289   2.911   2.030
   29SOL    HW2  987   5.148   2.988   2.001
   30SOL     OW  988   3.569   0.965   4.933
   30SOL    HW1  989   3.599   0.876   4.897
   30SOL    HW2  990   3.648   1.020   4.957
   31SOL     OW  991   0.827   1.919   6.018
   31SOL    HW1  992   0.740   1.874   5.998
   31SOL    HW2  993   0.819   1.969   6.105
   32SOL     OW  994   6.958   1.220   2.890
   32SOL    HW1  995   6.865   1.203   2.858
   32SOL    HW2  996   6.994   1.303   2.847
   33SOL     OW  997   2.438   3.701   7.015
   33SOL    HW1  998   2.518   3.750   0.023
   33SOL    HW2  999   2.415   3.735   6.923
   34SOL     OW 1000   2.024   1.617   3.870
   34SOL    HW1 1001   2.055   1.555   3.799
   34SOL    HW2 1002   2.053   1.710   3.848
   35SOL     OW 1003   3.210   2.257   0.098
   35SOL    HW1 1004   3.229   2.344   0.143
   35SOL    HW2 1005   3.186   2.272   0.003
   36SOL     OW 1006   0.127   0.954   6.240
   36SOL    HW1 1007   0.144   1.052   6.244
   36SOL    HW2 1008   0.097   0.921   6.329
   37SOL     OW 1009   1.439   0.120   0.501
   37SOL    HW1 1010   1.420   0.096   0.596
   37SOL    HW2 1011   1.507   0.192   0.498
   38SOL     OW 1012   0.170   4.531   2.279
   38SOL    HW1 1013   0.083   4.520   2.231
   38SOL    HW2 1014   0.164   4.610   2.340
   39SOL     OW 1015   6.792   4.975   6.470
   39SOL    HW1 1016   6.867   4.962   6.405
   39SOL    HW2 1017   6.817   4.933   6.557
   40SOL     OW 1018   5.812   2.476   1.223
   40SOL    HW1 1019   5.785   2.399   1.165
   40SOL    HW2 1020   5.906   2.462   1.254
   41SOL     OW 1021   0.180   6.664   4.219
   41SOL    HW1 1022   0.097   6.699   4.174
   41SOL    HW2 1023   0.173   6.681   4.318
   42SOL     OW 1024   2.184   5.595   5.770
   42SOL    HW1 1025   2.246   5.527   5.808
   42SOL    HW2 1026   2.152   5.564   5.681
   43SOL     OW 1027   5.554   6.568   5.116
   43SOL    HW1 1028   5.495   6.647   5.098
   43SOL    HW2 1029   5.571   6.520   5.030
   44SOL     OW 1030   5.826   2.075   6.237
   44SOL    HW1 1031   5.811   2.038   6.328
   44SOL    HW2 1032   5.917   2.115   6.232
   45SOL     OW 1033   3.760   6.851   3.306
   45SOL    HW1 1034   3.800   6.782   3.367
   45SOL    HW2 1035   3.663   6.861   3.327
   46SOL     OW 1036   1.186   3.376   3.935
   46SOL    HW1 1037   1.100   3.418   3.965
   46SOL    HW2 1038   1.242   3.445   3.889
   47SOL     OW 1039   4.909   4.290   1.789
   47SOL    HW1 1040   4.935   4.269   1.695
   47SOL    HW2 1041   4.854   4.215   1.825
   48SOL     OW 1042   6.879   3.140   5.886
   48SOL    HW1 1043   6.934   3.086   5.949
   48SOL    HW2 1044   6.820   3.202   5.938
   49SOL     OW 1045   4.739   4.105   1.840
   49SOL    HW1 1046   4.647   4.142   1.855
   49SOL    HW2 1047   4.732   4.018   1.792
   50SOL     OW 1048   6.743   2.606   5.939
   50SOL    HW1 1049   6.813   2.537   5.959
   50SOL    HW2 1050   6.716   2.600   5.843
   51SOL     OW 1051   2.689   6.128   2.494
   51SOL    HW1 1052   2.749   6.052   2.518
   51SOL    HW2 1053   2.745   6.207   2.468
   52SOL     OW 1054   5.135   2.644   3.293
   52SOL    HW1 1055   5.093   2.730   3.324
   52SOL    HW2 1056   5.218   2.627   3.346
   53SOL     OW 1057   3.793   0.183   4.684
   53SOL    HW1 1058   3.707   0.137   4.709
   53SOL    HW2 1059   3.781   0.282   4.691
   54SOL     OW 1060   3.931   4.432   0.514
   54SOL    HW1 1061   3.999   4.504   0.524
   54SOL    HW2 1062   3.841   4.467   0.541
   55SOL     OW 1063   3.410   1.483   6.321
   55SOL    HW1 1064   3.459   1.487   6.408
   55SOL    HW2 1065   3.476   1.483   6.245
   56SOL     OW 1066   0.366   6.817   0.931
   56SOL    HW1 1067   0.463   6.792   0.935
   56SOL    HW2 1068   0.341   6.866   1.015
   57SOL     OW 1069   5.239   0.459   0.642
   57SOL    HW1 1070   5.179   0.383   0.665
   57SOL    HW2 1071   5.186   0.544   0.639
   58SOL     OW 1072   6.240   6.761   5.624
   58SOL    HW1 1073   6.153   6.765   5.575
   58SOL    HW2 1074   6.284   6.673   5.609
   59SOL     OW 1075   1.626   1.360   6.420
   59SOL    HW1 1076   1.666   1.429   6.360
   59SOL    HW2 1077   1.590   1.284   6.365
   60SOL     OW 1078   5.824   0.992   6.209
   60SOL    HW1 1079   5.820   1.062   6.280
   60SOL    HW2 1080   5.807   0.902   6.249
   61SOL     OW 1081   5.073   1.666   5.288
   61SOL    HW1 1082   5.106   1.623   5.372
   61SOL    HW2 1083   5.080   1.601   5.213
   62SOL     OW 1084   0.176   0.849   3.498
   62SOL    HW1 1085   0.228   0.919   3.547
   62SOL    HW2 1086   0.217   0.759   3.514
   63SOL     OW 1087   6.053   1.723   3.861
   63SOL    HW1 1088   6.020   1.717   3.767
   63SOL    HW2 1089   5.988   1.676   3.922
   64SOL     OW 1090   0.114   4.211   6.453
   64SOL    HW1 1091   0.118   4.122   6.499
   64SOL    HW2 1092   0.207   4.244   6.436
   65SOL     OW 1093   6.894   4.587   5.180
   65SOL    HW1 1094   6.950   4.662   5.215
   65SOL    HW2 1095   6.902   4.508   5.242
   66SOL     OW 1096   3.633   1.028   6.718
   66SOL    HW1 1097   3.585   1.049   6.803
   66SOL    HW2 1098   3.629   0.929   6.701
   67SOL     OW 1099   5.376   4.394   5.762
   67SOL    HW1 1100   5.458   4.409   5.707
   67SOL    HW2 1101   5.295   4.398   5.704
   68SOL     OW 1102   5.826   0.454   6.527
   68SOL    HW1 1103   5.818   0.510   6.610
   68SOL    HW2 1104   5.917   0.465   6.488
   69SOL     OW 1105   0.572   3.450   6.754
   69SOL    HW1 1106   0.633   3.391   6.700
   69SOL    HW2 1107   0.622   3.484   6.834
   70SOL     OW 1108   5.958   4.926   3.796
   70SOL    HW1 1109   5.864   4.897   3.815
   70SOL    HW2 1110   6.009   4.850   3.757
   71SOL     OW 1111   4.191   1.621   2.402
   71SOL    HW1 1112   4.181   1.646   2.498
   71SOL    HW2 1113   4.103   1.593   2.364
   72SOL     OW 1114   2.971   6.018   5.225
   72SOL    HW1 1115   3.044   6.061   5.172
   72SOL    HW2 1116   2.889   6.010   5.168
   73SOL     OW 1117   3.690   0.764   0.899
   73SOL    HW1 1118   3.641   0.828   0.959
   73SOL    HW2 1119   3.718   0.684   0.952
   74SOL     OW 1120   4.759   6.279   5.728
   74SOL    HW1 1121   4.668   6.271   5.688
   74SOL    HW2 1122   4.818   6.332   5.666
   75SOL     OW 1123   3.861   0.696   6.621
   75SOL    HW1 1124   3.932   0.626   6.610
   75SOL    HW2 1125   3.824   0.691   6.714
   76SOL     OW 1126   2.370   2.470   1.535
   76SOL    HW1 1127   2.320   2.480   1.449
   76SOL    HW2 1128   2.457   2.422   1.518
   77SOL     OW 1129   5.947   6.142   4.110
   77SOL    HW1 1130   5.892   6.166   4.190
   77SOL    HW2 1131   5.908   6.062   4.065
   78SOL     OW 1132   5.682   0.932   5.813
   78SOL    HW1 1133   5.651   0.953   5.905
   78SOL    HW2 1134   5.761   0.870   5.817
   79SOL     OW 1135   3.131   6.704   0.233
   79SOL    HW1 1136   3.142   6.757   0.317
   79SOL    HW2 1137   3.053   6.739   0.181
   80SOL     OW 1138   5.365   1.704   4.479
   80SOL    HW1 1139   5.396   1.716   4.573
   80SOL    HW2 1140   5.266   1.695   4.477
   81SOL     OW 1141   1.793   0.403   3.024
   81SOL    HW1 1142   1.840   0.373   2.941
   81SOL    HW2 1143   1.769   0.322   3.079
   82SOL     OW 1144   6.234   5.096   0.883
   82SOL    HW1 1145   6.314   5.101   0.943
   82SOL    HW2 1146   6.263   5.112   0.788
   83SOL     OW 1147   0.039   0.452   0.784
   83SOL    HW1 1148   0.055   0.369   0.837
   83SOL    HW2 1149   0.113   0.465   0.718
   84SOL     OW 1150   5.165   3.228   3.819
   84SOL    HW1 1151   5.210   3.199   3.735
   84SOL    HW2 1152   5.070   3.197   3.818
   85SOL     OW 1153   2.027   1.784   5.173
   85SOL    HW1 1154   2.001   1.719   5.244
   85SOL    HW2 1155   1.970   1.866   5.181
   86SOL     OW 1156   0.270   0.369   5.552
   86SOL    HW1 1157   0.292   0.414   5.639
   86SOL    HW2 1158   0.253   0.272   5.568
   87SOL     OW 1159   5.112   3.612   0.668
   87SOL    HW1 1160   5.135   3.693   0.614
   87SOL    HW2 1161   5.195   3.571   0.704
   88SOL     OW 1162   3.824   1.796   6.183
   88SOL    HW1 1163   3.730   1.795   6.148
   88SOL    HW2 1164   3.876   1.867   6.135
   89SOL     OW 1165   0.880   2.844   5.829
   89SOL    HW1 1166   0.956   2.904   5.804
   89SOL    HW2 1167   0.795   2.879   5.789
   90SOL     OW 1168   4.011   6.008   3.032
   90SOL    HW1 1169   3.964   6.071   3.093
   90SOL    HW2 1170   3.965   5.919   3.035
   91SOL     OW 1171   4.675   4.337   5.001
   91SOL    HW1 1172   4.625   4.343   5.088
   91SOL    HW2 1173   4.641   4.408   4.939
   92SOL     OW 1174   3.166   4.148   0.232
   92SOL    HW1 1175   3.217   4.231   0.255
   92SOL    HW2 1176   3.203   4.108   0.148
   93SOL     OW 1177   2.753   3.718   6.540
   93SOL    HW1 1178   2.733   3.711   6.443
   93SOL    HW2 1179   2.726   3.808   6.574
   94SOL     OW 1180   2.449   6.144   6.023
   94SOL    HW1 1181   2.464   6.054   5.982
   94SOL    HW2 1182   2.380   6.194   5.971
   95SOL     OW 1183   1.089   0.777   3.231
   95SOL    HW1 1184   1.070   0.875   3.221
   95SOL    HW2 1185   1.095   0.755   3.329
   96SOL     OW 1186   3.615   0.614   5.028
   96SOL    HW1 1187   3.573   0.535   4.983
   96SOL    HW2 1188   3.546   0.659   5.084
   97SOL     OW 1189   1.655   3.460   6.184
   97SOL    HW1 1190   1.594   3.403   6.128
   97SOL    HW2 1191   1.724   3.402   6.227
   98SOL     OW 1192   6.043   3.874   0.506
   98SOL    HW1 1193   6.132   3.918   0.503
   98SOL    HW2 1194   6.053   3.782   0.545
   99SOL     OW 1195   4.800   3.662   1.493
   99SOL    HW1 1196   4.859   3.604   1.436
   99SOL    HW2 1197   4.777   3.745   1.441
  100SOL     OW 1198   0.036   0.348   5.368
  100SOL    HW1 1199   0.091   0.319   5.446
  100SOL    HW2 1200   0.029   0.273   5.302
  101SOL     OW 1201   1.698   5.676   2.296
  101SOL    HW1 1202   1.775   5.738   2.308
  101SOL    HW2 1203   1.721   5.586   2.333
  102SOL     OW 1204   4.267   0.124   2.579
  102SOL    HW1 1205   4.319   0.126   2.665
  102SOL    HW2 1206   4.180   0.170   2.591
  103SOL     OW 1207   3.344   1.334   2.591
  103SOL    HW1 1208   3.421   1.357   2.532
  103SOL    HW2 1209   3.314   1.241   2.570
  104SOL     OW 1210   0.612   5.109   2.144
  104SOL    HW1 1211   0.662   5.129   2.228
  104SOL    HW2 1212   0.514   5.119   2.160
  105SOL     OW 1213   6.822   3.071   6.484
  105SOL    HW1 1214   6.747   3.005   6.477
  105SOL    HW2 1215   6.842   3.090   6.580
  106SOL     OW 1216   3.588   6.077   4.751
  106SOL    HW1 1217   3.653   6.001   4.744
  106SOL    HW2 1218   3.628   6.159   4.709
  107SOL     OW 1219   1.760   1.266   1.936
  107SOL    HW1 1220   1.698   1.266   1.858
  107SOL    HW2 1221   1.854   1.275   1.904
  108SOL     OW 1222   3.669   5.227   5.530
  108SOL    HW1 1223   3.741   5.175   5.482
  108SOL    HW2 1224   3.661   5.317   5.489
  109SOL     OW 1225   0.242   0.654   1.299
  109SOL    HW1 1226   0.239   0.568   1.349
  109SOL    HW2 1227   0.336   0.689   1.298
  110SOL     OW 1228   3.552   5.868   5.528
  110SOL    HW1 1229   3.458   5.900   5.517
  110SOL    HW2 1230   3.555   5.794   5.596
  111SOL     OW 1231   3.317   0.545   4.383
  111SOL    HW1 1232   3.270   0.497   4.458
  111SOL    HW2 1233   3.250   0.593   4.328
  112SOL     OW 1234   5.297   6.896   5.883
  112SOL    HW1 1235   5.265   6.890   5.977
  112SOL    HW2 1236   5.340   6.810   5.856
  113SOL     OW 1237   5.915   4.920   3.502
  113SOL    HW1 1238   5.967   4.984   3.558
  113SOL    HW2 1239   5.976   4.873   3.439
  114SOL     OW 1240   0.828   0.165   0.933
  114SOL    HW1 1241   0.772   0.084   0.912
  114SOL    HW2 1242   0.770   0.246   0.932
  115SOL     OW 1243   3.834   1.606   3.208
  115SOL    HW1 1244   3.807   1.700   3.225
  115SOL    HW2 1245   3.934   1.600   3.206
  116SOL     OW 1246   5.966   5.190   1.692
  116SOL    HW1 1247   6.043   5.195   1.755
  116SOL    HW2 1248   5.961   5.098   1.652
  117SOL     OW 1249   1.410   1.187   0.555
  117SOL    HW1 1250   1.359   1.108   0.589
  117SOL    HW2 1251   1.483   1.156   0.494
  118SOL     OW 1252   1.758   1.353   3.353
  118SOL    HW1 1253   1.776   1.445   3.319
  118SOL    HW2 1254   1.770   1.287   3.279
  119SOL     OW 1255   0.952   1.393   6.746
  119SOL    HW1 1256   1.014   1.409   6.823
  119SOL    HW2 1257   0.979   1.310   6.698
  120SOL     OW 1258   6.698   6.573   0.100
  120SOL    HW1 1259   6.690   6.536   0.008
  120SOL    HW2 1260   6.634   6.526   0.161
  121SOL     OW 1261   2.354   3.507   6.327
  121SOL    HW1 1262   2.445   3.467   6.330
  121SOL    HW2 1263   2.361   3.605   6.307
  122SOL     OW 1264   1.724   4.498   6.671
  122SOL    HW1 1265   1.822   4.479   6.669
  122SOL    HW2 1266   1.699   4.536   6.760
  123SOL     OW 1267   0.121   1.578   1.545
  123SOL    HW1 1268   0.031   1.616   1.527
  123SOL    HW2 1269   0.127   1.548   1.640
  124SOL     OW 1270   4.961   3.115   0.711
  124SOL    HW1 1271   4.921   3.180   0.646
  124SOL    HW2 1272   4.955   3.153   0.803
  125SOL     OW 1273   2.967   1.447   2.111
  125SOL    HW1 1274   2.946   1.480   2.019
  125SOL    HW2 1275   3.048   1.494   2.146
  126SOL     OW 1276   2.629   3.825   1.122
  126SOL    HW1 1277   2.652   3.734   1.154
  126SOL    HW2 1278   2.600   3.882   1.199
  127SOL     OW 1279   0.260   5.761   5.912
  127SOL    HW1 1280   0.345   5.727   5.871
  127SOL    HW2 1281   0.191   5.689   5.912
  128SOL     OW 1282   4.778   2.555   1.081
  128SOL    HW1 1283   4.866   2.575   1.124
  128SOL    HW2 1284   4.783   2.572   0.983
  129SOL     OW 1285   3.342   2.771   5.942
  129SOL    HW1 1286   3.323   2.826   6.023
  129SOL    HW2 1287   3.256   2.734   5.906
  130SOL     OW 1288   0.765   0.961   4.037
  130SOL    HW1 1289   0.830   1.034   4.015
  130SOL    HW2 1290   0.794   0.914   4.120
  131SOL     OW 1291   5.097   2.046   3.720
  131SOL    HW1 1292   5.027   2.089   3.777
  131SOL    HW2 1293   5.064   1.957   3.689
  132SOL     OW 1294   2.473   2.518   1.176
  132SOL    HW1 1295   2.459   2.518   1.077
  132SOL    HW2 1296   2.387   2.541   1.222
  133SOL     OW 1297   5.085   6.443   4.305
  133SOL    HW1 1298   5.141   6.515   4.264
  133SOL    HW2 1299   5.000   6.482   4.339
  134SOL     OW 1300   6.303   1.451   2.439
  134SOL    HW1 1301   6.389   1.465   2.390
  134SOL    HW2 1302   6.275   1.356   2.429
  135SOL     OW 1303   5.547   3.732   2.994
  135SOL    HW1 1304   5.630   3.736   2.937
  135SOL    HW2 1305   5.467   3.751   2.937
  136SOL     OW 1306   3.081   3.675   6.257
  136SOL    HW1 1307   3.177   3.699   6.268
  136SOL    HW2 1308   3.070   3.618   6.175
  137SOL     OW 1309   5.371   1.330   5.172
  137SOL    HW1 1310   5.293   1.383   5.141
  137SOL    HW2 1311   5.343   1.272   5.249
  138SOL     OW 1312   0.807   4.749   3.275
  138SOL    HW1 1313   0.799   4.662   3.325
  138SOL    HW2 1314   0.873   4.738   3.200
  139SOL     OW 1315   2.119   6.518   5.022
  139SOL    HW1 1316   2.187   6.590   5.033
  139SOL    HW2 1317   2.163   6.435   4.989
  140SOL     OW 1318   0.624   5.647   3.511
  140SOL    HW1 1319   0.596   5.595   3.430
  140SOL    HW2 1320   0.700   5.600   3.556
  141SOL     OW 1321   5.897   3.639   4.663
  141SOL    HW1 1322   5.929   3.554   4.624
  141SOL    HW2 1323   5.971   3.707   4.662
  142SOL     OW 1324   2.076   4.161   0.870
  142SOL    HW1 1325   2.058   4.073   0.913
  142SOL    HW2 1326   2.060   4.154   0.771
  143SOL     OW 1327   5.869   4.351   1.382
  143SOL    HW1 1328   5.934   4.357   1.307
  143SOL    HW2 1329   5.839   4.443   1.409
  144SOL     OW 1330   1.432   6.233   6.487
  144SOL    HW1 1331   1.520   6.252   6.531
  144SOL    HW2 1332   1.412   6.306   6.422
  145SOL     OW 1333   0.084   5.496   0.239
  145SOL    HW1 1334   7.013   5.479   0.227
  145SOL    HW2 1335   0.123   5.426   0.300
  146SOL     OW 1336   5.205   0.660   6.464
  146SOL    HW1 1337   5.298   0.693   6.482
  146SOL    HW2 1338   5.209   0.583   6.400
  147SOL     OW 1339   6.046   4.006   6.369
  147SOL    HW1 1340   6.036   3.934   6.437
  147SOL    HW2 1341   6.009   3.975   6.281
  148SOL     OW 1342   0.113   5.694   6.450
  148SOL    HW1 1343   0.145   5.652   6.365
  148SOL    HW2 1344   0.182   5.679   6.521
  149SOL     OW 1345   2.995   1.856   4.865
  149SOL    HW1 1346   2.946   1.943   4.871
  149SOL    HW2 1347   3.033   1.846   4.773
  150SOL     OW 1348   5.809   5.984   6.208
  150SOL    HW1 1349   5.784   5.916   6.139
  150SOL    HW2 1350   5.890   5.953   6.258
  151SOL     OW 1351   3.378   2.545   1.144
  151SOL    HW1 1352   3.411   2.539   1.239
  151SOL    HW2 1353   3.294   2.598   1.142
  152SOL     OW 1354   1.433   0.991   3.349
  152SOL    HW1 1355   1.407   1.000   3.445
  152SOL    HW2 1356   1.372   1.047   3.293
  153SOL     OW 1357   3.128   0.799   1.677
  153SOL    HW1 1358   3.181   0.743   1.740
  153SOL    HW2 1359   3.116   0.750   1.591
  154SOL     OW 1360   0.636   2.000   2.879
  154SOL    HW1 1361   0.579   2.010   2.798
  154SOL    HW2 1362   0.641   2.088   2.927
  155SOL     OW 1363   6.577   1.790   3.610
  155SOL    HW1 1364   6.552   1.736   3.529
  155SOL    HW2 1365   6.637   1.865   3.582
  156SOL     OW 1366   0.157   2.164   0.492
  156SOL    HW1 1367   0.248   2.134   0.463
  156SOL    HW2 1368   0.151   2.162   0.592
  157SOL     OW 1369   6.138   3.366   1.310
  157SOL    HW1 1370   6.190   3.332   1.388
  157SOL    HW2 1371   6.040   3.354   1.329
  158SOL     OW 1372   2.212   6.097   2.505
  158SOL    HW1 1373   2.119   6.117   2.536
  158SOL    HW2 1374   2.272   6.174   2.526
  159SOL     OW 1375   4.205   4.652   1.997
  159SOL    HW1 1376   4.174   4.597   1.919
  159SOL    HW2 1377   4.298   4.624   2.023
  160SOL     OW 1378   6.431   5.529   0.358
  160SOL    HW1 1379   6.464   5.567   0.271
  160SOL    HW2 1380   6.448   5.430   0.359
  161SOL     OW 1381   2.105   5.780   4.679
  161SOL    HW1 1382   2.117   5.721   4.599
  161SOL    HW2 1383   2.034   5.847   4.660
  162SOL     OW 1384   3.913   6.772   6.880
  162SOL    HW1 1385   3.912   6.862   6.836
  162SOL    HW2 1386   4.001   6.759   6.926
  163SOL     OW 1387   5.650   5.963   0.997
  163SOL    HW1 1388   5.551   5.978   0.991
  163SOL    HW2 1389   5.693   5.985   0.910
  164SOL     OW 1390   6.267   4.276   0.083
  164SOL    HW1 1391   6.288   4.286   7.011
  164SOL    HW2 1392   6.180   4.228   0.094
  165SOL     OW 1393   5.336   2.754   1.958
  165SOL    HW1 1394   5.299   2.662   1.972
  165SOL    HW2 1395   5.378   2.760   1.868
  166SOL     OW 1396   6.854   5.073   3.499
  166SOL    HW1 1397   6.754   5.078   3.503
  166SOL    HW2 1398   6.886   5.105   3.410
  167SOL     OW 1399   5.802   2.684   6.967
  167SOL    HW1 1400   5.851   2.758   7.013
  167SOL    HW2 1401   5.866   2.628   6.915
  168SOL     OW 1402   2.371   3.336   1.248
  168SOL    HW1 1403   2.446   3.403   1.253
  168SOL    HW2 1404   2.312   3.346   1.328
  169SOL     OW 1405   4.372   0.512   1.597
  169SOL    HW1 1406   4.416   0.424   1.577
  169SOL    HW2 1407   4.430   0.587   1.566
  170SOL     OW 1408   0.995   1.016   3.742
  170SOL    HW1 1409   0.963   0.997   3.649
  170SOL    HW2 1410   0.975   0.938   3.801
  171SOL     OW 1411   3.607   4.449   0.323
  171SOL    HW1 1412   3.688   4.408   0.280
  171SOL    HW2 1413   3.562   4.380   0.380
  172SOL     OW 1414   5.792   1.900   4.219
  172SOL    HW1 1415   5.770   1.844   4.140
  172SOL    HW2 1416   5.746   1.864   4.300
  173SOL     OW 1417   6.847   2.335   4.416
  173SOL    HW1 1418   6.751   2.342   4.445
  173SOL    HW2 1419   6.851   2.293   4.326
  174SOL     OW 1420   3.499   5.271   4.792
  174SOL    HW1 1421   3.513   5.357   4.744
  174SOL    HW2 1422   3.587   5.229   4.813
  175SOL     OW 1423   2.490   7.001   2.085
  175SOL    HW1 1424   2.460   0.066   2.056
  175SOL    HW2 1425   2.414   6.937   2.075
  176SOL     OW 1426   1.367   4.063   1.467
  176SOL    HW1 1427   1.410   4.002   1.533
  176SOL    HW2 1428   1.347   4.013   1.383
  177SOL     OW 1429   5.897   3.202   2.497
  177SOL    HW1 1430   5.848   3.230   2.579
  177SOL    HW2 1431   5.990   3.238   2.499
  178SOL     OW 1432   2.975   2.746   6.295
  178SOL    HW1 1433   2.952   2.655   6.331
  178SOL    HW2 1434   2.891   2.795   6.272
  179SOL     OW 1435   2.414   1.457   6.305
  179SOL    HW1 1436   2.362   1.434   6.223
  179SOL    HW2 1437   2.498   1.504   6.279
  180SOL     OW 1438   1.620   0.032   6.761
  180SOL    HW1 1439   1.684   0.005   6.834
  180SOL    HW2 1440   1.586   6.976   6.715
  181SOL     OW 1441   2.871   2.148   6.012
  181SOL    HW1 1442   2.954   2.201   6.027
  181SOL    HW2 1443   2.849   2.148   5.915
  182SOL     OW 1444   3.606   1.112   3.996
  182SOL    HW1 1445   3.595   1.162   4.081
  182SOL    HW2 1446   3.619   1.015   4.015
  183SOL     OW 1447   3.510   2.145   3.433
  183SOL    HW1 1448   3.483   2.217   3.497
  183SOL    HW2 1449   3.529   2.061   3.484
  184SOL     OW 1450   2.047   6.235   4.327
  184SOL    HW1 1451   2.136   6.221   4.283
  184SOL    HW2 1452   2.006   6.319   4.294
  185SOL     OW 1453   0.279   1.609   6.250
  185SOL    HW1 1454   0.348   1.633   6.318
  185SOL    HW2 1455   0.213   1.546   6.290
  186SOL     OW 1456   5.897   1.212   3.934
  186SOL    HW1 1457   5.994   1.230   3.952
  186SOL    HW2 1458   5.884   1.116   3.910
  187SOL     OW 1459   4.392   0.401   2.817
  187SOL    HW1 1460   4.372   0.401   2.915
  187SOL    HW2 1461   4.419   0.492   2.789
  188SOL     OW 1462   6.904   2.043   2.625
  188SOL    HW1 1463   6.901   2.006   2.718
  188SOL    HW2 1464   6.813   2.034   2.583
  189SOL     OW 1465   2.222   5.329   1.636
  189SOL    HW1 1466   2.262   5.385   1.709
  189SOL    HW2 1467   2.271   5.347   1.551
  190SOL     OW 1468   4.527   1.536   4.453
  190SOL    HW1 1469   4.507   1.624   4.411
  190SOL    HW2 1470   4.487   1.534   4.545
  191SOL     OW 1471   5.578   5.904   6.544
  191SOL    HW1 1472   5.562   5.957   6.461
  191SOL    HW2 1473   5.547   5.810   6.530
  192SOL     OW 1474   0.485   5.609   1.865
  192SOL    HW1 1475   0.397   5.592   1.821
  192SOL    HW2 1476   0.498   5.544   1.940
  193SOL     OW 1477   4.749   2.870   5.387
  193SOL    HW1 1478   4.679   2.862   5.459
  193SOL    HW2 1479   4.759   2.966   5.362
  194SOL     OW 1480   3.985   0.594   2.625
  194SOL    HW1 1481   3.894   0.632   2.642
  194SOL    HW2 1482   3.995   0.576   2.527
  195SOL     OW 1483   1.741   0.025   4.631
  195SOL    HW1 1484   1.767   0.121   4.639
  195SOL    HW2 1485   1.818   6.998   4.596
  196SOL     OW 1486   2.613   1.148   6.739
  196SOL    HW1 1487   2.700   1.197   6.740
  196SOL    HW2 1488   2.544   1.205   6.693
  197SOL     OW 1489   2.484   0.546   0.879
  197SOL    HW1 1490   2.419   0.481   0.916
  197SOL    HW2 1491   2.443   0.593   0.800
  198SOL     OW 1492   4.394   0.667   2.771
  198SOL    HW1 1493   4.473   0.720   2.800
  198SOL    HW2 1494   4.357   0.705   2.686
  199SOL     OW 1495   0.868   2.275   4.080
  199SOL    HW1 1496   0.833   2.237   4.166
  199SOL    HW2 1497   0.904   2.201   4.023
  200SOL     OW 1498   1.523   3.592   0.701
  200SOL    HW1 1499   1.512   3.549   0.790
  200SOL    HW2 1500   1.468   3.544   0.633
  201SOL     OW 1501   0.499   6.766   6.142
  201SOL    HW1 1502   0.431   6.708   6.097
  201SOL    HW2 1503   0.568   6.708   6.185
  202SOL     OW 1504   3.480   1.530   6.857
  202SOL    HW1 1505   3.531   1.572   6.933
  202SOL    HW2 1506   3.410   1.594   6.826
  203SOL     OW 1507   5.981   2.203   5.294
  203SOL    HW1 1508   5.969   2.110   5.260
  203SOL    HW2 1509   6.047   2.202   5.369
  204SOL     OW 1510   0.896   0.106   4.677
  204SOL    HW1 1511   0.861   0.040   4.744
  204SOL    HW2 1512   0.819   0.154   4.634
  205SOL     OW 1513   0.802   2.650   3.246
  205SOL    HW1 1514   0.830   2.746   3.241
  205SOL    HW2 1515   0.884   2.592   3.244
  206SOL     OW 1516   0.396   4.038   1.049
  206SOL    HW1 1517   0.395   4.095   0.967
  206SOL    HW2 1518   0.423   3.944   1.025
  207SOL     OW 1519   5.921   1.036   4.166
  207SOL    HW1 1520   6.012   0.996   4.170
  207SOL    HW2 1521   5.854   0.965   4.144
  208SOL     OW 1522   0.266   4.597   5.318
  208SOL    HW1 1523   0.317   4.542   5.252
  208SOL    HW2 1524   0.265   4.551   5.407
  209SOL     OW 1525   0.339   5.073   3.679
  209SOL    HW1 1526   0.294   5.052   3.592
  209SOL    HW2 1527   0.272   5.106   3.745
  210SOL     OW 1528   4.396   1.637   0.544
  210SOL    HW1 1529   4.335   1.559   0.534
  210SOL    HW2 1530   4.389   1.673   0.637
  211SOL     OW 1531   1.187   6.384   1.621
  211SOL    HW1 1532   1.187   6.308   1.687
  211SOL    HW2 1533   1.170   6.470   1.670
  212SOL     OW 1534   1.468   3.614   2.140
  212SOL    HW1 1535   1.394   3.680   2.127
  212SOL    HW2 1536   1.523   3.642   2.219
  213SOL     OW 1537   2.968   6.700   0.604
  213SOL    HW1 1538   2.981   6.623   0.541
  213SOL    HW2 1539   3.051   6.713   0.658
  214SOL     OW 1540   3.302   5.772   3.121
  214SOL    HW1 1541   3.260   5.684   3.142
  214SOL    HW2 1542   3.261   5.809   3.037
  215SOL     OW 1543   2.948   3.739   0.687
  215SOL    HW1 1544   2.995   3.700   0.766
  215SOL    HW2 1545   2.983   3.831   0.668
  216SOL     OW 1546   0.481   5.626   3.039
  216SOL    HW1 1547   0.567   5.582   3.016
  216SOL    HW2 1548   0.498   5.720   3.069
  217SOL     OW 1549   1.553   2.526   4.469
  217SOL    HW1 1550   1.549   2.606   4.529
  217SOL    HW2 1551   1.637   2.529   4.414
  218SOL     OW 1552   1.033   2.771   4.216
  218SOL    HW1 1553   0.975   2.827   4.276
  218SOL    HW2 1554   1.129   2.785   4.240
  219SOL     OW 1555   4.203   6.705   0.006
  219SOL    HW1 1556   4.184   6.617   6.990
  219SOL    HW2 1557   4.274   6.752   6.980
  220SOL     OW 1558   2.917   6.754   1.459
  220SOL    HW1 1559   2.896   6.657   1.458
  220SOL    HW2 1560   2.832   6.806   1.475
  221SOL     OW 1561   5.558   4.243   1.041
  221SOL    HW1 1562   5.586   4.163   1.095
  221SOL    HW2 1563   5.475   4.281   1.080
  222SOL     OW 1564   1.309   5.178   5.591
  222SOL    HW1 1565   1.217   5.179   5.551
  222SOL    HW2 1566   1.354   5.092   5.570
  223SOL     OW 1567   6.955   3.479   5.966
  223SOL    HW1 1568   6.900   3.514   5.890
  223SOL    HW2 1569   6.903   3.408   6.014
  224SOL     OW 1570   2.895   1.798   6.024
  224SOL    HW1 1571   2.836   1.773   6.101
  224SOL    HW2 1572   2.912   1.897   6.025
  225SOL     OW 1573   4.656   3.914   6.401
  225SOL    HW1 1574   4.592   3.983   6.434
  225SOL    HW2 1575   4.697   3.945   6.315
  226SOL     OW 1576   0.622   1.193   5.801
  226SOL    HW1 1577   0.688   1.248   5.751
  226SOL    HW2 1578   0.653   1.098   5.806
  227SOL     OW 1579   0.816   3.749   2.222
  227SOL    HW1 1580   0.877   3.675   2.195
  227SOL    HW2 1581   0.779   3.731   2.313
  228SOL     OW 1582   1.953   0.325   2.791
  228SOL    HW1 1583   1.899   0.313   2.707
  228SOL    HW2 1584   2.050   0.310   2.770
  229SOL     OW 1585   5.735   5.981   5.876
  229SOL    HW1 1586   5.726   5.902   5.937
  229SOL    HW2 1587   5.676   6.055   5.908
  230SOL     OW 1588   3.818   5.659   4.154
  230SOL    HW1 1589   3.899   5.705   4.190
  230SOL    HW2 1590   3.774   5.607   4.228
  231SOL     OW 1591   6.369   1.062   6.814
  231SOL    HW1 1592   6.319   1.026   6.735
  231SOL    HW2 1593   6.462   1.027   6.813
  232SOL     OW 1594   0.094   3.407   6.915
  232SOL    HW1 1595   0.062   3.336   6.977
  232SOL    HW2 1596   0.053   3.394   6.825
  233SOL     OW 1597   3.504   1.050   2.847
  233SOL    HW1 1598   3.458   1.036   2.759
  233SOL    HW2 1599   3.558   1.133   2.843
  234SOL     OW 1600   5.066   1.058   6.399
  234SOL    HW1 1601   4.979   1.103   6.381
  234SOL    HW2 1602   5.061   0.962   6.370
  235SOL     OW 1603   4.845   2.911   2.211
  235SOL    HW1 1604   4.917   2.868   2.156
  235SOL    HW2 1605   4.784   2.964   2.151
  236SOL     OW 1606   5.530   3.128   6.782
  236SOL    HW1 1607   5.559   3.089   6.694
  236SOL    HW2 1608   5.499   3.054   6.842
  237SOL     OW 1609   0.377   4.374   2.246
  237SOL    HW1 1610   0.386   4.333   2.155
  237SOL    HW2 1611   0.304   4.442   2.244
  238SOL     OW 1612   5.480   1.186   0.474
  238SOL    HW1 1613   5.436   1.143   0.396
  238SOL    HW2 1614   5.566   1.228   0.445
  239SOL     OW 1615   0.653   4.335   6.474
  239SOL    HW1 1616   0.746   4.354   6.443
  239SOL    HW2 1617   0.652   4.249   6.525
  240SOL     OW 1618   0.487   2.781   3.416
  240SOL    HW1 1619   0.423   2.705   3.430
  240SOL    HW2 1620   0.565   2.750   3.363
  241SOL     OW 1621   3.025   2.177   4.786
  241SOL    HW1 1622   2.977   2.245   4.730
  241SOL    HW2 1623   3.038   2.213   4.878
  242SOL     OW 1624   3.355   4.212   4.532
  242SOL    HW1 1625   3.439   4.174   4.493
  242SOL    HW2 1626   3.378   4.275   4.605
  243SOL     OW 1627   4.858   0.918   6.981
  243SOL    HW1 1628   4.780   0.859   6.959
  243SOL    HW2 1629   4.847   1.006   6.934
  244SOL     OW 1630   6.285   3.786   5.617
  244SOL    HW1 1631   6.286   3.776   5.517
  244SOL    HW2 1632   6.252   3.702   5.659
  245SOL     OW 1633   5.057   2.195   4.333
  245SOL    HW1 1634   5.003   2.113   4.353
  245SOL    HW2 1635   5.141   2.193   4.386
  246SOL     OW 1636   4.765   2.133   3.514
  246SOL    HW1 1637   4.748   2.155   3.610
  246SOL    HW2 1638   4.847   2.180   3.483
  247SOL     OW 1639   2.723   2.188   0.618
  247SOL    HW1 1640   2.758   2.095   0.610
  247SOL    HW2 1641   2.670   2.211   0.537
  248SOL     OW 1642   3.649   1.282   2.890
  248SOL    HW1 1643   3.678   1.317   2.979
  248SOL    HW2 1644   3.674   1.347   2.819
  249SOL     OW 1645   5.428   0.245   5.033
  249SOL    HW1 1646   5.452   0.244   5.130
  249SOL    HW2 1647   5.507   0.277   4.980
  250SOL     OW 1648   5.026   3.370   0.119
  250SOL    HW1 1649   5.106   3.348   0.176
  250SOL    HW2 1650   4.988   3.458   0.148
  251SOL     OW 1651   4.640   3.360   5.334
  251SOL    HW1 1652   4.542   3.348   5.318
  251SOL    HW2 1653   4.679   3.413   5.259
  252SOL     OW 1654   6.718   6.485   5.168
  252SOL    HW1 1655   6.746   6.513   5.076
  252SOL    HW2 1656   6.799   6.455   5.219
  253SOL     OW 1657   2.814   5.297   5.770
  253SOL    HW1 1658   2.865   5.236   5.710
  253SOL    HW2 1659   2.767   5.366   5.716
  254SOL     OW 1660   6.276   2.704   3.869
  254SOL    HW1 1661   6.264   2.641   3.946
  254SOL    HW2 1662   6.254   2.797   3.898
  255SOL     OW 1663   2.098   4.884   5.469
  255SOL    HW1 1664   2.147   4.828   5.536
  255SOL    HW2 1665   2.059   4.964   5.515
  256SOL     OW 1666   5.997   4.011   5.776
  256SOL    HW1 1667   6.023   4.003   5.680
  256SOL    HW2 1668   5.954   4.100   5.792
  257SOL     OW 1669   4.878   0.482   3.591
  257SOL    HW1 1670   4.961   0.447   3.547
  257SOL    HW2 1671   4.856   0.572   3.554
  258SOL     OW 1672   2.206   5.004   5.184
  258SOL    HW1 1673   2.179   4.983   5.278
  258SOL    HW2 1674   2.216   4.918   5.133
  259SOL     OW 1675   6.489   1.651   3.009
  259SOL    HW1 1676   6.394   1.622   2.997
  259SOL    HW2 1677   6.532   1.594   3.080
  260SOL     OW 1678   4.226   6.414   2.419
  260SOL    HW1 1679   4.318   6.454   2.419
  260SOL    HW2 1680   4.223   6.338   2.353
  261SOL     OW 1681   6.267   3.117   0.776
  261SOL    HW1 1682   6.271   3.080   0.684
  261SOL    HW2 1683   6.213   3.055   0.834
  262SOL     OW 1684   0.828   3.792   0.202
  262SOL    HW1 1685   0.905   3.775   0.264
  262SOL    HW2 1686   0.756   3.839   0.252
  263SOL     OW 1687   2.251   0.665   4.693
  263SOL    HW1 1688   2.322   0.623   4.749
  263SOL    HW2 1689   2.161   0.642   4.732
  264SOL     OW 1690   6.141   3.230   6.557
  264SOL    HW1 1691   6.096   3.315   6.530
  264SOL    HW2 1692   6.197   3.246   6.638
  265SOL     OW 1693   5.735   6.422   2.829
  265SOL    HW1 1694   5.690   6.427   2.918
  265SOL    HW2 1695   5.683   6.477   2.763
  266SOL     OW 1696   3.483   2.962   5.747
  266SOL    HW1 1697   3.503   2.906   5.666
  266SOL    HW2 1698   3.404   2.925   5.795
  267SOL     OW 1699   0.822   1.420   6.345
  267SOL    HW1 1700   0.789   1.481   6.273
  267SOL    HW2 1701   0.815   1.466   6.434
  268SOL     OW 1702   3.150   1.277   6.258
  268SOL    HW1 1703   3.092   1.332   6.200
  268SOL    HW2 1704   3.168   1.189   6.215
  269SOL     OW 1705   1.625   3.765   1.177
  269SOL    HW1 1706   1.618   3.757   1.277
  269SOL    HW2 1707   1.712   3.726   1.147
  270SOL     OW 1708   1.417   6.161   0.515
  270SOL    HW1 1709   1.473   6.108   0.452
  270SOL    HW2 1710   1.464   6.169   0.603
  271SOL     OW 1711   6.917   1.652   6.846
  271SOL    HW1 1712   6.959   1.678   6.759
  271SOL    HW2 1713   6.823   1.685   6.850
  272SOL     OW 1714   3.419   5.668   3.732
  272SOL    HW1 1715   3.324   5.656   3.762
  272SOL    HW2 1716   3.427   5.639   3.636
  273SOL     OW 1717   2.641   4.610   4.502
  273SOL    HW1 1718   2.694   4.526   4.510
  273SOL    HW2 1719   2.674   4.678   4.567
  274SOL     OW 1720   3.957   1.914   3.100
  274SOL    HW1 1721   3.986   1.865   3.017
  274SOL    HW2 1722   4.006   2.001   3.107
  275SOL     OW 1723   6.772   5.454   3.504
  275SOL    HW1 1724   6.788   5.388   3.577
  275SOL    HW2 1725   6.717   5.412   3.432
  276SOL     OW 1726   6.790   6.230   2.527
  276SOL    HW1 1727   6.871   6.199   2.478
  276SOL    HW2 1728   6.756   6.156   2.586
  277SOL     OW 1729   1.494   4.285   0.466
  277SOL    HW1 1730   1.438   4.360   0.501
  277SOL    HW2 1731   1.453   4.247   0.383
  278SOL     OW 1732   0.215   4.578   1.952
  278SOL    HW1 1733   0.198   4.672   1.924
  278SOL    HW2 1734   0.172   4.561   2.041
  279SOL     OW 1735   5.741   3.252   4.364
  279SOL    HW1 1736   5.795   3.232   4.282
  279SOL    HW2 1737   5.704   3.167   4.401
  280SOL     OW 1738   2.919   6.108   3.371
  280SOL    HW1 1739   3.010   6.130   3.406
  280SOL    HW2 1740   2.913   6.010   3.352
  281SOL     OW 1741   2.482   4.382   1.737
  281SOL    HW1 1742   2.488   4.285   1.717
  281SOL    HW2 1743   2.386   4.410   1.741
  282SOL     OW 1744   3.037   1.221   5.826
  282SOL    HW1 1745   2.977   1.296   5.855
  282SOL    HW2 1746   3.107   1.257   5.764
  283SOL     OW 1747   5.810   2.530   6.247
  283SOL    HW1 1748   5.905   2.508   6.224
  283SOL    HW2 1749   5.791   2.625   6.221
  284SOL     OW 1750   1.183   3.758   3.844
  284SOL    HW1 1751   1.094   3.793   3.817
  284SOL    HW2 1752   1.203   3.786   3.938
  285SOL     OW 1753   5.679   4.820   4.170
  285SOL    HW1 1754   5.778   4.816   4.163
  285SOL    HW2 1755   5.645   4.741   4.221
  286SOL     OW 1756   3.455   5.099   6.361
  286SOL    HW1 1757   3.359   5.099   6.388
  286SOL    HW2 1758   3.512   5.087   6.442
  287SOL     OW 1759   1.013   3.447   1.335
  287SOL    HW1 1760   1.047   3.485   1.249
  287SOL    HW2 1761   0.925   3.403   1.319
  288SOL     OW 1762   3.159   1.444   6.925
  288SOL    HW1 1763   3.182   1.518   6.988
  288SOL    HW2 1764   3.228   1.372   6.933
  289SOL     OW 1765   1.568   4.489   5.779
  289SOL    HW1 1766   1.481   4.532   5.801
  289SOL    HW2 1767   1.631   4.558   5.743
  290SOL     OW 1768   6.219   1.988   4.566
  290SOL    HW1 1769   6.252   2.077   4.535
  290SOL    HW2 1770   6.278   1.954   4.640
  291SOL     OW 1771   1.309   2.256   4.890
  291SOL    HW1 1772   1.336   2.345   4.927
  291SOL    HW2 1773   1.329   2.254   4.792
  292SOL     OW 1774   1.537   2.103   3.326
  292SOL    HW1 1775   1.628   2.130   3.357
  292SOL    HW2 1776   1.476   2.182   3.326
  293SOL     OW 1777   4.109   6.388   2.733
  293SOL    HW1 1778   4.187   6.335   2.765
  293SOL    HW2 1779   4.113   6.396   2.633
  294SOL     OW 1780   0.576   6.248   6.751
  294SOL    HW1 1781   0.613   6.244   6.659
  294SOL    HW2 1782   0.584   6.158   6.795
  295SOL     OW 1783   3.885   1.186   3.633
  295SOL    HW1 1784   3.901   1.269   3.580
  295SOL    HW2 1785   3.926   1.108   3.586
  296SOL     OW 1786   3.727   2.113   3.070
  296SOL    HW1 1787   3.808   2.072   3.029
  296SOL    HW2 1788   3.659   2.130   2.999
  297SOL     OW 1789   2.728   4.871   3.406
  297SOL    HW1 1790   2.818   4.865   3.362
  297SOL    HW2 1791   2.699   4.780   3.436
  298SOL     OW 1792   3.319   5.521   1.688
  298SOL    HW1 1793   3.253   5.559   1.753
  298SOL    HW2 1794   3.403   5.575   1.690
  299SOL     OW 1795   5.786   3.310   6.287
  299SOL    HW1 1796   5.722   3.368   6.237
  299SOL    HW2 1797   5.869   3.298   6.234
  300SOL     OW 1798   6.365   0.838   2.635
  300SOL    HW1 1799   6.313   0.832   2.551
  300SOL    HW2 1800   6.426   0.759   2.644
  301SOL     OW 1801   4.939   3.502   1.333
  301SOL    HW1 1802   5.015   3.444   1.360
  301SOL    HW2 1803   4.962   3.550   1.248
  302SOL     OW 1804   1.351   0.128   3.442
  302SOL    HW1 1805   1.361   0.131   3.342
  302SOL    HW2 1806   1.397   0.207   3.482
  303SOL     OW 1807   5.896   0.702   2.015
  303SOL    HW1 1808   5.807   0.678   2.055
  303SOL    HW2 1809   5.882   0.761   1.936
  304SOL     OW 1810   2.395   0.216   3.498
  304SOL    HW1 1811   2.441   0.142   3.547
  304SOL    HW2 1812   2.301   0.226   3.532
  305SOL     OW 1813   0.186   3.615   0.121
  305SOL    HW1 1814   0.273   3.570   0.140
  305SOL    HW2 1815   0.139   3.567   0.047
  306SOL     OW 1816   1.824   0.493   3.816
  306SOL    HW1 1817   1.853   0.400   3.838
  306SOL    HW2 1818   1.778   0.494   3.727
  307SOL     OW 1819   4.613   6.676   0.584
  307SOL    HW1 1820   4.575   6.768   0.591
  307SOL    HW2 1821   4.681   6.663   0.656
  308SOL     OW 1822   6.388   3.969   4.819
  308SOL    HW1 1823   6.361   4.026   4.742
  308SOL    HW2 1824   6.345   4.003   4.903
  309SOL     OW 1825   4.148   3.900   6.204
  309SOL    HW1 1826   4.213   3.830   6.234
  309SOL    HW2 1827   4.190   3.954   6.131
  310SOL     OW 1828   6.704   6.857   5.874
  310SOL    HW1 1829   6.761   6.779   5.847
  310SOL    HW2 1830   6.762   6.938   5.886
  311SOL     OW 1831   6.598   5.078   1.938
  311SOL    HW1 1832   6.660   5.011   1.896
  311SOL    HW2 1833   6.641   5.116   2.020
  312SOL     OW 1834   4.395   2.282   5.850
  312SOL    HW1 1835   4.390   2.274   5.751
  312SOL    HW2 1836   4.311   2.246   5.891
  313SOL     OW 1837   2.940   4.240   1.672
  313SOL    HW1 1838   2.987   4.298   1.605
  313SOL    HW2 1839   2.855   4.284   1.701
  314SOL     OW 1840   2.983   5.614   0.096
  314SOL    HW1 1841   2.910   5.632   0.161
  314SOL    HW2 1842   3.045   5.544   0.133
  315SOL     OW 1843   1.319   2.435   3.641
  315SOL    HW1 1844   1.235   2.388   3.667
  315SOL    HW2 1845   1.334   2.513   3.702
  316SOL     OW 1846   2.244   2.448   4.359
  316SOL    HW1 1847   2.152   2.474   4.330
  316SOL    HW2 1848   2.310   2.514   4.321
  317SOL     OW 1849   0.919   1.028   0.737
  317SOL    HW1 1850   0.866   0.971   0.674
  317SOL    HW2 1851   0.898   1.125   0.719
  318SOL     OW 1852   0.889   5.589   0.457
  318SOL    HW1 1853   0.916   5.651   0.383
  318SOL    HW2 1854   0.955   5.514   0.463
  319SOL     OW 1855   6.987   0.589   2.361
  319SOL    HW1 1856   0.036   0.561   2.421
  319SOL    HW2 1857   6.904   0.602   2.416
  320SOL     OW 1858   5.160   2.441   6.610
  320SOL    HW1 1859   5.254   2.463   6.635
  320SOL    HW2 1860   5.122   2.515   6.555
  321SOL     OW 1861   2.827   1.224   2.186
  321SOL    HW1 1862   2.766   1.188   2.115
  321SOL    HW2 1863   2.885   1.296   2.147
  322SOL     OW 1864   3.196   3.604   4.423
  322SOL    HW1 1865   3.214   3.663   4.344
  322SOL    HW2 1866   3.099   3.606   4.445
  323SOL     OW 1867   0.431   4.288   7.013
  323SOL    HW1 1868   0.395   4.227   0.057
  323SOL    HW2 1869   0.411   4.250   6.923
  324SOL     OW 1870   1.748   3.034   3.854
  324SOL    HW1 1871   1.690   3.084   3.918
  324SOL    HW2 1872   1.779   3.096   3.782
  325SOL     OW 1873   2.008   3.086   1.276
  325SOL    HW1 1874   1.975   2.992   1.284
  325SOL    HW2 1875   2.076   3.104   1.348
  326SOL     OW 1876   1.989   5.533   6.759
  326SOL    HW1 1877   2.035   5.444   6.748
  326SOL    HW2 1878   2.057   5.606   6.751
  327SOL     OW 1879   1.310   5.337   3.733
  327SOL    HW1 1880   1.296   5.289   3.819
  327SOL    HW2 1881   1.254   5.419   3.731
  328SOL     OW 1882   3.229   4.934   2.655
  328SOL    HW1 1883   3.311   4.940   2.599
  328SOL    HW2 1884   3.252   4.894   2.744
  329SOL     OW 1885   3.484   4.043   4.185
  329SOL    HW1 1886   3.416   4.074   4.119
  329SOL    HW2 1887   3.561   4.001   4.137
  330SOL     OW 1888   3.269   5.862   2.315
  330SOL    HW1 1889   3.195   5.811   2.271
  330SOL    HW2 1890   3.311   5.924   2.249
  331SOL     OW 1891   4.787   4.891   6.761
  331SOL    HW1 1892   4.703   4.928   6.801
  331SOL    HW2 1893   4.799   4.927   6.669
  332SOL     OW 1894   3.686   2.032   4.353
  332SOL    HW1 1895   3.750   2.099   4.317
  332SOL    HW2 1896   3.644   1.983   4.277
  333SOL     OW 1897   3.707   6.944   6.996
  333SOL    HW1 1898   3.718   6.868   6.931
  333SOL    HW2 1899   3.780   6.941   0.037
  334SOL     OW 1900   2.921   6.843   1.177
  334SOL    HW1 1901   2.823   6.834   1.156
  334SOL    HW2 1902   2.936   6.826   1.274
  335SOL     OW 1903   3.297   6.639   3.860
  335SOL    HW1 1904   3.202   6.612   3.876
  335SOL    HW2 1905   3.339   6.663   3.947
  336SOL     OW 1906   2.311   0.504   3.665
  336SOL    HW1 1907   2.394   0.460   3.700
  336SOL    HW2 1908   2.322   0.525   3.568
  337SOL     OW 1909   0.187   3.331   0.810
  337SOL    HW1 1910   0.195   3.395   0.734
  337SOL    HW2 1911   0.180   3.382   0.896
  338SOL     OW 1912   2.707   2.661   1.239
  338SOL    HW1 1913   2.615   2.623   1.229
  338SOL    HW2 1914   2.762   2.599   1.295
  339SOL     OW 1915   3.815   6.814   3.944
  339SOL    HW1 1916   3.868   6.826   3.860
  339SOL    HW2 1917   3.871   6.771   4.014
  340SOL     OW 1918   5.328   4.258   4.931
  340SOL    HW1 1919   5.426   4.242   4.945
  340SOL    HW2 1920   5.315   4.322   4.856
  341SOL     OW 1921   6.578   6.823   4.003
  341SOL    HW1 1922   6.619   6.867   3.923
  341SOL    HW2 1923   6.484   6.856   4.014
  342SOL     OW 1924   5.871   4.092   6.879
  342SOL    HW1 1925   5.806   4.022   6.848
  342SOL    HW2 1926   5.821   4.173   6.909
  343SOL     OW 1927   2.285   5.683   0.952
  343SOL    HW1 1928   2.335   5.754   0.903
  343SOL    HW2 1929   2.309   5.685   1.049
  344SOL     OW 1930   1.985   5.496   1.666
  344SOL    HW1 1931   2.072   5.455   1.640
  344SOL    HW2 1932   1.984   5.592   1.639
  345SOL     OW 1933   6.931   0.884   5.695
  345SOL    HW1 1934   7.003   0.927   5.640
  345SOL    HW2 1935   6.883   0.816   5.640
  346SOL     OW 1936   2.422   0.058   1.773
  346SOL    HW1 1937   2.370   7.018   1.827
  346SOL    HW2 1938   2.421   0.147   1.819
  347SOL     OW 1939   4.885   0.123   6.443
  347SOL    HW1 1940   4.864   0.067   6.363
  347SOL    HW2 1941   4.877   0.067   6.526
  348SOL     OW 1942   4.691   4.919   1.564
  348SOL    HW1 1943   4.738   4.855   1.503
  348SOL    HW2 1944   4.736   5.008   1.560
  349SOL     OW 1945   6.977   4.629   2.106
  349SOL    HW1 1946   6.928   4.702   2.058
  349SOL    HW2 1947   6.922   4.545   2.103
  350SOL     OW 1948   3.683   3.596   1.750
  350SOL    HW1 1949   3.645   3.503   1.747
  350SOL    HW2 1950   3.610   3.663   1.742
  351SOL     OW 1951   2.431   2.750   0.682
  351SOL    HW1 1952   2.337   2.777   0.662
  351SOL    HW2 1953   2.430   2.679   0.753
  352SOL     OW 1954   3.532   6.957   4.932
  352SOL    HW1 1955   3.524   0.000   4.860
  352SOL    HW2 1956   3.615   6.902   4.916
  353SOL     OW 1957   2.896   0.080   0.900
  353SOL    HW1 1958   2.966   0.038   0.841
  353SOL    HW2 1959   2.940   0.134   0.971
  354SOL     OW 1960   4.245   2.531   0.298
  354SOL    HW1 1961   4.172   2.463   0.301
  354SOL    HW2 1962   4.260   2.559   0.203
  355SOL     OW 1963   6.659   2.990   3.193
  355SOL    HW1 1964   6.631   2.900   3.161
  355SOL    HW2 1965   6.746   3.016   3.152
  356SOL     OW 1966   4.305   5.486   4.506
  356SOL    HW1 1967   4.220   5.436   4.491
  356SOL    HW2 1968   4.383   5.423   4.500
  357SOL     OW 1969   6.977   6.908   5.273
  357SOL    HW1 1970   6.980   6.911   5.373
  357SOL    HW2 1971   6.890   6.869   5.243
  358SOL     OW 1972   6.417   0.241   1.077
  358SOL    HW1 1973   6.333   0.187   1.081
  358SOL    HW2 1974   6.395   0.333   1.045
  359SOL     OW 1975   1.788   2.537   2.345
  359SOL    HW1 1976   1.710   2.478   2.364
  359SOL    HW2 1977   1.800   2.547   2.246
  360SOL     OW 1978   2.613   6.273   6.374
  360SOL    HW1 1979   2.681   6.228   6.316
  360SOL    HW2 1980   2.557   6.334   6.318
  361SOL     OW 1981   5.544   5.488   2.782
  361SOL    HW1 1982   5.620   5.428   2.807
  361SOL    HW2 1983   5.523   5.548   2.860
  362SOL     OW 1984   3.577   3.735   0.600
  362SOL    HW1 1985   3.551   3.781   0.515
  362SOL    HW2 1986   3.547   3.640   0.596
  363SOL     OW 1987   3.605   4.918   3.585
  363SOL    HW1 1988   3.657   4.832   3.582
  363SOL    HW2 1989   3.606   4.953   3.678
  364SOL     OW 1990   0.513   5.464   5.133
  364SOL    HW1 1991   0.484   5.475   5.038
  364SOL    HW2 1992   0.457   5.394   5.177
  365SOL     OW 1993   4.484   6.571   2.730
  365SOL    HW1 1994   4.568   6.539   2.773
  365SOL    HW2 1995   4.501   6.661   2.689
  366SOL     OW 1996   5.367   0.769   0.192
  366SOL    HW1 1997   5.426   0.741   0.268
  366SOL    HW2 1998   5.423   0.791   0.112
  367SOL     OW 1999   5.125   2.585   0.898
  367SOL    HW1 2000   5.188   2.609   0.824
  367SOL    HW2 2001   5.032   2.581   0.862
  368SOL     OW 2002   1.312   4.190   5.318
  368SOL    HW1 2003   1.323   4.100   5.360
  368SOL    HW2 2004   1.359   4.192   5.230
  369SOL     OW 2005   6.584   4.381   1.763
  369SOL    HW1 2006   6.658   4.319   1.735
  369SOL    HW2 2007   6.522   4.333   1.825
  370SOL     OW 2008   2.500   1.418   5.262
  370SOL    HW1 2009   2.569   1.348   5.246
  370SOL    HW2 2010   2.523   1.500   5.210
  371SOL     OW 2011   2.052   3.766   6.320
  371SOL    HW1 2012   1.980   3.697   6.319
  371SOL    HW2 2013   2.016   3.852   6.357
  372SOL     OW 2014   0.130   0.556   5.214
  372SOL    HW1 2015   0.109   0.479   5.274
  372SOL    HW2 2016   0.048   0.583   5.164
  373SOL     OW 2017   6.926   6.895   5.542
  373SOL    HW1 2018   6.858   6.822   5.539
  373SOL    HW2 2019   6.997   6.873   5.610
  374SOL     OW 2020   4.478   0.020   2.466
  374SOL    HW1 2021   4.391   0.056   2.500
  374SOL    HW2 2022   4.554   0.074   2.504
  375SOL     OW 2023   0.076   4.446   3.632
  375SOL    HW1 2024   7.018   4.412   3.674
  375SOL    HW2 2025   0.058   4.534   3.589
  376SOL     OW 2026   1.795   3.547   3.569
  376SOL    HW1 2027   1.827   3.529   3.476
  376SOL    HW2 2028   1.740   3.470   3.601
  377SOL     OW 2029   6.005   2.912   2.473
  377SOL    HW1 2030   6.017   2.983   2.405
  377SOL    HW2 2031   5.963   2.832   2.431
  378SOL     OW 2032   3.719   2.857   5.514
  378SOL    HW1 2033   3.770   2.916   5.452
  378SOL    HW2 2034   3.621   2.863   5.492
  379SOL     OW 2035   5.682   3.442   1.517
  379SOL    HW1 2036   5.718   3.409   1.604
  379SOL    HW2 2037   5.583   3.458   1.527
  380SOL     OW 2038   2.502   1.457   1.794
  380SOL    HW1 2039   2.523   1.361   1.778
  380SOL    HW2 2040   2.572   1.497   1.854
  381SOL     OW 2041   1.924   4.745   1.556
  381SOL    HW1 2042   1.973   4.781   1.635
  381SOL    HW2 2043   1.833   4.712   1.585
  382SOL     OW 2044   3.944   5.776   6.928
  382SOL    HW1 2045   4.026   5.811   6.881
  382SOL    HW2 2046   3.938   5.818   7.019
  383SOL     OW 2047   6.515   3.109   6.279
  383SOL    HW1 2048   6.471   3.124   6.190
  383SOL    HW2 2049   6.489   3.019   6.314
  384SOL     OW 2050   1.185   3.651   4.939
  384SOL    HW1 2051   1.196   3.684   5.033
  384SOL    HW2 2052   1.204   3.725   4.875
  385SOL     OW 2053   5.098   6.443   0.096
  385SOL    HW1 2054   5.017   6.435   0.155
  385SOL    HW2 2055   5.150   6.524   0.122
  386SOL     OW 2056   4.078   6.691   5.329
  386SOL    HW1 2057   4.126   6.677   5.415
  386SOL    HW2 2058   4.127   6.644   5.255
  387SOL     OW 2059   0.319   6.795   4.014
  387SOL    HW1 2060   0.330   6.714   3.957
  387SOL    HW2 2061   0.288   6.768   4.105
  388SOL     OW 2062   0.073   2.089   4.966
  388SOL    HW1 2063   0.133   2.076   5.045
  388SOL    HW2 2064   0.022   2.005   4.949
  389SOL     OW 2065   4.406   4.004   1.699
  389SOL    HW1 2066   4.373   3.932   1.760
  389SOL    HW2 2067   4.435   4.083   1.754
  390SOL     OW 2068   3.477   1.284   0.419
  390SOL    HW1 2069   3.478   1.330   0.507
  390SOL    HW2 2070   3.454   1.349   0.347
  391SOL     OW 2071   2.689   4.133   5.469
  391SOL    HW1 2072   2.598   4.115   5.430
  391SOL    HW2 2073   2.687   4.113   5.567
  392SOL     OW 2074   1.243   3.439   2.090
  392SOL    HW1 2075   1.310   3.483   2.149
  392SOL    HW2 2076   1.291   3.393   2.015
  393SOL     OW 2077   1.360   4.480   0.843
  393SOL    HW1 2078   1.284   4.498   0.905
  393SOL    HW2 2079   1.446   4.497   0.890
  394SOL     OW 2080   0.396   3.067   6.982
  394SOL    HW1 2081   0.346   3.008   6.918
  394SOL    HW2 2082   0.491   3.075   6.953
  395SOL     OW 2083   5.590   4.113   2.041
  395SOL    HW1 2084   5.583   4.053   2.120
  395SOL    HW2 2085   5.686   4.123   2.015
  396SOL     OW 2086   2.565   2.066   2.242
  396SOL    HW1 2087   2.601   2.158   2.231
  396SOL    HW2 2088   2.517   2.038   2.158
  397SOL     OW 2089   4.774   1.512   5.846
  397SOL    HW1 2090   4.685   1.467   5.858
  397SOL    HW2 2091   4.787   1.535   5.750
  398SOL     OW 2092   1.347   6.570   4.431
  398SOL    HW1 2093   1.277   6.641   4.426
  398SOL    HW2 2094   1.350   6.520   4.344
  399SOL     OW 2095   6.014   6.267   3.872
  399SOL    HW1 2096   5.935   6.243   3.816
  399SOL    HW2 2097   6.005   6.225   3.963
  400SOL     OW 2098   6.736   0.303   4.634
  400SOL    HW1 2099   6.731   0.363   4.714
  400SOL    HW2 2100   6.648   0.256   4.622
  401SOL     OW 2101   6.455   1.233   6.339
  401SOL    HW1 2102   6.369   1.192   6.307
  401SOL    HW2 2103   6.519   1.160   6.360
  402SOL     OW 2104   6.097   0.602   2.506
  402SOL    HW1 2105   6.112   0.701   2.505
  402SOL    HW2 2106   6.180   0.556   2.538
  403SOL     OW 2107   3.064   0.095   5.873
  403SOL    HW1 2108   3.049   0.021   5.940
  403SOL    HW2 2109   3.162   0.106   5.857
  404SOL     OW 2110   3.567   6.392   5.791
  404SOL    HW1 2111   3.645   6.387   5.852
  404SOL    HW2 2112   3.595   6.366   5.698
  405SOL     OW 2113   1.854   3.876   3.064
  405SOL    HW1 2114   1.894   3.930   3.138
  405SOL    HW2 2115   1.754   3.880   3.071
  406SOL     OW 2116   0.762   4.824   5.031
  406SOL    HW1 2117   0.728   4.807   5.124
  406SOL    HW2 2118   0.862   4.822   5.030
  407SOL     OW 2119   1.580   3.400   3.721
  407SOL    HW1 2120   1.492   3.407   3.769
  407SOL    HW2 2121   1.598   3.304   3.701
  408SOL     OW 2122   3.844   2.032   2.800
  408SOL    HW1 2123   3.927   2.087   2.801
  408SOL    HW2 2124   3.854   1.957   2.735
  409SOL     OW 2125   0.299   3.630   1.830
  409SOL    HW1 2126   0.330   3.539   1.858
  409SOL    HW2 2127   0.241   3.623   1.750
  410SOL     OW 2128   1.612   2.507   1.453
  410SOL    HW1 2129   1.656   2.451   1.523
  410SOL    HW2 2130   1.563   2.447   1.389
  411SOL     OW 2131   0.442   2.229   1.805
  411SOL    HW1 2132   0.441   2.143   1.755
  411SOL    HW2 2133   0.511   2.225   1.877
  412SOL     OW 2134   2.655   4.583   2.919
  412SOL    HW1 2135   2.698   4.663   2.876
  412SOL    HW2 2136   2.724   4.513   2.937
  413SOL     OW 2137   3.425   4.959   2.461
  413SOL    HW1 2138   3.430   5.058   2.472
  413SOL    HW2 2139   3.374   4.936   2.379
  414SOL     OW 2140   3.138   6.911   3.891
  414SOL    HW1 2141   3.124   6.812   3.880
  414SOL    HW2 2142   3.124   6.956   3.803
  415SOL     OW 2143   6.893   1.474   0.470
  415SOL    HW1 2144   6.946   1.495   0.388
  415SOL    HW2 2145   6.824   1.546   0.484
  416SOL     OW 2146   5.219   3.669   4.781
  416SOL    HW1 2147   5.142   3.608   4.798
  416SOL    HW2 2148   5.194   3.763   4.804
  417SOL     OW 2149   2.441   1.802   6.889
  417SOL    HW1 2150   2.500   1.735   6.846
  417SOL    HW2 2151   2.376   1.756   6.950
  418SOL     OW 2152   3.300   6.641   4.618
  418SOL    HW1 2153   3.251   6.658   4.704
  418SOL    HW2 2154   3.306   6.726   4.566
  419SOL     OW 2155   6.982   6.666   1.918
  419SOL    HW1 2156   0.035   6.722   1.890
  419SOL    HW2 2157   6.940   6.707   1.999
  420SOL     OW 2158   5.341   0.813   6.839
  420SOL    HW1 2159   5.254   0.785   6.797
  420SOL    HW2 2160   5.409   0.741   6.826
  421SOL     OW 2161   5.087   4.207   4.779
  421SOL    HW1 2162   5.156   4.146   4.817
  421SOL    HW2 2163   5.077   4.288   4.837
  422SOL     OW 2164   4.848   2.038   1.161
  422SOL    HW1 2165   4.772   2.069   1.104
  422SOL    HW2 2166   4.816   2.023   1.255
  423SOL     OW 2167   2.738   0.811   6.452
  423SOL    HW1 2168   2.679   0.871   6.506
  423SOL    HW2 2169   2.830   0.809   6.492
  424SOL     OW 2170   1.452   4.821   2.743
  424SOL    HW1 2171   1.544   4.827   2.705
  424SOL    HW2 2172   1.419   4.727   2.736
  425SOL     OW 2173   4.706   1.201   5.029
  425SOL    HW1 2174   4.645   1.186   4.951
  425SOL    HW2 2175   4.793   1.155   5.013
  426SOL     OW 2176   2.598   2.400   4.770
  426SOL    HW1 2177   2.561   2.437   4.856
  426SOL    HW2 2178   2.549   2.316   4.747
  427SOL     OW 2179   4.592   1.451   3.824
  427SOL    HW1 2180   4.524   1.387   3.861
  427SOL    HW2 2181   4.681   1.406   3.823
  428SOL     OW 2182   2.938   0.949   4.995
  428SOL    HW1 2183   2.984   0.931   4.908
  428SOL    HW2 2184   2.877   1.028   4.985
  429SOL     OW 2185   0.959   6.068   3.903
  429SOL    HW1 2186   0.919   6.000   3.842
  429SOL    HW2 2187   1.047   6.034   3.937
  430SOL     OW 2188   1.607   6.992   3.949
  430SOL    HW1 2189   1.691   6.972   3.999
  430SOL    HW2 2190   1.582   0.062   3.964
  431SOL     OW 2191   3.276   2.092   1.195
  431SOL    HW1 2192   3.375   2.079   1.197
  431SOL    HW2 2193   3.251   2.148   1.116
  432SOL     OW 2194   4.785   2.343   1.252
  432SOL    HW1 2195   4.696   2.305   1.277
  432SOL    HW2 2196   4.771   2.424   1.194
  433SOL     OW 2197   2.993   6.364   6.605
  433SOL    HW1 2198   3.013   6.457   6.575
  433SOL    HW2 2199   2.903   6.363   6.650
  434SOL     OW 2200   3.736   6.433   3.730
  434SOL    HW1 2201   3.638   6.413   3.724
  434SOL    HW2 2202   3.755   6.517   3.679
  435SOL     OW 2203   3.354   1.714   5.865
  435SOL    HW1 2204   3.445   1.692   5.828
  435SOL    HW2 2205   3.307   1.775   5.802
  436SOL     OW 2206   3.516   5.850   3.432
  436SOL    HW1 2207   3.502   5.753   3.412
  436SOL    HW2 2208   3.467   5.905   3.364
  437SOL     OW 2209   0.091   0.969   4.523
  437SOL    HW1 2210   0.063   0.875   4.506
  437SOL    HW2 2211   0.087   1.020   4.437
  438SOL     OW 2212   0.821   5.221   3.496
  438SOL    HW1 2213   0.746   5.166   3.459
  438SOL    HW2 2214   0.897   5.162   3.522
  439SOL     OW 2215   5.858   0.442   2.492
  439SOL    HW1 2216   5.911   0.526   2.501
  439SOL    HW2 2217   5.918   0.363   2.505
  440SOL     OW 2218   3.708   0.703   0.349
  440SOL    HW1 2219   3.642   0.655   0.292
  440SOL    HW2 2220   3.659   0.756   0.418
  441SOL     OW 2221   6.541   4.563   2.850
  441SOL    HW1 2222   6.482   4.527   2.923
  441SOL    HW2 2223   6.563   4.659   2.870
  442SOL     OW 2224   4.915   3.991   5.813
  442SOL    HW1 2225   4.969   4.004   5.729
  442SOL    HW2 2226   4.974   4.008   5.893
  443SOL     OW 2227   4.697   4.326   3.261
  443SOL    HW1 2228   4.782   4.309   3.311
  443SOL    HW2 2229   4.657   4.239   3.232
  444SOL     OW 2230   4.012   0.964   1.047
  444SOL    HW1 2231   4.027   0.901   0.971
  444SOL    HW2 2232   4.087   1.029   1.051
  445SOL     OW 2233   2.448   5.807   3.101
  445SOL    HW1 2234   2.448   5.747   3.021
  445SOL    HW2 2235   2.364   5.861   3.102
  446SOL     OW 2236   5.453   5.655   2.983
  446SOL    HW1 2237   5.461   5.669   3.081
  446SOL    HW2 2238   5.361   5.679   2.952
  447SOL     OW 2239   5.655   4.437   6.318
  447SOL    HW1 2240   5.631   4.360   6.376
  447SOL    HW2 2241   5.626   4.418   6.224
  448SOL     OW 2242   3.318   1.616   2.435
  448SOL    HW1 2243   3.256   1.619   2.357
  448SOL    HW2 2244   3.295   1.539   2.494
  449SOL     OW 2245   1.804   2.756   3.803
  449SOL    HW1 2246   1.719   2.703   3.813
  449SOL    HW2 2247   1.787   2.851   3.828
  450SOL     OW 2248   0.708   4.988   3.203
  450SOL    HW1 2249   0.740   4.911   3.257
  450SOL    HW2 2250   0.787   5.038   3.166
  451SOL     OW 2251   0.110   2.235   3.640
  451SOL    HW1 2252   0.210   2.229   3.631
  451SOL    HW2 2253   0.084   2.207   3.732
  452SOL     OW 2254   3.935   6.357   3.018
  452SOL    HW1 2255   3.965   6.396   2.931
  452SOL    HW2 2256   3.859   6.294   3.001
  453SOL     OW 2257   4.212   7.019   0.045
  453SOL    HW1 2258   4.298   0.029   0.009
  453SOL    HW2 2259   4.208   6.921   0.030
  454SOL     OW 2260   6.724   4.381   6.087
  454SOL    HW1 2261   6.752   4.388   5.992
  454SOL    HW2 2262   6.777   4.308   6.132
  455SOL     OW 2263   0.035   4.310   5.801
  455SOL    HW1 2264   7.024   4.237   5.745
  455SOL    HW2 2265   0.135   4.310   5.795
  456SOL     OW 2266   2.078   1.082   3.210
  456SOL    HW1 2267   2.090   1.007   3.145
  456SOL    HW2 2268   2.054   1.045   3.300
  457SOL     OW 2269   2.011   6.000   6.118
  457SOL    HW1 2270   2.008   5.906   6.085
  457SOL    HW2 2271   2.093   6.013   6.174
  458SOL     OW 2272   2.518   1.760   3.660
  458SOL    HW1 2273   2.570   1.676   3.641
  458SOL    HW2 2274   2.477   1.794   3.575
  459SOL     OW 2275   2.131   6.971   5.480
  459SOL    HW1 2276   2.076   7.000   5.559
  459SOL    HW2 2277   2.166   0.025   5.432
  460SOL     OW 2278   1.131   1.720   5.351
  460SOL    HW1 2279   1.230   1.725   5.361
  460SOL    HW2 2280   1.104   1.761   5.264
  461SOL     OW 2281   0.057   4.753   5.275
  461SOL    HW1 2282   0.124   4.687   5.309
  461SOL    HW2 2283   0.005   4.791   5.352
  462SOL     OW 2284   3.735   3.745   4.203
  462SOL    HW1 2285   3.643   3.734   4.242
  462SOL    HW2 2286   3.734   3.819   4.136
  463SOL     OW 2287   6.222   6.647   2.609
  463SOL    HW1 2288   6.130   6.684   2.600
  463SOL    HW2 2289   6.269   6.650   2.520
  464SOL     OW 2290   3.393   6.058   5.956
  464SOL    HW1 2291   3.493   6.061   5.951
  464SOL    HW2 2292   3.357   6.017   5.872
  465SOL     OW 2293   1.331   1.981   0.777
  465SOL    HW1 2294   1.424   2.012   0.756
  465SOL    HW2 2295   1.266   2.030   0.719
  466SOL     OW 2296   3.245   6.406   4.885
  466SOL    HW1 2297   3.278   6.475   4.949
  466SOL    HW2 2298   3.261   6.436   4.791
  467SOL     OW 2299   6.989   1.742   2.757
  467SOL    HW1 2300   6.941   1.726   2.671
  467SOL    HW2 2301   0.047   1.793   2.739
  468SOL     OW 2302   4.246   0.776   6.472
  468SOL    HW1 2303   4.319   0.793   6.538
  468SOL    HW2 2304   4.203   0.688   6.492
  469SOL     OW 2305   2.870   4.304   6.248
  469SOL    HW1 2306   2.778   4.265   6.235
  469SOL    HW2 2307   2.919   4.303   6.161
  470SOL     OW 2308   2.325   5.247   3.377
  470SOL    HW1 2309   2.359   5.160   3.343
  470SOL    HW2 2310   2.372   5.322   3.329
  471SOL     OW 2311   2.522   2.335   3.760
  471SOL    HW1 2312   2.576   2.267   3.809
  471SOL    HW2 2313   2.565   2.355   3.672
  472SOL     OW 2314   6.301   4.372   6.154
  472SOL    HW1 2315   6.381   4.334   6.108
  472SOL    HW2 2316   6.317   4.373   6.253
  473SOL     OW 2317   6.862   2.310   2.819
  473SOL    HW1 2318   6.908   2.223   2.838
  473SOL    HW2 2319   6.806   2.336   2.898
  474SOL     OW 2320   6.321   6.162   4.792
  474SOL    HW1 2321   6.308   6.063   4.790
  474SOL    HW2 2322   6.242   6.205   4.834
  475SOL     OW 2323   5.657   1.712   0.249
  475SOL    HW1 2324   5.730   1.730   0.183
  475SOL    HW2 2325   5.569   1.728   0.206
  476SOL     OW 2326   0.886   3.901   2.016
  476SOL    HW1 2327   0.940   3.846   1.952
  476SOL    HW2 2328   0.842   3.841   2.083
  477SOL     OW 2329   2.534   6.084   3.677
  477SOL    HW1 2330   2.470   6.153   3.711
  477SOL    HW2 2331   2.594   6.055   3.751
  478SOL     OW 2332   4.563   5.816   2.758
  478SOL    HW1 2333   4.606   5.769   2.835
  478SOL    HW2 2334   4.473   5.849   2.784
  479SOL     OW 2335   4.171   3.469   3.721
  479SOL    HW1 2336   4.106   3.503   3.789
  479SOL    HW2 2337   4.227   3.397   3.762
  480SOL     OW 2338   1.264   6.780   2.838
  480SOL    HW1 2339   1.353   6.780   2.882
  480SOL    HW2 2340   1.214   6.863   2.863
  481SOL     OW 2341   0.755   6.295   0.453
  481SOL    HW1 2342   0.852   6.279   0.469
  481SOL    HW2 2343   0.743   6.349   0.370
  482SOL     OW 2344   5.267   4.685   2.305
  482SOL    HW1 2345   5.208   4.605   2.293
  482SOL    HW2 2346   5.349   4.659   2.354
  483SOL     OW 2347   5.826   2.223   3.255
  483SOL    HW1 2348   5.748   2.166   3.233
  483SOL    HW2 2349   5.840   2.224   3.354
  484SOL     OW 2350   2.313   4.319   4.500
  484SOL    HW1 2351   2.353   4.332   4.591
  484SOL    HW2 2352   2.377   4.351   4.430
  485SOL     OW 2353   5.424   3.529   2.734
  485SOL    HW1 2354   5.479   3.535   2.651
  485SOL    HW2 2355   5.469   3.468   2.799
  486SOL     OW 2356   6.291   6.577   5.921
  486SOL    HW1 2357   6.355   6.527   5.979
  486SOL    HW2 2358   6.342   6.631   5.854
  487SOL     OW 2359   0.426   6.470   4.139
  487SOL    HW1 2360   0.476   6.386   4.158
  487SOL    HW2 2361   0.392   6.509   4.225
  488SOL     OW 2362   1.925   6.617   3.771
  488SOL    HW1 2363   1.919   6.683   3.697
  488SOL    HW2 2364   1.945   6.526   3.734
  489SOL     OW 2365   6.883   5.832   4.859
  489SOL    HW1 2366   6.809   5.768   4.879
  489SOL    HW2 2367   6.915   5.873   4.945
  490SOL     OW 2368   1.480   5.008   5.722
  490SOL    HW1 2369   1.537   5.065   5.781
  490SOL    HW2 2370   1.536   4.965   5.652
  491SOL     OW 2371   0.444   2.858   0.724
  491SOL    HW1 2372   0.423   2.774   0.774
  491SOL    HW2 2373   0.370   2.877   0.658
  492SOL     OW 2374   1.249   1.486   5.608
  492SOL    HW1 2375   1.158   1.471   5.569
  492SOL    HW2 2376   1.261   1.428   5.688
  493SOL     OW 2377   2.482   6.309   5.143
  493SOL    HW1 2378   2.471   6.211   5.126
  493SOL    HW2 2379   2.580   6.332   5.145
  494SOL     OW 2380   2.191   0.632   5.616
  494SOL    HW1 2381   2.262   0.667   5.676
  494SOL    HW2 2382   2.143   0.708   5.573
  495SOL     OW 2383   4.021   5.943   5.471
  495SOL    HW1 2384   4.107   5.946   5.522
  495SOL    HW2 2385   4.021   6.015   5.401
  496SOL     OW 2386   5.850   2.175   2.956
  496SOL    HW1 2387   5.947   2.187   2.981
  496SOL    HW2 2388   5.834   2.081   2.927
  497SOL     OW 2389   3.305   1.172   6.647
  497SOL    HW1 2390   3.374   1.101   6.655
  497SOL    HW2 2391   3.219   1.142   6.689
  498SOL     OW 2392   0.566   5.391   2.030
  498SOL    HW1 2393   0.528   5.301   2.052
  498SOL    HW2 2394   0.647   5.407   2.086
  499SOL     OW 2395   3.758   4.955   6.860
  499SOL    HW1 2396   3.700   4.884   6.820
  499SOL    HW2 2397   3.740   4.962   6.958
  500SOL     OW 2398   5.846   2.510   6.583
  500SOL    HW1 2399   5.821   2.467   6.670
  500SOL    HW2 2400   5.826   2.608   6.587
  501SOL     OW 2401   1.046   6.966   2.811
  501SOL    HW1 2402   1.015   7.018   2.731
  501SOL    HW2 2403   0.968   6.918   2.851
  502SOL     OW 2404   2.008   4.403   6.571
  502SOL    HW1 2405   1.967   4.313   6.585
  502SOL    HW2 2406   2.004   4.427   6.473
  503SOL     OW 2407   3.603   4.791   6.726
  503SOL    HW1 2408   3.612   4.742   6.639
  503SOL    HW2 2409   3.518   4.763   6.771
  504SOL     OW 2410   6.348   6.105   1.928
  504SOL    HW1 2411   6.306   6.132   2.015
  504SOL    HW2 2412   6.445   6.086   1.942
  505SOL     OW 2413   5.047   6.695   5.184
  505SOL    HW1 2414   4.964   6.730   5.227
  505SOL    HW2 2415   5.074   6.755   5.110
  506SOL     OW 2416   2.946   5.859   3.281
  506SOL    HW1 2417   2.944   5.865   3.181
  506SOL    HW2 2418   3.025   5.804   3.309
  507SOL     OW 2419   4.404   1.048   1.771
  507SOL    HW1 2420   4.378   0.997   1.852
  507SOL    HW2 2421   4.349   1.131   1.765
  508SOL     OW 2422   0.233   4.544   4.676
  508SOL    HW1 2423   0.159   4.597   4.634
  508SOL    HW2 2424   0.233   4.561   4.775
  509SOL     OW 2425   4.412   0.844   6.681
  509SOL    HW1 2426   4.509   0.827   6.699
  509SOL    HW2 2427   4.387   0.934   6.717
  510SOL     OW 2428   6.156   4.585   6.082
  510SOL    HW1 2429   6.187   4.641   6.005
  510SOL    HW2 2430   6.227   4.518   6.105
  511SOL     OW 2431   1.639   1.760   0.522
  511SOL    HW1 2432   1.679   1.777   0.612
  511SOL    HW2 2433   1.543   1.734   0.532
  512SOL     OW 2434   5.471   2.506   0.357
  512SOL    HW1 2435   5.493   2.595   0.395
  512SOL    HW2 2436   5.420   2.517   0.271
  513SOL     OW 2437   5.642   0.649   2.909
  513SOL    HW1 2438   5.716   0.715   2.901
  513SOL    HW2 2439   5.559   0.695   2.940
  514SOL     OW 2440   6.995   6.877   4.107
  514SOL    HW1 2441   7.005   6.921   4.017
  514SOL    HW2 2442   6.960   6.944   4.172
  515SOL     OW 2443   2.892   0.507   6.776
  515SOL    HW1 2444   2.850   0.515   6.686
  515SOL    HW2 2445   2.988   0.533   6.771
  516SOL     OW 2446   3.037   4.945   1.453
  516SOL    HW1 2447   3.067   4.906   1.366
  516SOL    HW2 2448   3.117   4.960   1.512
  517SOL     OW 2449   2.960   5.121   2.576
  517SOL    HW1 2450   3.036   5.160   2.630
  517SOL    HW2 2451   2.965   5.022   2.578
  518SOL     OW 2452   2.054   3.248   3.555
  518SOL    HW1 2453   2.088   3.341   3.569
  518SOL    HW2 2454   2.114   3.183   3.602
  519SOL     OW 2455   6.702   6.449   3.493
  519SOL    HW1 2456   6.616   6.441   3.543
  519SOL    HW2 2457   6.740   6.358   3.476
  520SOL     OW 2458   1.001   3.286   6.978
  520SOL    HW1 2459   1.083   3.230   6.981
  520SOL    HW2 2460   0.924   3.235   7.016
  521SOL     OW 2461   5.220   5.065   4.926
  521SOL    HW1 2462   5.167   5.127   4.984
  521SOL    HW2 2463   5.158   5.001   4.880
  522SOL     OW 2464   4.642   3.647   1.083
  522SOL    HW1 2465   4.635   3.577   1.154
  522SOL    HW2 2466   4.697   3.724   1.117
  523SOL     OW 2467   0.269   6.200   1.536
  523SOL    HW1 2468   0.367   6.196   1.553
  523SOL    HW2 2469   0.227   6.268   1.596
  524SOL     OW 2470   0.374   2.820   2.242
  524SOL    HW1 2471   0.341   2.898   2.188
  524SOL    HW2 2472   0.320   2.811   2.325
  525SOL     OW 2473   1.009   3.768   0.434
  525SOL    HW1 2474   1.016   3.834   0.509
  525SOL    HW2 2475   1.094   3.770   0.381
  526SOL     OW 2476   3.527   0.116   4.743
  526SOL    HW1 2477   3.492   0.209   4.746
  526SOL    HW2 2478   3.539   0.087   4.648
  527SOL     OW 2479   1.332   2.133   6.835
  527SOL    HW1 2480   1.323   2.152   6.932
  527SOL    HW2 2481   1.429   2.131   6.810
  528SOL     OW 2482   0.382   3.827   4.075
  528SOL    HW1 2483   0.377   3.800   4.171
  528SOL    HW2 2484   0.309   3.894   4.056
  529SOL     OW 2485   2.531   6.968   5.776
  529SOL    HW1 2486   2.462   6.902   5.746
  529SOL    HW2 2487   2.564   6.942   5.867
  530SOL     OW 2488   3.735   3.347   1.530
  530SOL    HW1 2489   3.651   3.340   1.586
  530SOL    HW2 2490   3.744   3.265   1.473
  531SOL     OW 2491   2.521   0.693   2.530
  531SOL    HW1 2492   2.479   0.613   2.486
  531SOL    HW2 2493   2.564   0.749   2.460
  532SOL     OW 2494   2.474   3.275   0.128
  532SOL    HW1 2495   2.470   3.179   0.157
  532SOL    HW2 2496   2.421   3.331   0.192
  533SOL     OW 2497   4.282   0.380   3.295
  533SOL    HW1 2498   4.324   0.340   3.377
  533SOL    HW2 2499   4.247   0.307   3.237
  534SOL     OW 2500   0.865   5.509   1.092
  534SOL    HW1 2501   0.949   5.549   1.128
  534SOL    HW2 2502   0.864   5.411   1.109
  535SOL     OW 2503   5.396   4.065   2.805
  535SOL    HW1 2504   5.364   4.076   2.711
  535SOL    HW2 2505   5.495   4.050   2.805
  536SOL     OW 2506   6.888   5.981   2.901
  536SOL    HW1 2507   6.982   5.989   2.935
  536SOL    HW2 2508   6.834   5.924   2.963
  537SOL     OW 2509   3.480   6.940   4.250
  537SOL    HW1 2510   3.527   6.989   4.323
  537SOL    HW2 2511   3.524   6.959   4.162
  538SOL     OW 2512   2.399   4.814   5.557
  538SOL    HW1 2513   2.415   4.766   5.644
  538SOL    HW2 2514   2.417   4.751   5.481
  539SOL     OW 2515   1.268   5.713   0.595
  539SOL    HW1 2516   1.257   5.617   0.573
  539SOL    HW2 2517   1.354   5.747   0.556
  540SOL     OW 2518   1.772   0.808   3.879
  540SOL    HW1 2519   1.759   0.894   3.928
  540SOL    HW2 2520   1.776   0.732   3.944
  541SOL     OW 2521   4.402   6.330   4.234
  541SOL    HW1 2522   4.444   6.402   4.290
  541SOL    HW2 2523   4.344   6.272   4.292
  542SOL     OW 2524   3.307   5.747   6.518
  542SOL    HW1 2525   3.227   5.787   6.474
  542SOL    HW2 2526   3.376   5.724   6.449
  543SOL     OW 2527   5.851   3.370   4.037
  543SOL    HW1 2528   5.845   3.287   3.982
  543SOL    HW2 2529   5.787   3.438   4.002
  544SOL     OW 2530   6.993   4.915   0.120
  544SOL    HW1 2531   6.908   4.961   0.145
  544SOL    HW2 2532   7.017   4.847   0.190
  545SOL     OW 2533   5.468   1.531   1.114
  545SOL    HW1 2534   5.392   1.484   1.069
  545SOL    HW2 2535   5.533   1.563   1.046
  546SOL     OW 2536   0.534   4.526   2.447
  546SOL    HW1 2537   0.603   4.465   2.486
  546SOL    HW2 2538   0.478   4.476   2.382
  547SOL     OW 2539   3.511   1.970   0.366
  547SOL    HW1 2540   3.578   2.027   0.319
  547SOL    HW2 2541   3.551   1.934   0.450
  548SOL     OW 2542   3.677   3.010   0.731
  548SOL    HW1 2543   3.663   3.062   0.647
  548SOL    HW2 2544   3.713   3.070   0.803
  549SOL     OW 2545   5.636   2.585   0.753
  549SOL    HW1 2546   5.588   2.646   0.689
  549SOL    HW2 2547   5.621   2.490   0.726
  550SOL     OW 2548   0.235   4.458   3.145
  550SOL    HW1 2549   0.210   4.364   3.120
  550SOL    HW2 2550   0.277   4.503   3.067
  551SOL     OW 2551   0.195   1.046   0.584
  551SOL    HW1 2552   0.196   1.129   0.529
  551SOL    HW2 2553   0.282   0.998   0.574
  552SOL     OW 2554   5.338   5.467   5.412
  552SOL    HW1 2555   5.385   5.479   5.325
  552SOL    HW2 2556   5.397   5.500   5.486
  553SOL     OW 2557   3.123   0.729   4.613
  553SOL    HW1 2558   3.158   0.774   4.695
  553SOL    HW2 2559   3.144   0.785   4.533
  554SOL     OW 2560   5.939   5.772   0.152
  554SOL    HW1 2561   5.954   5.827   0.070
  554SOL    HW2 2562   5.857   5.804   0.199
  555SOL     OW 2563   3.240   5.593   5.496
  555SOL    HW1 2564   3.210   5.595   5.401
  555SOL    HW2 2565   3.175   5.645   5.552
  556SOL     OW 2566   5.424   2.196   4.226
  556SOL    HW1 2567   5.365   2.141   4.286
  556SOL    HW2 2568   5.371   2.273   4.190
  557SOL     OW 2569   0.039   4.563   5.791
  557SOL    HW1 2570   0.105   4.590   5.861
  557SOL    HW2 2571   0.023   4.465   5.797
  558SOL     OW 2572   4.058   3.777   3.186
  558SOL    HW1 2573   4.028   3.725   3.107
  558SOL    HW2 2574   3.994   3.852   3.203
  559SOL     OW 2575   6.417   6.100   5.572
  559SOL    HW1 2576   6.360   6.043   5.631
  559SOL    HW2 2577   6.359   6.167   5.524
  560SOL     OW 2578   6.752   3.341   3.838
  560SOL    HW1 2579   6.695   3.345   3.920
  560SOL    HW2 2580   6.820   3.414   3.841
  561SOL     OW 2581   6.962   3.494   6.688
  561SOL    HW1 2582   6.868   3.523   6.667
  561SOL    HW2 2583   7.025   3.569   6.668
  562SOL     OW 2584   4.968   6.712   5.516
  562SOL    HW1 2585   4.940   6.755   5.430
  562SOL    HW2 2586   5.027   6.775   5.567
  563SOL     OW 2587   1.633   1.815   4.036
  563SOL    HW1 2588   1.553   1.807   3.976
  563SOL    HW2 2589   1.602   1.822   4.131
  564SOL     OW 2590   0.216   1.228   6.201
  564SOL    HW1 2591   0.267   1.290   6.261
  564SOL    HW2 2592   0.163   1.281   6.135
  565SOL     OW 2593   3.218   2.938   3.448
  565SOL    HW1 2594   3.217   2.973   3.354
  565SOL    HW2 2595   3.143   2.979   3.500
  566SOL     OW 2596   2.740   5.232   2.743
  566SOL    HW1 2597   2.794   5.210   2.662
  566SOL    HW2 2598   2.676   5.305   2.721
  567SOL     OW 2599   2.685   2.798   0.779
  567SOL    HW1 2600   2.727   2.763   0.863
  567SOL    HW2 2601   2.606   2.741   0.755
  568SOL     OW 2602   5.477   6.951   0.555
  568SOL    HW1 2603   5.491   7.023   0.487
  568SOL    HW2 2604   5.542   6.877   0.540
  569SOL     OW 2605   0.684   2.424   0.199
  569SOL    HW1 2606   0.600   2.477   0.198
  569SOL    HW2 2607   0.757   2.476   0.155
  570SOL     OW 2608   2.938   0.301   5.997
  570SOL    HW1 2609   3.004   0.244   5.947
  570SOL    HW2 2610   2.977   0.392   6.012
  571SOL     OW 2611   2.715   5.170   3.431
  571SOL    HW1 2612   2.675   5.204   3.346
  571SOL    HW2 2613   2.721   5.070   3.427
  572SOL     OW 2614   1.601   5.852   4.845
  572SOL    HW1 2615   1.622   5.949   4.859
  572SOL    HW2 2616   1.549   5.817   4.922
  573SOL     OW 2617   6.617   1.932   6.096
  573SOL    HW1 2618   6.630   2.018   6.047
  573SOL    HW2 2619   6.691   1.869   6.073
  574SOL     OW 2620   3.326   1.061   4.954
  574SOL    HW1 2621   3.294   1.105   4.870
  574SOL    HW2 2622   3.418   1.023   4.939
  575SOL     OW 2623   4.109   2.676   0.896
  575SOL    HW1 2624   4.010   2.669   0.905
  575SOL    HW2 2625   4.140   2.759   0.943
  576SOL     OW 2626   2.182   2.876   2.691
  576SOL    HW1 2627   2.251   2.804   2.693
  576SOL    HW2 2628   2.108   2.852   2.754
  577SOL     OW 2629   0.535   0.556   2.225
  577SOL    HW1 2630   0.586   0.568   2.310
  577SOL    HW2 2631   0.437   0.552   2.245
  578SOL     OW 2632   1.423   5.362   0.328
  578SOL    HW1 2633   1.503   5.359   0.269
  578SOL    HW2 2634   1.341   5.375   0.273
  579SOL     OW 2635   2.313   4.628   2.424
  579SOL    HW1 2636   2.368   4.568   2.366
  579SOL    HW2 2637   2.372   4.694   2.471
  580SOL     OW 2638   4.449   5.180   4.978
  580SOL    HW1 2639   4.459   5.095   4.926
  580SOL    HW2 2640   4.373   5.170   5.043
  581SOL     OW 2641   0.608   3.135   4.044
  581SOL    HW1 2642   0.590   3.097   4.135
  581SOL    HW2 2643   0.666   3.073   3.992
  582SOL     OW 2644   4.933   5.781   3.441
  582SOL    HW1 2645   4.883   5.702   3.475
  582SOL    HW2 2646   4.882   5.824   3.367
  583SOL     OW 2647   2.840   5.440   5.336
  583SOL    HW1 2648   2.917   5.416   5.395
  583SOL    HW2 2649   2.760   5.460   5.393
  584SOL     OW 2650   3.192   0.370   6.506
  584SOL    HW1 2651   3.129   0.294   6.520
  584SOL    HW2 2652   3.208   0.417   6.593
  585SOL     OW 2653   3.857   6.691   1.421
  585SOL    HW1 2654   3.777   6.672   1.478
  585SOL    HW2 2655   3.927   6.621   1.437
  586SOL     OW 2656   4.153   0.134   1.172
  586SOL    HW1 2657   4.250   0.124   1.153
  586SOL    HW2 2658   4.125   0.065   1.238
  587SOL     OW 2659   5.590   2.013   1.784
  587SOL    HW1 2660   5.495   1.985   1.772
  587SOL    HW2 2661   5.648   1.965   1.718
  588SOL     OW 2662   1.633   5.107   0.844
  588SOL    HW1 2663   1.695   5.032   0.823
  588SOL    HW2 2664   1.540   5.083   0.816
  589SOL     OW 2665   3.202   5.697   1.410
  589SOL    HW1 2666   3.273   5.720   1.477
  589SOL    HW2 2667   3.233   5.724   1.319
  590SOL     OW 2668   5.573   1.437   0.630
  590SOL    HW1 2669   5.525   1.351   0.610
  590SOL    HW2 2670   5.667   1.417   0.655
  591SOL     OW 2671   4.443   6.040   3.876
  591SOL    HW1 2672   4.394   6.095   3.809
  591SOL    HW2 2673   4.530   6.009   3.838
  592SOL     OW 2674   5.197   1.050   3.625
  592SOL    HW1 2675   5.213   0.996   3.542
  592SOL    HW2 2676   5.262   1.126   3.628
  593SOL     OW 2677   3.868   2.132   4.766
  593SOL    HW1 2678   3.930   2.173   4.833
  593SOL    HW2 2679   3.901   2.152   4.673
  594SOL     OW 2680   6.158   1.893   1.132
  594SOL    HW1 2681   6.142   1.809   1.182
  594SOL    HW2 2682   6.071   1.943   1.123
  595SOL     OW 2683   5.540   6.856   3.350
  595SOL    HW1 2684   5.474   6.905   3.408
  595SOL    HW2 2685   5.493   6.785   3.298
  596SOL     OW 2686   0.139   4.701   3.395
  596SOL    HW1 2687   0.210   4.632   3.385
  596SOL    HW2 2688   0.182   4.792   3.398
  597SOL     OW 2689   3.413   0.153   6.211
  597SOL    HW1 2690   3.418   0.116   6.118
  597SOL    HW2 2691   3.361   0.090   6.269
  598SOL     OW 2692   3.082   3.959   4.953
  598SOL    HW1 2693   3.017   4.025   4.991
  598SOL    HW2 2694   3.071   3.871   4.997
  599SOL     OW 2695   1.787   6.376   1.892
  599SOL    HW1 2696   1.862   6.312   1.878
  599SOL    HW2 2697   1.759   6.414   1.804
  600SOL     OW 2698   0.102   3.588   5.489
  600SOL    HW1 2699   0.194   3.567   5.457
  600SOL    HW2 2700   0.092   3.557   5.584
  601SOL     OW 2701   1.918   1.023   5.339
  601SOL    HW1 2702   1.885   1.086   5.269
  601SOL    HW2 2703   1.885   1.053   5.429
  602SOL     OW 2704   3.385   0.032   5.668
  602SOL    HW1 2705   3.293   0.060   5.641
  602SOL    HW2 2706   3.451   0.062   5.599
  603SOL     OW 2707   1.908   1.364   6.123
  603SOL    HW1 2708   1.948   1.444   6.079
  603SOL    HW2 2709   1.979   1.314   6.172
  604SOL     OW 2710   0.193   2.324   1.816
  604SOL    HW1 2711   0.292   2.314   1.829
  604SOL    HW2 2712   0.161   2.260   1.747
  605SOL     OW 2713   0.453   4.963   2.553
  605SOL    HW1 2714   0.489   4.945   2.644
  605SOL    HW2 2715   0.480   4.889   2.491
  606SOL     OW 2716   4.776   6.776   5.273
  606SOL    HW1 2717   4.701   6.728   5.228
  606SOL    HW2 2718   4.748   6.802   5.365
  607SOL     OW 2719   0.699   5.232   5.406
  607SOL    HW1 2720   0.623   5.209   5.467
  607SOL    HW2 2721   0.701   5.167   5.330
  608SOL     OW 2722   3.977   0.339   6.415
  608SOL    HW1 2723   3.977   0.313   6.319
  608SOL    HW2 2724   3.884   0.338   6.450
  609SOL     OW 2725   3.885   2.258   1.681
  609SOL    HW1 2726   3.973   2.263   1.728
  609SOL    HW2 2727   3.811   2.278   1.746
  610SOL     OW 2728   4.538   2.156   0.366
  610SOL    HW1 2729   4.482   2.238   0.365
  610SOL    HW2 2730   4.561   2.130   0.273
  611SOL     OW 2731   4.127   6.999   2.368
  611SOL    HW1 2732   4.161   0.060   2.405
  611SOL    HW2 2733   4.172   6.980   2.281
  612SOL     OW 2734   2.771   4.604   5.530
  612SOL    HW1 2735   2.713   4.523   5.547
  612SOL    HW2 2736   2.762   4.632   5.435
  613SOL     OW 2737   5.444   5.407   5.076
  613SOL    HW1 2738   5.427   5.490   5.023
  613SOL    HW2 2739   5.512   5.351   5.029
  614SOL     OW 2740   4.718   5.220   5.351
  614SOL    HW1 2741   4.780   5.297   5.335
  614SOL    HW2 2742   4.624   5.252   5.348
  615SOL     OW 2743   6.897   4.265   0.647
  615SOL    HW1 2744   6.902   4.170   0.616
  615SOL    HW2 2745   6.981   4.289   0.695
  616SOL     OW 2746   6.350   3.290   3.348
  616SOL    HW1 2747   6.408   3.340   3.284
  616SOL    HW2 2748   6.352   3.336   3.437
  617SOL     OW 2749   1.480   5.257   6.466
  617SOL    HW1 2750   1.413   5.188   6.442
  617SOL    HW2 2751   1.443   5.348   6.446
  618SOL     OW 2752   1.693   2.062   1.633
  618SOL    HW1 2753   1.600   2.025   1.637
  618SOL    HW2 2754   1.750   2.002   1.578
  619SOL     OW 2755   1.607   1.870   0.903
  619SOL    HW1 2756   1.634   1.921   0.821
  619SOL    HW2 2757   1.540   1.923   0.955
  620SOL     OW 2758   4.623   1.748   0.178
  620SOL    HW1 2759   4.536   1.787   0.210
  620SOL    HW2 2760   4.685   1.738   0.256
  621SOL     OW 2761   6.410   5.321   6.482
  621SOL    HW1 2762   6.427   5.397   6.420
  621SOL    HW2 2763   6.496   5.283   6.515
  622SOL     OW 2764   1.926   0.985   0.444
  622SOL    HW1 2765   1.922   0.991   0.344
  622SOL    HW2 2766   2.019   0.966   0.473
  623SOL     OW 2767   0.494   5.660   5.814
  623SOL    HW1 2768   0.473   5.643   5.717
  623SOL    HW2 2769   0.592   5.679   5.824
  624SOL     OW 2770   0.617   2.749   2.176
  624SOL    HW1 2771   0.663   2.832   2.144
  624SOL    HW2 2772   0.522   2.772   2.202
  625SOL     OW 2773   3.388   1.509   1.442
  625SOL    HW1 2774   3.428   1.563   1.516
  625SOL    HW2 2775   3.390   1.562   1.357
  626SOL     OW 2776   1.971   5.845   3.524
  626SOL    HW1 2777   2.071   5.843   3.534
  626SOL    HW2 2778   1.945   5.805   3.436
  627SOL     OW 2779   5.453   0.349   0.501
  627SOL    HW1 2780   5.518   0.423   0.481
  627SOL    HW2 2781   5.371   0.388   0.542
  628SOL     OW 2782   4.930   5.158   4.549
  628SOL    HW1 2783   4.999   5.096   4.512
  628SOL    HW2 2784   4.970   5.213   4.622
  629SOL     OW 2785   0.837   0.106   1.350
  629SOL    HW1 2786   0.833   0.020   1.298
  629SOL    HW2 2787   0.745   0.144   1.358
  630SOL     OW 2788   4.971   2.302   1.919
  630SOL    HW1 2789   4.958   2.396   1.949
  630SOL    HW2 2790   4.983   2.242   1.998
  631SOL     OW 2791   3.055   0.488   5.012
  631SOL    HW1 2792   3.112   0.539   4.947
  631SOL    HW2 2793   2.959   0.505   4.992
  632SOL     OW 2794   2.374   1.024   0.346
  632SOL    HW1 2795   2.435   0.952   0.313
  632SOL    HW2 2796   2.413   1.113   0.322
  633SOL     OW 2797   3.365   5.324   0.638
  633SOL    HW1 2798   3.281   5.276   0.611
  633SOL    HW2 2799   3.399   5.287   0.724
  634SOL     OW 2800   4.262   4.754   1.628
  634SOL    HW1 2801   4.327   4.684   1.657
  634SOL    HW2 2802   4.285   4.785   1.536
  635SOL     OW 2803   4.337   6.750   3.394
  635SOL    HW1 2804   4.287   6.834   3.375
  635SOL    HW2 2805   4.313   6.681   3.325
  636SOL     OW 2806   4.928   5.538   6.293
  636SOL    HW1 2807   4.924   5.571   6.199
  636SOL    HW2 2808   4.848   5.573   6.343
  637SOL     OW 2809   5.143   5.045   2.024
  637SOL    HW1 2810   5.183   5.025   2.114
  637SOL    HW2 2811   5.103   4.961   1.986
  638SOL     OW 2812   5.068   1.456   2.304
  638SOL    HW1 2813   4.997   1.402   2.350
  638SOL    HW2 2814   5.041   1.473   2.210
  639SOL     OW 2815   4.694   4.988   2.150
  639SOL    HW1 2816   4.732   5.069   2.196
  639SOL    HW2 2817   4.768   4.925   2.128
  640SOL     OW 2818   2.640   4.452   5.866
  640SOL    HW1 2819   2.614   4.365   5.907
  640SOL    HW2 2820   2.606   4.457   5.773
  641SOL     OW 2821   0.692   5.440   4.252
  641SOL    HW1 2822   0.783   5.400   4.242
  641SOL    HW2 2823   0.652   5.410   4.338
  642SOL     OW 2824   0.485   4.634   4.311
  642SOL    HW1 2825   0.566   4.658   4.364
  642SOL    HW2 2826   0.404   4.674   4.353
  643SOL     OW 2827   5.838   5.875   4.631
  643SOL    HW1 2828   5.805   5.799   4.688
  643SOL    HW2 2829   5.897   5.839   4.559
  644SOL     OW 2830   0.944   6.165   2.918
  644SOL    HW1 2831   0.918   6.258   2.890
  644SOL    HW2 2832   1.011   6.128   2.853
  645SOL     OW 2833   4.684   2.501   4.381
  645SOL    HW1 2834   4.608   2.487   4.445
  645SOL    HW2 2835   4.728   2.589   4.401
  646SOL     OW 2836   1.952   1.926   3.552
  646SOL    HW1 2837   1.920   1.843   3.596
  646SOL    HW2 2838   2.046   1.913   3.520
  647SOL     OW 2839   6.189   2.959   6.541
  647SOL    HW1 2840   6.227   2.931   6.453
  647SOL    HW2 2841   6.170   3.057   6.540
  648SOL     OW 2842   5.746   3.722   2.801
  648SOL    HW1 2843   5.776   3.638   2.757
  648SOL    HW2 2844   5.822   3.787   2.804
  649SOL     OW 2845   4.186   4.076   0.533
  649SOL    HW1 2846   4.090   4.107   0.536
  649SOL    HW2 2847   4.241   4.132   0.594
  650SOL     OW 2848   4.841   4.589   0.675
  650SOL    HW1 2849   4.902   4.529   0.622
  650SOL    HW2 2850   4.812   4.666   0.617
  651SOL     OW 2851   0.429   6.029   0.641
  651SOL    HW1 2852   0.433   6.110   0.699
  651SOL    HW2 2853   0.334   6.012   0.614
  652SOL     OW 2854   4.852   6.858   3.389
  652SOL    HW1 2855   4.808   6.853   3.479
  652SOL    HW2 2856   4.887   6.950   3.373
  653SOL     OW 2857   3.376   5.507   5.129
  653SOL    HW1 2858   3.323   5.592   5.138
  653SOL    HW2 2859   3.456   5.512   5.188
  654SOL     OW 2860   6.950   5.021   5.981
  654SOL    HW1 2861   6.874   4.957   5.966
  654SOL    HW2 2862   6.992   5.044   5.894
  655SOL     OW 2863   0.451   6.953   2.057
  655SOL    HW1 2864   0.529   6.891   2.050
  655SOL    HW2 2865   0.459   7.008   2.140
  656SOL     OW 2866   1.891   5.973   2.258
  656SOL    HW1 2867   1.864   5.966   2.162
  656SOL    HW2 2868   1.847   6.053   2.299
  657SOL     OW 2869   2.198   1.712   1.571
  657SOL    HW1 2870   2.151   1.762   1.499
  657SOL    HW2 2871   2.199   1.768   1.654
  658SOL     OW 2872   3.437   3.599   0.029
  658SOL    HW1 2873   3.445   3.632   6.961
  658SOL    HW2 2874   3.413   3.675   0.089
  659SOL     OW 2875   3.009   6.600   6.367
  659SOL    HW1 2876   3.028   6.552   6.281
  659SOL    HW2 2877   2.925   6.654   6.357
  660SOL     OW 2878   3.725   5.840   1.859
  660SOL    HW1 2879   3.818   5.802   1.861
  660SOL    HW2 2880   3.670   5.796   1.930
  661SOL     OW 2881   4.145   6.380   3.565
  661SOL    HW1 2882   4.177   6.318   3.637
  661SOL    HW2 2883   4.177   6.348   3.476
  662SOL     OW 2884   3.405   0.689   5.192
  662SOL    HW1 2885   3.346   0.757   5.148
  662SOL    HW2 2886   3.360   0.600   5.189
  663SOL     OW 2887   1.720   3.798   4.974
  663SOL    HW1 2888   1.740   3.718   5.030
  663SOL    HW2 2889   1.638   3.780   4.919
  664SOL     OW 2890   0.114   6.822   5.719
  664SOL    HW1 2891   0.164   6.739   5.696
  664SOL    HW2 2892   0.156   6.866   5.798
  665SOL     OW 2893   3.920   5.159   3.351
  665SOL    HW1 2894   3.905   5.060   3.346
  665SOL    HW2 2895   3.872   5.204   3.276
  666SOL     OW 2896   4.382   0.463   1.923
  666SOL    HW1 2897   4.398   0.481   1.825
  666SOL    HW2 2898   4.429   0.380   1.950
  667SOL     OW 2899   1.049   5.205   1.710
  667SOL    HW1 2900   0.952   5.218   1.730
  667SOL    HW2 2901   1.060   5.173   1.616
  668SOL     OW 2902   5.462   5.647   6.065
  668SOL    HW1 2903   5.494   5.552   6.057
  668SOL    HW2 2904   5.381   5.650   6.123
  669SOL     OW 2905   5.845   1.290   2.762
  669SOL    HW1 2906   5.922   1.245   2.806
  669SOL    HW2 2907   5.795   1.345   2.829
  670SOL     OW 2908   2.256   1.808   2.364
  670SOL    HW1 2909   2.265   1.733   2.429
  670SOL    HW2 2910   2.213   1.774   2.280
  671SOL     OW 2911   3.209   5.869   1.697
  671SOL    HW1 2912   3.143   5.943   1.686
  671SOL    HW2 2913   3.287   5.885   1.636
  672SOL     OW 2914   0.008   5.049   1.997
  672SOL    HW1 2915   6.943   5.018   2.025
  672SOL    HW2 2916   0.034   5.130   2.050
  673SOL     OW 2917   5.691   0.007   1.218
  673SOL    HW1 2918   5.719   0.102   1.204
  673SOL    HW2 2919   5.704   7.008   1.314
  674SOL     OW 2920   0.630   2.073   4.877
  674SOL    HW1 2921   0.664   1.980   4.893
  674SOL    HW2 2922   0.665   2.106   4.789
  675SOL     OW 2923   5.942   2.643   2.458
  675SOL    HW1 2924   5.874   2.598   2.400
  675SOL    HW2 2925   5.931   2.612   2.553
  676SOL     OW 2926   2.364   4.754   4.736
  676SOL    HW1 2927   2.391   4.839   4.691
  676SOL    HW2 2928   2.315   4.696   4.671
  677SOL     OW 2929   5.222   1.039   1.503
  677SOL    HW1 2930   5.180   0.948   1.506
  677SOL    HW2 2931   5.315   1.034   1.540
  678SOL     OW 2932   2.496   4.553   4.874
  678SOL    HW1 2933   2.596   4.551   4.863
  678SOL    HW2 2934   2.460   4.640   4.839
  679SOL     OW 2935   5.128   1.902   5.140
  679SOL    HW1 2936   5.103   1.843   5.216
  679SOL    HW2 2937   5.049   1.914   5.079
  680SOL     OW 2938   5.050   6.406   4.637
  680SOL    HW1 2939   5.038   6.448   4.547
  680SOL    HW2 2940   5.053   6.478   4.707
  681SOL     OW 2941   4.316   5.768   2.061
  681SOL    HW1 2942   4.406   5.793   2.025
  681SOL    HW2 2943   4.262   5.850   2.076
  682SOL     OW 2944   6.872   1.342   1.606
  682SOL    HW1 2945   6.873   1.330   1.705
  682SOL    HW2 2946   6.910   1.432   1.583
  683SOL     OW 2947   4.698   3.095   1.254
  683SOL    HW1 2948   4.647   3.167   1.206
  683SOL    HW2 2949   4.770   3.060   1.195
  684SOL     OW 2950   6.295   0.526   6.624
  684SOL    HW1 2951   6.325   0.443   6.671
  684SOL    HW2 2952   6.260   0.503   6.534
  685SOL     OW 2953   3.161   1.837   3.735
  685SOL    HW1 2954   3.201   1.873   3.819
  685SOL    HW2 2955   3.202   1.882   3.656
  686SOL     OW 2956   4.296   1.184   3.812
  686SOL    HW1 2957   4.261   1.179   3.718
  686SOL    HW2 2958   4.246   1.253   3.863
  687SOL     OW 2959   0.814   1.666   4.466
  687SOL    HW1 2960   0.744   1.667   4.395
  687SOL    HW2 2961   0.822   1.574   4.504
  688SOL     OW 2962   0.164   0.810   5.851
  688SOL    HW1 2963   0.214   0.728   5.822
  688SOL    HW2 2964   0.084   0.823   5.792
  689SOL     OW 2965   1.819   4.237   6.247
  689SOL    HW1 2966   1.759   4.234   6.327
  689SOL    HW2 2967   1.902   4.184   6.266
  690SOL     OW 2968   0.042   3.823   3.458
  690SOL    HW1 2969   0.111   3.832   3.386
  690SOL    HW2 2970   7.002   3.897   3.450
  691SOL     OW 2971   3.864   1.495   0.526
  691SOL    HW1 2972   3.866   1.538   0.616
  691SOL    HW2 2973   3.914   1.409   0.529
  692SOL     OW 2974   3.362   1.717   5.146
  692SOL    HW1 2975   3.300   1.642   5.124
  692SOL    HW2 2976   3.315   1.785   5.201
  693SOL     OW 2977   4.801   6.491   3.760
  693SOL    HW1 2978   4.749   6.567   3.799
  693SOL    HW2 2979   4.804   6.415   3.826
  694SOL     OW 2980   4.447   5.919   4.116
  694SOL    HW1 2981   4.484   5.980   4.045
  694SOL    HW2 2982   4.352   5.943   4.134
  695SOL     OW 2983   3.481   5.587   4.808
  695SOL    HW1 2984   3.540   5.556   4.882
  695SOL    HW2 2985   3.533   5.647   4.746
  696SOL     OW 2986   4.947   3.871   3.493
  696SOL    HW1 2987   4.944   3.808   3.415
  696SOL    HW2 2988   5.043   3.892   3.515
  697SOL     OW 2989   1.123   3.372   2.342
  697SOL    HW1 2990   1.121   3.277   2.374
  697SOL    HW2 2991   1.162   3.375   2.251
  698SOL     OW 2992   4.725   6.501   1.714
  698SOL    HW1 2993   4.634   6.533   1.742
  698SOL    HW2 2994   4.778   6.477   1.795
  699SOL     OW 2995   2.249   3.463   6.577
  699SOL    HW1 2996   2.301   3.430   6.655
  699SOL    HW2 2997   2.312   3.491   6.504
  700SOL     OW 2998   3.120   0.241   1.905
  700SOL    HW1 2999   3.079   0.153   1.879
  700SOL    HW2 3000   3.167   0.280   1.826
  701SOL     OW 3001   6.577   4.846   1.129
  701SOL    HW1 3002   6.477   4.839   1.131
  701SOL    HW2 3003   6.617   4.764   1.171
  702SOL     OW 3004   2.212   0.111   4.452
  702SOL    HW1 3005   2.167   0.200   4.464
  702SOL    HW2 3006   2.311   0.123   4.455
  703SOL     OW 3007   3.009   3.340   5.505
  703SOL    HW1 3008   2.991   3.296   5.417
  703SOL    HW2 3009   3.084   3.405   5.495
  704SOL     OW 3010   2.179   2.548   6.201
  704SOL    HW1 3011   2.191   2.648   6.198
  704SOL    HW2 3012   2.261   2.506   6.238
  705SOL     OW 3013   6.817   5.839   3.526
  705SOL    HW1 3014   6.804   5.921   3.583
  705SOL    HW2 3015   6.874   5.862   3.447
  706SOL     OW 3016   4.045   1.853   5.107
  706SOL    HW1 3017   4.063   1.761   5.073
  706SOL    HW2 3018   3.978   1.898   5.049
  707SOL     OW 3019   4.000   5.483   3.201
  707SOL    HW1 3020   4.064   5.448   3.269
  707SOL    HW2 3021   4.049   5.540   3.136
  708SOL     OW 3022   2.695   1.883   3.855
  708SOL    HW1 3023   2.790   1.859   3.839
  708SOL    HW2 3024   2.637   1.838   3.787
  709SOL     OW 3025   1.488   6.742   1.562
  709SOL    HW1 3026   1.459   6.656   1.521
  709SOL    HW2 3027   1.565   6.779   1.511
  710SOL     OW 3028   4.796   2.578   1.935
  710SOL    HW1 3029   4.707   2.534   1.926
  710SOL    HW2 3030   4.794   2.667   1.889
  711SOL     OW 3031   6.936   3.024   6.228
  711SOL    HW1 3032   6.883   2.940   6.218
  711SOL    HW2 3033   6.916   3.065   6.318
  712SOL     OW 3034   4.946   2.285   0.793
  712SOL    HW1 3035   4.877   2.353   0.818
  712SOL    HW2 3036   4.921   2.196   0.830
  713SOL     OW 3037   4.351   2.712   5.286
  713SOL    HW1 3038   4.308   2.771   5.354
  713SOL    HW2 3039   4.285   2.643   5.256
  714SOL     OW 3040   5.779   5.334   4.195
  714SOL    HW1 3041   5.729   5.257   4.154
  714SOL    HW2 3042   5.838   5.376   4.126
  715SOL     OW 3043   6.621   5.026   5.410
  715SOL    HW1 3044   6.620   4.927   5.396
  715SOL    HW2 3045   6.555   5.050   5.482
  716SOL     OW 3046   2.183   0.981   3.500
  716SOL    HW1 3047   2.202   0.908   3.433
  716SOL    HW2 3048   2.262   1.041   3.507
  717SOL     OW 3049   6.051   4.722   4.144
  717SOL    HW1 3050   6.148   4.714   4.166
  717SOL    HW2 3051   6.012   4.801   4.191
  718SOL     OW 3052   4.980   2.983   4.879
  718SOL    HW1 3053   4.897   3.038   4.884
  718SOL    HW2 3054   4.958   2.886   4.892
  719SOL     OW 3055   6.084   0.320   2.303
  719SOL    HW1 3056   6.063   0.259   2.379
  719SOL    HW2 3057   6.142   0.395   2.335
  720SOL     OW 3058   2.554   0.443   5.800
  720SOL    HW1 3059   2.600   0.426   5.712
  720SOL    HW2 3060   2.456   0.426   5.790
  721SOL     OW 3061   0.796   1.488   2.047
  721SOL    HW1 3062   0.752   1.422   1.986
  721SOL    HW2 3063   0.855   1.439   2.111
  722SOL     OW 3064   3.493   0.726   6.741
  722SOL    HW1 3065   3.396   0.750   6.735
  722SOL    HW2 3066   3.515   0.702   6.835
  723SOL     OW 3067   1.836   6.267   3.811
  723SOL    HW1 3068   1.862   6.336   3.743
  723SOL    HW2 3069   1.913   6.205   3.826
  724SOL     OW 3070   7.019   1.188   3.529
  724SOL    HW1 3071   6.952   1.254   3.562
  724SOL    HW2 3072   0.083   1.230   3.524
  725SOL     OW 3073   1.898   4.630   2.252
  725SOL    HW1 3074   1.843   4.580   2.318
  725SOL    HW2 3075   1.840   4.667   2.180
  726SOL     OW 3076   2.536   5.106   1.148
  726SOL    HW1 3077   2.615   5.167   1.151
  726SOL    HW2 3078   2.511   5.079   1.241
  727SOL     OW 3079   4.622   5.353   5.783
  727SOL    HW1 3080   4.710   5.335   5.827
  727SOL    HW2 3081   4.633   5.426   5.715
  728SOL     OW 3082   0.157   3.218   4.722
  728SOL    HW1 3083   0.191   3.183   4.809
  728SOL    HW2 3084   0.076   3.275   4.738
  729SOL     OW 3085   0.723   2.826   1.217
  729SOL    HW1 3086   0.625   2.826   1.197
  729SOL    HW2 3087   0.741   2.886   1.294
  730SOL     OW 3088   5.312   0.858   3.170
  730SOL    HW1 3089   5.258   0.930   3.128
  730SOL    HW2 3090   5.288   0.850   3.267
  731SOL     OW 3091   4.683   4.549   6.577
  731SOL    HW1 3092   4.611   4.481   6.590
  731SOL    HW2 3093   4.653   4.618   6.511
  732SOL     OW 3094   5.421   2.103   2.261
  732SOL    HW1 3095   5.513   2.068   2.245
  732SOL    HW2 3096   5.371   2.108   2.175
  733SOL     OW 3097   5.763   0.401   4.368
  733SOL    HW1 3098   5.789   0.476   4.307
  733SOL    HW2 3099   5.725   0.326   4.314
  734SOL     OW 3100   6.244   4.450   2.733
  734SOL    HW1 3101   6.318   4.401   2.686
  734SOL    HW2 3102   6.263   4.454   2.831
  735SOL     OW 3103   5.129   0.495   1.657
  735SOL    HW1 3104   5.094   0.481   1.750
  735SOL    HW2 3105   5.140   0.593   1.640
  736SOL     OW 3106   1.227   1.587   3.862
  736SOL    HW1 3107   1.230   1.499   3.910
  736SOL    HW2 3108   1.317   1.607   3.824
  737SOL     OW 3109   6.003   1.905   5.974
  737SOL    HW1 3110   6.029   1.906   6.070
  737SOL    HW2 3111   5.908   1.875   5.966
  738SOL     OW 3112   2.607   4.051   1.303
  738SOL    HW1 3113   2.698   4.077   1.271
  738SOL    HW2 3114   2.538   4.104   1.253
  739SOL     OW 3115   3.932   0.284   5.530
  739SOL    HW1 3116   3.961   0.207   5.473
  739SOL    HW2 3117   3.872   0.344   5.477
  740SOL     OW 3118   6.127   1.804   2.651
  740SOL    HW1 3119   6.105   1.750   2.570
  740SOL    HW2 3120   6.065   1.780   2.725
  741SOL     OW 3121   1.841   1.203   4.749
  741SOL    HW1 3122   1.923   1.240   4.704
  741SOL    HW2 3123   1.827   1.108   4.719
  742SOL     OW 3124   2.309   5.632   1.242
  742SOL    HW1 3125   2.409   5.635   1.246
  742SOL    HW2 3126   2.278   5.541   1.269
  743SOL     OW 3127   0.661   6.422   3.208
  743SOL    HW1 3128   0.573   6.381   3.232
  743SOL    HW2 3129   0.725   6.409   3.284
  744SOL     OW 3130   6.693   0.835   0.374
  744SOL    HW1 3131   6.615   0.857   0.315
  744SOL    HW2 3132   6.772   0.890   0.346
  745SOL     OW 3133   2.220   6.103   5.622
  745SOL    HW1 3134   2.134   6.065   5.589
  745SOL    HW2 3135   2.257   6.165   5.553
  746SOL     OW 3136   5.908   4.297   5.142
  746SOL    HW1 3137   5.943   4.239   5.068
  746SOL    HW2 3138   5.902   4.392   5.109
  747SOL     OW 3139   5.490   5.668   4.127
  747SOL    HW1 3140   5.513   5.610   4.049
  747SOL    HW2 3141   5.391   5.666   4.143
  748SOL     OW 3142   5.047   5.038   2.484
  748SOL    HW1 3143   4.982   5.111   2.463
  748SOL    HW2 3144   5.112   5.028   2.409
  749SOL     OW 3145   5.169   3.416   3.391
  749SOL    HW1 3146   5.222   3.331   3.387
  749SOL    HW2 3147   5.232   3.494   3.394
  750SOL     OW 3148   3.510   0.692   1.197
  750SOL    HW1 3149   3.540   0.622   1.133
  750SOL    HW2 3150   3.555   0.678   1.286
  751SOL     OW 3151   5.009   1.840   1.118
  751SOL    HW1 3152   4.953   1.918   1.145
  751SOL    HW2 3153   5.049   1.857   1.027
  752SOL     OW 3154   3.450   2.783   6.426
  752SOL    HW1 3155   3.372   2.720   6.426
  752SOL    HW2 3156   3.528   2.739   6.471
  753SOL     OW 3157   2.813   3.535   5.290
  753SOL    HW1 3158   2.814   3.625   5.247
  753SOL    HW2 3159   2.719   3.508   5.307
  754SOL     OW 3160   5.128   0.932   0.208
  754SOL    HW1 3161   5.218   0.893   0.228
  754SOL    HW2 3162   5.075   0.867   0.154
  755SOL     OW 3163   3.013   4.408   5.322
  755SOL    HW1 3164   3.052   4.449   5.404
  755SOL    HW2 3165   2.960   4.477   5.272
  756SOL     OW 3166   3.426   4.908   0.021
  756SOL    HW1 3167   3.514   4.923   0.066
  756SOL    HW2 3168   3.354   4.955   0.071
  757SOL     OW 3169   2.280   6.792   2.613
  757SOL    HW1 3170   2.283   6.866   2.545
  757SOL    HW2 3171   2.238   6.711   2.572
  758SOL     OW 3172   3.461   1.137   3.759
  758SOL    HW1 3173   3.521   1.129   3.679
  758SOL    HW2 3174   3.516   1.153   3.841
  759SOL     OW 3175   0.458   2.125   3.135
  759SOL    HW1 3176   0.549   2.163   3.118
  759SOL    HW2 3177   0.389   2.189   3.103
  760SOL     OW 3178   6.274   6.652   3.836
  760SOL    HW1 3179   6.357   6.693   3.798
  760SOL    HW2 3180   6.257   6.690   3.927
  761SOL     OW 3181   5.979   4.805   5.416
  761SOL    HW1 3182   6.070   4.840   5.397
  761SOL    HW2 3183   5.956   4.733   5.350
  762SOL     OW 3184   2.750   6.524   6.086
  762SOL    HW1 3185   2.725   6.518   5.990
  762SOL    HW2 3186   2.846   6.498   6.097
  763SOL     OW 3187   5.118   0.493   6.273
  763SOL    HW1 3188   5.068   0.508   6.187
  763SOL    HW2 3189   5.133   0.395   6.286
  764SOL     OW 3190   6.068   1.416   5.345
  764SOL    HW1 3191   6.059   1.360   5.263
  764SOL    HW2 3192   5.977   1.435   5.382
  765SOL     OW 3193   1.360   6.616   0.570
  765SOL    HW1 3194   1.294   6.569   0.512
  765SOL    HW2 3195   1.312   6.677   0.633
  766SOL     OW 3196   2.556   2.206   5.367
  766SOL    HW1 3197   2.585   2.130   5.308
  766SOL    HW2 3198   2.505   2.170   5.445
  767SOL     OW 3199   6.796   6.564   3.742
  767SOL    HW1 3200   6.772   6.501   3.816
  767SOL    HW2 3201   6.761   6.529   3.655
  768SOL     OW 3202   2.184   6.879   2.998
  768SOL    HW1 3203   2.276   6.903   3.027
  768SOL    HW2 3204   2.132   6.962   2.978
  769SOL     OW 3205   3.804   1.665   5.091
  769SOL    HW1 3206   3.832   1.615   5.010
  769SOL    HW2 3207   3.775   1.757   5.065
  770SOL     OW 3208   1.705   4.473   4.557
  770SOL    HW1 3209   1.704   4.483   4.457
  770SOL    HW2 3210   1.796   4.444   4.587
  771SOL     OW 3211   1.000   5.634   3.167
  771SOL    HW1 3212   0.968   5.610   3.259
  771SOL    HW2 3213   1.016   5.732   3.161
  772SOL     OW 3214   5.386   5.064   6.389
  772SOL    HW1 3215   5.443   5.127   6.440
  772SOL    HW2 3216   5.360   4.987   6.447
  773SOL     OW 3217   1.459   3.430   2.701
  773SOL    HW1 3218   1.365   3.405   2.676
  773SOL    HW2 3219   1.521   3.357   2.672
  774SOL     OW 3220   2.397   1.800   3.410
  774SOL    HW1 3221   2.322   1.867   3.412
  774SOL    HW2 3222   2.436   1.796   3.318
  775SOL     OW 3223   1.851   3.129   4.141
  775SOL    HW1 3224   1.921   3.157   4.076
  775SOL    HW2 3225   1.762   3.125   4.095
  776SOL     OW 3226   6.625   6.488   6.446
  776SOL    HW1 3227   6.580   6.576   6.459
  776SOL    HW2 3228   6.681   6.492   6.363
  777SOL     OW 3229   1.584   3.402   0.379
  777SOL    HW1 3230   1.571   3.465   0.302
  777SOL    HW2 3231   1.509   3.413   0.444
  778SOL     OW 3232   2.532   6.782   1.827
  778SOL    HW1 3233   2.550   6.831   1.742
  778SOL    HW2 3234   2.476   6.839   1.887
  779SOL     OW 3235   0.500   2.814   1.670
  779SOL    HW1 3236   0.466   2.779   1.757
  779SOL    HW2 3237   0.462   2.905   1.654
  780SOL     OW 3238   1.299   2.495   4.402
  780SOL    HW1 3239   1.263   2.581   4.437
  780SOL    HW2 3240   1.397   2.489   4.423
  781SOL     OW 3241   6.647   5.193   6.558
  781SOL    HW1 3242   6.686   5.211   6.648
  781SOL    HW2 3243   6.686   5.108   6.522
  782SOL     OW 3244   2.082   4.373   5.413
  782SOL    HW1 3245   2.081   4.389   5.315
  782SOL    HW2 3246   2.170   4.405   5.450
  783SOL     OW 3247   5.380   5.368   6.881
  783SOL    HW1 3248   5.396   5.467   6.886
  783SOL    HW2 3249   5.311   5.342   6.949
  784SOL     OW 3250   2.252   5.764   2.220
  784SOL    HW1 3251   2.316   5.700   2.178
  784SOL    HW2 3252   2.288   5.795   2.308
  785SOL     OW 3253   0.001   0.897   3.889
  785SOL    HW1 3254   0.005   0.892   3.989
  785SOL    HW2 3255   0.011   0.992   3.860
  786SOL     OW 3256   6.444   0.658   3.283
  786SOL    HW1 3257   6.371   0.614   3.231
  786SOL    HW2 3258   6.420   0.658   3.380
  787SOL     OW 3259   2.239   0.448   0.014
  787SOL    HW1 3260   2.238   0.351   0.036
  787SOL    HW2 3261   2.305   0.466   6.967
  788SOL     OW 3262   3.880   2.983   1.527
  788SOL    HW1 3263   3.948   3.033   1.581
  788SOL    HW2 3264   3.871   2.890   1.562
  789SOL     OW 3265   4.282   5.569   1.858
  789SOL    HW1 3266   4.289   5.645   1.923
  789SOL    HW2 3267   4.187   5.563   1.825
  790SOL     OW 3268   1.416   1.984   1.977
  790SOL    HW1 3269   1.338   2.044   1.962
  790SOL    HW2 3270   1.449   1.949   1.890
  791SOL     OW 3271   2.507   5.895   5.892
  791SOL    HW1 3272   2.605   5.876   5.892
  791SOL    HW2 3273   2.471   5.880   5.800
  792SOL     OW 3274   0.716   1.449   1.051
  792SOL    HW1 3275   0.687   1.396   1.131
  792SOL    HW2 3276   0.784   1.397   0.999
  793SOL     OW 3277   5.006   5.838   4.395
  793SOL    HW1 3278   5.008   5.934   4.369
  793SOL    HW2 3279   4.948   5.788   4.330
  794SOL     OW 3280   3.478   3.172   4.767
  794SOL    HW1 3281   3.438   3.087   4.734
  794SOL    HW2 3282   3.523   3.219   4.691
  795SOL     OW 3283   4.296   0.552   5.416
  795SOL    HW1 3284   4.334   0.642   5.437
  795SOL    HW2 3285   4.262   0.509   5.500
  796SOL     OW 3286   1.598   2.805   6.536
  796SOL    HW1 3287   1.511   2.853   6.527
  796SOL    HW2 3288   1.657   2.856   6.598
  797SOL     OW 3289   4.019   0.123   0.687
  797SOL    HW1 3290   4.035   0.175   0.770
  797SOL    HW2 3291   3.933   0.154   0.645
  798SOL     OW 3292   3.108   6.270   1.490
  798SOL    HW1 3293   3.135   6.355   1.534
  798SOL    HW2 3294   3.071   6.290   1.399
  799SOL     OW 3295   0.133   2.132   6.245
  799SOL    HW1 3296   0.189   2.213   6.232
  799SOL    HW2 3297   0.160   2.085   6.329
  800SOL     OW 3298   6.548   1.487   2.347
  800SOL    HW1 3299   6.547   1.472   2.248
  800SOL    HW2 3300   6.615   1.427   2.389
  801SOL     OW 3301   2.533   5.088   5.233
  801SOL    HW1 3302   2.495   4.995   5.236
  801SOL    HW2 3303   2.601   5.098   5.306
  802SOL     OW 3304   4.718   2.250   6.357
  802SOL    HW1 3305   4.707   2.264   6.456
  802SOL    HW2 3306   4.642   2.193   6.324
  803SOL     OW 3307   2.529   0.010   6.084
  803SOL    HW1 3308   2.450   0.013   6.023
  803SOL    HW2 3309   2.579   0.097   6.079
  804SOL     OW 3310   6.311   6.805   1.240
  804SOL    HW1 3311   6.237   6.863   1.205
  804SOL    HW2 3312   6.381   6.862   1.283
  805SOL     OW 3313   1.982   0.042   3.670
  805SOL    HW1 3314   2.053   0.100   3.629
  805SOL    HW2 3315   2.019   6.976   3.683
  806SOL     OW 3316   0.441   0.351   5.797
  806SOL    HW1 3317   0.445   0.291   5.876
  806SOL    HW2 3318   0.495   0.313   5.722
  807SOL     OW 3319   0.440   6.865   4.544
  807SOL    HW1 3320   0.474   6.926   4.472
  807SOL    HW2 3321   0.447   6.912   4.633
  808SOL     OW 3322   5.907   2.989   0.375
  808SOL    HW1 3323   5.918   2.932   0.456
  808SOL    HW2 3324   5.817   3.033   0.377
  809SOL     OW 3325   0.465   5.516   6.940
  809SOL    HW1 3326   0.365   5.519   6.938
  809SOL    HW2 3327   0.495   5.422   6.927
  810SOL     OW 3328   2.826   3.601   0.908
  810SOL    HW1 3329   2.797   3.695   0.924
  810SOL    HW2 3330   2.796   3.572   0.816
  811SOL     OW 3331   5.609   5.008   4.747
  811SOL    HW1 3332   5.692   5.059   4.725
  811SOL    HW2 3333   5.529   5.060   4.717
  812SOL     OW 3334   0.267   2.138   2.705
  812SOL    HW1 3335   0.286   2.107   2.798
  812SOL    HW2 3336   0.216   2.225   2.709
  813SOL     OW 3337   2.556   0.445   3.749
  813SOL    HW1 3338   2.649   0.467   3.720
  813SOL    HW2 3339   2.560   0.391   3.833
  814SOL     OW 3340   6.566   5.762   2.128
  814SOL    HW1 3341   6.515   5.758   2.214
  814SOL    HW2 3342   6.501   5.767   2.051
  815SOL     OW 3343   4.776   2.858   3.827
  815SOL    HW1 3344   4.847   2.790   3.807
  815SOL    HW2 3345   4.814   2.930   3.885
  816SOL     OW 3346   4.982   4.183   0.685
  816SOL    HW1 3347   4.889   4.174   0.719
  816SOL    HW2 3348   4.996   4.276   0.651
  817SOL     OW 3349   1.319   5.338   1.115
  817SOL    HW1 3350   1.357   5.261   1.064
  817SOL    HW2 3351   1.282   5.406   1.051
  818SOL     OW 3352   5.268   2.641   3.716
  818SOL    HW1 3353   5.289   2.633   3.619
  818SOL    HW2 3354   5.321   2.572   3.767
  819SOL     OW 3355   5.658   2.671   1.371
  819SOL    HW1 3356   5.708   2.599   1.323
  819SOL    HW2 3357   5.579   2.632   1.418
  820SOL     OW 3358   2.902   2.064   4.520
  820SOL    HW1 3359   2.887   2.142   4.581
  820SOL    HW2 3360   2.984   2.015   4.548
  821SOL     OW 3361   5.822   5.286   4.743
  821SOL    HW1 3362   5.816   5.363   4.680
  821SOL    HW2 3363   5.892   5.222   4.711
  822SOL     OW 3364   0.382   4.333   3.371
  822SOL    HW1 3365   0.379   4.360   3.468
  822SOL    HW2 3366   0.324   4.395   3.318
  823SOL     OW 3367   0.180   4.039   5.730
  823SOL    HW1 3368   0.179   3.965   5.797
  823SOL    HW2 3369   0.264   4.094   5.741
  824SOL     OW 3370   5.613   1.312   5.324
  824SOL    HW1 3371   5.683   1.362   5.271
  824SOL    HW2 3372   5.530   1.368   5.330
  825SOL     OW 3373   6.317   5.978   0.958
  825SOL    HW1 3374   6.383   6.048   0.985
  825SOL    HW2 3375   6.307   5.911   1.031
  826SOL     OW 3376   3.834   2.136   6.173
  826SOL    HW1 3377   3.846   2.205   6.102
  826SOL    HW2 3378   3.917   2.081   6.182
  827SOL     OW 3379   3.339   4.069   5.233
  827SOL    HW1 3380   3.313   3.978   5.267
  827SOL    HW2 3381   3.372   4.060   5.138
  828SOL     OW 3382   6.097   5.537   4.990
  828SOL    HW1 3383   6.057   5.452   5.025
  828SOL    HW2 3384   6.108   5.602   5.066
  829SOL     OW 3385   3.729   2.831   2.109
  829SOL    HW1 3386   3.798   2.766   2.076
  829SOL    HW2 3387   3.750   2.856   2.203
  830SOL     OW 3388   5.835   5.263   6.348
  830SOL    HW1 3389   5.894   5.264   6.429
  830SOL    HW2 3390   5.889   5.240   6.267
  831SOL     OW 3391   5.667   6.615   1.340
  831SOL    HW1 3392   5.763   6.644   1.339
  831SOL    HW2 3393   5.662   6.518   1.363
  832SOL     OW 3394   4.414   1.132   4.414
  832SOL    HW1 3395   4.384   1.187   4.337
  832SOL    HW2 3396   4.483   1.182   4.466
  833SOL     OW 3397   0.917   3.768   6.602
  833SOL    HW1 3398   1.009   3.749   6.637
  833SOL    HW2 3399   0.914   3.748   6.505
  834SOL     OW 3400   4.713   3.445   6.764
  834SOL    HW1 3401   4.812   3.426   6.762
  834SOL    HW2 3402   4.696   3.537   6.729
  835SOL     OW 3403   2.065   0.711   4.915
  835SOL    HW1 3404   1.983   0.660   4.941
  835SOL    HW2 3405   2.072   0.793   4.971
  836SOL     OW 3406   2.966   1.579   5.664
  836SOL    HW1 3407   2.993   1.674   5.651
  836SOL    HW2 3408   2.932   1.542   5.577
  837SOL     OW 3409   1.311   0.157   1.541
  837SOL    HW1 3410   1.305   0.057   1.551
  837SOL    HW2 3411   1.343   0.179   1.449
  838SOL     OW 3412   1.921   5.999   4.681
  838SOL    HW1 3413   1.975   6.079   4.655
  838SOL    HW2 3414   1.830   6.005   4.640
  839SOL     OW 3415   2.732   1.561   1.556
  839SOL    HW1 3416   2.759   1.630   1.622
  839SOL    HW2 3417   2.634   1.568   1.538
  840SOL     OW 3418   6.124   5.566   0.176
  840SOL    HW1 3419   6.058   5.639   0.155
  840SOL    HW2 3420   6.076   5.488   0.216
  841SOL     OW 3421   4.055   5.486   5.837
  841SOL    HW1 3422   4.097   5.571   5.805
  841SOL    HW2 3423   4.096   5.460   5.925
  842SOL     OW 3424   3.186   6.444   0.133
  842SOL    HW1 3425   3.260   6.443   0.065
  842SOL    HW2 3426   3.182   6.535   0.175
  843SOL     OW 3427   2.324   2.084   2.052
  843SOL    HW1 3428   2.342   1.991   2.019
  843SOL    HW2 3429   2.231   2.110   2.027
  844SOL     OW 3430   0.168   6.414   1.350
  844SOL    HW1 3431   0.156   6.487   1.418
  844SOL    HW2 3432   0.219   6.338   1.391
  845SOL     OW 3433   4.354   2.088   3.218
  845SOL    HW1 3434   4.368   2.032   3.136
  845SOL    HW2 3435   4.260   2.121   3.219
  846SOL     OW 3436   2.868   1.415   5.871
  846SOL    HW1 3437   2.769   1.411   5.857
  846SOL    HW2 3438   2.908   1.482   5.809
  847SOL     OW 3439   2.227   3.205   1.785
  847SOL    HW1 3440   2.302   3.267   1.809
  847SOL    HW2 3441   2.154   3.257   1.741
  848SOL     OW 3442   6.437   6.816   5.860
  848SOL    HW1 3443   6.416   6.820   5.763
  848SOL    HW2 3444   6.536   6.824   5.873
  849SOL     OW 3445   6.030   3.428   0.446
  849SOL    HW1 3446   6.057   3.498   0.511
  849SOL    HW2 3447   5.981   3.355   0.495
  850SOL     OW 3448   0.361   0.891   5.000
  850SOL    HW1 3449   0.301   0.921   4.926
  850SOL    HW2 3450   0.311   0.833   5.063
  851SOL     OW 3451   6.619   3.451   6.882
  851SOL    HW1 3452   6.572   3.415   6.802
  851SOL    HW2 3453   6.583   3.407   6.964
  852SOL     OW 3454   0.125   5.004   0.734
  852SOL    HW1 3455   0.158   4.912   0.713
  852SOL    HW2 3456   0.195   5.071   0.711
  853SOL     OW 3457   2.238   4.098   6.206
  853SOL    HW1 3458   2.330   4.061   6.222
  853SOL    HW2 3459   2.232   4.132   6.112
  854SOL     OW 3460   5.884   6.446   0.054
  854SOL    HW1 3461   5.919   6.372   0.110
  854SOL    HW2 3462   5.948   6.463   7.004
  855SOL     OW 3463   6.727   0.615   6.885
  855SOL    HW1 3464   6.744   0.534   6.942
  855SOL    HW2 3465   6.631   0.614   6.856
  856SOL     OW 3466   1.387   6.701   6.112
  856SOL    HW1 3467   1.319   6.676   6.043
  856SOL    HW2 3468   1.473   6.653   6.093
  857SOL     OW 3469   0.239   4.764   2.718
  857SOL    HW1 3470   0.262   4.813   2.634
  857SOL    HW2 3471   0.169   4.695   2.699
  858SOL     OW 3472   3.129   3.666   1.155
  858SOL    HW1 3473   3.223   3.659   1.124
  858SOL    HW2 3474   3.086   3.576   1.153
  859SOL     OW 3475   4.642   6.039   5.559
  859SOL    HW1 3476   4.721   6.089   5.523
  859SOL    HW2 3477   4.665   5.999   5.647
  860SOL     OW 3478   5.635   3.060   6.314
  860SOL    HW1 3479   5.715   3.043   6.372
  860SOL    HW2 3480   5.626   3.159   6.299
  861SOL     OW 3481   2.008   5.551   3.154
  861SOL    HW1 3482   2.082   5.498   3.114
  861SOL    HW2 3483   1.988   5.517   3.246
  862SOL     OW 3484   2.101   4.951   3.677
  862SOL    HW1 3485   2.114   4.855   3.703
  862SOL    HW2 3486   2.133   5.010   3.751
  863SOL     OW 3487   6.058   0.965   6.024
  863SOL    HW1 3488   6.075   1.024   5.945
  863SOL    HW2 3489   5.967   0.984   6.061
  864SOL     OW 3490   4.998   0.027   5.289
  864SOL    HW1 3491   5.092   7.026   5.308
  864SOL    HW2 3492   4.955   0.058   5.374
  865SOL     OW 3493   1.818   0.156   5.610
  865SOL    HW1 3494   1.884   0.090   5.647
  865SOL    HW2 3495   1.867   0.224   5.555
  866SOL     OW 3496   3.663   6.390   0.841
  866SOL    HW1 3497   3.761   6.401   0.828
  866SOL    HW2 3498   3.619   6.376   0.752
  867SOL     OW 3499   5.512   2.744   0.506
  867SOL    HW1 3500   5.523   2.809   0.581
  867SOL    HW2 3501   5.579   2.763   0.434
  868SOL     OW 3502   0.090   2.401   2.802
  868SOL    HW1 3503   0.142   2.481   2.833
  868SOL    HW2 3504   7.018   2.422   2.806
  869SOL     OW 3505   7.003   3.827   3.921
  869SOL    HW1 3506   6.964   3.917   3.903
  869SOL    HW2 3507   0.033   3.799   3.843
  870SOL     OW 3508   4.189   4.564   1.117
  870SOL    HW1 3509   4.287   4.545   1.110
  870SOL    HW2 3510   4.156   4.539   1.208
  871SOL     OW 3511   5.036   1.845   4.354
  871SOL    HW1 3512   5.056   1.751   4.381
  871SOL    HW2 3513   5.116   1.884   4.308
  872SOL     OW 3514   0.073   2.236   4.485
  872SOL    HW1 3515   7.006   2.263   4.462
  872SOL    HW2 3516   0.072   2.173   4.563
  873SOL     OW 3517   4.453   6.629   5.564
  873SOL    HW1 3518   4.500   6.541   5.558
  873SOL    HW2 3519   4.499   6.695   5.504
  874SOL     OW 3520   5.927   4.524   6.881
  874SOL    HW1 3521   5.875   4.564   6.806
  874SOL    HW2 3522   5.867   4.463   6.934
  875SOL     OW 3523   5.290   6.118   0.642
  875SOL    HW1 3524   5.271   6.026   0.677
  875SOL    HW2 3525   5.388   6.130   0.631
  876SOL     OW 3526   0.820   5.257   1.869
  876SOL    HW1 3527   0.734   5.207   1.874
  876SOL    HW2 3528   0.820   5.330   1.938
  877SOL     OW 3529   3.097   4.043   6.145
  877SOL    HW1 3530   3.125   3.948   6.160
  877SOL    HW2 3531   3.017   4.045   6.084
  878SOL     OW 3532   4.629   7.023   3.934
  878SOL    HW1 3533   4.617   6.924   3.944
  878SOL    HW2 3534   4.726   0.018   3.927
  879SOL     OW 3535   3.562   0.466   1.402
  879SOL    HW1 3536   3.499   0.539   1.429
  879SOL    HW2 3537   3.554   0.451   1.303
  880SOL     OW 3538   3.996   3.873   3.945
  880SOL    HW1 3539   4.023   3.777   3.938
  880SOL    HW2 3540   3.979   3.909   3.853
  881SOL     OW 3541   5.097   3.328   4.696
  881SOL    HW1 3542   5.101   3.308   4.794
  881SOL    HW2 3543   5.044   3.412   4.682
  882SOL     OW 3544   0.977   3.014   3.988
  882SOL    HW1 3545   1.072   3.011   4.020
  882SOL    HW2 3546   0.943   2.920   3.979
  883SOL     OW 3547   3.650   0.962   1.702
  883SOL    HW1 3548   3.569   0.903   1.701
  883SOL    HW2 3549   3.633   1.041   1.760
  884SOL     OW 3550   5.586   3.415   6.153
  884SOL    HW1 3551   5.490   3.433   6.134
  884SOL    HW2 3552   5.638   3.414   6.067
  885SOL     OW 3553   3.565   1.422   4.976
  885SOL    HW1 3554   3.522   1.361   5.043
  885SOL    HW2 3555   3.559   1.516   5.008
  886SOL     OW 3556   3.849   6.898   0.212
  886SOL    HW1 3557   3.932   6.954   0.208
  886SOL    HW2 3558   3.873   6.803   0.231
  887SOL     OW 3559   3.805   6.991   4.225
  887SOL    HW1 3560   3.783   6.964   4.320
  887SOL    HW2 3561   3.731   6.961   4.165
  888SOL     OW 3562   0.082   6.204   3.115
  888SOL    HW1 3563   0.110   6.118   3.073
  888SOL    HW2 3564   0.060   6.271   3.044
  889SOL     OW 3565   0.036   3.852   0.768
  889SOL    HW1 3566   0.020   3.756   0.746
  889SOL    HW2 3567   0.055   3.861   0.866
  890SOL     OW 3568   1.265   5.531   3.026
  890SOL    HW1 3569   1.332   5.461   3.052
  890SOL    HW2 3570   1.220   5.566   3.108
  891SOL     OW 3571   5.639   5.270   0.363
  891SOL    HW1 3572   5.615   5.175   0.384
  891SOL    HW2 3573   5.560   5.316   0.323
  892SOL     OW 3574   2.365   3.737   5.281
  892SOL    HW1 3575   2.375   3.818   5.223
  892SOL    HW2 3576   2.431   3.741   5.357
  893SOL     OW 3577   2.052   6.581   2.694
  893SOL    HW1 3578   2.094   6.571   2.783
  893SOL    HW2 3579   2.002   6.668   2.689
  894SOL     OW 3580   0.919   3.339   2.099
  894SOL    HW1 3581   1.000   3.290   2.066
  894SOL    HW2 3582   0.858   3.275   2.146
  895SOL     OW 3583   0.374   4.798   3.677
  895SOL    HW1 3584   0.345   4.894   3.673
  895SOL    HW2 3585   0.311   4.748   3.737
  896SOL     OW 3586   5.328   5.030   0.612
  896SOL    HW1 3587   5.234   5.021   0.645
  896SOL    HW2 3588   5.387   4.968   0.663
  897SOL     OW 3589   4.010   1.737   6.679
  897SOL    HW1 3590   3.945   1.784   6.619
  897SOL    HW2 3591   3.961   1.673   6.738
  898SOL     OW 3592   2.725   6.083   2.857
  898SOL    HW1 3593   2.717   6.077   2.956
  898SOL    HW2 3594   2.640   6.049   2.815
  899SOL     OW 3595   0.118   6.300   6.483
  899SOL    HW1 3596   0.182   6.346   6.544
  899SOL    HW2 3597   0.169   6.254   6.411
  900SOL     OW 3598   5.747   6.831   0.550
  900SOL    HW1 3599   5.790   6.758   0.496
  900SOL    HW2 3600   5.773   6.821   0.646
  901SOL     OW 3601   2.341   6.496   3.261
  901SOL    HW1 3602   2.430   6.520   3.223
  901SOL    HW2 3603   2.270   6.553   3.219
  902SOL     OW 3604   0.760   2.549   0.681
  902SOL    HW1 3605   0.772   2.461   0.634
  902SOL    HW2 3606   0.842   2.571   0.733
  903SOL     OW 3607   0.111   2.466   0.051
  903SOL    HW1 3608   0.178   2.463   7.004
  903SOL    HW2 3609   0.056   2.382   0.050
  904SOL     OW 3610   2.655   1.917   2.640
  904SOL    HW1 3611   2.580   1.951   2.583
  904SOL    HW2 3612   2.667   1.818   2.625
  905SOL     OW 3613   5.079   1.912   7.026
  905SOL    HW1 3614   5.068   1.917   6.927
  905SOL    HW2 3615   5.091   1.817   0.027
  906SOL     OW 3616   6.808   1.992   6.374
  906SOL    HW1 3617   6.884   2.002   6.439
  906SOL    HW2 3618   6.788   1.895   6.360
  907SOL     OW 3619   5.306   3.489   0.814
  907SOL    HW1 3620   5.350   3.556   0.874
  907SOL    HW2 3621   5.282   3.407   0.867
  908SOL     OW 3622   2.596   4.599   2.562
  908SOL    HW1 3623   2.566   4.510   2.596
  908SOL    HW2 3624   2.659   4.586   2.485
  909SOL     OW 3625   4.761   5.631   0.938
  909SOL    HW1 3626   4.750   5.712   0.996
  909SOL    HW2 3627   4.677   5.614   0.887
  910SOL     OW 3628   3.177   2.304   1.015
  910SOL    HW1 3629   3.098   2.281   0.958
  910SOL    HW2 3630   3.254   2.328   0.956
  911SOL     OW 3631   1.137   6.200   6.343
  911SOL    HW1 3632   1.218   6.215   6.400
  911SOL    HW2 3633   1.065   6.263   6.371
  912SOL     OW 3634   6.397   2.176   2.834
  912SOL    HW1 3635   6.371   2.249   2.769
  912SOL    HW2 3636   6.469   2.120   2.793
  913SOL     OW 3637   4.701   6.754   3.167
  913SOL    HW1 3638   4.670   6.659   3.171
  913SOL    HW2 3639   4.769   6.770   3.239
  914SOL     OW 3640   2.509   6.945   6.866
  914SOL    HW1 3641   2.494   6.902   6.777
  914SOL    HW2 3642   2.443   7.019   6.878
  915SOL     OW 3643   5.865   4.631   6.610
  915SOL    HW1 3644   5.943   4.693   6.602
  915SOL    HW2 3645   5.787   4.668   6.558
  916SOL     OW 3646   1.836   2.591   2.019
  916SOL    HW1 3647   1.911   2.658   2.019
  916SOL    HW2 3648   1.872   2.501   2.043
  917SOL     OW 3649   0.368   6.402   0.513
  917SOL    HW1 3650   0.447   6.395   0.575
  917SOL    HW2 3651   0.400   6.431   0.423
  918SOL     OW 3652   3.099   0.070   0.631
  918SOL    HW1 3653   3.054   0.135   0.570
  918SOL    HW2 3654   3.188   0.046   0.593
  919SOL     OW 3655   5.403   1.604   3.129
  919SOL    HW1 3656   5.348   1.687   3.137
  919SOL    HW2 3657   5.484   1.623   3.075
  920SOL     OW 3658   2.594   4.018   1.569
  920SOL    HW1 3659   2.591   4.012   1.469
  920SOL    HW2 3660   2.507   4.053   1.602
  921SOL     OW 3661   4.844   6.293   3.932
  921SOL    HW1 3662   4.795   6.275   4.017
  921SOL    HW2 3663   4.823   6.221   3.866
  922SOL     OW 3664   3.920   3.594   4.315
  922SOL    HW1 3665   3.859   3.657   4.268
  922SOL    HW2 3666   3.883   3.574   4.406
  923SOL     OW 3667   2.629   3.179   6.898
  923SOL    HW1 3668   2.594   3.198   6.989
  923SOL    HW2 3669   2.659   3.265   6.855
  924SOL     OW 3670   6.266   3.954   1.730
  924SOL    HW1 3671   6.195   3.886   1.711
  924SOL    HW2 3672   6.241   4.041   1.687
  925SOL     OW 3673   0.193   2.759   0.038
  925SOL    HW1 3674   0.217   2.665   0.064
  925SOL    HW2 3675   0.246   2.785   6.983
  926SOL     OW 3676   6.822   0.885   0.861
  926SOL    HW1 3677   6.756   0.879   0.936
  926SOL    HW2 3678   6.911   0.913   0.897
  927SOL     OW 3679   5.465   3.898   3.867
  927SOL    HW1 3680   5.445   3.990   3.836
  927SOL    HW2 3681   5.395   3.867   3.931
  928SOL     OW 3682   2.728   5.645   0.782
  928SOL    HW1 3683   2.793   5.712   0.820
  928SOL    HW2 3684   2.646   5.692   0.750
  929SOL     OW 3685   0.053   0.414   6.932
  929SOL    HW1 3686   6.996   0.360   6.921
  929SOL    HW2 3687   0.029   0.509   6.953
  930SOL     OW 3688   4.426   5.552   6.458
  930SOL    HW1 3689   4.514   5.560   6.505
  930SOL    HW2 3690   4.430   5.479   6.391
  931SOL     OW 3691   6.461   2.013   4.317
  931SOL    HW1 3692   6.425   2.064   4.395
  931SOL    HW2 3693   6.561   2.009   4.324
  932SOL     OW 3694   2.559   1.836   3.194
  932SOL    HW1 3695   2.542   1.906   3.124
  932SOL    HW2 3696   2.617   1.765   3.156
  933SOL     OW 3697   1.626   5.627   2.953
  933SOL    HW1 3698   1.622   5.639   2.854
  933SOL    HW2 3699   1.629   5.529   2.975
  934SOL     OW 3700   2.403   5.689   6.059
  934SOL    HW1 3701   2.361   5.610   6.014
  934SOL    HW2 3702   2.439   5.751   5.990
  935SOL     OW 3703   5.057   4.415   3.874
  935SOL    HW1 3704   5.018   4.397   3.783
  935SOL    HW2 3705   5.036   4.339   3.935
  936SOL     OW 3706   1.276   6.949   6.182
  936SOL    HW1 3707   1.242   6.899   6.262
  936SOL    HW2 3708   1.326   6.886   6.123
  937SOL     OW 3709   5.215   1.902   5.595
  937SOL    HW1 3710   5.285   1.860   5.536
  937SOL    HW2 3711   5.125   1.889   5.555
  938SOL     OW 3712   6.339   5.506   4.434
  938SOL    HW1 3713   6.296   5.536   4.349
  938SOL    HW2 3714   6.432   5.475   4.415
  939SOL     OW 3715   0.421   0.046   4.311
  939SOL    HW1 3716   0.424   0.143   4.287
  939SOL    HW2 3717   0.484   7.022   4.252
  940SOL     OW 3718   0.607   4.262   0.742
  940SOL    HW1 3719   0.679   4.201   0.711
  940SOL    HW2 3720   0.646   4.352   0.763
  941SOL     OW 3721   5.113   0.739   6.686
  941SOL    HW1 3722   5.039   0.679   6.717
  941SOL    HW2 3723   5.150   0.706   6.599
  942SOL     OW 3724   6.064   6.201   1.449
  942SOL    HW1 3725   6.121   6.180   1.528
  942SOL    HW2 3726   6.096   6.148   1.370
  943SOL     OW 3727   2.068   4.879   2.630
  943SOL    HW1 3728   2.055   4.812   2.703
  943SOL    HW2 3729   2.075   4.831   2.542
  944SOL     OW 3730   0.686   5.056   4.489
  944SOL    HW1 3731   0.643   5.143   4.465
  944SOL    HW2 3732   0.770   5.074   4.540
  945SOL     OW 3733   0.459   4.840   5.365
  945SOL    HW1 3734   0.452   4.824   5.464
  945SOL    HW2 3735   0.395   4.781   5.317
  946SOL     OW 3736   4.694   4.828   4.392
  946SOL    HW1 3737   4.789   4.860   4.396
  946SOL    HW2 3738   4.652   4.858   4.306
  947SOL     OW 3739   3.634   3.557   3.645
  947SOL    HW1 3740   3.605   3.516   3.558
  947SOL    HW2 3741   3.729   3.587   3.638
  948SOL     OW 3742   4.827   0.877   2.522
  948SOL    HW1 3743   4.883   0.796   2.504
  948SOL    HW2 3744   4.855   0.920   2.608
  949SOL     OW 3745   3.314   6.138   0.095
  949SOL    HW1 3746   3.345   6.233   0.091
  949SOL    HW2 3747   3.298   6.105   0.001
  950SOL     OW 3748   5.652   5.662   2.565
  950SOL    HW1 3749   5.624   5.627   2.654
  950SOL    HW2 3750   5.697   5.750   2.576
  951SOL     OW 3751   1.175   0.236   3.697
  951SOL    HW1 3752   1.164   0.271   3.790
  951SOL    HW2 3753   1.269   0.254   3.666
  952SOL     OW 3754   4.325   1.922   2.726
  952SOL    HW1 3755   4.292   1.963   2.641
  952SOL    HW2 3756   4.424   1.907   2.719
  953SOL     OW 3757   5.731   5.947   4.913
  953SOL    HW1 3758   5.822   5.944   4.872
  953SOL    HW2 3759   5.722   5.871   4.978
  954SOL     OW 3760   4.129   5.872   2.359
  954SOL    HW1 3761   4.186   5.948   2.390
  954SOL    HW2 3762   4.037   5.882   2.397
  955SOL     OW 3763   1.593   4.319   6.923
  955SOL    HW1 3764   1.538   4.358   6.849
  955SOL    HW2 3765   1.573   4.368   7.008
  956SOL     OW 3766   6.985   0.372   1.427
  956SOL    HW1 3767   0.042   0.406   1.471
  956SOL    HW2 3768   6.945   0.445   1.371
  957SOL     OW 3769   6.123   1.151   1.996
  957SOL    HW1 3770   6.186   1.216   1.953
  957SOL    HW2 3771   6.153   1.058   1.975
  958SOL     OW 3772   5.116   6.309   2.222
  958SOL    HW1 3773   5.176   6.320   2.302
  958SOL    HW2 3774   5.033   6.362   2.235
  959SOL     OW 3775   3.567   6.470   4.549
  959SOL    HW1 3776   3.534   6.497   4.639
  959SOL    HW2 3777   3.512   6.393   4.516
  960SOL     OW 3778   1.352   0.881   0.984
  960SOL    HW1 3779   1.333   0.784   0.995
  960SOL    HW2 3780   1.361   0.903   0.887
  961SOL     OW 3781   3.880   6.588   3.172
  961SOL    HW1 3782   3.925   6.663   3.124
  961SOL    HW2 3783   3.914   6.500   3.136
  962SOL     OW 3784   6.104   0.954   4.418
  962SOL    HW1 3785   6.107   0.900   4.334
  962SOL    HW2 3786   6.012   0.989   4.432
  963SOL     OW 3787   4.707   1.297   1.206
  963SOL    HW1 3788   4.752   1.257   1.126
  963SOL    HW2 3789   4.627   1.243   1.231
  964SOL     OW 3790   4.468   5.120   5.408
  964SOL    HW1 3791   4.444   5.205   5.361
  964SOL    HW2 3792   4.466   5.135   5.507
  965SOL     OW 3793   6.337   1.808   2.137
  965SOL    HW1 3794   6.248   1.764   2.126
  965SOL    HW2 3795   6.372   1.836   2.048
  966SOL     OW 3796   4.932   2.550   3.436
  966SOL    HW1 3797   5.019   2.587   3.405
  966SOL    HW2 3798   4.944   2.503   3.523
  967SOL     OW 3799   3.289   5.098   6.685
  967SOL    HW1 3800   3.382   5.069   6.664
  967SOL    HW2 3801   3.288   5.145   6.774
  968SOL     OW 3802   3.705   7.007   1.591
  968SOL    HW1 3803   3.708   6.908   1.601
  968SOL    HW2 3804   3.798   0.017   1.584
  969SOL     OW 3805   2.411   5.355   5.644
  969SOL    HW1 3806   2.480   5.338   5.713
  969SOL    HW2 3807   2.423   5.291   5.567
  970SOL     OW 3808   5.621   1.014   6.054
  970SOL    HW1 3809   5.590   1.109   6.054
  970SOL    HW2 3810   5.706   1.007   6.107
  971SOL     OW 3811   0.102   3.358   3.083
  971SOL    HW1 3812   0.077   3.445   3.039
  971SOL    HW2 3813   0.089   3.366   3.182
  972SOL     OW 3814   6.949   2.689   1.879
  972SOL    HW1 3815   6.924   2.777   1.838
  972SOL    HW2 3816   6.889   2.671   1.957
  973SOL     OW 3817   0.322   4.445   6.629
  973SOL    HW1 3818   0.299   4.533   6.669
  973SOL    HW2 3819   0.238   4.393   6.611
  974SOL     OW 3820   0.965   5.178   2.517
  974SOL    HW1 3821   1.035   5.124   2.470
  974SOL    HW2 3822   0.968   5.273   2.485
  975SOL     OW 3823   2.984   6.920   0.463
  975SOL    HW1 3824   2.950   6.863   0.539
  975SOL    HW2 3825   3.033   6.999   0.500
  976SOL     OW 3826   6.625   3.876   1.427
  976SOL    HW1 3827   6.641   3.966   1.388
  976SOL    HW2 3828   6.616   3.808   1.354
  977SOL     OW 3829   0.713   0.902   2.472
  977SOL    HW1 3830   0.755   0.887   2.561
  977SOL    HW2 3831   0.784   0.922   2.404
  978SOL     OW 3832   5.544   1.807   1.191
  978SOL    HW1 3833   5.486   1.889   1.183
  978SOL    HW2 3834   5.489   1.729   1.220
  979SOL     OW 3835   0.267   2.868   6.265
  979SOL    HW1 3836   0.185   2.925   6.256
  979SOL    HW2 3837   0.333   2.915   6.323
  980SOL     OW 3838   3.948   1.044   4.477
  980SOL    HW1 3839   3.914   1.062   4.569
  980SOL    HW2 3840   3.907   0.961   4.442
  981SOL     OW 3841   0.778   0.438   5.096
  981SOL    HW1 3842   0.727   0.356   5.072
  981SOL    HW2 3843   0.859   0.413   5.148
  982SOL     OW 3844   0.778   1.731   5.658
  982SOL    HW1 3845   0.691   1.773   5.630
  982SOL    HW2 3846   0.819   1.785   5.731
  983SOL     OW 3847   0.065   3.347   3.343
  983SOL    HW1 3848   7.015   3.283   3.351
  983SOL    HW2 3849   0.056   3.419   3.412
  984SOL     OW 3850   1.554   1.915   3.106
  984SOL    HW1 3851   1.577   1.965   3.190
  984SOL    HW2 3852   1.460   1.881   3.112
  985SOL     OW 3853   6.543   4.283   4.280
  985SOL    HW1 3854   6.467   4.329   4.325
  985SOL    HW2 3855   6.520   4.188   4.261
  986SOL     OW 3856   4.943   4.815   1.290
  986SOL    HW1 3857   4.863   4.860   1.250
  986SOL    HW2 3858   5.005   4.786   1.217
  987SOL     OW 3859   5.632   6.430   3.316
  987SOL    HW1 3860   5.730   6.415   3.313
  987SOL    HW2 3861   5.598   6.447   3.223
  988SOL     OW 3862   3.286   3.776   2.320
  988SOL    HW1 3863   3.296   3.808   2.226
  988SOL    HW2 3864   3.320   3.846   2.383
  989SOL     OW 3865   6.923   2.217   0.366
  989SOL    HW1 3866   6.957   2.205   0.272
  989SOL    HW2 3867   7.000   2.215   0.429
  990SOL     OW 3868   3.571   0.078   2.984
  990SOL    HW1 3869   3.653   0.027   3.013
  990SOL    HW2 3870   3.492   0.017   2.986
  991SOL     OW 3871   6.600   4.662   3.233
  991SOL    HW1 3872   6.506   4.696   3.231
  991SOL    HW2 3873   6.657   4.719   3.173
  992SOL     OW 3874   1.167   3.161   1.251
  992SOL    HW1 3875   1.131   3.090   1.190
  992SOL    HW2 3876   1.172   3.125   1.344
  993SOL     OW 3877   0.897   4.024   1.037
  993SOL    HW1 3878   0.965   4.060   0.973
  993SOL    HW2 3879   0.834   3.964   0.989
  994SOL     OW 3880   3.873   5.397   1.055
  994SOL    HW1 3881   3.803   5.434   1.117
  994SOL    HW2 3882   3.840   5.313   1.013
  995SOL     OW 3883   4.278   3.519   5.580
  995SOL    HW1 3884   4.258   3.567   5.494
  995SOL    HW2 3885   4.283   3.421   5.564
  996SOL     OW 3886   3.893   5.300   5.096
  996SOL    HW1 3887   3.795   5.316   5.087
  996SOL    HW2 3888   3.936   5.378   5.140
  997SOL     OW 3889   1.014   6.790   3.652
  997SOL    HW1 3890   0.919   6.799   3.623
  997SOL    HW2 3891   1.066   6.869   3.620
  998SOL     OW 3892   6.751   0.511   5.875
  998SOL    HW1 3893   6.730   0.413   5.885
  998SOL    HW2 3894   6.676   0.565   5.913
  999SOL     OW 3895   5.060   3.802   1.651
  999SOL    HW1 3896   4.994   3.730   1.670
  999SOL    HW2 3897   5.124   3.810   1.728
 1000SOL     OW 3898   4.546   1.338   1.750
 1000SOL    HW1 3899   4.459   1.330   1.799
 1000SOL    HW2 3900   4.576   1.247   1.719
 1001SOL     OW 3901   3.009   6.138   2.202
 1001SOL    HW1 3902   3.005   6.040   2.181
 1001SOL    HW2 3903   3.001   6.150   2.301
 1002SOL     OW 3904   5.904   2.048   1.151
 1002SOL    HW1 3905   5.860   2.049   1.241
 1002SOL    HW2 3906   5.910   2.141   1.116
 1003SOL     OW 3907   1.602   6.231   2.517
 1003SOL    HW1 3908   1.682   6.255   2.462
 1003SOL    HW2 3909   1.554   6.315   2.543
 1004SOL     OW 3910   6.091   0.875   2.499
 1004SOL    HW1 3911   6.033   0.889   2.419
 1004SOL    HW2 3912   6.087   0.956   2.557
 1005SOL     OW 3913   1.813   4.810   3.901
 1005SOL    HW1 3914   1.859   4.723   3.882
 1005SOL    HW2 3915   1.735   4.820   3.840
 1006SOL     OW 3916   2.292   3.837   0.387
 1006SOL    HW1 3917   2.202   3.860   0.423
 1006SOL    HW2 3918   2.285   3.816   0.290
 1007SOL     OW 3919   4.566   1.398   6.616
 1007SOL    HW1 3920   4.550   1.483   6.666
 1007SOL    HW2 3921   4.603   1.329   6.678
 1008SOL     OW 3922   0.381   3.698   5.107
 1008SOL    HW1 3923   0.456   3.745   5.062
 1008SOL    HW2 3924   0.356   3.616   5.055
 1009SOL     OW 3925   6.254   4.726   5.283
 1009SOL    HW1 3926   6.290   4.767   5.367
 1009SOL    HW2 3927   6.208   4.796   5.228
 1010SOL     OW 3928   2.619   2.385   1.582
 1010SOL    HW1 3929   2.654   2.449   1.651
 1010SOL    HW2 3930   2.602   2.296   1.625
 1011SOL     OW 3931   0.292   5.396   3.022
 1011SOL    HW1 3932   0.338   5.484   3.038
 1011SOL    HW2 3933   0.357   5.330   2.985
 1012SOL     OW 3934   6.607   0.066   2.595
 1012SOL    HW1 3935   6.649   0.039   2.682
 1012SOL    HW2 3936   6.660   0.030   2.519
 1013SOL     OW 3937   6.826   1.262   6.327
 1013SOL    HW1 3938   6.811   1.204   6.406
 1013SOL    HW2 3939   6.816   1.208   6.243
 1014SOL     OW 3940   0.978   3.921   4.899
 1014SOL    HW1 3941   1.075   3.922   4.878
 1014SOL    HW2 3942   0.959   3.849   4.966
 1015SOL     OW 3943   2.680   0.881   6.736
 1015SOL    HW1 3944   2.653   0.837   6.822
 1015SOL    HW2 3945   2.663   0.979   6.742
 1016SOL     OW 3946   4.899   4.706   1.523
 1016SOL    HW1 3947   4.813   4.657   1.539
 1016SOL    HW2 3948   4.907   4.728   1.426
 1017SOL     OW 3949   3.010   1.678   1.266
 1017SOL    HW1 3950   3.054   1.615   1.331
 1017SOL    HW2 3951   3.012   1.770   1.303
 1018SOL     OW 3952   6.829   4.404   3.418
 1018SOL    HW1 3953   6.920   4.368   3.397
 1018SOL    HW2 3954   6.810   4.483   3.359
 1019SOL     OW 3955   6.602   4.859   0.020
 1019SOL    HW1 3956   6.510   4.821   0.023
 1019SOL    HW2 3957   6.663   4.805   0.077
 1020SOL     OW 3958   6.210   0.816   0.673
 1020SOL    HW1 3959   6.157   0.876   0.613
 1020SOL    HW2 3960   6.159   0.733   0.691
 1021SOL     OW 3961   6.317   5.851   2.506
 1021SOL    HW1 3962   6.368   5.789   2.446
 1021SOL    HW2 3963   6.285   5.800   2.586
 1022SOL     OW 3964   2.813   5.917   6.411
 1022SOL    HW1 3965   2.722   5.905   6.450
 1022SOL    HW2 3966   2.815   6.001   6.357
 1023SOL     OW 3967   6.953   0.397   2.168
 1023SOL    HW1 3968   6.958   0.480   2.224
 1023SOL    HW2 3969   6.991   0.320   2.220
 1024SOL     OW 3970   0.616   1.333   4.186
 1024SOL    HW1 3971   0.546   1.402   4.202
 1024SOL    HW2 3972   0.686   1.370   4.125
 1025SOL     OW 3973   4.585   3.145   0.431
 1025SOL    HW1 3974   4.679   3.150   0.464
 1025SOL    HW2 3975   4.544   3.236   0.431
 1026SOL     OW 3976   3.126   2.396   1.728
 1026SOL    HW1 3977   3.068   2.446   1.791
 1026SOL    HW2 3978   3.081   2.389   1.639
 1027SOL     OW 3979   1.825   6.756   1.814
 1027SOL    HW1 3980   1.856   6.711   1.898
 1027SOL    HW2 3981   1.725   6.750   1.808
 1028SOL     OW 3982   1.577   6.538   3.197
 1028SOL    HW1 3983   1.530   6.510   3.280
 1028SOL    HW2 3984   1.604   6.457   3.145
 1029SOL     OW 3985   1.468   2.194   6.229
 1029SOL    HW1 3986   1.424   2.231   6.311
 1029SOL    HW2 3987   1.567   2.211   6.234
 1030SOL     OW 3988   3.523   3.115   1.773
 1030SOL    HW1 3989   3.524   3.081   1.679
 1030SOL    HW2 3990   3.611   3.095   1.817
 1031SOL     OW 3991   4.291   3.127   1.513
 1031SOL    HW1 3992   4.346   3.064   1.459
 1031SOL    HW2 3993   4.296   3.102   1.610
 1032SOL     OW 3994   2.426   0.986   5.020
 1032SOL    HW1 3995   2.476   0.904   5.049
 1032SOL    HW2 3996   2.410   1.045   5.099
 1033SOL     OW 3997   1.988   6.343   2.573
 1033SOL    HW1 3998   1.991   6.358   2.474
 1033SOL    HW2 3999   1.987   6.431   2.620
 1034SOL     OW 4000   2.038   6.219   4.591
 1034SOL    HW1 4001   1.994   6.308   4.605
 1034SOL    HW2 4002   2.054   6.205   4.493
 1035SOL     OW 4003   0.565   2.169   6.050
 1035SOL    HW1 4004   0.591   2.261   6.018
 1035SOL    HW2 4005   0.520   2.119   5.976
 1036SOL     OW 4006   4.655   1.063   1.709
 1036SOL    HW1 4007   4.560   1.050   1.737
 1036SOL    HW2 4008   4.716   1.038   1.785
 1037SOL     OW 4009   1.239   1.878   2.908
 1037SOL    HW1 4010   1.273   1.790   2.874
 1037SOL    HW2 4011   1.272   1.892   3.002
 1038SOL     OW 4012   1.522   1.225   6.663
 1038SOL    HW1 4013   1.564   1.202   6.751
 1038SOL    HW2 4014   1.590   1.266   6.603
 1039SOL     OW 4015   3.074   3.068   3.674
 1039SOL    HW1 4016   3.005   3.127   3.716
 1039SOL    HW2 4017   3.123   3.017   3.745
 1040SOL     OW 4018   4.921   1.029   3.022
 1040SOL    HW1 4019   4.828   0.992   3.022
 1040SOL    HW2 4020   4.920   1.122   2.985
 1041SOL     OW 4021   6.981   6.736   3.746
 1041SOL    HW1 4022   6.952   6.828   3.772
 1041SOL    HW2 4023   6.903   6.674   3.749
 1042SOL     OW 4024   5.124   5.027   2.839
 1042SOL    HW1 4025   5.209   5.024   2.786
 1042SOL    HW2 4026   5.064   4.952   2.810
 1043SOL     OW 4027   3.791   2.144   3.335
 1043SOL    HW1 4028   3.699   2.151   3.374
 1043SOL    HW2 4029   3.785   2.118   3.239
 1044SOL     OW 4030   6.115   5.452   1.485
 1044SOL    HW1 4031   6.052   5.374   1.480
 1044SOL    HW2 4032   6.139   5.482   1.392
 1045SOL     OW 4033   3.097   6.956   2.941
 1045SOL    HW1 4034   3.039   0.010   2.929
 1045SOL    HW2 4035   3.040   6.876   2.959
 1046SOL     OW 4036   2.552   1.223   0.734
 1046SOL    HW1 4037   2.604   1.143   0.705
 1046SOL    HW2 4038   2.562   1.235   0.833
 1047SOL     OW 4039   3.237   0.303   4.146
 1047SOL    HW1 4040   3.210   0.207   4.155
 1047SOL    HW2 4041   3.225   0.331   4.051
 1048SOL     OW 4042   3.189   5.220   2.699
 1048SOL    HW1 4043   3.192   5.123   2.675
 1048SOL    HW2 4044   3.283   5.254   2.709
 1049SOL     OW 4045   4.950   0.185   3.744
 1049SOL    HW1 4046   4.961   0.278   3.780
 1049SOL    HW2 4047   4.889   0.186   3.665
 1050SOL     OW 4048   3.887   5.529   2.743
 1050SOL    HW1 4049   3.799   5.560   2.780
 1050SOL    HW2 4050   3.894   5.559   2.647
 1051SOL     OW 4051   0.179   5.799   0.264
 1051SOL    HW1 4052   0.277   5.797   0.242
 1051SOL    HW2 4053   0.141   5.707   0.252
 1052SOL     OW 4054   4.885   1.290   5.373
 1052SOL    HW1 4055   4.952   1.301   5.446
 1052SOL    HW2 4056   4.829   1.209   5.390
 1053SOL     OW 4057   6.004   3.994   2.405
 1053SOL    HW1 4058   6.061   3.921   2.368
 1053SOL    HW2 4059   6.061   4.061   2.452
 1054SOL     OW 4060   3.086   3.316   0.946
 1054SOL    HW1 4061   3.130   3.257   1.013
 1054SOL    HW2 4062   3.042   3.393   0.993
 1055SOL     OW 4063   4.981   6.229   6.635
 1055SOL    HW1 4064   4.918   6.291   6.682
 1055SOL    HW2 4065   4.938   6.198   6.550
 1056SOL     OW 4066   1.363   3.962   0.429
 1056SOL    HW1 4067   1.272   3.999   0.415
 1056SOL    HW2 4068   1.398   3.924   0.343
 1057SOL     OW 4069   3.715   2.015   1.822
 1057SOL    HW1 4070   3.768   2.072   1.760
 1057SOL    HW2 4071   3.669   2.073   1.890
 1058SOL     OW 4072   4.394   2.397   3.378
 1058SOL    HW1 4073   4.457   2.346   3.319
 1058SOL    HW2 4074   4.416   2.494   3.375
 1059SOL     OW 4075   2.183   6.593   2.229
 1059SOL    HW1 4076   2.103   6.631   2.275
 1059SOL    HW2 4077   2.263   6.606   2.287
 1060SOL     OW 4078   0.161   4.746   3.846
 1060SOL    HW1 4079   0.106   4.808   3.789
 1060SOL    HW2 4080   0.186   4.793   3.931
 1061SOL     OW 4081   6.577   3.702   6.788
 1061SOL    HW1 4082   6.638   3.766   6.834
 1061SOL    HW2 4083   6.587   3.611   6.828
 1062SOL     OW 4084   3.666   6.133   5.571
 1062SOL    HW1 4085   3.633   6.043   5.544
 1062SOL    HW2 4086   3.747   6.124   5.629
 1063SOL     OW 4087   0.371   6.859   6.623
 1063SOL    HW1 4088   0.383   6.931   6.690
 1063SOL    HW2 4089   0.447   6.795   6.628
 1064SOL     OW 4090   0.394   4.258   2.004
 1064SOL    HW1 4091   0.358   4.211   1.924
 1064SOL    HW2 4092   0.478   4.307   1.980
 1065SOL     OW 4093   3.089   0.494   3.775
 1065SOL    HW1 4094   3.178   0.537   3.759
 1065SOL    HW2 4095   3.026   0.561   3.812
 1066SOL     OW 4096   4.585   6.684   2.099
 1066SOL    HW1 4097   4.573   6.769   2.151
 1066SOL    HW2 4098   4.656   6.697   2.030
 1067SOL     OW 4099   2.461   1.416   6.788
 1067SOL    HW1 4100   2.453   1.454   6.696
 1067SOL    HW2 4101   2.375   1.372   6.814
 1068SOL     OW 4102   6.011   3.762   1.046
 1068SOL    HW1 4103   6.086   3.811   1.002
 1068SOL    HW2 4104   5.943   3.736   0.977
 1069SOL     OW 4105   5.363   5.584   1.199
 1069SOL    HW1 4106   5.379   5.649   1.273
 1069SOL    HW2 4107   5.451   5.545   1.170
 1070SOL     OW 4108   2.405   6.884   2.349
 1070SOL    HW1 4109   2.491   6.933   2.362
 1070SOL    HW2 4110   2.424   6.789   2.323
 1071SOL     OW 4111   0.535   1.824   4.699
 1071SOL    HW1 4112   0.556   1.780   4.786
 1071SOL    HW2 4113   0.538   1.756   4.626
 1072SOL     OW 4114   1.826   0.361   1.632
 1072SOL    HW1 4115   1.756   0.389   1.698
 1072SOL    HW2 4116   1.794   0.380   1.540
 1073SOL     OW 4117   5.592   2.043   3.328
 1073SOL    HW1 4118   5.536   1.965   3.357
 1073SOL    HW2 4119   5.605   2.105   3.405
 1074SOL     OW 4120   2.772   5.042   1.506
 1074SOL    HW1 4121   2.770   5.137   1.539
 1074SOL    HW2 4122   2.860   5.001   1.528
 1075SOL     OW 4123   6.224   1.513   4.374
 1075SOL    HW1 4124   6.224   1.584   4.445
 1075SOL    HW2 4125   6.169   1.544   4.297
 1076SOL     OW 4126   1.681   3.210   5.800
 1076SOL    HW1 4127   1.729   3.229   5.715
 1076SOL    HW2 4128   1.681   3.112   5.817
 1077SOL     OW 4129   0.100   6.561   0.147
 1077SOL    HW1 4130   0.185   6.610   0.123
 1077SOL    HW2 4131   0.047   6.543   0.065
 1078SOL     OW 4132   6.396   0.246   3.026
 1078SOL    HW1 4133   6.479   0.203   3.063
 1078SOL    HW2 4134   6.367   0.197   2.945
 1079SOL     OW 4135   1.523   5.526   1.796
 1079SOL    HW1 4136   1.513   5.606   1.855
 1079SOL    HW2 4137   1.451   5.526   1.727
 1080SOL     OW 4138   2.321   5.632   5.083
 1080SOL    HW1 4139   2.411   5.629   5.040
 1080SOL    HW2 4140   2.250   5.638   5.012
 1081SOL     OW 4141   7.004   5.513   3.999
 1081SOL    HW1 4142   6.958   5.424   3.997
 1081SOL    HW2 4143   0.069   5.505   3.959
 1082SOL     OW 4144   6.358   2.149   6.133
 1082SOL    HW1 4145   6.433   2.120   6.075
 1082SOL    HW2 4146   6.388   2.151   6.229
 1083SOL     OW 4147   5.062   3.402   0.497
 1083SOL    HW1 4148   5.047   3.455   0.413
 1083SOL    HW2 4149   5.087   3.464   0.571
 1084SOL     OW 4150   0.014   6.589   6.403
 1084SOL    HW1 4151   0.035   6.500   6.445
 1084SOL    HW2 4152   6.985   6.643   6.466
 1085SOL     OW 4153   2.120   3.510   3.603
 1085SOL    HW1 4154   2.027   3.545   3.588
 1085SOL    HW2 4155   2.150   3.536   3.695
 1086SOL     OW 4156   6.373   5.013   6.353
 1086SOL    HW1 4157   6.465   5.034   6.319
 1086SOL    HW2 4158   6.311   5.006   6.275
 1087SOL     OW 4159   0.946   1.587   5.497
 1087SOL    HW1 4160   1.013   1.652   5.461
 1087SOL    HW2 4161   0.884   1.634   5.559
 1088SOL     OW 4162   0.196   4.976   3.143
 1088SOL    HW1 4163   0.273   5.036   3.120
 1088SOL    HW2 4164   0.159   4.938   3.058
 1089SOL     OW 4165   0.396   5.654   5.289
 1089SOL    HW1 4166   0.440   5.579   5.239
 1089SOL    HW2 4167   0.337   5.706   5.228
 1090SOL     OW 4168   5.226   1.978   3.446
 1090SOL    HW1 4169   5.181   2.043   3.506
 1090SOL    HW2 4170   5.160   1.942   3.380
 1091SOL     OW 4171   2.106   3.549   3.313
 1091SOL    HW1 4172   2.131   3.560   3.409
 1091SOL    HW2 4173   2.008   3.529   3.306
 1092SOL     OW 4174   0.775   5.083   0.593
 1092SOL    HW1 4175   0.680   5.114   0.582
 1092SOL    HW2 4176   0.831   5.160   0.621
 1093SOL     OW 4177   2.828   6.765   1.860
 1093SOL    HW1 4178   2.730   6.783   1.871
 1093SOL    HW2 4179   2.844   6.724   1.770
 1094SOL     OW 4180   0.729   6.986   2.793
 1094SOL    HW1 4181   0.752   0.057   2.788
 1094SOL    HW2 4182   0.664   6.963   2.721
 1095SOL     OW 4183   0.649   2.693   6.600
 1095SOL    HW1 4184   0.578   2.644   6.548
 1095SOL    HW2 4185   0.735   2.691   6.549
 1096SOL     OW 4186   3.203   4.639   1.071
 1096SOL    HW1 4187   3.143   4.567   1.037
 1096SOL    HW2 4188   3.165   4.678   1.154
 1097SOL     OW 4189   1.889   5.694   2.964
 1097SOL    HW1 4190   1.794   5.665   2.960
 1097SOL    HW2 4191   1.940   5.635   3.027
 1098SOL     OW 4192   5.816   4.275   6.623
 1098SOL    HW1 4193   5.863   4.341   6.564
 1098SOL    HW2 4194   5.883   4.213   6.663
 1099SOL     OW 4195   4.977   1.341   6.535
 1099SOL    HW1 4196   4.934   1.412   6.591
 1099SOL    HW2 4197   5.076   1.359   6.531
 1100SOL     OW 4198   3.628   0.848   4.075
 1100SOL    HW1 4199   3.719   0.838   4.115
 1100SOL    HW2 4200   3.559   0.821   4.142
 1101SOL     OW 4201   5.404   3.760   5.151
 1101SOL    HW1 4202   5.321   3.743   5.098
 1101SOL    HW2 4203   5.482   3.715   5.107
 1102SOL     OW 4204   2.674   0.898   4.311
 1102SOL    HW1 4205   2.632   0.835   4.245
 1102SOL    HW2 4206   2.652   0.992   4.285
 1103SOL     OW 4207   2.525   1.309   0.217
 1103SOL    HW1 4208   2.583   1.387   0.198
 1103SOL    HW2 4209   2.581   1.231   0.244
 1104SOL     OW 4210   1.549   4.164   3.720
 1104SOL    HW1 4211   1.624   4.176   3.655
 1104SOL    HW2 4212   1.523   4.253   3.759
 1105SOL     OW 4213   5.079   2.645   4.360
 1105SOL    HW1 4214   5.078   2.635   4.261
 1105SOL    HW2 4215   5.114   2.736   4.384
 1106SOL     OW 4216   0.367   1.338   0.676
 1106SOL    HW1 4217   0.412   1.248   0.681
 1106SOL    HW2 4218   0.364   1.378   0.767
 1107SOL     OW 4219   0.825   0.359   0.373
 1107SOL    HW1 4220   0.915   0.399   0.389
 1107SOL    HW2 4221   0.803   0.366   0.275
 1108SOL     OW 4222   3.759   6.469   4.868
 1108SOL    HW1 4223   3.750   6.404   4.793
 1108SOL    HW2 4224   3.676   6.524   4.874
 1109SOL     OW 4225   5.663   1.726   4.061
 1109SOL    HW1 4226   5.600   1.760   3.991
 1109SOL    HW2 4227   5.615   1.660   4.120
 1110SOL     OW 4228   3.470   0.655   3.071
 1110SOL    HW1 4229   3.523   0.740   3.067
 1110SOL    HW2 4230   3.416   0.646   2.988
 1111SOL     OW 4231   5.647   4.147   6.424
 1111SOL    HW1 4232   5.549   4.132   6.434
 1111SOL    HW2 4233   5.682   4.189   6.508
 1112SOL     OW 4234   6.566   0.101   3.515
 1112SOL    HW1 4235   6.610   0.072   3.600
 1112SOL    HW2 4236   6.624   0.078   3.437
 1113SOL     OW 4237   6.297   4.476   1.440
 1113SOL    HW1 4238   6.257   4.498   1.350
 1113SOL    HW2 4239   6.382   4.526   1.451
 1114SOL     OW 4240   3.588   2.661   5.798
 1114SOL    HW1 4241   3.662   2.711   5.843
 1114SOL    HW2 4242   3.501   2.686   5.839
 1115SOL     OW 4243   4.133   3.997   5.224
 1115SOL    HW1 4244   4.101   3.917   5.174
 1115SOL    HW2 4245   4.221   3.976   5.267
 1116SOL     OW 4246   5.209   0.212   6.781
 1116SOL    HW1 4247   5.248   0.250   6.865
 1116SOL    HW2 4248   5.263   0.241   6.703
 1117SOL     OW 4249   0.954   2.292   1.572
 1117SOL    HW1 4250   0.968   2.195   1.554
 1117SOL    HW2 4251   0.856   2.312   1.575
 1118SOL     OW 4252   2.309   5.460   0.085
 1118SOL    HW1 4253   2.278   5.537   0.028
 1118SOL    HW2 4254   2.408   5.460   0.090
 1119SOL     OW 4255   4.430   4.520   1.782
 1119SOL    HW1 4256   4.344   4.472   1.794
 1119SOL    HW2 4257   4.506   4.455   1.789
 1120SOL     OW 4258   6.120   6.269   1.105
 1120SOL    HW1 4259   6.219   6.261   1.091
 1120SOL    HW2 4260   6.092   6.212   1.181
 1121SOL     OW 4261   0.789   4.562   4.897
 1121SOL    HW1 4262   0.794   4.615   4.813
 1121SOL    HW2 4263   0.765   4.623   4.973
 1122SOL     OW 4264   6.111   2.798   2.094
 1122SOL    HW1 4265   6.064   2.711   2.084
 1122SOL    HW2 4266   6.190   2.787   2.155
 1123SOL     OW 4267   4.419   2.208   3.747
 1123SOL    HW1 4268   4.508   2.172   3.718
 1123SOL    HW2 4269   4.418   2.215   3.847
 1124SOL     OW 4270   0.988   3.232   5.753
 1124SOL    HW1 4271   0.927   3.237   5.674
 1124SOL    HW2 4272   1.027   3.323   5.771
 1125SOL     OW 4273   1.667   2.743   4.615
 1125SOL    HW1 4274   1.711   2.742   4.704
 1125SOL    HW2 4275   1.732   2.776   4.546
 1126SOL     OW 4276   4.363   5.862   4.973
 1126SOL    HW1 4277   4.453   5.885   4.935
 1126SOL    HW2 4278   4.311   5.810   4.906
 1127SOL     OW 4279   5.353   6.795   4.837
 1127SOL    HW1 4280   5.447   6.822   4.859
 1127SOL    HW2 4281   5.350   6.696   4.820
 1128SOL     OW 4282   5.797   1.675   4.946
 1128SOL    HW1 4283   5.838   1.740   5.010
 1128SOL    HW2 4284   5.699   1.669   4.963
 1129SOL     OW 4285   1.857   0.123   0.472
 1129SOL    HW1 4286   1.839   0.035   0.517
 1129SOL    HW2 4287   1.775   0.180   0.476
 1130SOL     OW 4288   1.697   5.455   1.613
 1130SOL    HW1 4289   1.789   5.475   1.646
 1130SOL    HW2 4290   1.631   5.476   1.685
 1131SOL     OW 4291   1.761   0.928   4.730
 1131SOL    HW1 4292   1.696   0.985   4.680
 1131SOL    HW2 4293   1.712   0.855   4.778
 1132SOL     OW 4294   4.779   0.413   2.676
 1132SOL    HW1 4295   4.795   0.500   2.629
 1132SOL    HW2 4296   4.746   0.431   2.769
 1133SOL     OW 4297   0.824   0.314   0.086
 1133SOL    HW1 4298   0.811   0.337   7.015
 1133SOL    HW2 4299   0.922   0.319   0.108
 1134SOL     OW 4300   5.879   6.788   2.209
 1134SOL    HW1 4301   5.875   6.884   2.237
 1134SOL    HW2 4302   5.941   6.779   2.130
 1135SOL     OW 4303   2.315   6.643   3.833
 1135SOL    HW1 4304   2.257   6.588   3.772
 1135SOL    HW2 4305   2.307   6.608   3.926
 1136SOL     OW 4306   3.500   5.146   3.077
 1136SOL    HW1 4307   3.477   5.070   3.138
 1136SOL    HW2 4308   3.568   5.115   3.010
 1137SOL     OW 4309   0.894   6.357   6.360
 1137SOL    HW1 4310   0.918   6.450   6.387
 1137SOL    HW2 4311   0.873   6.355   6.262
 1138SOL     OW 4312   1.479   2.311   5.147
 1138SOL    HW1 4313   1.477   2.333   5.245
 1138SOL    HW2 4314   1.399   2.257   5.123
 1139SOL     OW 4315   2.637   4.627   4.173
 1139SOL    HW1 4316   2.674   4.597   4.085
 1139SOL    HW2 4317   2.697   4.698   4.211
 1140SOL     OW 4318   2.176   0.463   2.579
 1140SOL    HW1 4319   2.173   0.365   2.595
 1140SOL    HW2 4320   2.245   0.483   2.509
 1141SOL     OW 4321   6.455   5.549   6.325
 1141SOL    HW1 4322   6.404   5.543   6.240
 1141SOL    HW2 4323   6.415   5.618   6.385
 1142SOL     OW 4324   2.691   6.920   3.424
 1142SOL    HW1 4325   2.600   6.932   3.464
 1142SOL    HW2 4326   2.748   7.000   3.447
 1143SOL     OW 4327   1.499   2.788   2.301
 1143SOL    HW1 4328   1.400   2.802   2.310
 1143SOL    HW2 4329   1.546   2.835   2.375
 1144SOL     OW 4330   5.491   4.607   2.435
 1144SOL    HW1 4331   5.496   4.592   2.534
 1144SOL    HW2 4332   5.511   4.521   2.388
 1145SOL     OW 4333   1.224   2.542   0.504
 1145SOL    HW1 4334   1.220   2.641   0.495
 1145SOL    HW2 4335   1.243   2.518   0.599
 1146SOL     OW 4336   0.585   2.207   1.303
 1146SOL    HW1 4337   0.629   2.234   1.389
 1146SOL    HW2 4338   0.488   2.192   1.318
 1147SOL     OW 4339   3.266   6.151   0.734
 1147SOL    HW1 4340   3.303   6.060   0.716
 1147SOL    HW2 4341   3.186   6.166   0.675
 1148SOL     OW 4342   3.804   6.023   1.533
 1148SOL    HW1 4343   3.728   6.071   1.488
 1148SOL    HW2 4344   3.809   6.050   1.629
 1149SOL     OW 4345   6.046   3.207   1.736
 1149SOL    HW1 4346   6.079   3.184   1.645
 1149SOL    HW2 4347   6.075   3.137   1.801
 1150SOL     OW 4348   0.799   4.348   0.027
 1150SOL    HW1 4349   0.732   4.297   0.081
 1150SOL    HW2 4350   0.883   4.294   0.019
 1151SOL     OW 4351   5.928   4.968   4.703
 1151SOL    HW1 4352   5.861   4.895   4.710
 1151SOL    HW2 4353   5.946   4.988   4.607
 1152SOL     OW 4354   4.508   6.404   6.625
 1152SOL    HW1 4355   4.456   6.462   6.689
 1152SOL    HW2 4356   4.577   6.459   6.579
 1153SOL     OW 4357   6.948   0.094   1.448
 1153SOL    HW1 4358   6.856   0.075   1.414
 1153SOL    HW2 4359   6.965   0.193   1.446
 1154SOL     OW 4360   0.864   3.895   1.283
 1154SOL    HW1 4361   0.870   3.946   1.197
 1154SOL    HW2 4362   0.940   3.921   1.343
 1155SOL     OW 4363   2.335   6.290   5.434
 1155SOL    HW1 4364   2.320   6.373   5.486
 1155SOL    HW2 4365   2.375   6.313   5.345
 1156SOL     OW 4366   4.115   1.645   4.966
 1156SOL    HW1 4367   4.047   1.611   4.901
 1156SOL    HW2 4368   4.162   1.567   5.009
 1157SOL     OW 4369   5.332   1.081   5.792
 1157SOL    HW1 4370   5.292   1.161   5.836
 1157SOL    HW2 4371   5.321   1.001   5.852
 1158SOL     OW 4372   6.158   6.014   4.489
 1158SOL    HW1 4373   6.199   6.088   4.437
 1158SOL    HW2 4374   6.231   5.957   4.529
 1159SOL     OW 4375   6.173   6.685   3.327
 1159SOL    HW1 4376   6.129   6.680   3.417
 1159SOL    HW2 4377   6.192   6.780   3.305
 1160SOL     OW 4378   3.948   5.573   2.163
 1160SOL    HW1 4379   3.872   5.578   2.228
 1160SOL    HW2 4380   4.003   5.492   2.181
 1161SOL     OW 4381   6.702   5.683   6.123
 1161SOL    HW1 4382   6.652   5.764   6.155
 1161SOL    HW2 4383   6.685   5.607   6.186
 1162SOL     OW 4384   2.282   2.571   5.905
 1162SOL    HW1 4385   2.369   2.600   5.944
 1162SOL    HW2 4386   2.236   2.510   5.969
 1163SOL     OW 4387   5.947   4.881   1.546
 1163SOL    HW1 4388   6.024   4.942   1.525
 1163SOL    HW2 4389   5.952   4.852   1.642
 1164SOL     OW 4390   5.399   2.433   5.011
 1164SOL    HW1 4391   5.436   2.351   4.967
 1164SOL    HW2 4392   5.415   2.513   4.952
 1165SOL     OW 4393   4.199   5.919   3.215
 1165SOL    HW1 4394   4.144   5.939   3.134
 1165SOL    HW2 4395   4.234   6.005   3.253
 1166SOL     OW 4396   2.036   6.009   0.215
 1166SOL    HW1 4397   1.998   6.069   0.285
 1166SOL    HW2 4398   2.070   6.064   0.139
 1167SOL     OW 4399   5.101   4.538   1.582
 1167SOL    HW1 4400   5.043   4.620   1.574
 1167SOL    HW2 4401   5.168   4.538   1.508
 1168SOL     OW 4402   6.332   2.286   1.638
 1168SOL    HW1 4403   6.350   2.230   1.719
 1168SOL    HW2 4404   6.414   2.337   1.614
 1169SOL     OW 4405   5.802   1.907   5.397
 1169SOL    HW1 4406   5.739   1.940   5.467
 1169SOL    HW2 4407   5.838   1.818   5.423
 1170SOL     OW 4408   4.810   6.981   2.809
 1170SOL    HW1 4409   4.763   6.903   2.850
 1170SOL    HW2 4410   4.812   0.031   2.875
 1171SOL     OW 4411   2.635   0.227   0.125
 1171SOL    HW1 4412   2.639   0.299   0.195
 1171SOL    HW2 4413   2.726   0.213   0.087
 1172SOL     OW 4414   5.016   4.187   1.286
 1172SOL    HW1 4415   5.034   4.155   1.193
 1172SOL    HW2 4416   5.054   4.121   1.351
 1173SOL     OW 4417   2.799   1.279   1.600
 1173SOL    HW1 4418   2.776   1.376   1.604
 1173SOL    HW2 4419   2.778   1.243   1.509
 1174SOL     OW 4420   3.433   3.993   1.909
 1174SOL    HW1 4421   3.512   4.038   1.951
 1174SOL    HW2 4422   3.359   3.986   1.977
 1175SOL     OW 4423   4.713   3.543   5.730
 1175SOL    HW1 4424   4.720   3.473   5.658
 1175SOL    HW2 4425   4.626   3.533   5.778
 1176SOL     OW 4426   5.223   3.805   6.616
 1176SOL    HW1 4427   5.321   3.789   6.619
 1176SOL    HW2 4428   5.181   3.748   6.545
 1177SOL     OW 4429   6.991   3.817   4.492
 1177SOL    HW1 4430   0.058   3.817   4.454
 1177SOL    HW2 4431   6.976   3.901   4.543
 1178SOL     OW 4432   2.761   3.359   0.316
 1178SOL    HW1 4433   2.751   3.457   0.302
 1178SOL    HW2 4434   2.685   3.324   0.371
 1179SOL     OW 4435   2.836   5.468   0.632
 1179SOL    HW1 4436   2.908   5.509   0.576
 1179SOL    HW2 4437   2.802   5.536   0.697
 1180SOL     OW 4438   2.677   5.933   3.415
 1180SOL    HW1 4439   2.746   5.894   3.476
 1180SOL    HW2 4440   2.625   6.002   3.464
 1181SOL     OW 4441   0.515   5.193   5.859
 1181SOL    HW1 4442   0.441   5.256   5.838
 1181SOL    HW2 4443   0.497   5.148   5.946
 1182SOL     OW 4444   4.130   5.328   3.391
 1182SOL    HW1 4445   4.172   5.256   3.448
 1182SOL    HW2 4446   4.043   5.294   3.356
 1183SOL     OW 4447   2.337   4.209   6.954
 1183SOL    HW1 4448   2.422   4.186   6.907
 1183SOL    HW2 4449   2.297   4.290   6.911
 1184SOL     OW 4450   0.190   1.002   4.789
 1184SOL    HW1 4451   0.233   1.090   4.807
 1184SOL    HW2 4452   0.170   0.993   4.692
 1185SOL     OW 4453   0.249   1.494   0.484
 1185SOL    HW1 4454   0.188   1.529   0.555
 1185SOL    HW2 4455   0.307   1.422   0.522
 1186SOL     OW 4456   5.191   6.337   5.485
 1186SOL    HW1 4457   5.225   6.248   5.515
 1186SOL    HW2 4458   5.176   6.335   5.386
 1187SOL     OW 4459   6.070   6.741   6.633
 1187SOL    HW1 4460   6.137   6.670   6.655
 1187SOL    HW2 4461   6.108   6.805   6.566
 1188SOL     OW 4462   3.688   5.868   5.285
 1188SOL    HW1 4463   3.626   5.806   5.236
 1188SOL    HW2 4464   3.677   5.855   5.384
 1189SOL     OW 4465   6.222   2.519   2.709
 1189SOL    HW1 4466   6.137   2.526   2.760
 1189SOL    HW2 4467   6.203   2.509   2.612
 1190SOL     OW 4468   2.821   5.668   4.228
 1190SOL    HW1 4469   2.817   5.577   4.269
 1190SOL    HW2 4470   2.743   5.723   4.259
 1191SOL     OW 4471   4.568   5.114   3.889
 1191SOL    HW1 4472   4.545   5.026   3.848
 1191SOL    HW2 4473   4.607   5.174   3.819
 1192SOL     OW 4474   4.090   5.668   3.023
 1192SOL    HW1 4475   4.084   5.632   2.930
 1192SOL    HW2 4476   4.000   5.697   3.054
 1193SOL     OW 4477   6.477   3.347   4.599
 1193SOL    HW1 4478   6.419   3.328   4.678
 1193SOL    HW2 4479   6.473   3.270   4.536
 1194SOL     OW 4480   5.516   0.098   1.645
 1194SOL    HW1 4481   5.472   0.032   1.706
 1194SOL    HW2 4482   5.456   0.177   1.631
 1195SOL     OW 4483   6.602   4.518   0.879
 1195SOL    HW1 4484   6.579   4.577   0.802
 1195SOL    HW2 4485   6.589   4.567   0.965
 1196SOL     OW 4486   0.120   5.958   2.986
 1196SOL    HW1 4487   0.203   5.992   2.943
 1196SOL    HW2 4488   0.139   5.872   3.033
 1197SOL     OW 4489   4.373   1.075   5.382
 1197SOL    HW1 4490   4.345   0.980   5.371
 1197SOL    HW2 4491   4.297   1.135   5.356
 1198SOL     OW 4492   1.172   2.698   2.298
 1198SOL    HW1 4493   1.176   2.784   2.247
 1198SOL    HW2 4494   1.077   2.677   2.320
 1199SOL     OW 4495   4.141   4.473   1.756
 1199SOL    HW1 4496   4.119   4.379   1.730
 1199SOL    HW2 4497   4.070   4.535   1.723
 1200SOL     OW 4498   3.236   3.363   3.905
 1200SOL    HW1 4499   3.255   3.267   3.926
 1200SOL    HW2 4500   3.298   3.393   3.832
 1201SOL     OW 4501   1.233   0.802   4.380
 1201SOL    HW1 4502   1.246   0.725   4.442
 1201SOL    HW2 4503   1.179   0.773   4.301
 1202SOL     OW 4504   0.752   5.837   5.813
 1202SOL    HW1 4505   0.811   5.868   5.888
 1202SOL    HW2 4506   0.682   5.905   5.795
 1203SOL     OW 4507   5.913   6.640   0.271
 1203SOL    HW1 4508   5.941   6.590   0.189
 1203SOL    HW2 4509   5.867   6.725   0.244
 1204SOL     OW 4510   3.177   6.465   1.679
 1204SOL    HW1 4511   3.216   6.428   1.763
 1204SOL    HW2 4512   3.235   6.539   1.645
 1205SOL     OW 4513   5.256   3.873   1.223
 1205SOL    HW1 4514   5.238   3.841   1.316
 1205SOL    HW2 4515   5.274   3.972   1.225
 1206SOL     OW 4516   2.969   2.839   5.336
 1206SOL    HW1 4517   2.928   2.841   5.427
 1206SOL    HW2 4518   2.919   2.775   5.278
 1207SOL     OW 4519   1.975   6.297   1.640
 1207SOL    HW1 4520   2.030   6.325   1.719
 1207SOL    HW2 4521   2.028   6.309   1.557
 1208SOL     OW 4522   3.271   3.440   0.769
 1208SOL    HW1 4523   3.191   3.399   0.812
 1208SOL    HW2 4524   3.274   3.538   0.790
 1209SOL     OW 4525   4.414   0.798   4.716
 1209SOL    HW1 4526   4.504   0.842   4.723
 1209SOL    HW2 4527   4.392   0.781   4.620
 1210SOL     OW 4528   2.789   0.561   3.349
 1210SOL    HW1 4529   2.716   0.495   3.369
 1210SOL    HW2 4530   2.779   0.593   3.255
 1211SOL     OW 4531   0.997   3.588   2.045
 1211SOL    HW1 4532   0.976   3.502   2.091
 1211SOL    HW2 4533   1.094   3.591   2.021
 1212SOL     OW 4534   6.563   0.234   6.674
 1212SOL    HW1 4535   6.627   0.165   6.642
 1212SOL    HW2 4536   6.590   0.265   6.765
 1213SOL     OW 4537   6.805   1.952   0.723
 1213SOL    HW1 4538   6.836   1.994   0.638
 1213SOL    HW2 4539   6.706   1.941   0.721
 1214SOL     OW 4540   0.674   3.144   0.154
 1214SOL    HW1 4541   0.638   3.053   0.177
 1214SOL    HW2 4542   0.693   3.195   0.238
 1215SOL     OW 4543   1.606   4.313   4.100
 1215SOL    HW1 4544   1.594   4.315   4.001
 1215SOL    HW2 4545   1.627   4.219   4.129
 1216SOL     OW 4546   4.694   0.670   1.031
 1216SOL    HW1 4547   4.675   0.754   1.082
 1216SOL    HW2 4548   4.694   0.691   0.933
 1217SOL     OW 4549   1.345   4.716   0.465
 1217SOL    HW1 4550   1.397   4.795   0.432
 1217SOL    HW2 4551   1.252   4.721   0.429
 1218SOL     OW 4552   2.146   3.955   4.499
 1218SOL    HW1 4553   2.196   3.975   4.415
 1218SOL    HW2 4554   2.078   3.884   4.482
 1219SOL     OW 4555   5.676   5.867   1.725
 1219SOL    HW1 4556   5.645   5.829   1.638
 1219SOL    HW2 4557   5.704   5.962   1.712
 1220SOL     OW 4558   1.170   4.997   3.283
 1220SOL    HW1 4559   1.135   5.085   3.250
 1220SOL    HW2 4560   1.166   4.995   3.383
 1221SOL     OW 4561   5.896   3.606   6.162
 1221SOL    HW1 4562   5.926   3.513   6.145
 1221SOL    HW2 4563   5.828   3.633   6.094
 1222SOL     OW 4564   6.392   6.962   6.487
 1222SOL    HW1 4565   6.409   7.010   6.400
 1222SOL    HW2 4566   6.361   0.001   6.555
 1223SOL     OW 4567   4.054   0.409   0.524
 1223SOL    HW1 4568   4.040   0.318   0.564
 1223SOL    HW2 4569   3.998   0.476   0.573
 1224SOL     OW 4570   2.816   6.185   0.364
 1224SOL    HW1 4571   2.756   6.188   0.444
 1224SOL    HW2 4572   2.821   6.276   0.323
 1225SOL     OW 4573   3.299   3.711   6.526
 1225SOL    HW1 4574   3.316   3.720   6.428
 1225SOL    HW2 4575   3.285   3.801   6.566
 1226SOL     OW 4576   2.377   5.309   0.961
 1226SOL    HW1 4577   2.460   5.365   0.964
 1226SOL    HW2 4578   2.299   5.365   0.932
 1227SOL     OW 4579   6.363   3.961   0.020
 1227SOL    HW1 4580   6.300   4.037   0.038
 1227SOL    HW2 4581   6.455   3.987   0.052
 1228SOL     OW 4582   4.709   2.869   0.071
 1228SOL    HW1 4583   4.650   2.912   0.140
 1228SOL    HW2 4584   4.801   2.859   0.108
 1229SOL     OW 4585   3.375   5.016   6.043
 1229SOL    HW1 4586   3.389   5.107   6.082
 1229SOL    HW2 4587   3.401   4.946   6.110
 1230SOL     OW 4588   4.495   7.013   3.279
 1230SOL    HW1 4589   4.542   6.929   3.255
 1230SOL    HW2 4590   4.400   6.993   3.303
 1231SOL     OW 4591   1.322   3.582   4.277
 1231SOL    HW1 4592   1.253   3.599   4.206
 1231SOL    HW2 4593   1.405   3.635   4.256
 1232SOL     OW 4594   0.781   2.337   6.352
 1232SOL    HW1 4595   0.713   2.268   6.379
 1232SOL    HW2 4596   0.737   2.425   6.341
 1233SOL     OW 4597   0.901   3.135   4.236
 1233SOL    HW1 4598   0.915   3.112   4.140
 1233SOL    HW2 4599   0.988   3.128   4.285
 1234SOL     OW 4600   6.317   4.400   5.055
 1234SOL    HW1 4601   6.297   4.320   4.999
 1234SOL    HW2 4602   6.414   4.423   5.047
 1235SOL     OW 4603   6.996   5.851   2.690
 1235SOL    HW1 4604   0.013   5.774   2.737
 1235SOL    HW2 4605   6.983   5.926   2.755
 1236SOL     OW 4606   5.230   1.466   6.974
 1236SOL    HW1 4607   5.166   1.543   6.965
 1236SOL    HW2 4608   5.192   1.397   0.009
 1237SOL     OW 4609   2.996   5.113   5.645
 1237SOL    HW1 4610   2.989   5.052   5.567
 1237SOL    HW2 4611   3.042   5.066   5.721
 1238SOL     OW 4612   2.176   0.902   0.495
 1238SOL    HW1 4613   2.180   0.802   0.504
 1238SOL    HW2 4614   2.257   0.934   0.445
 1239SOL     OW 4615   6.879   6.801   6.572
 1239SOL    HW1 4616   6.859   6.854   6.490
 1239SOL    HW2 4617   6.962   6.835   6.615
 1240SOL     OW 4618   5.454   5.616   2.051
 1240SOL    HW1 4619   5.402   5.624   1.966
 1240SOL    HW2 4620   5.429   5.529   2.096
 1241SOL     OW 4621   6.550   3.980   3.959
 1241SOL    HW1 4622   6.588   4.062   4.001
 1241SOL    HW2 4623   6.618   3.906   3.964
 1242SOL     OW 4624   0.808   3.676   1.552
 1242SOL    HW1 4625   0.795   3.750   1.486
 1242SOL    HW2 4626   0.883   3.617   1.522
 1243SOL     OW 4627   1.040   6.416   5.361
 1243SOL    HW1 4628   0.959   6.462   5.324
 1243SOL    HW2 4629   1.080   6.358   5.290
 1244SOL     OW 4630   0.272   6.309   3.500
 1244SOL    HW1 4631   0.366   6.344   3.502
 1244SOL    HW2 4632   0.208   6.385   3.489
 1245SOL     OW 4633   4.761   4.205   6.609
 1245SOL    HW1 4634   4.663   4.209   6.594
 1245SOL    HW2 4635   4.794   4.293   6.642
 1246SOL     OW 4636   2.057   6.339   2.317
 1246SOL    HW1 4637   2.114   6.272   2.268
 1246SOL    HW2 4638   2.066   6.428   2.273
 1247SOL     OW 4639   2.661   0.288   6.578
 1247SOL    HW1 4640   2.683   0.382   6.550
 1247SOL    HW2 4641   2.564   0.270   6.561
 1248SOL     OW 4642   2.617   6.861   4.542
 1248SOL    HW1 4643   2.548   6.829   4.477
 1248SOL    HW2 4644   2.575   6.877   4.631
 1249SOL     OW 4645   5.725   2.054   2.012
 1249SOL    HW1 4646   5.665   2.045   1.933
 1249SOL    HW2 4647   5.789   1.976   2.015
 1250SOL     OW 4648   6.775   4.623   4.641
 1250SOL    HW1 4649   6.766   4.675   4.726
 1250SOL    HW2 4650   6.736   4.532   4.653
 1251SOL     OW 4651   3.023   6.990   4.681
 1251SOL    HW1 4652   3.101   0.011   4.721
 1251SOL    HW2 4653   3.022   7.005   4.582
 1252SOL     OW 4654   3.545   3.903   6.092
 1252SOL    HW1 4655   3.632   3.854   6.089
 1252SOL    HW2 4656   3.509   3.913   5.999
 1253SOL     OW 4657   3.521   5.410   1.511
 1253SOL    HW1 4658   3.540   5.316   1.539
 1253SOL    HW2 4659   3.458   5.452   1.575
 1254SOL     OW 4660   6.481   3.182   2.667
 1254SOL    HW1 4661   6.422   3.114   2.622
 1254SOL    HW2 4662   6.546   3.136   2.727
 1255SOL     OW 4663   6.631   1.449   4.481
 1255SOL    HW1 4664   6.570   1.381   4.440
 1255SOL    HW2 4665   6.724   1.412   4.484
 1256SOL     OW 4666   6.945   7.010   2.971
 1256SOL    HW1 4667   6.971   6.946   2.899
 1256SOL    HW2 4668   6.994   6.987   3.055
 1257SOL     OW 4669   6.468   6.786   3.671
 1257SOL    HW1 4670   6.531   6.847   3.719
 1257SOL    HW2 4671   6.499   6.774   3.577
 1258SOL     OW 4672   0.771   5.289   3.740
 1258SOL    HW1 4673   0.701   5.225   3.769
 1258SOL    HW2 4674   0.805   5.264   3.650
 1259SOL     OW 4675   3.382   2.144   4.323
 1259SOL    HW1 4676   3.482   2.141   4.323
 1259SOL    HW2 4677   3.348   2.133   4.416
 1260SOL     OW 4678   1.147   1.387   6.967
 1260SOL    HW1 4679   1.191   1.299   6.952
 1260SOL    HW2 4680   1.217   1.458   6.980
 1261SOL     OW 4681   0.031   5.943   6.384
 1261SOL    HW1 4682   0.079   5.864   6.423
 1261SOL    HW2 4683   0.081   6.026   6.407
 1262SOL     OW 4684   5.238   5.144   1.615
 1262SOL    HW1 4685   5.160   5.118   1.559
 1262SOL    HW2 4686   5.284   5.061   1.649
 1263SOL     OW 4687   0.392   1.233   2.701
 1263SOL    HW1 4688   0.383   1.280   2.613
 1263SOL    HW2 4689   0.379   1.135   2.688
 1264SOL     OW 4690   0.467   3.954   6.700
 1264SOL    HW1 4691   0.563   3.934   6.721
 1264SOL    HW2 4692   0.451   4.052   6.704
 1265SOL     OW 4693   6.582   5.357   4.418
 1265SOL    HW1 4694   6.625   5.307   4.494
 1265SOL    HW2 4695   6.555   5.293   4.347
 1266SOL     OW 4696   0.910   0.429   4.326
 1266SOL    HW1 4697   0.912   0.329   4.332
 1266SOL    HW2 4698   0.949   0.468   4.409
 1267SOL     OW 4699   5.033   0.769   1.762
 1267SOL    HW1 4700   5.082   0.758   1.849
 1267SOL    HW2 4701   5.058   0.856   1.721
 1268SOL     OW 4702   3.426   2.531   6.110
 1268SOL    HW1 4703   3.448   2.619   6.068
 1268SOL    HW2 4704   3.403   2.465   6.039
 1269SOL     OW 4705   5.600   3.044   4.115
 1269SOL    HW1 4706   5.533   3.002   4.176
 1269SOL    HW2 4707   5.679   2.983   4.106
 1270SOL     OW 4708   1.964   4.554   1.842
 1270SOL    HW1 4709   1.894   4.613   1.801
 1270SOL    HW2 4710   1.938   4.458   1.830
 1271SOL     OW 4711   2.607   1.015   1.531
 1271SOL    HW1 4712   2.681   1.027   1.465
 1271SOL    HW2 4713   2.554   0.934   1.508
 1272SOL     OW 4714   6.212   4.378   6.423
 1272SOL    HW1 4715   6.116   4.405   6.421
 1272SOL    HW2 4716   6.219   4.281   6.447
 1273SOL     OW 4717   1.486   3.627   5.140
 1273SOL    HW1 4718   1.513   3.531   5.136
 1273SOL    HW2 4719   1.462   3.658   5.048
 1274SOL     OW 4720   0.010   4.872   1.602
 1274SOL    HW1 4721   7.006   4.879   1.507
 1274SOL    HW2 4722   7.001   4.950   1.654
 1275SOL     OW 4723   2.846   0.196   3.393
 1275SOL    HW1 4724   2.843   0.155   3.484
 1275SOL    HW2 4725   2.941   0.208   3.365
 1276SOL     OW 4726   5.220   4.796   4.578
 1276SOL    HW1 4727   5.313   4.783   4.613
 1276SOL    HW2 4728   5.208   4.742   4.495
 1277SOL     OW 4729   1.269   5.153   7.017
 1277SOL    HW1 4730   1.358   5.131   6.976
 1277SOL    HW2 4731   1.237   5.075   0.044
 1278SOL     OW 4732   1.409   6.863   4.105
 1278SOL    HW1 4733   1.314   6.888   4.090
 1278SOL    HW2 4734   1.460   6.871   4.019
 1279SOL     OW 4735   2.216   3.720   6.054
 1279SOL    HW1 4736   2.174   3.750   6.140
 1279SOL    HW2 4737   2.150   3.665   6.003
 1280SOL     OW 4738   3.567   0.595   3.511
 1280SOL    HW1 4739   3.624   0.544   3.448
 1280SOL    HW2 4740   3.473   0.562   3.505
 1281SOL     OW 4741   2.957   5.678   3.987
 1281SOL    HW1 4742   2.904   5.695   4.070
 1281SOL    HW2 4743   3.025   5.606   4.005
 1282SOL     OW 4744   0.238   2.903   0.541
 1282SOL    HW1 4745   0.157   2.897   0.600
 1282SOL    HW2 4746   0.251   2.997   0.510
 1283SOL     OW 4747   6.751   4.162   5.361
 1283SOL    HW1 4748   6.756   4.113   5.273
 1283SOL    HW2 4749   6.751   4.095   5.436
 1284SOL     OW 4750   4.099   0.388   1.305
 1284SOL    HW1 4751   4.102   0.303   1.254
 1284SOL    HW2 4752   4.106   0.368   1.403
 1285SOL     OW 4753   3.692   1.219   5.885
 1285SOL    HW1 4754   3.756   1.287   5.850
 1285SOL    HW2 4755   3.625   1.196   5.815
 1286SOL     OW 4756   4.841   2.641   0.829
 1286SOL    HW1 4757   4.808   2.580   0.757
 1286SOL    HW2 4758   4.856   2.732   0.790
 1287SOL     OW 4759   5.582   4.471   5.604
 1287SOL    HW1 4760   5.568   4.564   5.572
 1287SOL    HW2 4761   5.641   4.473   5.685
 1288SOL     OW 4762   4.196   4.438   5.938
 1288SOL    HW1 4763   4.115   4.491   5.960
 1288SOL    HW2 4764   4.233   4.468   5.850
 1289SOL     OW 4765   6.809   0.816   2.054
 1289SOL    HW1 4766   6.851   0.759   1.983
 1289SOL    HW2 4767   6.818   0.912   2.029
 1290SOL     OW 4768   1.245   0.351   1.019
 1290SOL    HW1 4769   1.165   0.311   1.064
 1290SOL    HW2 4770   1.325   0.341   1.078
 1291SOL     OW 4771   6.470   5.237   4.200
 1291SOL    HW1 4772   6.516   5.164   4.150
 1291SOL    HW2 4773   6.371   5.219   4.199
 1292SOL     OW 4774   0.371   5.532   2.209
 1292SOL    HW1 4775   0.308   5.517   2.133
 1292SOL    HW2 4776   0.422   5.617   2.194
 1293SOL     OW 4777   2.284   2.278   0.674
 1293SOL    HW1 4778   2.377   2.301   0.703
 1293SOL    HW2 4779   2.256   2.340   0.601
 1294SOL     OW 4780   1.630   3.918   6.199
 1294SOL    HW1 4781   1.615   3.982   6.124
 1294SOL    HW2 4782   1.672   3.966   6.276
 1295SOL     OW 4783   6.895   3.649   1.397
 1295SOL    HW1 4784   6.838   3.593   1.338
 1295SOL    HW2 4785   6.916   3.598   1.481
 1296SOL     OW 4786   4.843   0.136   5.509
 1296SOL    HW1 4787   4.783   0.175   5.440
 1296SOL    HW2 4788   4.789   0.106   5.588
 1297SOL     OW 4789   0.871   6.221   1.471
 1297SOL    HW1 4790   0.959   6.236   1.426
 1297SOL    HW2 4791   0.813   6.301   1.457
 1298SOL     OW 4792   5.175   6.547   3.457
 1298SOL    HW1 4793   5.213   6.637   3.433
 1298SOL    HW2 4794   5.144   6.549   3.552
 1299SOL     OW 4795   2.030   3.099   3.927
 1299SOL    HW1 4796   1.990   3.015   3.893
 1299SOL    HW2 4797   2.068   3.151   3.851
 1300SOL     OW 4798   1.878   3.610   1.326
 1300SOL    HW1 4799   1.958   3.630   1.269
 1300SOL    HW2 4800   1.837   3.524   1.295
 1301SOL     OW 4801   0.338   6.675   1.951
 1301SOL    HW1 4802   0.301   6.760   1.912
 1301SOL    HW2 4803   0.419   6.648   1.898
 1302SOL     OW 4804   5.386   0.532   5.285
 1302SOL    HW1 4805   5.426   0.586   5.358
 1302SOL    HW2 4806   5.373   0.438   5.316
 1303SOL     OW 4807   4.496   0.290   1.534
 1303SOL    HW1 4808   4.499   0.190   1.533
 1303SOL    HW2 4809   4.582   0.326   1.496
 1304SOL     OW 4810   1.599   1.336   1.446
 1304SOL    HW1 4811   1.672   1.398   1.475
 1304SOL    HW2 4812   1.639   1.258   1.398
 1305SOL     OW 4813   5.830   4.662   6.002
 1305SOL    HW1 4814   5.751   4.691   6.056
 1305SOL    HW2 4815   5.906   4.641   6.064
 1306SOL     OW 4816   0.961   5.598   4.497
 1306SOL    HW1 4817   0.903   5.608   4.578
 1306SOL    HW2 4818   0.995   5.688   4.469
 1307SOL     OW 4819   1.717   3.449   3.965
 1307SOL    HW1 4820   1.693   3.542   3.992
 1307SOL    HW2 4821   1.657   3.420   3.891
 1308SOL     OW 4822   6.616   6.755   6.169
 1308SOL    HW1 4823   6.637   6.804   6.085
 1308SOL    HW2 4824   6.627   6.656   6.153
 1309SOL     OW 4825   5.381   4.470   6.064
 1309SOL    HW1 4826   5.315   4.452   5.992
 1309SOL    HW2 4827   5.346   4.542   6.124
 1310SOL     OW 4828   0.741   4.139   3.748
 1310SOL    HW1 4829   0.747   4.116   3.651
 1310SOL    HW2 4830   0.648   4.170   3.770
 1311SOL     OW 4831   6.595   5.887   6.260
 1311SOL    HW1 4832   6.634   5.967   6.215
 1311SOL    HW2 4833   6.610   5.893   6.359
 1312SOL     OW 4834   1.957   0.624   6.877
 1312SOL    HW1 4835   1.979   0.526   6.874
 1312SOL    HW2 4836   1.929   0.649   6.969
 1313SOL     OW 4837   6.662   5.299   2.883
 1313SOL    HW1 4838   6.623   5.347   2.961
 1313SOL    HW2 4839   6.740   5.244   2.913
 1314SOL     OW 4840   3.215   1.537   4.580
 1314SOL    HW1 4841   3.120   1.507   4.568
 1314SOL    HW2 4842   3.271   1.503   4.505
 1315SOL     OW 4843   6.961   0.974   4.167
 1315SOL    HW1 4844   6.906   1.048   4.126
 1315SOL    HW2 4845   6.901   0.910   4.215
 1316SOL     OW 4846   4.120   0.100   5.343
 1316SOL    HW1 4847   4.200   0.122   5.400
 1316SOL    HW2 4848   4.135   0.133   5.250
 1317SOL     OW 4849   1.922   4.549   5.157
 1317SOL    HW1 4850   1.876   4.607   5.089
 1317SOL    HW2 4851   1.896   4.454   5.143
 1318SOL     OW 4852   1.324   2.859   6.534
 1318SOL    HW1 4853   1.311   2.778   6.477
 1318SOL    HW2 4854   1.292   2.940   6.485
 1319SOL     OW 4855   0.241   5.999   6.681
 1319SOL    HW1 4856   0.275   6.080   6.633
 1319SOL    HW2 4857   0.168   6.026   6.743
 1320SOL     OW 4858   2.931   2.978   6.739
 1320SOL    HW1 4859   3.006   2.977   6.673
 1320SOL    HW2 4860   2.880   2.892   6.732
 1321SOL     OW 4861   4.826   2.527   6.568
 1321SOL    HW1 4862   4.881   2.509   6.486
 1321SOL    HW2 4863   4.773   2.445   6.590
 1322SOL     OW 4864   3.900   0.833   4.171
 1322SOL    HW1 4865   3.919   0.787   4.258
 1322SOL    HW2 4866   3.980   0.886   4.144
 1323SOL     OW 4867   3.910   6.186   0.794
 1323SOL    HW1 4868   3.933   6.277   0.760
 1323SOL    HW2 4869   3.812   6.178   0.808
 1324SOL     OW 4870   1.500   3.885   0.678
 1324SOL    HW1 4871   1.517   3.786   0.669
 1324SOL    HW2 4872   1.484   3.923   0.587
 1325SOL     OW 4873   4.150   6.486   5.159
 1325SOL    HW1 4874   4.084   6.501   5.086
 1325SOL    HW2 4875   4.105   6.439   5.235
 1326SOL     OW 4876   4.840   4.074   5.439
 1326SOL    HW1 4877   4.891   4.143   5.388
 1326SOL    HW2 4878   4.903   4.007   5.479
 1327SOL     OW 4879   0.385   6.479   1.191
 1327SOL    HW1 4880   0.333   6.482   1.105
 1327SOL    HW2 4881   0.323   6.454   1.266
 1328SOL     OW 4882   1.514   3.216   6.383
 1328SOL    HW1 4883   1.527   3.220   6.284
 1328SOL    HW2 4884   1.426   3.174   6.404
 1329SOL     OW 4885   0.298   1.983   2.926
 1329SOL    HW1 4886   0.304   2.038   3.009
 1329SOL    HW2 4887   0.304   1.886   2.950
 1330SOL     OW 4888   0.381   2.154   1.069
 1330SOL    HW1 4889   0.444   2.083   1.036
 1330SOL    HW2 4890   0.430   2.241   1.075
 1331SOL     OW 4891   4.506   2.516   2.601
 1331SOL    HW1 4892   4.499   2.442   2.668
 1331SOL    HW2 4893   4.577   2.581   2.630
 1332SOL     OW 4894   2.291   6.900   0.585
 1332SOL    HW1 4895   2.389   6.886   0.574
 1332SOL    HW2 4896   2.247   6.897   0.495
 1333SOL     OW 4897   2.906   3.673   2.924
 1333SOL    HW1 4898   2.907   3.616   2.841
 1333SOL    HW2 4899   2.902   3.614   3.004
 1334SOL     OW 4900   6.360   2.116   3.330
 1334SOL    HW1 4901   6.381   2.081   3.421
 1334SOL    HW2 4902   6.303   2.198   3.339
 1335SOL     OW 4903   1.727   1.869   2.295
 1335SOL    HW1 4904   1.742   1.797   2.363
 1335SOL    HW2 4905   1.816   1.906   2.267
 1336SOL     OW 4906   3.709   1.799   5.589
 1336SOL    HW1 4907   3.653   1.874   5.552
 1336SOL    HW2 4908   3.785   1.781   5.527
 1337SOL     OW 4909   6.645   1.557   2.748
 1337SOL    HW1 4910   6.682   1.501   2.822
 1337SOL    HW2 4911   6.549   1.581   2.768
 1338SOL     OW 4912   6.907   4.770   4.176
 1338SOL    HW1 4913   6.992   4.719   4.188
 1338SOL    HW2 4914   6.840   4.742   4.245
 1339SOL     OW 4915   7.016   0.694   6.997
 1339SOL    HW1 4916   6.928   0.699   6.951
 1339SOL    HW2 4917   0.024   0.786   7.015
 1340SOL     OW 4918   5.231   1.675   2.865
 1340SOL    HW1 4919   5.177   1.634   2.791
 1340SOL    HW2 4920   5.328   1.654   2.852
 1341SOL     OW 4921   4.041   6.493   0.420
 1341SOL    HW1 4922   4.033   6.582   0.464
 1341SOL    HW2 4923   4.084   6.504   0.330
 1342SOL     OW 4924   3.168   5.085   6.454
 1342SOL    HW1 4925   3.196   5.103   6.548
 1342SOL    HW2 4926   3.085   5.137   6.433
 1343SOL     OW 4927   5.799   5.339   2.774
 1343SOL    HW1 4928   5.775   5.242   2.779
 1343SOL    HW2 4929   5.803   5.368   2.678
 1344SOL     OW 4930   0.543   6.215   4.281
 1344SOL    HW1 4931   0.601   6.176   4.210
 1344SOL    HW2 4932   0.454   6.169   4.280
 1345SOL     OW 4933   0.848   4.542   2.299
 1345SOL    HW1 4934   0.889   4.568   2.387
 1345SOL    HW2 4935   0.768   4.600   2.281
 1346SOL     OW 4936   1.533   5.180   6.132
 1346SOL    HW1 4937   1.556   5.186   6.230
 1346SOL    HW2 4938   1.606   5.133   6.084
 1347SOL     OW 4939   1.540   6.834   6.621
 1347SOL    HW1 4940   1.599   6.758   6.593
 1347SOL    HW2 4941   1.447   6.819   6.587
 1348SOL     OW 4942   0.403   6.537   5.257
 1348SOL    HW1 4943   0.313   6.493   5.263
 1348SOL    HW2 4944   0.403   6.621   5.312
 1349SOL     OW 4945   5.545   2.706   4.018
 1349SOL    HW1 4946   5.591   2.617   4.023
 1349SOL    HW2 4947   5.513   2.722   3.925
 1350SOL     OW 4948   4.240   4.869   6.521
 1350SOL    HW1 4949   4.157   4.813   6.513
 1350SOL    HW2 4950   4.275   4.890   6.430
 1351SOL     OW 4951   5.977   2.668   4.117
 1351SOL    HW1 4952   6.056   2.704   4.167
 1351SOL    HW2 4953   5.933   2.596   4.171
 1352SOL     OW 4954   7.002   6.610   3.286
 1352SOL    HW1 4955   0.015   6.561   3.363
 1352SOL    HW2 4956   6.929   6.671   3.318
 1353SOL     OW 4957   1.351   1.699   0.513
 1353SOL    HW1 4958   1.256   1.672   0.498
 1353SOL    HW2 4959   1.359   1.798   0.503
 1354SOL     OW 4960   6.926   3.549   2.155
 1354SOL    HW1 4961   6.969   3.578   2.070
 1354SOL    HW2 4962   6.981   3.477   2.198
 1355SOL     OW 4963   6.325   3.736   4.258
 1355SOL    HW1 4964   6.309   3.665   4.326
 1355SOL    HW2 4965   6.423   3.759   4.256
 1356SOL     OW 4966   3.440   2.818   2.024
 1356SOL    HW1 4967   3.507   2.885   1.993
 1356SOL    HW2 4968   3.464   2.787   2.116
 1357SOL     OW 4969   6.444   4.192   5.999
 1357SOL    HW1 4970   6.532   4.146   6.013
 1357SOL    HW2 4971   6.374   4.123   5.982
 1358SOL     OW 4972   5.995   6.943   0.386
 1358SOL    HW1 4973   6.038   0.002   0.416
 1358SOL    HW2 4974   5.910   6.929   0.437
 1359SOL     OW 4975   6.788   4.888   2.218
 1359SOL    HW1 4976   6.756   4.980   2.196
 1359SOL    HW2 4977   6.721   4.821   2.186
 1360SOL     OW 4978   3.285   3.389   0.069
 1360SOL    HW1 4979   3.253   3.372   0.162
 1360SOL    HW2 4980   3.338   3.474   0.067
 1361SOL     OW 4981   6.934   4.586   4.897
 1361SOL    HW1 4982   6.936   4.678   4.859
 1361SOL    HW2 4983   6.926   4.591   4.996
 1362SOL     OW 4984   3.857   4.009   2.931
 1362SOL    HW1 4985   3.865   4.033   2.834
 1362SOL    HW2 4986   3.894   3.917   2.946
 1363SOL     OW 4987   0.143   5.256   4.143
 1363SOL    HW1 4988   0.156   5.210   4.055
 1363SOL    HW2 4989   0.150   5.355   4.130
 1364SOL     OW 4990   4.335   4.162   0.325
 1364SOL    HW1 4991   4.426   4.194   0.353
 1364SOL    HW2 4992   4.281   4.142   0.407
 1365SOL     OW 4993   0.480   4.569   6.962
 1365SOL    HW1 4994   0.577   4.572   6.940
 1365SOL    HW2 4995   0.452   4.475   6.978
 1366SOL     OW 4996   1.785   6.565   5.486
 1366SOL    HW1 4997   1.851   6.609   5.424
 1366SOL    HW2 4998   1.832   6.496   5.542
 1367SOL     OW 4999   1.663   0.596   2.371
 1367SOL    HW1 5000   1.724   0.518   2.354
 1367SOL    HW2 5001   1.589   0.567   2.431
 1368SOL     OW 5002   5.357   6.785   5.115
 1368SOL    HW1 5003   5.341   6.788   5.016
 1368SOL    HW2 5004   5.329   6.872   5.156
 1369SOL     OW 5005   1.487   6.086   3.025
 1369SOL    HW1 5006   1.531   6.163   3.072
 1369SOL    HW2 5007   1.522   6.079   2.932
 1370SOL     OW 5008   3.372   0.914   1.600
 1370SOL    HW1 5009   3.383   1.008   1.566
 1370SOL    HW2 5010   3.289   0.908   1.655
 1371SOL     OW 5011   4.557   1.196   4.785
 1371SOL    HW1 5012   4.533   1.104   4.754
 1371SOL    HW2 5013   4.578   1.254   4.706
 1372SOL     OW 5014   1.823   2.836   1.102
 1372SOL    HW1 5015   1.837   2.747   1.146
 1372SOL    HW2 5016   1.742   2.880   1.142
 1373SOL     OW 5017   6.447   4.909   0.396
 1373SOL    HW1 5018   6.542   4.907   0.367
 1373SOL    HW2 5019   6.401   4.826   0.365
 1374SOL     OW 5020   4.657   2.326   0.831
 1374SOL    HW1 5021   4.632   2.243   0.781
 1374SOL    HW2 5022   4.627   2.318   0.926
 1375SOL     OW 5023   7.002   4.851   5.523
 1375SOL    HW1 5024   7.021   4.828   5.618
 1375SOL    HW2 5025   6.939   4.928   5.519
 1376SOL     OW 5026   4.572   2.549   3.991
 1376SOL    HW1 5027   4.506   2.475   4.003
 1376SOL    HW2 5028   4.567   2.583   3.897
 1377SOL     OW 5029   0.640   4.414   5.374
 1377SOL    HW1 5030   0.629   4.490   5.438
 1377SOL    HW2 5031   0.726   4.366   5.394
 1378SOL     OW 5032   1.047   2.527   6.170
 1378SOL    HW1 5033   1.061   2.470   6.089
 1378SOL    HW2 5034   0.989   2.477   6.235
 1379SOL     OW 5035   3.182   6.316   3.173
 1379SOL    HW1 5036   3.275   6.310   3.209
 1379SOL    HW2 5037   3.118   6.324   3.249
 1380SOL     OW 5038   6.635   6.724   2.086
 1380SOL    HW1 5039   6.588   6.641   2.117
 1380SOL    HW2 5040   6.729   6.724   2.120
 1381SOL     OW 5041   5.903   2.898   0.142
 1381SOL    HW1 5042   5.893   2.925   0.238
 1381SOL    HW2 5043   5.851   2.961   0.084
 1382SOL     OW 5044   5.995   5.606   5.833
 1382SOL    HW1 5045   6.054   5.669   5.883
 1382SOL    HW2 5046   6.046   5.523   5.811
 1383SOL     OW 5047   0.801   0.715   0.350
 1383SOL    HW1 5048   0.769   0.627   0.386
 1383SOL    HW2 5049   0.776   0.722   0.253
 1384SOL     OW 5050   3.550   1.450   3.574
 1384SOL    HW1 5051   3.465   1.487   3.610
 1384SOL    HW2 5052   3.541   1.351   3.564
 1385SOL     OW 5053   6.342   2.769   3.288
 1385SOL    HW1 5054   6.249   2.766   3.251
 1385SOL    HW2 5055   6.349   2.845   3.352
 1386SOL     OW 5056   2.033   3.128   4.524
 1386SOL    HW1 5057   2.113   3.097   4.472
 1386SOL    HW2 5058   2.062   3.161   4.614
 1387SOL     OW 5059   3.599   0.533   4.320
 1387SOL    HW1 5060   3.651   0.454   4.352
 1387SOL    HW2 5061   3.502   0.511   4.318
 1388SOL     OW 5062   6.559   0.503   4.174
 1388SOL    HW1 5063   6.617   0.518   4.254
 1388SOL    HW2 5064   6.539   0.590   4.130
 1389SOL     OW 5065   6.611   0.028   4.208
 1389SOL    HW1 5066   6.587   7.002   4.290
 1389SOL    HW2 5067   6.619   6.993   4.130
 1390SOL     OW 5068   4.482   1.702   1.164
 1390SOL    HW1 5069   4.434   1.635   1.219
 1390SOL    HW2 5070   4.570   1.724   1.207
 1391SOL     OW 5071   6.684   0.469   4.858
 1391SOL    HW1 5072   6.689   0.522   4.943
 1391SOL    HW2 5073   6.608   0.504   4.802
 1392SOL     OW 5074   4.593   6.169   6.329
 1392SOL    HW1 5075   4.520   6.145   6.393
 1392SOL    HW2 5076   4.553   6.205   6.245
 1393SOL     OW 5077   6.602   1.781   6.572
 1393SOL    HW1 5078   6.535   1.811   6.503
 1393SOL    HW2 5079   6.652   1.701   6.538
 1394SOL     OW 5080   4.243   6.686   3.648
 1394SOL    HW1 5081   4.182   6.679   3.570
 1394SOL    HW2 5082   4.324   6.739   3.622
 1395SOL     OW 5083   1.234   4.760   3.177
 1395SOL    HW1 5084   1.199   4.853   3.188
 1395SOL    HW2 5085   1.318   4.763   3.122
 1396SOL     OW 5086   2.031   1.320   4.580
 1396SOL    HW1 5087   2.046   1.412   4.546
 1396SOL    HW2 5088   2.109   1.290   4.634
 1397SOL     OW 5089   0.769   4.711   4.669
 1397SOL    HW1 5090   0.737   4.724   4.575
 1397SOL    HW2 5091   0.805   4.798   4.704
 1398SOL     OW 5092   1.171   1.492   0.864
 1398SOL    HW1 5093   1.230   1.477   0.785
 1398SOL    HW2 5094   1.146   1.588   0.870
 1399SOL     OW 5095   4.047   7.015   0.455
 1399SOL    HW1 5096   4.026   0.047   0.377
 1399SOL    HW2 5097   4.060   0.046   0.537
 1400SOL     OW 5098   6.405   0.632   4.478
 1400SOL    HW1 5099   6.475   0.688   4.433
 1400SOL    HW2 5100   6.410   0.539   4.443
 1401SOL     OW 5101   5.133   0.636   3.658
 1401SOL    HW1 5102   5.091   0.727   3.653
 1401SOL    HW2 5103   5.118   0.598   3.749
 1402SOL     OW 5104   5.727   3.768   1.150
 1402SOL    HW1 5105   5.825   3.785   1.157
 1402SOL    HW2 5106   5.681   3.808   1.229
 1403SOL     OW 5107   3.960   3.049   6.838
 1403SOL    HW1 5108   3.893   3.024   6.768
 1403SOL    HW2 5109   3.911   3.083   6.919
 1404SOL     OW 5110   4.109   6.945   0.855
 1404SOL    HW1 5111   4.208   6.958   0.851
 1404SOL    HW2 5112   4.065   6.990   0.777
 1405SOL     OW 5113   2.453   3.512   0.978
 1405SOL    HW1 5114   2.522   3.447   0.948
 1405SOL    HW2 5115   2.363   3.481   0.948
 1406SOL     OW 5116   2.367   3.049   0.883
 1406SOL    HW1 5117   2.368   3.135   0.934
 1406SOL    HW2 5118   2.414   2.979   0.937
 1407SOL     OW 5119   0.775   3.014   1.901
 1407SOL    HW1 5120   0.795   3.111   1.891
 1407SOL    HW2 5121   0.704   3.002   1.971
 1408SOL     OW 5122   5.553   6.017   6.280
 1408SOL    HW1 5123   5.536   6.115   6.268
 1408SOL    HW2 5124   5.647   5.996   6.251
 1409SOL     OW 5125   6.870   1.093   5.848
 1409SOL    HW1 5126   6.859   1.173   5.789
 1409SOL    HW2 5127   6.901   1.015   5.794
 1410SOL     OW 5128   2.984   2.785   5.669
 1410SOL    HW1 5129   3.027   2.837   5.743
 1410SOL    HW2 5130   3.034   2.700   5.654
 1411SOL     OW 5131   3.866   5.832   0.194
 1411SOL    HW1 5132   3.900   5.813   0.286
 1411SOL    HW2 5133   3.781   5.781   0.179
 1412SOL     OW 5134   1.302   2.580   0.788
 1412SOL    HW1 5135   1.248   2.504   0.824
 1412SOL    HW2 5136   1.398   2.553   0.783
 1413SOL     OW 5137   1.676   1.670   5.378
 1413SOL    HW1 5138   1.734   1.663   5.459
 1413SOL    HW2 5139   1.592   1.619   5.392
 1414SOL     OW 5140   0.589   3.291   2.183
 1414SOL    HW1 5141   0.565   3.388   2.177
 1414SOL    HW2 5142   0.659   3.279   2.254
 1415SOL     OW 5143   2.570   2.106   3.957
 1415SOL    HW1 5144   2.597   2.117   4.053
 1415SOL    HW2 5145   2.629   2.037   3.914
 1416SOL     OW 5146   4.237   0.016   5.594
 1416SOL    HW1 5147   4.292   0.016   5.677
 1416SOL    HW2 5148   4.163   6.976   5.604
 1417SOL     OW 5149   3.302   2.902   6.171
 1417SOL    HW1 5150   3.378   2.858   6.220
 1417SOL    HW2 5151   3.286   2.993   6.210
 1418SOL     OW 5152   3.735   3.545   0.028
 1418SOL    HW1 5153   3.806   3.615   0.038
 1418SOL    HW2 5154   3.646   3.590   0.019
 1419SOL     OW 5155   1.812   5.196   3.638
 1419SOL    HW1 5156   1.876   5.192   3.715
 1419SOL    HW2 5157   1.733   5.251   3.664
 1420SOL     OW 5158   4.003   5.235   3.065
 1420SOL    HW1 5159   3.956   5.295   3.129
 1420SOL    HW2 5160   3.968   5.251   2.973
 1421SOL     OW 5161   0.717   5.359   5.744
 1421SOL    HW1 5162   0.653   5.300   5.793
 1421SOL    HW2 5163   0.778   5.303   5.689
 1422SOL     OW 5164   2.654   3.701   5.857
 1422SOL    HW1 5165   2.596   3.744   5.788
 1422SOL    HW2 5166   2.682   3.611   5.825
 1423SOL     OW 5167   4.362   0.508   4.691
 1423SOL    HW1 5168   4.264   0.491   4.678
 1423SOL    HW2 5169   4.377   0.606   4.703
 1424SOL     OW 5170   5.740   3.244   6.536
 1424SOL    HW1 5171   5.778   3.152   6.546
 1424SOL    HW2 5172   5.766   3.282   6.447
 1425SOL     OW 5173   3.758   6.615   4.410
 1425SOL    HW1 5174   3.697   6.572   4.477
 1425SOL    HW2 5175   3.775   6.710   4.437
 1426SOL     OW 5176   2.711   1.942   0.238
 1426SOL    HW1 5177   2.655   1.979   0.164
 1426SOL    HW2 5178   2.689   1.991   0.323
 1427SOL     OW 5179   1.045   1.221   3.026
 1427SOL    HW1 5180   1.008   1.145   3.079
 1427SOL    HW2 5181   0.982   1.299   3.031
 1428SOL     OW 5182   6.769   3.519   3.331
 1428SOL    HW1 5183   6.812   3.610   3.327
 1428SOL    HW2 5184   6.808   3.467   3.406
 1429SOL     OW 5185   6.076   1.338   0.434
 1429SOL    HW1 5186   6.164   1.362   0.393
 1429SOL    HW2 5187   6.025   1.421   0.455
 1430SOL     OW 5188   2.220   3.011   3.150
 1430SOL    HW1 5189   2.203   3.032   3.246
 1430SOL    HW2 5190   2.286   2.937   3.143
 1431SOL     OW 5191   2.671   1.558   6.448
 1431SOL    HW1 5192   2.689   1.465   6.481
 1431SOL    HW2 5193   2.586   1.592   6.489
 1432SOL     OW 5194   2.813   1.138   0.923
 1432SOL    HW1 5195   2.755   1.064   0.958
 1432SOL    HW2 5196   2.766   1.225   0.936
 1433SOL     OW 5197   2.877   0.348   4.407
 1433SOL    HW1 5198   2.928   0.315   4.486
 1433SOL    HW2 5199   2.853   0.270   4.348
 1434SOL     OW 5200   0.000   2.988   6.786
 1434SOL    HW1 5201   0.017   3.075   6.738
 1434SOL    HW2 5202   6.929   2.981   6.807
 1435SOL     OW 5203   1.309   0.237   4.546
 1435SOL    HW1 5204   1.287   0.184   4.464
 1435SOL    HW2 5205   1.369   0.183   4.605
 1436SOL     OW 5206   5.837   1.855   0.450
 1436SOL    HW1 5207   5.812   1.908   0.369
 1436SOL    HW2 5208   5.756   1.842   0.507
 1437SOL     OW 5209   4.137   1.566   6.165
 1437SOL    HW1 5210   4.155   1.491   6.102
 1437SOL    HW2 5211   4.040   1.589   6.163
 1438SOL     OW 5212   2.350   1.079   1.952
 1438SOL    HW1 5213   2.305   1.012   2.011
 1438SOL    HW2 5214   2.312   1.170   1.970
 1439SOL     OW 5215   6.724   5.262   6.813
 1439SOL    HW1 5216   6.787   5.223   6.880
 1439SOL    HW2 5217   6.633   5.225   6.828
 1440SOL     OW 5218   3.331   2.911   3.092
 1440SOL    HW1 5219   3.412   2.877   3.043
 1440SOL    HW2 5220   3.289   2.836   3.143
 1441SOL     OW 5221   0.000   2.870   4.369
 1441SOL    HW1 5222   0.014   2.915   4.457
 1441SOL    HW2 5223   6.966   2.925   4.312
 1442SOL     OW 5224   4.807   3.958   0.232
 1442SOL    HW1 5225   4.750   3.958   0.314
 1442SOL    HW2 5226   4.802   4.047   0.187
 1443SOL     OW 5227   0.801   1.572   3.348
 1443SOL    HW1 5228   0.871   1.603   3.412
 1443SOL    HW2 5229   0.755   1.651   3.308
 1444SOL     OW 5230   4.593   0.604   3.360
 1444SOL    HW1 5231   4.656   0.652   3.421
 1444SOL    HW2 5232   4.499   0.620   3.390
 1445SOL     OW 5233   6.667   2.217   1.836
 1445SOL    HW1 5234   6.569   2.199   1.842
 1445SOL    HW2 5235   6.718   2.133   1.855
 1446SOL     OW 5236   4.378   2.111   1.441
 1446SOL    HW1 5237   4.439   2.090   1.518
 1446SOL    HW2 5238   4.288   2.072   1.459
 1447SOL     OW 5239   6.362   1.330   5.165
 1447SOL    HW1 5240   6.329   1.237   5.152
 1447SOL    HW2 5241   6.349   1.357   5.261
 1448SOL     OW 5242   5.548   1.258   6.373
 1448SOL    HW1 5243   5.488   1.192   6.418
 1448SOL    HW2 5244   5.512   1.279   6.282
 1449SOL     OW 5245   5.393   6.007   0.962
 1449SOL    HW1 5246   5.363   6.093   1.003
 1449SOL    HW2 5247   5.314   5.948   0.947
 1450SOL     OW 5248   5.580   3.090   2.796
 1450SOL    HW1 5249   5.592   3.140   2.711
 1450SOL    HW2 5250   5.669   3.060   2.830
 1451SOL     OW 5251   1.893   6.773   3.049
 1451SOL    HW1 5252   1.797   6.766   3.023
 1451SOL    HW2 5253   1.949   6.779   2.966
 1452SOL     OW 5254   5.202   0.692   5.145
 1452SOL    HW1 5255   5.241   0.627   5.210
 1452SOL    HW2 5256   5.239   0.783   5.162
 1453SOL     OW 5257   5.107   4.138   5.059
 1453SOL    HW1 5258   5.195   4.179   5.036
 1453SOL    HW2 5259   5.070   4.183   5.140
 1454SOL     OW 5260   5.038   2.709   2.078
 1454SOL    HW1 5261   5.137   2.712   2.097
 1454SOL    HW2 5262   5.008   2.614   2.073
 1455SOL     OW 5263   0.967   1.006   2.056
 1455SOL    HW1 5264   0.991   0.914   2.027
 1455SOL    HW2 5265   1.046   1.066   2.048
 1456SOL     OW 5266   6.895   6.616   4.189
 1456SOL    HW1 5267   6.868   6.652   4.278
 1456SOL    HW2 5268   6.922   6.691   4.129
 1457SOL     OW 5269   2.133   0.516   3.876
 1457SOL    HW1 5270   2.198   0.521   3.800
 1457SOL    HW2 5271   2.040   0.513   3.839
 1458SOL     OW 5272   5.246   6.468   5.881
 1458SOL    HW1 5273   5.298   6.480   5.796
 1458SOL    HW2 5274   5.176   6.538   5.887
 1459SOL     OW 5275   2.888   6.075   0.081
 1459SOL    HW1 5276   2.818   6.048   0.148
 1459SOL    HW2 5277   2.870   6.028   7.021
 1460SOL     OW 5278   1.235   6.487   6.935
 1460SOL    HW1 5279   1.310   6.428   6.906
 1460SOL    HW2 5280   1.190   6.448   7.015
 1461SOL     OW 5281   6.018   4.465   2.570
 1461SOL    HW1 5282   6.035   4.467   2.472
 1461SOL    HW2 5283   6.105   4.469   2.620
 1462SOL     OW 5284   6.307   0.705   0.438
 1462SOL    HW1 5285   6.257   0.724   0.523
 1462SOL    HW2 5286   6.249   0.652   0.376
 1463SOL     OW 5287   1.244   0.814   4.880
 1463SOL    HW1 5288   1.156   0.828   4.926
 1463SOL    HW2 5289   1.266   0.896   4.826
 1464SOL     OW 5290   7.017   6.360   0.627
 1464SOL    HW1 5291   0.046   6.428   0.577
 1464SOL    HW2 5292   7.010   6.387   0.723
 1465SOL     OW 5293   0.476   0.446   4.443
 1465SOL    HW1 5294   0.380   0.424   4.426
 1465SOL    HW2 5295   0.524   0.363   4.472
 1466SOL     OW 5296   5.695   5.579   3.311
 1466SOL    HW1 5297   5.736   5.666   3.340
 1466SOL    HW2 5298   5.600   5.595   3.284
 1467SOL     OW 5299   0.886   0.952   3.510
 1467SOL    HW1 5300   0.859   0.884   3.442
 1467SOL    HW2 5301   0.815   1.022   3.517
 1468SOL     OW 5302   5.334   5.858   3.720
 1468SOL    HW1 5303   5.321   5.950   3.682
 1468SOL    HW2 5304   5.407   5.860   3.788
 1469SOL     OW 5305   0.667   0.418   2.469
 1469SOL    HW1 5306   0.579   0.462   2.487
 1469SOL    HW2 5307   0.723   0.479   2.412
 1470SOL     OW 5308   1.169   0.683   2.957
 1470SOL    HW1 5309   1.156   0.721   3.049
 1470SOL    HW2 5310   1.146   0.585   2.959
 1471SOL     OW 5311   0.231   0.281   6.774
 1471SOL    HW1 5312   0.277   0.359   6.732
 1471SOL    HW2 5313   0.174   0.312   6.849
 1472SOL     OW 5314   5.065   0.530   5.983
 1472SOL    HW1 5315   5.153   0.565   5.951
 1472SOL    HW2 5316   4.991   0.583   5.941
 1473SOL     OW 5317   6.122   5.056   2.924
 1473SOL    HW1 5318   6.120   4.961   2.957
 1473SOL    HW2 5319   6.032   5.079   2.886
 1474SOL     OW 5320   5.995   5.578   4.514
 1474SOL    HW1 5321   5.906   5.551   4.476
 1474SOL    HW2 5322   6.019   5.669   4.479
 1475SOL     OW 5323   6.716   0.859   2.551
 1475SOL    HW1 5324   6.807   0.863   2.593
 1475SOL    HW2 5325   6.704   0.770   2.507
 1476SOL     OW 5326   0.902   1.700   2.253
 1476SOL    HW1 5327   0.852   1.635   2.196
 1476SOL    HW2 5328   0.881   1.793   2.224
 1477SOL     OW 5329   3.051   6.749   5.400
 1477SOL    HW1 5330   3.038   6.797   5.313
 1477SOL    HW2 5331   3.143   6.767   5.434
 1478SOL     OW 5332   6.107   5.097   1.211
 1478SOL    HW1 5333   6.063   5.162   1.149
 1478SOL    HW2 5334   6.068   5.006   1.197
 1479SOL     OW 5335   2.011   4.548   0.668
 1479SOL    HW1 5336   2.071   4.483   0.714
 1479SOL    HW2 5337   2.031   4.641   0.700
 1480SOL     OW 5338   2.027   1.784   0.402
 1480SOL    HW1 5339   2.058   1.723   0.329
 1480SOL    HW2 5340   2.034   1.879   0.372
 1481SOL     OW 5341   6.075   2.174   6.208
 1481SOL    HW1 5342   6.171   2.146   6.205
 1481SOL    HW2 5343   6.056   2.220   6.294
 1482SOL     OW 5344   5.736   0.609   7.018
 1482SOL    HW1 5345   5.693   0.646   6.936
 1482SOL    HW2 5346   5.759   0.683   0.054
 1483SOL     OW 5347   6.538   2.751   0.063
 1483SOL    HW1 5348   6.541   2.844   0.027
 1483SOL    HW2 5349   6.629   2.709   0.053
 1484SOL     OW 5350   7.014   4.945   2.334
 1484SOL    HW1 5351   6.933   4.925   2.279
 1484SOL    HW2 5352   6.988   4.951   2.430
 1485SOL     OW 5353   5.485   2.843   3.802
 1485SOL    HW1 5354   5.411   2.781   3.775
 1485SOL    HW2 5355   5.446   2.932   3.824
 1486SOL     OW 5356   4.757   2.237   3.092
 1486SOL    HW1 5357   4.687   2.220   3.161
 1486SOL    HW2 5358   4.811   2.317   3.119
 1487SOL     OW 5359   5.780   1.735   5.779
 1487SOL    HW1 5360   5.750   1.821   5.820
 1487SOL    HW2 5361   5.705   1.669   5.780
 1488SOL     OW 5362   4.800   1.332   3.172
 1488SOL    HW1 5363   4.705   1.303   3.182
 1488SOL    HW2 5364   4.852   1.305   3.253
 1489SOL     OW 5365   3.882   5.001   4.731
 1489SOL    HW1 5366   3.794   4.968   4.696
 1489SOL    HW2 5367   3.931   5.048   4.657
 1490SOL     OW 5368   1.149   2.145   0.373
 1490SOL    HW1 5369   1.074   2.084   0.347
 1490SOL    HW2 5370   1.118   2.240   0.367
 1491SOL     OW 5371   0.272   3.480   3.798
 1491SOL    HW1 5372   0.218   3.560   3.771
 1491SOL    HW2 5373   0.240   3.400   3.747
 1492SOL     OW 5374   5.119   2.027   1.453
 1492SOL    HW1 5375   5.055   2.036   1.530
 1492SOL    HW2 5376   5.106   2.104   1.390
 1493SOL     OW 5377   4.870   0.317   5.149
 1493SOL    HW1 5378   4.924   0.400   5.136
 1493SOL    HW2 5379   4.930   0.241   5.174
 1494SOL     OW 5380   4.003   2.433   5.956
 1494SOL    HW1 5381   4.072   2.368   5.988
 1494SOL    HW2 5382   3.915   2.387   5.948
 1495SOL     OW 5383   0.828   2.980   2.890
 1495SOL    HW1 5384   0.814   2.911   2.819
 1495SOL    HW2 5385   0.926   3.000   2.899
 1496SOL     OW 5386   6.757   0.261   1.892
 1496SOL    HW1 5387   6.753   0.355   1.860
 1496SOL    HW2 5388   6.756   0.199   1.814
 1497SOL     OW 5389   6.919   5.082   3.857
 1497SOL    HW1 5390   6.851   5.044   3.920
 1497SOL    HW2 5391   6.933   5.019   3.780
 1498SOL     OW 5392   2.011   4.547   6.320
 1498SOL    HW1 5393   2.089   4.485   6.326
 1498SOL    HW2 5394   1.980   4.553   6.225
 1499SOL     OW 5395   0.939   3.516   4.889
 1499SOL    HW1 5396   0.995   3.515   4.972
 1499SOL    HW2 5397   0.997   3.527   4.809
 1500SOL     OW 5398   5.221   6.932   7.021
 1500SOL    HW1 5399   5.159   6.942   6.942
 1500SOL    HW2 5400   5.314   6.918   6.988
 1501SOL     OW 5401   4.064   0.530   6.592
 1501SOL    HW1 5402   4.043   0.484   6.506
 1501SOL    HW2 5403   4.104   0.465   6.657
 1502SOL     OW 5404   6.305   6.573   0.011
 1502SOL    HW1 5405   6.344   6.484   7.014
 1502SOL    HW2 5406   6.299   6.582   0.110
 1503SOL     OW 5407   2.810   2.797   0.033
 1503SOL    HW1 5408   2.851   2.706   0.043
 1503SOL    HW2 5409   2.869   2.865   0.076
 1504SOL     OW 5410   3.403   6.793   5.505
 1504SOL    HW1 5411   3.437   6.833   5.420
 1504SOL    HW2 5412   3.399   6.865   5.575
 1505SOL     OW 5413   5.783   6.635   5.410
 1505SOL    HW1 5414   5.754   6.554   5.359
 1505SOL    HW2 5415   5.809   6.609   5.503
 1506SOL     OW 5416   0.971   5.668   3.824
 1506SOL    HW1 5417   1.031   5.643   3.900
 1506SOL    HW2 5418   0.877   5.644   3.847
 1507SOL     OW 5419   1.756   1.452   5.785
 1507SOL    HW1 5420   1.779   1.520   5.716
 1507SOL    HW2 5421   1.696   1.493   5.854
 1508SOL     OW 5422   4.447   6.901   0.524
 1508SOL    HW1 5423   4.415   6.955   0.602
 1508SOL    HW2 5424   4.385   6.913   0.447
 1509SOL     OW 5425   4.467   2.843   6.560
 1509SOL    HW1 5426   4.460   2.838   6.659
 1509SOL    HW2 5427   4.484   2.752   6.523
 1510SOL     OW 5428   6.899   2.243   4.159
 1510SOL    HW1 5429   6.998   2.239   4.170
 1510SOL    HW2 5430   6.877   2.287   4.071
 1511SOL     OW 5431   2.900   1.748   0.238
 1511SOL    HW1 5432   2.838   1.823   0.215
 1511SOL    HW2 5433   2.882   1.717   0.331
 1512SOL     OW 5434   0.234   0.460   1.490
 1512SOL    HW1 5435   0.233   0.539   1.551
 1512SOL    HW2 5436   0.286   0.386   1.532
 1513SOL     OW 5437   3.218   7.015   4.144
 1513SOL    HW1 5438   3.314   6.993   4.163
 1513SOL    HW2 5439   3.187   6.963   4.064
 1514SOL     OW 5440   5.568   1.939   4.996
 1514SOL    HW1 5441   5.472   1.969   4.999
 1514SOL    HW2 5442   5.628   2.016   5.018
 1515SOL     OW 5443   0.140   4.292   5.056
 1515SOL    HW1 5444   0.156   4.377   5.006
 1515SOL    HW2 5445   0.219   4.231   5.045
 1516SOL     OW 5446   0.593   1.689   0.707
 1516SOL    HW1 5447   0.517   1.632   0.739
 1516SOL    HW2 5448   0.631   1.739   0.785
 1517SOL     OW 5449   4.475   6.181   3.489
 1517SOL    HW1 5450   4.535   6.260   3.500
 1517SOL    HW2 5451   4.379   6.210   3.494
 1518SOL     OW 5452   6.620   4.330   0.683
 1518SOL    HW1 5453   6.593   4.374   0.769
 1518SOL    HW2 5454   6.719   4.316   0.682
 1519SOL     OW 5455   6.313   4.734   1.119
 1519SOL    HW1 5456   6.311   4.636   1.101
 1519SOL    HW2 5457   6.280   4.752   1.212
 1520SOL     OW 5458   2.066   3.348   2.523
 1520SOL    HW1 5459   2.120   3.327   2.441
 1520SOL    HW2 5460   2.080   3.276   2.591
 1521SOL     OW 5461   1.695   3.152   6.759
 1521SOL    HW1 5462   1.714   3.222   6.828
 1521SOL    HW2 5463   1.771   3.088   6.754
 1522SOL     OW 5464   5.885   2.029   6.516
 1522SOL    HW1 5465   5.952   2.070   6.578
 1522SOL    HW2 5466   5.872   1.933   6.540
 1523SOL     OW 5467   6.295   2.555   1.285
 1523SOL    HW1 5468   6.382   2.515   1.314
 1523SOL    HW2 5469   6.299   2.573   1.187
 1524SOL     OW 5470   0.183   1.471   1.275
 1524SOL    HW1 5471   0.275   1.467   1.237
 1524SOL    HW2 5472   0.183   1.531   1.355
 1525SOL     OW 5473   3.724   2.008   5.884
 1525SOL    HW1 5474   3.758   1.916   5.900
 1525SOL    HW2 5475   3.639   2.004   5.832
 1526SOL     OW 5476   0.457   2.011   1.616
 1526SOL    HW1 5477   0.415   2.083   1.560
 1526SOL    HW2 5478   0.552   1.998   1.588
 1527SOL     OW 5479   3.277   1.922   5.305
 1527SOL    HW1 5480   3.320   2.001   5.348
 1527SOL    HW2 5481   3.236   1.949   5.218
 1528SOL     OW 5482   4.217   6.577   3.158
 1528SOL    HW1 5483   4.168   6.662   3.137
 1528SOL    HW2 5484   4.252   6.537   3.073
 1529SOL     OW 5485   3.625   0.650   6.510
 1529SOL    HW1 5486   3.723   0.649   6.532
 1529SOL    HW2 5487   3.574   0.686   6.588
 1530SOL     OW 5488   2.610   6.469   2.162
 1530SOL    HW1 5489   2.657   6.505   2.081
 1530SOL    HW2 5490   2.664   6.393   2.200
 1531SOL     OW 5491   6.961   6.997   3.839
 1531SOL    HW1 5492   0.034   7.011   3.845
 1531SOL    HW2 5493   6.916   0.058   3.820
 1532SOL     OW 5494   3.344   2.203   5.342
 1532SOL    HW1 5495   3.308   2.268   5.275
 1532SOL    HW2 5496   3.422   2.244   5.389
 1533SOL     OW 5497   6.289   3.670   0.075
 1533SOL    HW1 5498   6.297   3.768   0.057
 1533SOL    HW2 5499   6.200   3.651   0.115
 1534SOL     OW 5500   1.012   5.668   0.753
 1534SOL    HW1 5501   1.094   5.713   0.715
 1534SOL    HW2 5502   0.973   5.607   0.684
 1535SOL     OW 5503   5.199   4.675   4.332
 1535SOL    HW1 5504   5.272   4.613   4.358
 1535SOL    HW2 5505   5.147   4.636   4.256
 1536SOL     OW 5506   2.281   5.909   4.307
 1536SOL    HW1 5507   2.350   5.853   4.354
 1536SOL    HW2 5508   2.199   5.854   4.292
 1537SOL     OW 5509   2.594   5.680   4.591
 1537SOL    HW1 5510   2.500   5.674   4.558
 1537SOL    HW2 5511   2.596   5.736   4.674
 1538SOL     OW 5512   2.769   4.874   0.086
 1538SOL    HW1 5513   2.715   4.803   0.132
 1538SOL    HW2 5514   2.866   4.860   0.106
 1539SOL     OW 5515   3.372   4.611   1.671
 1539SOL    HW1 5516   3.355   4.516   1.698
 1539SOL    HW2 5517   3.456   4.644   1.714
 1540SOL     OW 5518   0.987   0.362   5.258
 1540SOL    HW1 5519   1.040   0.320   5.184
 1540SOL    HW2 5520   0.954   0.291   5.320
 1541SOL     OW 5521   4.541   2.810   0.893
 1541SOL    HW1 5522   4.477   2.858   0.834
 1541SOL    HW2 5523   4.557   2.718   0.858
 1542SOL     OW 5524   0.531   6.216   1.622
 1542SOL    HW1 5525   0.578   6.133   1.593
 1542SOL    HW2 5526   0.538   6.226   1.721
 1543SOL     OW 5527   3.252   3.684   3.759
 1543SOL    HW1 5528   3.189   3.638   3.697
 1543SOL    HW2 5529   3.327   3.622   3.784
 1544SOL     OW 5530   3.120   4.020   2.561
 1544SOL    HW1 5531   3.087   3.976   2.644
 1544SOL    HW2 5532   3.212   4.058   2.577
 1545SOL     OW 5533   6.275   0.714   5.003
 1545SOL    HW1 5534   6.301   0.790   4.943
 1545SOL    HW2 5535   6.265   0.630   4.948
 1546SOL     OW 5536   6.472   6.421   6.092
 1546SOL    HW1 5537   6.546   6.465   6.041
 1546SOL    HW2 5538   6.474   6.322   6.076
 1547SOL     OW 5539   2.949   5.005   2.870
 1547SOL    HW1 5540   2.878   5.075   2.882
 1547SOL    HW2 5541   2.918   4.936   2.805
 1548SOL     OW 5542   4.445   4.298   5.533
 1548SOL    HW1 5543   4.383   4.318   5.609
 1548SOL    HW2 5544   4.392   4.281   5.450
 1549SOL     OW 5545   6.540   2.700   1.498
 1549SOL    HW1 5546   6.545   2.608   1.537
 1549SOL    HW2 5547   6.569   2.698   1.402
 1550SOL     OW 5548   2.217   5.980   5.107
 1550SOL    HW1 5549   2.228   5.949   5.012
 1550SOL    HW2 5550   2.148   5.924   5.153
 1551SOL     OW 5551   1.715   3.404   0.856
 1551SOL    HW1 5552   1.718   3.312   0.895
 1551SOL    HW2 5553   1.720   3.398   0.756
 1552SOL     OW 5554   1.327   0.576   1.558
 1552SOL    HW1 5555   1.383   0.581   1.641
 1552SOL    HW2 5556   1.267   0.495   1.563
 1553SOL     OW 5557   5.877   2.175   6.931
 1553SOL    HW1 5558   5.826   2.190   7.016
 1553SOL    HW2 5559   5.903   2.079   6.924
 1554SOL     OW 5560   4.619   1.920   2.685
 1554SOL    HW1 5561   4.677   1.845   2.653
 1554SOL    HW2 5562   4.674   1.985   2.737
 1555SOL     OW 5563   4.538   1.473   4.957
 1555SOL    HW1 5564   4.578   1.385   4.983
 1555SOL    HW2 5565   4.557   1.540   5.029
 1556SOL     OW 5566   3.715   0.240   0.810
 1556SOL    HW1 5567   3.634   0.297   0.821
 1556SOL    HW2 5568   3.790   0.278   0.863
 1557SOL     OW 5569   1.854   1.925   1.068
 1557SOL    HW1 5570   1.821   2.011   1.106
 1557SOL    HW2 5571   1.790   1.893   0.998
 1558SOL     OW 5572   6.203   3.455   5.308
 1558SOL    HW1 5573   6.214   3.483   5.212
 1558SOL    HW2 5574   6.153   3.526   5.358
 1559SOL     OW 5575   1.163   4.333   2.602
 1559SOL    HW1 5576   1.165   4.381   2.690
 1559SOL    HW2 5577   1.088   4.267   2.602
 1560SOL     OW 5578   4.248   1.153   1.080
 1560SOL    HW1 5579   4.272   1.179   0.987
 1560SOL    HW2 5580   4.332   1.127   1.129
 1561SOL     OW 5581   5.519   6.442   2.295
 1561SOL    HW1 5582   5.559   6.364   2.342
 1561SOL    HW2 5583   5.419   6.432   2.293
 1562SOL     OW 5584   2.732   0.285   2.027
 1562SOL    HW1 5585   2.715   0.353   1.956
 1562SOL    HW2 5586   2.763   0.200   1.984
 1563SOL     OW 5587   3.279   2.004   4.818
 1563SOL    HW1 5588   3.341   1.957   4.755
 1563SOL    HW2 5589   3.193   2.026   4.771
 1564SOL     OW 5590   0.769   1.961   2.184
 1564SOL    HW1 5591   0.770   2.016   2.101
 1564SOL    HW2 5592   0.683   1.976   2.233
 1565SOL     OW 5593   3.432   6.691   4.132
 1565SOL    HW1 5594   3.459   6.770   4.186
 1565SOL    HW2 5595   3.512   6.651   4.087
 1566SOL     OW 5596   4.903   4.311   3.660
 1566SOL    HW1 5597   4.981   4.355   3.616
 1566SOL    HW2 5598   4.823   4.371   3.653
 1567SOL     OW 5599   5.656   5.711   5.451
 1567SOL    HW1 5600   5.703   5.752   5.529
 1567SOL    HW2 5601   5.615   5.625   5.479
 1568SOL     OW 5602   1.941   6.320   3.189
 1568SOL    HW1 5603   2.040   6.311   3.177
 1568SOL    HW2 5604   1.919   6.410   3.227
 1569SOL     OW 5605   2.666   0.019   2.686
 1569SOL    HW1 5606   2.567   0.022   2.701
 1569SOL    HW2 5607   2.713   0.008   2.773
 1570SOL     OW 5608   3.237   0.263   0.049
 1570SOL    HW1 5609   3.264   0.168   0.066
 1570SOL    HW2 5610   3.137   0.270   0.051
 1571SOL     OW 5611   1.242   2.654   3.835
 1571SOL    HW1 5612   1.147   2.675   3.857
 1571SOL    HW2 5613   1.297   2.655   3.918
 1572SOL     OW 5614   1.768   5.045   1.681
 1572SOL    HW1 5615   1.672   5.050   1.708
 1572SOL    HW2 5616   1.775   4.998   1.593
 1573SOL     OW 5617   4.421   5.088   1.229
 1573SOL    HW1 5618   4.496   5.097   1.163
 1573SOL    HW2 5619   4.436   5.008   1.286
 1574SOL     OW 5620   6.093   3.619   1.874
 1574SOL    HW1 5621   6.006   3.570   1.878
 1574SOL    HW2 5622   6.096   3.676   1.792
 1575SOL     OW 5623   0.892   1.134   1.121
 1575SOL    HW1 5624   0.933   1.202   1.059
 1575SOL    HW2 5625   0.955   1.057   1.132
 1576SOL     OW 5626   0.409   6.020   1.919
 1576SOL    HW1 5627   0.370   6.113   1.915
 1576SOL    HW2 5628   0.334   5.953   1.915
 1577SOL     OW 5629   3.704   0.354   6.527
 1577SOL    HW1 5630   3.705   0.373   6.625
 1577SOL    HW2 5631   3.615   0.381   6.489
 1578SOL     OW 5632   4.567   0.977   0.187
 1578SOL    HW1 5633   4.607   1.055   0.233
 1578SOL    HW2 5634   4.615   0.893   0.215
 1579SOL     OW 5635   1.688   2.338   1.652
 1579SOL    HW1 5636   1.613   2.361   1.714
 1579SOL    HW2 5637   1.689   2.239   1.635
 1580SOL     OW 5638   3.036   3.895   2.806
 1580SOL    HW1 5639   3.078   3.940   2.885
 1580SOL    HW2 5640   2.971   3.826   2.837
 1581SOL     OW 5641   0.258   4.512   5.958
 1581SOL    HW1 5642   0.234   4.416   5.972
 1581SOL    HW2 5643   0.277   4.555   6.047
 1582SOL     OW 5644   4.822   6.683   5.797
 1582SOL    HW1 5645   4.723   6.697   5.799
 1582SOL    HW2 5646   4.847   6.630   5.716
 1583SOL     OW 5647   0.964   5.855   5.081
 1583SOL    HW1 5648   0.902   5.789   5.125
 1583SOL    HW2 5649   0.938   5.865   4.985
 1584SOL     OW 5650   0.665   5.574   6.554
 1584SOL    HW1 5651   0.598   5.523   6.501
 1584SOL    HW2 5652   0.715   5.636   6.493
 1585SOL     OW 5653   3.882   0.395   2.919
 1585SOL    HW1 5654   3.903   0.335   2.996
 1585SOL    HW2 5655   3.913   0.353   2.834
 1586SOL     OW 5656   2.900   5.418   4.328
 1586SOL    HW1 5657   2.996   5.394   4.340
 1586SOL    HW2 5658   2.857   5.430   4.418
 1587SOL     OW 5659   1.615   6.316   6.163
 1587SOL    HW1 5660   1.579   6.256   6.091
 1587SOL    HW2 5661   1.683   6.266   6.217
 1588SOL     OW 5662   5.948   0.372   2.059
 1588SOL    HW1 5663   5.998   0.357   2.144
 1588SOL    HW2 5664   5.923   0.469   2.052
 1589SOL     OW 5665   6.794   4.264   2.645
 1589SOL    HW1 5666   6.887   4.272   2.607
 1589SOL    HW2 5667   6.783   4.331   2.718
 1590SOL     OW 5668   5.769   2.427   3.531
 1590SOL    HW1 5669   5.697   2.476   3.580
 1590SOL    HW2 5670   5.848   2.487   3.518
 1591SOL     OW 5671   0.340   5.688   1.308
 1591SOL    HW1 5672   0.334   5.718   1.403
 1591SOL    HW2 5673   0.436   5.675   1.284
 1592SOL     OW 5674   1.259   4.156   6.705
 1592SOL    HW1 5675   1.319   4.088   6.747
 1592SOL    HW2 5676   1.250   4.235   6.766
 1593SOL     OW 5677   0.945   0.150   6.636
 1593SOL    HW1 5678   0.865   0.188   6.684
 1593SOL    HW2 5679   0.917   0.068   6.587
 1594SOL     OW 5680   0.110   0.775   2.245
 1594SOL    HW1 5681   0.054   0.858   2.239
 1594SOL    HW2 5682   0.051   0.697   2.264
 1595SOL     OW 5683   1.046   4.134   6.495
 1595SOL    HW1 5684   1.124   4.146   6.433
 1595SOL    HW2 5685   1.071   4.073   6.569
 1596SOL     OW 5686   6.028   4.476   2.301
 1596SOL    HW1 5687   6.070   4.497   2.212
 1596SOL    HW2 5688   5.982   4.387   2.295
 1597SOL     OW 5689   3.259   5.590   1.093
 1597SOL    HW1 5690   3.280   5.685   1.116
 1597SOL    HW2 5691   3.323   5.529   1.139
 1598SOL     OW 5692   1.926   5.726   0.165
 1598SOL    HW1 5693   1.948   5.822   0.185
 1598SOL    HW2 5694   1.904   5.716   0.068
 1599SOL     OW 5695   3.659   5.353   4.254
 1599SOL    HW1 5696   3.706   5.352   4.166
 1599SOL    HW2 5697   3.586   5.285   4.253
 1600SOL     OW 5698   3.165   0.469   2.755
 1600SOL    HW1 5699   3.218   0.549   2.782
 1600SOL    HW2 5700   3.107   0.492   2.677
 1601SOL     OW 5701   6.562   6.646   4.423
 1601SOL    HW1 5702   6.584   6.743   4.424
 1601SOL    HW2 5703   6.592   6.605   4.337
 1602SOL     OW 5704   4.670   5.464   3.919
 1602SOL    HW1 5705   4.672   5.556   3.960
 1602SOL    HW2 5706   4.706   5.398   3.985
 1603SOL     OW 5707   3.012   5.857   4.272
 1603SOL    HW1 5708   3.045   5.856   4.366
 1603SOL    HW2 5709   2.957   5.775   4.255
 1604SOL     OW 5710   4.059   4.882   2.012
 1604SOL    HW1 5711   4.082   4.785   2.009
 1604SOL    HW2 5712   4.000   4.905   1.935
 1605SOL     OW 5713   4.982   5.441   1.996
 1605SOL    HW1 5714   5.040   5.478   2.069
 1605SOL    HW2 5715   5.037   5.385   1.935
 1606SOL     OW 5716   4.266   6.208   3.752
 1606SOL    HW1 5717   4.199   6.134   3.767
 1606SOL    HW2 5718   4.258   6.276   3.825
 1607SOL     OW 5719   4.537   6.716   2.480
 1607SOL    HW1 5720   4.624   6.762   2.498
 1607SOL    HW2 5721   4.462   6.769   2.518
 1608SOL     OW 5722   6.958   0.828   2.715
 1608SOL    HW1 5723   0.024   0.850   2.684
 1608SOL    HW2 5724   6.920   0.907   2.763
 1609SOL     OW 5725   3.349   6.292   0.940
 1609SOL    HW1 5726   3.389   6.377   0.906
 1609SOL    HW2 5727   3.319   6.236   0.863
 1610SOL     OW 5728   3.570   6.248   6.814
 1610SOL    HW1 5729   3.571   6.331   6.758
 1610SOL    HW2 5730   3.504   6.183   6.777
 1611SOL     OW 5731   1.051   3.928   1.470
 1611SOL    HW1 5732   1.057   3.971   1.560
 1611SOL    HW2 5733   1.084   3.834   1.475
 1612SOL     OW 5734   2.998   5.540   0.987
 1612SOL    HW1 5735   2.978   5.595   0.906
 1612SOL    HW2 5736   3.078   5.576   1.033
 1613SOL     OW 5737   0.602   5.674   2.550
 1613SOL    HW1 5738   0.550   5.684   2.465
 1613SOL    HW2 5739   0.630   5.764   2.583
 1614SOL     OW 5740   5.741   2.789   6.617
 1614SOL    HW1 5741   5.650   2.825   6.598
 1614SOL    HW2 5742   5.778   2.834   6.698
 1615SOL     OW 5743   0.282   5.425   6.540
 1615SOL    HW1 5744   0.246   5.485   6.469
 1615SOL    HW2 5745   0.366   5.382   6.508
 1616SOL     OW 5746   3.485   0.704   5.451
 1616SOL    HW1 5747   3.423   0.751   5.514
 1616SOL    HW2 5748   3.460   0.725   5.357
 1617SOL     OW 5749   4.735   6.860   3.631
 1617SOL    HW1 5750   4.694   6.802   3.702
 1617SOL    HW2 5751   4.829   6.883   3.657
 1618SOL     OW 5752   1.590   6.076   2.743
 1618SOL    HW1 5753   1.649   5.998   2.764
 1618SOL    HW2 5754   1.626   6.126   2.665
 1619SOL     OW 5755   0.945   5.168   6.754
 1619SOL    HW1 5756   0.962   5.099   6.684
 1619SOL    HW2 5757   0.921   5.123   6.841
 1620SOL     OW 5758   3.472   5.246   0.855
 1620SOL    HW1 5759   3.567   5.216   0.862
 1620SOL    HW2 5760   3.436   5.263   0.947
 1621SOL     OW 5761   5.834   6.249   1.156
 1621SOL    HW1 5762   5.822   6.151   1.137
 1621SOL    HW2 5763   5.918   6.281   1.111
 1622SOL     OW 5764   0.954   3.700   5.591
 1622SOL    HW1 5765   0.873   3.719   5.647
 1622SOL    HW2 5766   0.926   3.677   5.498
 1623SOL     OW 5767   0.780   2.356   5.215
 1623SOL    HW1 5768   0.796   2.402   5.302
 1623SOL    HW2 5769   0.794   2.420   5.140
 1624SOL     OW 5770   3.517   1.035   0.672
 1624SOL    HW1 5771   3.598   1.093   0.673
 1624SOL    HW2 5772   3.488   1.016   0.766
 1625SOL     OW 5773   2.314   5.106   0.413
 1625SOL    HW1 5774   2.397   5.053   0.394
 1625SOL    HW2 5775   2.337   5.184   0.471
 1626SOL     OW 5776   3.125   1.865   1.799
 1626SOL    HW1 5777   3.103   1.797   1.729
 1626SOL    HW2 5778   3.040   1.901   1.838
 1627SOL     OW 5779   5.017   2.495   4.599
 1627SOL    HW1 5780   4.935   2.439   4.590
 1627SOL    HW2 5781   5.034   2.544   4.513
 1628SOL     OW 5782   4.863   5.813   6.563
 1628SOL    HW1 5783   4.785   5.792   6.621
 1628SOL    HW2 5784   4.947   5.788   6.611
 1629SOL     OW 5785   3.267   2.065   3.238
 1629SOL    HW1 5786   3.340   2.129   3.262
 1629SOL    HW2 5787   3.307   1.982   3.198
 1630SOL     OW 5788   0.059   4.669   0.260
 1630SOL    HW1 5789   0.104   4.629   0.340
 1630SOL    HW2 5790   0.120   4.660   0.180
 1631SOL     OW 5791   0.045   3.359   1.190
 1631SOL    HW1 5792   7.008   3.293   1.148
 1631SOL    HW2 5793   0.027   3.450   1.152
 1632SOL     OW 5794   5.477   5.075   2.200
 1632SOL    HW1 5795   5.531   5.061   2.117
 1632SOL    HW2 5796   5.538   5.082   2.279
 1633SOL     OW 5797   4.982   4.219   4.033
 1633SOL    HW1 5798   4.977   4.218   4.133
 1633SOL    HW2 5799   4.896   4.185   3.995
 1634SOL     OW 5800   4.075   0.420   4.667
 1634SOL    HW1 5801   4.099   0.351   4.598
 1634SOL    HW2 5802   3.979   0.446   4.655
 1635SOL     OW 5803   3.543   4.465   5.798
 1635SOL    HW1 5804   3.475   4.494   5.865
 1635SOL    HW2 5805   3.562   4.368   5.809
 1636SOL     OW 5806   4.275   5.880   1.280
 1636SOL    HW1 5807   4.297   5.916   1.370
 1636SOL    HW2 5808   4.183   5.840   1.281
 1637SOL     OW 5809   0.012   6.639   3.026
 1637SOL    HW1 5810   7.015   6.609   3.118
 1637SOL    HW2 5811   0.024   6.558   2.967
 1638SOL     OW 5812   6.699   3.139   1.882
 1638SOL    HW1 5813   6.655   3.079   1.949
 1638SOL    HW2 5814   6.650   3.134   1.795
 1639SOL     OW 5815   6.332   4.060   2.014
 1639SOL    HW1 5816   6.268   4.025   1.946
 1639SOL    HW2 5817   6.426   4.036   1.988
 1640SOL     OW 5818   5.610   0.571   1.059
 1640SOL    HW1 5819   5.701   0.572   1.100
 1640SOL    HW2 5820   5.612   0.520   0.973
 1641SOL     OW 5821   6.901   2.401   3.570
 1641SOL    HW1 5822   6.821   2.341   3.565
 1641SOL    HW2 5823   6.984   2.347   3.581
 1642SOL     OW 5824   6.308   2.476   6.441
 1642SOL    HW1 5825   6.403   2.499   6.462
 1642SOL    HW2 5826   6.251   2.556   6.454
 1643SOL     OW 5827   3.319   4.901   3.917
 1643SOL    HW1 5828   3.270   4.986   3.935
 1643SOL    HW2 5829   3.270   4.824   3.958
 1644SOL     OW 5830   5.843   3.026   0.725
 1644SOL    HW1 5831   5.933   3.002   0.759
 1644SOL    HW2 5832   5.808   2.953   0.667
 1645SOL     OW 5833   2.909   0.679   6.211
 1645SOL    HW1 5834   2.947   0.648   6.124
 1645SOL    HW2 5835   2.847   0.757   6.195
 1646SOL     OW 5836   1.845   5.685   6.930
 1646SOL    HW1 5837   1.745   5.692   6.924
 1646SOL    HW2 5838   1.882   5.658   6.842
 1647SOL     OW 5839   6.222   2.982   3.913
 1647SOL    HW1 5840   6.244   3.023   3.825
 1647SOL    HW2 5841   6.125   2.999   3.935
 1648SOL     OW 5842   5.208   6.290   0.451
 1648SOL    HW1 5843   5.231   6.235   0.531
 1648SOL    HW2 5844   5.277   6.361   0.438
 1649SOL     OW 5845   3.164   0.033   3.664
 1649SOL    HW1 5846   3.165   0.118   3.612
 1649SOL    HW2 5847   3.212   6.988   3.612
 1650SOL     OW 5848   1.815   4.909   6.295
 1650SOL    HW1 5849   1.798   4.850   6.216
 1650SOL    HW2 5850   1.729   4.944   6.330
 1651SOL     OW 5851   0.592   2.570   3.672
 1651SOL    HW1 5852   0.633   2.500   3.613
 1651SOL    HW2 5853   0.642   2.656   3.661
 1652SOL     OW 5854   1.236   2.613   1.689
 1652SOL    HW1 5855   1.181   2.594   1.770
 1652SOL    HW2 5856   1.179   2.608   1.608
 1653SOL     OW 5857   0.358   5.221   2.177
 1653SOL    HW1 5858   0.370   5.317   2.155
 1653SOL    HW2 5859   0.260   5.199   2.179
 1654SOL     OW 5860   0.788   2.991   1.426
 1654SOL    HW1 5861   0.817   3.073   1.377
 1654SOL    HW2 5862   0.831   2.989   1.516
 1655SOL     OW 5863   6.858   1.301   4.613
 1655SOL    HW1 5864   6.938   1.262   4.567
 1655SOL    HW2 5865   6.869   1.400   4.620
 1656SOL     OW 5866   2.123   5.581   4.495
 1656SOL    HW1 5867   2.070   5.519   4.437
 1656SOL    HW2 5868   2.185   5.527   4.552
 1657SOL     OW 5869   0.179   1.015   5.278
 1657SOL    HW1 5870   0.231   1.084   5.229
 1657SOL    HW2 5871   0.227   0.927   5.274
 1658SOL     OW 5872   0.014   6.737   0.337
 1658SOL    HW1 5873   6.942   6.746   0.353
 1658SOL    HW2 5874   0.030   6.674   0.261
 1659SOL     OW 5875   4.199   0.155   6.506
 1659SOL    HW1 5876   4.233   0.156   6.412
 1659SOL    HW2 5877   4.104   0.186   6.507
 1660SOL     OW 5878   1.408   6.422   1.893
 1660SOL    HW1 5879   1.377   6.329   1.874
 1660SOL    HW2 5880   1.350   6.487   1.844
 1661SOL     OW 5881   2.698   4.627   2.293
 1661SOL    HW1 5882   2.656   4.718   2.300
 1661SOL    HW2 5883   2.742   4.618   2.204
 1662SOL     OW 5884   6.963   1.630   5.292
 1662SOL    HW1 5885   7.012   1.544   5.308
 1662SOL    HW2 5886   6.928   1.666   5.378
 1663SOL     OW 5887   4.883   5.201   2.163
 1663SOL    HW1 5888   4.888   5.288   2.116
 1663SOL    HW2 5889   4.925   5.130   2.107
 1664SOL     OW 5890   0.708   0.120   5.158
 1664SOL    HW1 5891   0.725   0.105   5.061
 1664SOL    HW2 5892   0.795   0.124   5.207
 1665SOL     OW 5893   1.832   3.636   1.018
 1665SOL    HW1 5894   1.930   3.616   1.030
 1665SOL    HW2 5895   1.786   3.556   0.982
 1666SOL     OW 5896   5.524   6.944   6.522
 1666SOL    HW1 5897   5.559   6.852   6.504
 1666SOL    HW2 5898   5.589   6.994   6.578
 1667SOL     OW 5899   0.196   6.435   0.969
 1667SOL    HW1 5900   0.162   6.505   0.906
 1667SOL    HW2 5901   0.138   6.433   1.050
 1668SOL     OW 5902   5.012   4.998   3.794
 1668SOL    HW1 5903   4.966   4.967   3.878
 1668SOL    HW2 5904   4.993   5.094   3.778
 1669SOL     OW 5905   0.346   4.366   5.489
 1669SOL    HW1 5906   0.301   4.281   5.461
 1669SOL    HW2 5907   0.441   4.365   5.459
 1670SOL     OW 5908   1.679   4.943   5.553
 1670SOL    HW1 5909   1.688   4.873   5.481
 1670SOL    HW2 5910   1.681   5.034   5.511
 1671SOL     OW 5911   5.030   1.890   2.824
 1671SOL    HW1 5912   4.978   1.947   2.888
 1671SOL    HW2 5913   5.023   1.794   2.851
 1672SOL     OW 5914   1.209   3.474   0.112
 1672SOL    HW1 5915   1.295   3.460   0.062
 1672SOL    HW2 5916   1.134   3.481   0.046
 1673SOL     OW 5917   2.256   1.888   4.311
 1673SOL    HW1 5918   2.161   1.878   4.341
 1673SOL    HW2 5919   2.287   1.981   4.331
 1674SOL     OW 5920   5.544   2.696   2.437
 1674SOL    HW1 5921   5.514   2.756   2.363
 1674SOL    HW2 5922   5.469   2.634   2.461
 1675SOL     OW 5923   5.277   0.781   1.272
 1675SOL    HW1 5924   5.225   0.766   1.356
 1675SOL    HW2 5925   5.216   0.808   1.198
 1676SOL     OW 5926   2.210   2.189   2.773
 1676SOL    HW1 5927   2.270   2.115   2.804
 1676SOL    HW2 5928   2.114   2.161   2.785
 1677SOL     OW 5929   3.865   4.045   3.203
 1677SOL    HW1 5930   3.768   4.049   3.226
 1677SOL    HW2 5931   3.878   4.064   3.106
 1678SOL     OW 5932   0.613   6.449   0.635
 1678SOL    HW1 5933   0.604   6.384   0.710
 1678SOL    HW2 5934   0.663   6.405   0.560
 1679SOL     OW 5935   1.714   1.336   5.461
 1679SOL    HW1 5936   1.642   1.317   5.394
 1679SOL    HW2 5937   1.676   1.328   5.553
 1680SOL     OW 5938   5.545   3.018   4.630
 1680SOL    HW1 5939   5.498   3.106   4.637
 1680SOL    HW2 5940   5.598   3.015   4.546
 1681SOL     OW 5941   1.785   5.722   4.423
 1681SOL    HW1 5942   1.748   5.700   4.513
 1681SOL    HW2 5943   1.711   5.753   4.363
 1682SOL     OW 5944   3.294   0.361   5.754
 1682SOL    HW1 5945   3.349   0.385   5.834
 1682SOL    HW2 5946   3.344   0.387   5.671
 1683SOL     OW 5947   5.848   5.404   2.510
 1683SOL    HW1 5948   5.820   5.375   2.419
 1683SOL    HW2 5949   5.905   5.486   2.503
 1684SOL     OW 5950   1.217   4.706   1.951
 1684SOL    HW1 5951   1.166   4.641   2.008
 1684SOL    HW2 5952   1.186   4.799   1.972
 1685SOL     OW 5953   1.375   1.418   6.133
 1685SOL    HW1 5954   1.474   1.426   6.146
 1685SOL    HW2 5955   1.331   1.504   6.157
 1686SOL     OW 5956   4.850   6.194   3.647
 1686SOL    HW1 5957   4.901   6.278   3.665
 1686SOL    HW2 5958   4.907   6.130   3.596
 1687SOL     OW 5959   0.331   3.901   1.969
 1687SOL    HW1 5960   0.430   3.902   1.961
 1687SOL    HW2 5961   0.294   3.827   1.912
 1688SOL     OW 5962   1.840   2.145   3.397
 1688SOL    HW1 5963   1.882   2.111   3.313
 1688SOL    HW2 5964   1.831   2.069   3.462
 1689SOL     OW 5965   6.832   1.373   1.878
 1689SOL    HW1 5966   6.906   1.312   1.910
 1689SOL    HW2 5967   6.864   1.468   1.883
 1690SOL     OW 5968   0.723   3.669   4.162
 1690SOL    HW1 5969   0.717   3.659   4.062
 1690SOL    HW2 5970   0.818   3.659   4.191
 1691SOL     OW 5971   5.012   3.425   4.369
 1691SOL    HW1 5972   5.008   3.325   4.380
 1691SOL    HW2 5973   4.986   3.449   4.276
 1692SOL     OW 5974   5.767   5.619   1.631
 1692SOL    HW1 5975   5.694   5.635   1.566
 1692SOL    HW2 5976   5.788   5.705   1.679
 1693SOL     OW 5977   6.902   1.566   4.588
 1693SOL    HW1 5978   6.882   1.614   4.503
 1693SOL    HW2 5979   6.857   1.613   4.665
 1694SOL     OW 5980   5.757   1.222   4.648
 1694SOL    HW1 5981   5.692   1.287   4.688
 1694SOL    HW2 5982   5.743   1.132   4.688
 1695SOL     OW 5983   3.458   0.593   6.984
 1695SOL    HW1 5984   3.513   0.602   0.041
 1695SOL    HW2 5985   3.467   0.500   6.948
 1696SOL     OW 5986   4.346   5.678   0.688
 1696SOL    HW1 5987   4.322   5.707   0.781
 1696SOL    HW2 5988   4.291   5.729   0.622
 1697SOL     OW 5989   5.896   2.496   0.817
 1697SOL    HW1 5990   5.831   2.521   0.746
 1697SOL    HW2 5991   5.866   2.411   0.861
 1698SOL     OW 5992   3.885   0.809   1.718
 1698SOL    HW1 5993   3.875   0.730   1.779
 1698SOL    HW2 5994   3.797   0.856   1.709
 1699SOL     OW 5995   2.528   1.687   6.180
 1699SOL    HW1 5996   2.533   1.713   6.083
 1699SOL    HW2 5997   2.561   1.762   6.236
 1700SOL     OW 5998   5.668   3.506   3.654
 1700SOL    HW1 5999   5.692   3.500   3.751
 1700SOL    HW2 6000   5.748   3.537   3.603
 1701SOL     OW 6001   6.463   5.187   4.794
 1701SOL    HW1 6002   6.378   5.180   4.742
 1701SOL    HW2 6003   6.541   5.183   4.731
 1702SOL     OW 6004   1.754   1.031   6.589
 1702SOL    HW1 6005   1.796   0.966   6.527
 1702SOL    HW2 6006   1.660   1.049   6.559
 1703SOL     OW 6007   3.165   1.809   6.051
 1703SOL    HW1 6008   3.229   1.743   6.012
 1703SOL    HW2 6009   3.074   1.769   6.054
 1704SOL     OW 6010   2.080   1.473   0.324
 1704SOL    HW1 6011   1.986   1.439   0.333
 1704SOL    HW2 6012   2.133   1.447   0.404
 1705SOL     OW 6013   3.951   1.727   1.821
 1705SOL    HW1 6014   3.863   1.709   1.777
 1705SOL    HW2 6015   4.025   1.718   1.754
 1706SOL     OW 6016   4.343   1.657   0.825
 1706SOL    HW1 6017   4.424   1.599   0.838
 1706SOL    HW2 6018   4.267   1.618   0.877
 1707SOL     OW 6019   4.901   2.005   3.053
 1707SOL    HW1 6020   4.817   1.951   3.048
 1707SOL    HW2 6021   4.878   2.099   3.078
 1708SOL     OW 6022   3.414   5.262   2.095
 1708SOL    HW1 6023   3.325   5.303   2.112
 1708SOL    HW2 6024   3.486   5.327   2.120
 1709SOL     OW 6025   4.974   5.872   0.632
 1709SOL    HW1 6026   4.994   5.774   0.630
 1709SOL    HW2 6027   5.016   5.917   0.554
 1710SOL     OW 6028   4.557   5.282   3.378
 1710SOL    HW1 6029   4.585   5.189   3.402
 1710SOL    HW2 6030   4.581   5.300   3.283
 1711SOL     OW 6031   3.282   5.929   5.733
 1711SOL    HW1 6032   3.212   5.857   5.729
 1711SOL    HW2 6033   3.269   5.993   5.658
 1712SOL     OW 6034   0.301   2.397   4.525
 1712SOL    HW1 6035   0.343   2.408   4.615
 1712SOL    HW2 6036   0.224   2.334   4.532
 1713SOL     OW 6037   3.851   0.990   3.118
 1713SOL    HW1 6038   3.898   0.909   3.151
 1713SOL    HW2 6039   3.899   1.025   3.037
 1714SOL     OW 6040   3.697   2.264   6.654
 1714SOL    HW1 6041   3.759   2.286   6.579
 1714SOL    HW2 6042   3.740   2.196   6.714
 1715SOL     OW 6043   1.333   5.961   1.918
 1715SOL    HW1 6044   1.414   6.019   1.931
 1715SOL    HW2 6045   1.362   5.867   1.904
 1716SOL     OW 6046   4.600   0.539   4.012
 1716SOL    HW1 6047   4.551   0.617   3.973
 1716SOL    HW2 6048   4.540   0.492   4.077
 1717SOL     OW 6049   3.662   6.284   5.357
 1717SOL    HW1 6050   3.666   6.233   5.442
 1717SOL    HW2 6051   3.692   6.378   5.373
 1718SOL     OW 6052   2.424   2.012   2.493
 1718SOL    HW1 6053   2.360   1.936   2.496
 1718SOL    HW2 6054   2.448   2.032   2.398
 1719SOL     OW 6055   1.183   4.505   1.274
 1719SOL    HW1 6056   1.242   4.427   1.294
 1719SOL    HW2 6057   1.173   4.514   1.175
 1720SOL     OW 6058   7.023   2.865   5.974
 1720SOL    HW1 6059   6.974   2.847   6.059
 1720SOL    HW2 6060   0.063   2.938   5.989
 1721SOL     OW 6061   1.191   0.235   2.050
 1721SOL    HW1 6062   1.151   0.272   2.134
 1721SOL    HW2 6063   1.157   0.141   2.036
 1722SOL     OW 6064   3.578   2.152   2.789
 1722SOL    HW1 6065   3.664   2.100   2.794
 1722SOL    HW2 6066   3.541   2.148   2.696
 1723SOL     OW 6067   4.549   2.323   6.919
 1723SOL    HW1 6068   4.494   2.253   6.873
 1723SOL    HW2 6069   4.502   2.411   6.914
 1724SOL     OW 6070   6.575   2.452   1.597
 1724SOL    HW1 6071   6.601   2.401   1.515
 1724SOL    HW2 6072   6.648   2.444   1.666
 1725SOL     OW 6073   1.953   4.669   6.772
 1725SOL    HW1 6074   1.890   4.651   6.848
 1725SOL    HW2 6075   2.016   4.742   6.798
 1726SOL     OW 6076   5.676   4.684   3.668
 1726SOL    HW1 6077   5.638   4.607   3.719
 1726SOL    HW2 6078   5.709   4.753   3.732
 1727SOL     OW 6079   3.567   3.388   3.381
 1727SOL    HW1 6080   3.503   3.453   3.338
 1727SOL    HW2 6081   3.537   3.295   3.363
 1728SOL     OW 6082   5.178   4.188   5.461
 1728SOL    HW1 6083   5.133   4.132   5.531
 1728SOL    HW2 6084   5.243   4.131   5.410
 1729SOL     OW 6085   1.676   3.729   1.448
 1729SOL    HW1 6086   1.675   3.736   1.548
 1729SOL    HW2 6087   1.755   3.676   1.420
 1730SOL     OW 6088   2.340   5.620   5.474
 1730SOL    HW1 6089   2.378   5.530   5.496
 1730SOL    HW2 6090   2.246   5.626   5.509
 1731SOL     OW 6091   5.006   4.894   4.297
 1731SOL    HW1 6092   5.035   4.802   4.325
 1731SOL    HW2 6093   4.975   4.892   4.202
 1732SOL     OW 6094   2.017   4.031   6.358
 1732SOL    HW1 6095   2.105   4.043   6.311
 1732SOL    HW2 6096   2.032   4.031   6.457
 1733SOL     OW 6097   2.731   4.002   0.288
 1733SOL    HW1 6098   2.675   3.985   0.369
 1733SOL    HW2 6099   2.828   3.993   0.312
 1734SOL     OW 6100   6.656   3.113   1.612
 1734SOL    HW1 6101   6.751   3.145   1.602
 1734SOL    HW2 6102   6.595   3.174   1.563
 1735SOL     OW 6103   4.688   5.445   6.857
 1735SOL    HW1 6104   4.606   5.432   6.801
 1735SOL    HW2 6105   4.768   5.413   6.806
 1736SOL     OW 6106   4.653   3.547   1.712
 1736SOL    HW1 6107   4.704   3.549   1.626
 1736SOL    HW2 6108   4.625   3.452   1.732
 1737SOL     OW 6109   4.886   1.092   4.647
 1737SOL    HW1 6110   4.950   1.022   4.676
 1737SOL    HW2 6111   4.913   1.180   4.687
 1738SOL     OW 6112   1.852   4.072   4.147
 1738SOL    HW1 6113   1.832   4.095   4.242
 1738SOL    HW2 6114   1.894   3.981   4.144
 1739SOL     OW 6115   5.475   0.492   3.728
 1739SOL    HW1 6116   5.425   0.409   3.754
 1739SOL    HW2 6117   5.471   0.504   3.629
 1740SOL     OW 6118   6.644   2.442   4.838
 1740SOL    HW1 6119   6.713   2.483   4.898
 1740SOL    HW2 6120   6.580   2.512   4.807
 1741SOL     OW 6121   1.697   1.837   4.302
 1741SOL    HW1 6122   1.791   1.827   4.335
 1741SOL    HW2 6123   1.649   1.905   4.359
 1742SOL     OW 6124   6.233   0.013   5.851
 1742SOL    HW1 6125   6.219   6.949   5.890
 1742SOL    HW2 6126   6.329   0.040   5.862
 1743SOL     OW 6127   1.028   1.363   3.367
 1743SOL    HW1 6128   0.952   1.427   3.376
 1743SOL    HW2 6129   1.089   1.373   3.445
 1744SOL     OW 6130   5.242   2.271   3.656
 1744SOL    HW1 6131   5.214   2.175   3.665
 1744SOL    HW2 6132   5.268   2.289   3.561
 1745SOL     OW 6133   6.071   6.473   1.291
 1745SOL    HW1 6134   6.143   6.467   1.361
 1745SOL    HW2 6135   6.099   6.423   1.210
 1746SOL     OW 6136   1.817   3.752   3.764
 1746SOL    HW1 6137   1.811   3.686   3.690
 1746SOL    HW2 6138   1.911   3.756   3.799
 1747SOL     OW 6139   3.507   1.537   1.986
 1747SOL    HW1 6140   3.514   1.466   1.916
 1747SOL    HW2 6141   3.424   1.590   1.971
 1748SOL     OW 6142   6.610   1.790   4.791
 1748SOL    HW1 6143   6.633   1.705   4.743
 1748SOL    HW2 6144   6.536   1.772   4.856
 1749SOL     OW 6145   2.800   5.562   1.165
 1749SOL    HW1 6146   2.810   5.469   1.200
 1749SOL    HW2 6147   2.874   5.581   1.101
 1750SOL     OW 6148   4.412   1.040   5.062
 1750SOL    HW1 6149   4.384   0.988   5.143
 1750SOL    HW2 6150   4.424   1.136   5.087
 1751SOL     OW 6151   6.390   2.658   5.034
 1751SOL    HW1 6152   6.426   2.744   5.068
 1751SOL    HW2 6153   6.291   2.654   5.052
 1752SOL     OW 6154   6.456   1.411   0.810
 1752SOL    HW1 6155   6.380   1.354   0.779
 1752SOL    HW2 6156   6.478   1.389   0.905
 1753SOL     OW 6157   6.846   1.639   1.563
 1753SOL    HW1 6158   6.835   1.700   1.641
 1753SOL    HW2 6159   6.783   1.667   1.490
 1754SOL     OW 6160   2.912   6.169   5.962
 1754SOL    HW1 6161   2.888   6.229   5.885
 1754SOL    HW2 6162   2.883   6.076   5.942
 1755SOL     OW 6163   6.217   0.049   5.053
 1755SOL    HW1 6164   6.150   7.010   5.090
 1755SOL    HW2 6165   6.268   0.090   5.129
 1756SOL     OW 6166   5.546   0.481   5.969
 1756SOL    HW1 6167   5.591   0.409   5.917
 1756SOL    HW2 6168   5.586   0.485   6.061
 1757SOL     OW 6169   2.543   5.411   4.237
 1757SOL    HW1 6170   2.498   5.397   4.149
 1757SOL    HW2 6171   2.575   5.324   4.273
 1758SOL     OW 6172   2.169   0.050   5.140
 1758SOL    HW1 6173   2.232   0.120   5.104
 1758SOL    HW2 6174   2.078   0.090   5.151
 1759SOL     OW 6175   1.506   6.424   6.736
 1759SOL    HW1 6176   1.433   6.357   6.749
 1759SOL    HW2 6177   1.534   6.426   6.640
 1760SOL     OW 6178   6.149   0.530   4.747
 1760SOL    HW1 6179   6.060   0.503   4.784
 1760SOL    HW2 6180   6.135   0.602   4.679
 1761SOL     OW 6181   0.122   1.884   1.472
 1761SOL    HW1 6182   0.117   1.911   1.376
 1761SOL    HW2 6183   0.213   1.846   1.491
 1762SOL     OW 6184   0.776   1.627   5.288
 1762SOL    HW1 6185   0.687   1.582   5.288
 1762SOL    HW2 6186   0.838   1.580   5.351
 1763SOL     OW 6187   1.080   3.536   4.674
 1763SOL    HW1 6188   1.131   3.616   4.641
 1763SOL    HW2 6189   1.143   3.459   4.687
 1764SOL     OW 6190   1.699   4.618   1.646
 1764SOL    HW1 6191   1.696   4.529   1.692
 1764SOL    HW2 6192   1.618   4.671   1.670
 1765SOL     OW 6193   5.000   2.970   1.928
 1765SOL    HW1 6194   4.905   3.000   1.941
 1765SOL    HW2 6195   5.006   2.872   1.945
 1766SOL     OW 6196   4.196   4.715   3.929
 1766SOL    HW1 6197   4.188   4.714   3.830
 1766SOL    HW2 6198   4.180   4.808   3.962
 1767SOL     OW 6199   6.997   5.534   2.287
 1767SOL    HW1 6200   6.975   5.441   2.317
 1767SOL    HW2 6201   6.948   5.599   2.345
 1768SOL     OW 6202   4.536   6.262   2.137
 1768SOL    HW1 6203   4.558   6.273   2.234
 1768SOL    HW2 6204   4.444   6.298   2.121
 1769SOL     OW 6205   6.064   0.316   6.730
 1769SOL    HW1 6206   6.141   0.275   6.680
 1769SOL    HW2 6207   6.031   0.396   6.680
 1770SOL     OW 6208   1.807   4.548   5.616
 1770SOL    HW1 6209   1.823   4.592   5.527
 1770SOL    HW2 6210   1.846   4.456   5.615
 1771SOL     OW 6211   0.776   3.766   6.956
 1771SOL    HW1 6212   0.779   3.804   0.022
 1771SOL    HW2 6213   0.719   3.683   6.956
 1772SOL     OW 6214   2.780   4.887   3.700
 1772SOL    HW1 6215   2.837   4.928   3.772
 1772SOL    HW2 6216   2.829   4.891   3.613
 1773SOL     OW 6217   1.099   0.268   5.046
 1773SOL    HW1 6218   1.122   0.178   5.082
 1773SOL    HW2 6219   1.080   0.261   4.948
 1774SOL     OW 6220   6.016   6.100   1.883
 1774SOL    HW1 6221   6.103   6.148   1.895
 1774SOL    HW2 6222   6.016   6.051   1.797
 1775SOL     OW 6223   1.759   5.394   6.667
 1775SOL    HW1 6224   1.770   5.296   6.684
 1775SOL    HW2 6225   1.845   5.441   6.688
 1776SOL     OW 6226   4.288   1.404   5.382
 1776SOL    HW1 6227   4.358   1.473   5.402
 1776SOL    HW2 6228   4.269   1.351   5.465
 1777SOL     OW 6229   4.370   6.177   6.533
 1777SOL    HW1 6230   4.371   6.106   6.603
 1777SOL    HW2 6231   4.431   6.251   6.559
 1778SOL     OW 6232   5.856   0.938   3.835
 1778SOL    HW1 6233   5.926   0.912   3.768
 1778SOL    HW2 6234   5.840   0.862   3.898
 1779SOL     OW 6235   5.858   0.066   4.576
 1779SOL    HW1 6236   5.939   0.026   4.619
 1779SOL    HW2 6237   5.796   7.020   4.548
 1780SOL     OW 6238   1.523   5.312   4.929
 1780SOL    HW1 6239   1.498   5.216   4.917
 1780SOL    HW2 6240   1.442   5.366   4.947
 1781SOL     OW 6241   4.259   0.373   3.907
 1781SOL    HW1 6242   4.326   0.398   3.977
 1781SOL    HW2 6243   4.192   0.310   3.946
 1782SOL     OW 6244   1.981   1.770   2.833
 1782SOL    HW1 6245   1.889   1.767   2.793
 1782SOL    HW2 6246   2.031   1.848   2.796
 1783SOL     OW 6247   2.204   4.135   5.454
 1783SOL    HW1 6248   2.151   4.059   5.417
 1783SOL    HW2 6249   2.154   4.220   5.441
 1784SOL     OW 6250   2.582   0.694   1.095
 1784SOL    HW1 6251   2.530   0.633   1.035
 1784SOL    HW2 6252   2.576   0.661   1.189
 1785SOL     OW 6253   0.204   6.728   4.656
 1785SOL    HW1 6254   0.213   6.778   4.742
 1785SOL    HW2 6255   0.282   6.749   4.597
 1786SOL     OW 6256   1.971   5.621   0.717
 1786SOL    HW1 6257   1.950   5.608   0.814
 1786SOL    HW2 6258   1.886   5.632   0.666
 1787SOL     OW 6259   2.104   3.125   5.752
 1787SOL    HW1 6260   2.113   3.222   5.772
 1787SOL    HW2 6261   2.123   3.109   5.655
 1788SOL     OW 6262   5.007   4.119   0.980
 1788SOL    HW1 6263   5.054   4.031   0.984
 1788SOL    HW2 6264   4.975   4.136   0.887
 1789SOL     OW 6265   6.812   3.606   1.837
 1789SOL    HW1 6266   6.869   3.613   1.919
 1789SOL    HW2 6267   6.719   3.633   1.858
 1790SOL     OW 6268   2.901   2.137   4.139
 1790SOL    HW1 6269   2.809   2.105   4.116
 1790SOL    HW2 6270   2.938   2.189   4.062
 1791SOL     OW 6271   6.291   0.331   3.584
 1791SOL    HW1 6272   6.339   0.245   3.563
 1791SOL    HW2 6273   6.243   0.363   3.503
 1792SOL     OW 6274   6.290   2.007   5.257
 1792SOL    HW1 6275   6.231   2.035   5.333
 1792SOL    HW2 6276   6.248   1.928   5.211
 1793SOL     OW 6277   0.328   1.237   5.101
 1793SOL    HW1 6278   0.418   1.246   5.144
 1793SOL    HW2 6279   0.339   1.196   5.010
 1794SOL     OW 6280   7.020   0.321   6.139
 1794SOL    HW1 6281   6.984   0.391   6.200
 1794SOL    HW2 6282   0.094   0.326   6.137
 1795SOL     OW 6283   6.210   4.457   0.257
 1795SOL    HW1 6284   6.207   4.410   0.168
 1795SOL    HW2 6285   6.189   4.391   0.330
 1796SOL     OW 6286   0.966   0.087   5.303
 1796SOL    HW1 6287   0.999   0.067   5.395
 1796SOL    HW2 6288   1.037   0.065   5.236
 1797SOL     OW 6289   2.537   6.183   4.764
 1797SOL    HW1 6290   2.442   6.151   4.766
 1797SOL    HW2 6291   2.580   6.154   4.678
 1798SOL     OW 6292   3.221   3.545   4.697
 1798SOL    HW1 6293   3.134   3.553   4.745
 1798SOL    HW2 6294   3.210   3.581   4.604
 1799SOL     OW 6295   3.268   1.182   0.161
 1799SOL    HW1 6296   3.297   1.213   0.070
 1799SOL    HW2 6297   3.274   1.258   0.226
 1800SOL     OW 6298   4.953   3.838   4.493
 1800SOL    HW1 6299   4.905   3.917   4.531
 1800SOL    HW2 6300   5.052   3.849   4.505
 1801SOL     OW 6301   1.198   1.659   2.196
 1801SOL    HW1 6302   1.191   1.735   2.132
 1801SOL    HW2 6303   1.106   1.635   2.229
 1802SOL     OW 6304   6.350   4.828   3.598
 1802SOL    HW1 6305   6.353   4.728   3.594
 1802SOL    HW2 6306   6.388   4.860   3.685
 1803SOL     OW 6307   0.633   6.367   2.911
 1803SOL    HW1 6308   0.717   6.402   2.870
 1803SOL    HW2 6309   0.615   6.416   2.997
 1804SOL     OW 6310   2.744   3.672   6.271
 1804SOL    HW1 6311   2.802   3.593   6.251
 1804SOL    HW2 6312   2.664   3.671   6.211
 1805SOL     OW 6313   0.374   6.542   6.027
 1805SOL    HW1 6314   0.448   6.509   5.968
 1805SOL    HW2 6315   0.305   6.470   6.037
 1806SOL     OW 6316   0.061   2.743   2.360
 1806SOL    HW1 6317   0.112   2.658   2.368
 1806SOL    HW2 6318   0.061   2.790   2.448
 1807SOL     OW 6319   6.305   4.239   1.606
 1807SOL    HW1 6320   6.403   4.221   1.608
 1807SOL    HW2 6321   6.286   4.311   1.540
 1808SOL     OW 6322   5.492   2.388   5.582
 1808SOL    HW1 6323   5.491   2.451   5.504
 1808SOL    HW2 6324   5.573   2.329   5.576
 1809SOL     OW 6325   3.908   2.167   5.190
 1809SOL    HW1 6326   3.940   2.086   5.240
 1809SOL    HW2 6327   3.823   2.146   5.143
 1810SOL     OW 6328   0.568   6.931   4.082
 1810SOL    HW1 6329   0.611   6.918   3.993
 1810SOL    HW2 6330   0.475   6.894   4.080
 1811SOL     OW 6331   3.683   5.122   2.652
 1811SOL    HW1 6332   3.731   5.073   2.579
 1811SOL    HW2 6333   3.696   5.221   2.639
 1812SOL     OW 6334   4.559   0.324   6.229
 1812SOL    HW1 6335   4.552   0.255   6.301
 1812SOL    HW2 6336   4.617   0.399   6.261
 1813SOL     OW 6337   4.349   4.884   2.668
 1813SOL    HW1 6338   4.420   4.901   2.600
 1813SOL    HW2 6339   4.296   4.803   2.641
 1814SOL     OW 6340   0.752   6.617   0.343
 1814SOL    HW1 6341   0.815   6.639   0.268
 1814SOL    HW2 6342   0.790   6.652   0.429
 1815SOL     OW 6343   5.752   5.884   2.274
 1815SOL    HW1 6344   5.845   5.858   2.302
 1815SOL    HW2 6345   5.730   5.974   2.313
 1816SOL     OW 6346   3.865   5.692   5.719
 1816SOL    HW1 6347   3.938   5.730   5.661
 1816SOL    HW2 6348   3.880   5.594   5.730
 1817SOL     OW 6349   1.978   1.245   3.485
 1817SOL    HW1 6350   1.975   1.149   3.515
 1817SOL    HW2 6351   1.887   1.273   3.454
 1818SOL     OW 6352   2.380   6.603   0.434
 1818SOL    HW1 6353   2.441   6.682   0.431
 1818SOL    HW2 6354   2.431   6.522   0.462
 1819SOL     OW 6355   1.878   4.878   3.001
 1819SOL    HW1 6356   1.868   4.805   2.934
 1819SOL    HW2 6357   1.790   4.897   3.043
 1820SOL     OW 6358   3.741   0.530   3.752
 1820SOL    HW1 6359   3.767   0.559   3.844
 1820SOL    HW2 6360   3.666   0.589   3.719
 1821SOL     OW 6361   4.416   1.481   2.177
 1821SOL    HW1 6362   4.503   1.438   2.151
 1821SOL    HW2 6363   4.430   1.539   2.256
 1822SOL     OW 6364   0.413   3.389   1.923
 1822SOL    HW1 6365   0.335   3.327   1.933
 1822SOL    HW2 6366   0.433   3.432   2.011
 1823SOL     OW 6367   3.531   6.343   2.380
 1823SOL    HW1 6368   3.593   6.275   2.340
 1823SOL    HW2 6369   3.436   6.310   2.371
 1824SOL     OW 6370   4.350   3.726   1.022
 1824SOL    HW1 6371   4.306   3.656   1.077
 1824SOL    HW2 6372   4.449   3.714   1.026
 1825SOL     OW 6373   1.736   1.937   5.259
 1825SOL    HW1 6374   1.739   1.849   5.307
 1825SOL    HW2 6375   1.750   1.922   5.161
 1826SOL     OW 6376   3.257   2.182   1.848
 1826SOL    HW1 6377   3.275   2.114   1.776
 1826SOL    HW2 6378   3.232   2.269   1.806
 1827SOL     OW 6379   5.966   4.616   0.317
 1827SOL    HW1 6380   5.973   4.697   0.258
 1827SOL    HW2 6381   6.048   4.560   0.306
 1828SOL     OW 6382   1.532   3.433   5.766
 1828SOL    HW1 6383   1.575   3.343   5.765
 1828SOL    HW2 6384   1.586   3.496   5.821
 1829SOL     OW 6385   3.361   0.990   4.085
 1829SOL    HW1 6386   3.421   1.007   4.007
 1829SOL    HW2 6387   3.409   0.935   4.153
 1830SOL     OW 6388   5.889   6.851   4.791
 1830SOL    HW1 6389   5.896   6.866   4.890
 1830SOL    HW2 6390   5.956   6.908   4.744
 1831SOL     OW 6391   4.933   5.713   2.696
 1831SOL    HW1 6392   5.033   5.721   2.706
 1831SOL    HW2 6393   4.912   5.682   2.603
 1832SOL     OW 6394   2.556   3.302   0.843
 1832SOL    HW1 6395   2.582   3.207   0.864
 1832SOL    HW2 6396   2.626   3.343   0.784
 1833SOL     OW 6397   4.821   0.336   1.490
 1833SOL    HW1 6398   4.775   0.275   1.426
 1833SOL    HW2 6399   4.891   0.286   1.541
 1834SOL     OW 6400   2.333   2.897   0.333
 1834SOL    HW1 6401   2.342   2.958   0.411
 1834SOL    HW2 6402   2.377   2.937   0.253
 1835SOL     OW 6403   0.187   5.076   1.521
 1835SOL    HW1 6404   0.123   5.108   1.590
 1835SOL    HW2 6405   0.149   4.996   1.474
 1836SOL     OW 6406   5.595   1.947   1.437
 1836SOL    HW1 6407   5.496   1.935   1.430
 1836SOL    HW2 6408   5.637   1.926   1.349
 1837SOL     OW 6409   2.816   1.735   6.287
 1837SOL    HW1 6410   2.770   1.659   6.333
 1837SOL    HW2 6411   2.883   1.776   6.349
 1838SOL     OW 6412   6.133   1.280   0.887
 1838SOL    HW1 6413   6.059   1.345   0.904
 1838SOL    HW2 6414   6.144   1.267   0.788
 1839SOL     OW 6415   5.482   1.530   0.007
 1839SOL    HW1 6416   5.397   1.501   6.989
 1839SOL    HW2 6417   5.557   1.473   7.000
 1840SOL     OW 6418   4.155   6.847   2.839
 1840SOL    HW1 6419   4.081   6.863   2.773
 1840SOL    HW2 6420   4.167   6.748   2.851
 1841SOL     OW 6421   2.307   1.039   2.272
 1841SOL    HW1 6422   2.305   0.952   2.221
 1841SOL    HW2 6423   2.402   1.064   2.290
 1842SOL     OW 6424   1.771   4.977   0.469
 1842SOL    HW1 6425   1.866   5.000   0.448
 1842SOL    HW2 6426   1.712   5.054   0.444
 1843SOL     OW 6427   3.244   1.139   4.679
 1843SOL    HW1 6428   3.249   1.153   4.580
 1843SOL    HW2 6429   3.248   1.228   4.724
 1844SOL     OW 6430   4.940   1.588   6.726
 1844SOL    HW1 6431   4.869   1.604   6.795
 1844SOL    HW2 6432   4.922   1.645   6.646
 1845SOL     OW 6433   2.279   1.553   3.561
 1845SOL    HW1 6434   2.289   1.483   3.489
 1845SOL    HW2 6435   2.318   1.639   3.529
 1846SOL     OW 6436   4.289   1.377   2.501
 1846SOL    HW1 6437   4.277   1.472   2.470
 1846SOL    HW2 6438   4.370   1.338   2.456
 1847SOL     OW 6439   2.018   0.229   4.831
 1847SOL    HW1 6440   2.060   0.139   4.821
 1847SOL    HW2 6441   2.065   0.295   4.774
 1848SOL     OW 6442   2.378   5.671   4.435
 1848SOL    HW1 6443   2.408   5.608   4.363
 1848SOL    HW2 6444   2.280   5.659   4.450
 1849SOL     OW 6445   4.479   2.494   2.318
 1849SOL    HW1 6446   4.488   2.486   2.418
 1849SOL    HW2 6447   4.538   2.568   2.285
 1850SOL     OW 6448   5.240   2.055   2.066
 1850SOL    HW1 6449   5.197   2.009   1.989
 1850SOL    HW2 6450   5.198   2.023   2.152
 1851SOL     OW 6451   6.726   3.063   5.601
 1851SOL    HW1 6452   6.743   3.003   5.523
 1851SOL    HW2 6453   6.805   3.061   5.662
 1852SOL     OW 6454   1.477   5.090   1.811
 1852SOL    HW1 6455   1.514   5.077   1.903
 1852SOL    HW2 6456   1.404   5.158   1.814
 1853SOL     OW 6457   0.678   2.941   4.859
 1853SOL    HW1 6458   0.694   2.974   4.766
 1853SOL    HW2 6459   0.618   2.861   4.856
 1854SOL     OW 6460   0.682   6.122   3.234
 1854SOL    HW1 6461   0.679   6.135   3.135
 1854SOL    HW2 6462   0.595   6.151   3.275
 1855SOL     OW 6463   5.125   3.350   4.972
 1855SOL    HW1 6464   5.161   3.426   5.026
 1855SOL    HW2 6465   5.077   3.286   5.033
 1856SOL     OW 6466   3.837   3.197   0.017
 1856SOL    HW1 6467   3.803   3.170   0.107
 1856SOL    HW2 6468   3.901   3.273   0.027
 1857SOL     OW 6469   5.057   0.473   0.289
 1857SOL    HW1 6470   5.050   0.377   0.317
 1857SOL    HW2 6471   5.114   0.480   0.207
 1858SOL     OW 6472   4.439   2.282   4.313
 1858SOL    HW1 6473   4.504   2.219   4.354
 1858SOL    HW2 6474   4.433   2.365   4.369
 1859SOL     OW 6475   5.590   2.080   4.428
 1859SOL    HW1 6476   5.680   2.120   4.447
 1859SOL    HW2 6477   5.551   2.122   4.347
 1860SOL     OW 6478   1.470   1.486   5.024
 1860SOL    HW1 6479   1.548   1.432   4.990
 1860SOL    HW2 6480   1.478   1.580   4.989
 1861SOL     OW 6481   6.683   0.479   3.201
 1861SOL    HW1 6482   6.657   0.383   3.189
 1861SOL    HW2 6483   6.602   0.533   3.224
 1862SOL     OW 6484   2.272   6.451   6.567
 1862SOL    HW1 6485   2.258   6.518   6.494
 1862SOL    HW2 6486   2.361   6.466   6.610
 1863SOL     OW 6487   0.145   3.271   1.424
 1863SOL    HW1 6488   0.105   3.303   1.339
 1863SOL    HW2 6489   0.243   3.295   1.426
 1864SOL     OW 6490   3.095   6.193   2.939
 1864SOL    HW1 6491   3.134   6.238   3.019
 1864SOL    HW2 6492   3.007   6.235   2.917
 1865SOL     OW 6493   5.276   1.457   6.320
 1865SOL    HW1 6494   5.233   1.438   6.408
 1865SOL    HW2 6495   5.372   1.480   6.334
 1866SOL     OW 6496   0.644   4.754   3.726
 1866SOL    HW1 6497   0.664   4.676   3.666
 1866SOL    HW2 6498   0.545   4.762   3.738
 1867SOL     OW 6499   2.666   2.320   1.295
 1867SOL    HW1 6500   2.751   2.365   1.321
 1867SOL    HW2 6501   2.601   2.388   1.260
 1868SOL     OW 6502   5.763   4.469   5.816
 1868SOL    HW1 6503   5.842   4.439   5.762
 1868SOL    HW2 6504   5.791   4.545   5.875
 1869SOL     OW 6505   4.561   2.074   4.461
 1869SOL    HW1 6506   4.616   2.000   4.423
 1869SOL    HW2 6507   4.581   2.084   4.558
 1870SOL     OW 6508   1.422   4.617   4.137
 1870SOL    HW1 6509   1.449   4.530   4.178
 1870SOL    HW2 6510   1.504   4.673   4.121
 1871SOL     OW 6511   1.059   6.380   0.167
 1871SOL    HW1 6512   1.008   6.464   0.150
 1871SOL    HW2 6513   1.117   6.391   0.247
 1872SOL     OW 6514   2.839   2.468   0.865
 1872SOL    HW1 6515   2.747   2.447   0.897
 1872SOL    HW2 6516   2.866   2.559   0.897
 1873SOL     OW 6517   6.624   0.973   0.060
 1873SOL    HW1 6518   6.604   0.960   6.989
 1873SOL    HW2 6519   6.554   0.927   0.115
 1874SOL     OW 6520   1.426   6.148   6.857
 1874SOL    HW1 6521   1.521   6.118   6.847
 1874SOL    HW2 6522   1.365   6.077   6.823
 1875SOL     OW 6523   5.958   5.145   6.816
 1875SOL    HW1 6524   5.971   5.244   6.813
 1875SOL    HW2 6525   5.860   5.125   6.822
 1876SOL     OW 6526   6.174   6.264   6.309
 1876SOL    HW1 6527   6.236   6.343   6.313
 1876SOL    HW2 6528   6.190   6.206   6.389
 1877SOL     OW 6529   0.235   1.187   2.379
 1877SOL    HW1 6530   0.335   1.183   2.372
 1877SOL    HW2 6531   0.199   1.240   2.302
 1878SOL     OW 6532   0.552   4.610   3.290
 1878SOL    HW1 6533   0.583   4.545   3.221
 1878SOL    HW2 6534   0.548   4.702   3.251
 1879SOL     OW 6535   3.639   5.587   5.181
 1879SOL    HW1 6536   3.696   5.628   5.109
 1879SOL    HW2 6537   3.631   5.489   5.164
 1880SOL     OW 6538   0.080   2.057   3.205
 1880SOL    HW1 6539   0.153   1.989   3.194
 1880SOL    HW2 6540   0.028   2.064   3.119
 1881SOL     OW 6541   1.012   1.775   3.926
 1881SOL    HW1 6542   0.988   1.802   3.833
 1881SOL    HW2 6543   1.087   1.709   3.923
 1882SOL     OW 6544   1.491   5.649   7.013
 1882SOL    HW1 6545   1.422   5.580   0.008
 1882SOL    HW2 6546   1.564   5.645   0.055
 1883SOL     OW 6547   1.452   3.242   3.060
 1883SOL    HW1 6548   1.426   3.270   3.152
 1883SOL    HW2 6549   1.540   3.194   3.063
 1884SOL     OW 6550   3.047   0.760   0.629
 1884SOL    HW1 6551   3.028   0.856   0.651
 1884SOL    HW2 6552   2.995   0.734   0.548
 1885SOL     OW 6553   0.373   2.643   0.892
 1885SOL    HW1 6554   0.449   2.578   0.886
 1885SOL    HW2 6555   0.366   2.676   0.986
 1886SOL     OW 6556   2.422   2.513   0.119
 1886SOL    HW1 6557   2.429   2.601   0.072
 1886SOL    HW2 6558   2.339   2.466   0.089
 1887SOL     OW 6559   1.427   5.782   5.739
 1887SOL    HW1 6560   1.352   5.721   5.714
 1887SOL    HW2 6561   1.435   5.855   5.672
 1888SOL     OW 6562   1.899   1.906   6.344
 1888SOL    HW1 6563   1.974   1.935   6.285
 1888SOL    HW2 6564   1.876   1.979   6.407
 1889SOL     OW 6565   4.485   2.996   0.218
 1889SOL    HW1 6566   4.491   3.060   0.294
 1889SOL    HW2 6567   4.458   3.045   0.135
 1890SOL     OW 6568   0.170   5.999   6.029
 1890SOL    HW1 6569   0.230   5.923   6.006
 1890SOL    HW2 6570   0.087   5.964   6.073
 1891SOL     OW 6571   5.694   3.320   5.617
 1891SOL    HW1 6572   5.726   3.401   5.568
 1891SOL    HW2 6573   5.614   3.282   5.569
 1892SOL     OW 6574   3.530   5.184   1.690
 1892SOL    HW1 6575   3.436   5.189   1.723
 1892SOL    HW2 6576   3.559   5.088   1.687
 1893SOL     OW 6577   3.871   2.188   4.209
 1893SOL    HW1 6578   3.804   2.210   4.138
 1893SOL    HW2 6579   3.957   2.235   4.189
 1894SOL     OW 6580   4.653   4.025   1.312
 1894SOL    HW1 6581   4.742   3.978   1.305
 1894SOL    HW2 6582   4.589   3.967   1.362
 1895SOL     OW 6583   6.231   1.023   3.257
 1895SOL    HW1 6584   6.316   0.971   3.253
 1895SOL    HW2 6585   6.153   0.961   3.251
 1896SOL     OW 6586   6.477   1.433   4.693
 1896SOL    HW1 6587   6.543   1.450   4.620
 1896SOL    HW2 6588   6.471   1.335   4.712
 1897SOL     OW 6589   5.884   4.909   2.462
 1897SOL    HW1 6590   5.921   4.853   2.535
 1897SOL    HW2 6591   5.784   4.907   2.466
 1898SOL     OW 6592   5.240   5.238   1.225
 1898SOL    HW1 6593   5.204   5.277   1.310
 1898SOL    HW2 6594   5.233   5.305   1.151
 1899SOL     OW 6595   0.313   3.095   3.250
 1899SOL    HW1 6596   0.262   3.080   3.334
 1899SOL    HW2 6597   0.395   3.039   3.250
 1900SOL     OW 6598   1.479   5.685   6.101
 1900SOL    HW1 6599   1.479   5.606   6.041
 1900SOL    HW2 6600   1.568   5.731   6.096
 1901SOL     OW 6601   1.733   0.470   0.067
 1901SOL    HW1 6602   1.719   0.383   0.115
 1901SOL    HW2 6603   1.822   0.508   0.093
 1902SOL     OW 6604   0.712   3.065   4.587
 1902SOL    HW1 6605   0.643   3.127   4.549
 1902SOL    HW2 6606   0.803   3.106   4.576
 1903SOL     OW 6607   5.953   3.812   3.147
 1903SOL    HW1 6608   5.884   3.878   3.179
 1903SOL    HW2 6609   6.042   3.835   3.187
 1904SOL     OW 6610   6.676   0.266   4.056
 1904SOL    HW1 6611   6.659   0.355   4.098
 1904SOL    HW2 6612   6.677   0.196   4.127
 1905SOL     OW 6613   0.445   2.073   4.225
 1905SOL    HW1 6614   0.508   2.051   4.300
 1905SOL    HW2 6615   0.465   2.014   4.146
 1906SOL     OW 6616   2.325   6.946   6.400
 1906SOL    HW1 6617   2.296   0.014   6.419
 1906SOL    HW2 6618   2.352   6.901   6.485
 1907SOL     OW 6619   3.179   6.132   3.453
 1907SOL    HW1 6620   3.270   6.171   3.467
 1907SOL    HW2 6621   3.161   6.064   3.523
 1908SOL     OW 6622   4.012   1.538   5.536
 1908SOL    HW1 6623   4.095   1.589   5.560
 1908SOL    HW2 6624   4.034   1.467   5.469
 1909SOL     OW 6625   2.049   4.537   4.578
 1909SOL    HW1 6626   2.143   4.565   4.555
 1909SOL    HW2 6627   2.046   4.506   4.674
 1910SOL     OW 6628   5.687   2.301   6.124
 1910SOL    HW1 6629   5.729   2.383   6.164
 1910SOL    HW2 6630   5.739   2.220   6.153
 1911SOL     OW 6631   6.690   2.583   5.322
 1911SOL    HW1 6632   6.755   2.579   5.398
 1911SOL    HW2 6633   6.601   2.612   5.356
 1912SOL     OW 6634   3.296   0.004   2.248
 1912SOL    HW1 6635   3.248   0.049   2.322
 1912SOL    HW2 6636   3.347   6.951   2.284
 1913SOL     OW 6637   1.100   5.746   5.329
 1913SOL    HW1 6638   1.037   5.808   5.283
 1913SOL    HW2 6639   1.050   5.665   5.361
 1914SOL     OW 6640   3.084   2.331   6.005
 1914SOL    HW1 6641   3.132   2.322   5.918
 1914SOL    HW2 6642   3.007   2.394   5.995
 1915SOL     OW 6643   3.915   0.685   5.870
 1915SOL    HW1 6644   3.849   0.706   5.942
 1915SOL    HW2 6645   3.918   0.759   5.804
 1916SOL     OW 6646   2.996   5.855   2.155
 1916SOL    HW1 6647   2.897   5.865   2.164
 1916SOL    HW2 6648   3.021   5.759   2.160
 1917SOL     OW 6649   2.975   3.768   4.209
 1917SOL    HW1 6650   2.996   3.700   4.139
 1917SOL    HW2 6651   3.017   3.855   4.186
 1918SOL     OW 6652   5.542   5.973   5.677
 1918SOL    HW1 6653   5.636   5.943   5.691
 1918SOL    HW2 6654   5.486   5.945   5.755
 1919SOL     OW 6655   0.597   6.144   2.320
 1919SOL    HW1 6656   0.621   6.173   2.413
 1919SOL    HW2 6657   0.498   6.142   2.310
 1920SOL     OW 6658   0.144   5.658   3.780
 1920SOL    HW1 6659   0.114   5.742   3.826
 1920SOL    HW2 6660   0.072   5.626   3.718
 1921SOL     OW 6661   1.657   5.843   6.513
 1921SOL    HW1 6662   1.651   5.746   6.492
 1921SOL    HW2 6663   1.726   5.858   6.584
 1922SOL     OW 6664   3.804   3.625   1.452
 1922SOL    HW1 6665   3.769   3.611   1.359
 1922SOL    HW2 6666   3.794   3.541   1.504
 1923SOL     OW 6667   2.118   1.241   0.996
 1923SOL    HW1 6668   2.152   1.333   1.013
 1923SOL    HW2 6669   2.096   1.231   0.899
 1924SOL     OW 6670   6.878   3.974   1.960
 1924SOL    HW1 6671   6.898   3.880   1.987
 1924SOL    HW2 6672   6.964   4.023   1.944
 1925SOL     OW 6673   3.448   3.741   1.761
 1925SOL    HW1 6674   3.457   3.821   1.821
 1925SOL    HW2 6675   3.402   3.667   1.811
 1926SOL     OW 6676   1.578   0.220   4.390
 1926SOL    HW1 6677   1.602   0.163   4.469
 1926SOL    HW2 6678   1.554   0.312   4.421
 1927SOL     OW 6679   4.379   3.752   6.849
 1927SOL    HW1 6680   4.313   3.818   6.814
 1927SOL    HW2 6681   4.331   3.669   6.878
 1928SOL     OW 6682   6.393   4.029   5.583
 1928SOL    HW1 6683   6.363   3.937   5.611
 1928SOL    HW2 6684   6.321   4.071   5.527
 1929SOL     OW 6685   1.295   5.856   0.852
 1929SOL    HW1 6686   1.247   5.928   0.801
 1929SOL    HW2 6687   1.239   5.773   0.854
 1930SOL     OW 6688   5.996   4.678   6.276
 1930SOL    HW1 6689   6.069   4.643   6.218
 1930SOL    HW2 6690   5.947   4.602   6.317
 1931SOL     OW 6691   0.902   3.614   3.422
 1931SOL    HW1 6692   0.831   3.556   3.383
 1931SOL    HW2 6693   0.868   3.657   3.507
 1932SOL     OW 6694   4.824   4.070   2.105
 1932SOL    HW1 6695   4.769   4.142   2.146
 1932SOL    HW2 6696   4.816   4.075   2.005
 1933SOL     OW 6697   2.644   4.502   0.676
 1933SOL    HW1 6698   2.567   4.510   0.612
 1933SOL    HW2 6699   2.657   4.406   0.700
 1934SOL     OW 6700   0.912   6.869   5.939
 1934SOL    HW1 6701   0.954   6.948   5.893
 1934SOL    HW2 6702   0.813   6.883   5.946
 1935SOL     OW 6703   2.280   6.997   4.088
 1935SOL    HW1 6704   2.294   0.059   4.133
 1935SOL    HW2 6705   2.365   6.965   4.049
 1936SOL     OW 6706   5.434   6.395   4.591
 1936SOL    HW1 6707   5.346   6.347   4.586
 1936SOL    HW2 6708   5.486   6.377   4.508
 1937SOL     OW 6709   3.795   6.465   1.790
 1937SOL    HW1 6710   3.733   6.417   1.727
 1937SOL    HW2 6711   3.865   6.514   1.737
 1938SOL     OW 6712   4.010   1.315   3.358
 1938SOL    HW1 6713   4.067   1.289   3.437
 1938SOL    HW2 6714   4.025   1.411   3.337
 1939SOL     OW 6715   1.773   1.056   4.005
 1939SOL    HW1 6716   1.837   1.116   3.958
 1939SOL    HW2 6717   1.731   1.105   4.081
 1940SOL     OW 6718   6.498   5.120   6.823
 1940SOL    HW1 6719   6.452   5.085   6.741
 1940SOL    HW2 6720   6.435   5.117   6.900
 1941SOL     OW 6721   6.032   3.689   2.883
 1941SOL    HW1 6722   6.025   3.721   2.978
 1941SOL    HW2 6723   6.116   3.723   2.842
 1942SOL     OW 6724   6.614   5.658   2.570
 1942SOL    HW1 6725   6.647   5.577   2.617
 1942SOL    HW2 6726   6.514   5.657   2.568
 1943SOL     OW 6727   2.253   4.683   2.928
 1943SOL    HW1 6728   2.313   4.691   2.848
 1943SOL    HW2 6729   2.238   4.773   2.968
 1944SOL     OW 6730   5.658   1.411   6.593
 1944SOL    HW1 6731   5.603   1.373   6.519
 1944SOL    HW2 6732   5.722   1.479   6.556
 1945SOL     OW 6733   4.555   5.289   3.108
 1945SOL    HW1 6734   4.467   5.333   3.090
 1945SOL    HW2 6735   4.542   5.191   3.121
 1946SOL     OW 6736   1.557   6.795   0.361
 1946SOL    HW1 6737   1.489   6.762   0.426
 1946SOL    HW2 6738   1.515   6.807   0.271
 1947SOL     OW 6739   5.695   6.889   4.482
 1947SOL    HW1 6740   5.709   6.791   4.495
 1947SOL    HW2 6741   5.604   6.915   4.513
 1948SOL     OW 6742   6.858   5.298   4.052
 1948SOL    HW1 6743   6.874   5.349   4.137
 1948SOL    HW2 6744   6.838   5.203   4.075
 1949SOL     OW 6745   4.412   4.401   6.120
 1949SOL    HW1 6746   4.436   4.487   6.165
 1949SOL    HW2 6747   4.331   4.414   6.063
 1950SOL     OW 6748   3.609   3.508   6.605
 1950SOL    HW1 6749   3.517   3.471   6.596
 1950SOL    HW2 6750   3.674   3.433   6.619
 1951SOL     OW 6751   5.388   1.753   0.168
 1951SOL    HW1 6752   5.315   1.754   0.236
 1951SOL    HW2 6753   5.364   1.687   0.096
 1952SOL     OW 6754   3.707   1.668   1.058
 1952SOL    HW1 6755   3.681   1.595   1.120
 1952SOL    HW2 6756   3.781   1.721   1.099
 1953SOL     OW 6757   0.084   2.226   6.765
 1953SOL    HW1 6758   0.144   2.292   6.721
 1953SOL    HW2 6759   0.137   2.146   6.794
 1954SOL     OW 6760   5.003   1.807   3.679
 1954SOL    HW1 6761   4.991   1.736   3.609
 1954SOL    HW2 6762   4.936   1.793   3.752
 1955SOL     OW 6763   0.899   6.659   2.234
 1955SOL    HW1 6764   0.913   6.694   2.327
 1955SOL    HW2 6765   0.814   6.695   2.197
 1956SOL     OW 6766   5.178   5.784   2.953
 1956SOL    HW1 6767   5.209   5.763   2.861
 1956SOL    HW2 6768   5.093   5.836   2.949
 1957SOL     OW 6769   0.238   5.582   4.572
 1957SOL    HW1 6770   0.171   5.508   4.575
 1957SOL    HW2 6771   0.259   5.604   4.477
 1958SOL     OW 6772   5.317   3.439   5.227
 1958SOL    HW1 6773   5.232   3.482   5.196
 1958SOL    HW2 6774   5.325   3.449   5.326
 1959SOL     OW 6775   1.346   2.580   5.654
 1959SOL    HW1 6776   1.250   2.560   5.634
 1959SOL    HW2 6777   1.394   2.604   5.570
 1960SOL     OW 6778   6.297   5.141   0.565
 1960SOL    HW1 6779   6.214   5.192   0.588
 1960SOL    HW2 6780   6.274   5.044   0.553
 1961SOL     OW 6781   5.715   4.889   3.835
 1961SOL    HW1 6782   5.669   4.965   3.789
 1961SOL    HW2 6783   5.692   4.891   3.933
 1962SOL     OW 6784   1.266   6.239   3.381
 1962SOL    HW1 6785   1.178   6.226   3.426
 1962SOL    HW2 6786   1.251   6.249   3.282
 1963SOL     OW 6787   0.270   0.540   2.234
 1963SOL    HW1 6788   0.213   0.610   2.190
 1963SOL    HW2 6789   0.242   0.530   2.330
 1964SOL     OW 6790   4.773   2.808   1.792
 1964SOL    HW1 6791   4.701   2.793   1.723
 1964SOL    HW2 6792   4.740   2.873   1.860
 1965SOL     OW 6793   0.210   3.607   2.162
 1965SOL    HW1 6794   0.211   3.687   2.223
 1965SOL    HW2 6795   0.299   3.600   2.116
 1966SOL     OW 6796   0.023   5.190   4.385
 1966SOL    HW1 6797   0.056   5.194   4.291
 1966SOL    HW2 6798   6.961   5.236   4.392
 1967SOL     OW 6799   5.309   2.864   6.036
 1967SOL    HW1 6800   5.290   2.942   5.976
 1967SOL    HW2 6801   5.337   2.786   5.980
 1968SOL     OW 6802   2.593   5.421   0.088
 1968SOL    HW1 6803   2.678   5.421   0.140
 1968SOL    HW2 6804   2.546   5.334   0.100
 1969SOL     OW 6805   0.161   2.772   1.685
 1969SOL    HW1 6806   0.220   2.819   1.750
 1969SOL    HW2 6807   0.116   2.839   1.626
 1970SOL     OW 6808   1.238   0.751   5.968
 1970SOL    HW1 6809   1.215   0.761   6.065
 1970SOL    HW2 6810   1.156   0.727   5.917
 1971SOL     OW 6811   0.273   0.344   6.164
 1971SOL    HW1 6812   0.324   0.315   6.245
 1971SOL    HW2 6813   0.294   0.282   6.088
 1972SOL     OW 6814   0.784   3.702   3.665
 1972SOL    HW1 6815   0.811   3.610   3.695
 1972SOL    HW2 6816   0.684   3.705   3.657
 1973SOL     OW 6817   3.861   2.822   1.774
 1973SOL    HW1 6818   3.808   2.906   1.791
 1973SOL    HW2 6819   3.800   2.743   1.781
 1974SOL     OW 6820   5.874   6.347   4.586
 1974SOL    HW1 6821   5.873   6.290   4.669
 1974SOL    HW2 6822   5.876   6.443   4.612
 1975SOL     OW 6823   2.213   0.614   4.416
 1975SOL    HW1 6824   2.299   0.631   4.367
 1975SOL    HW2 6825   2.211   0.669   4.500
 1976SOL     OW 6826   0.661   5.942   0.477
 1976SOL    HW1 6827   0.725   6.006   0.434
 1976SOL    HW2 6828   0.585   5.993   0.517
 1977SOL     OW 6829   0.838   2.900   4.382
 1977SOL    HW1 6830   0.825   2.984   4.329
 1977SOL    HW2 6831   0.779   2.901   4.463
 1978SOL     OW 6832   0.768   1.176   4.351
 1978SOL    HW1 6833   0.723   1.244   4.294
 1978SOL    HW2 6834   0.698   1.126   4.403
 1979SOL     OW 6835   7.000   4.349   4.755
 1979SOL    HW1 6836   0.049   4.379   4.696
 1979SOL    HW2 6837   6.978   4.422   4.820
 1980SOL     OW 6838   3.499   0.429   0.788
 1980SOL    HW1 6839   3.447   0.378   0.720
 1980SOL    HW2 6840   3.523   0.519   0.751
 1981SOL     OW 6841   5.543   2.159   2.854
 1981SOL    HW1 6842   5.610   2.171   2.927
 1981SOL    HW2 6843   5.451   2.158   2.893
 1982SOL     OW 6844   6.080   5.275   5.100
 1982SOL    HW1 6845   6.051   5.196   5.046
 1982SOL    HW2 6846   6.179   5.284   5.095
 1983SOL     OW 6847   1.573   2.265   3.074
 1983SOL    HW1 6848   1.499   2.299   3.015
 1983SOL    HW2 6849   1.536   2.196   3.136
 1984SOL     OW 6850   4.589   1.471   6.183
 1984SOL    HW1 6851   4.529   1.420   6.245
 1984SOL    HW2 6852   4.598   1.565   6.215
 1985SOL     OW 6853   0.717   0.860   1.925
 1985SOL    HW1 6854   0.768   0.783   1.964
 1985SOL    HW2 6855   0.619   0.840   1.932
 1986SOL     OW 6856   1.226   1.905   6.729
 1986SOL    HW1 6857   1.271   1.989   6.756
 1986SOL    HW2 6858   1.275   1.826   6.766
 1987SOL     OW 6859   2.829   3.098   1.742
 1987SOL    HW1 6860   2.906   3.104   1.805
 1987SOL    HW2 6861   2.841   3.019   1.682
 1988SOL     OW 6862   4.951   4.225   0.065
 1988SOL    HW1 6863   5.021   4.226   7.020
 1988SOL    HW2 6864   4.886   4.299   0.049
 1989SOL     OW 6865   2.095   6.998   4.685
 1989SOL    HW1 6866   2.115   6.901   4.699
 1989SOL    HW2 6867   2.137   0.002   4.600
 1990SOL     OW 6868   2.746   0.950   1.216
 1990SOL    HW1 6869   2.795   0.863   1.218
 1990SOL    HW2 6870   2.648   0.932   1.227
 1991SOL     OW 6871   3.452   5.621   5.672
 1991SOL    HW1 6872   3.368   5.603   5.620
 1991SOL    HW2 6873   3.445   5.578   5.762
 1992SOL     OW 6874   2.386   6.798   5.601
 1992SOL    HW1 6875   2.320   6.844   5.542
 1992SOL    HW2 6876   2.462   6.762   5.547
 1993SOL     OW 6877   3.966   3.601   5.491
 1993SOL    HW1 6878   4.015   3.688   5.491
 1993SOL    HW2 6879   3.868   3.617   5.478
 1994SOL     OW 6880   0.475   1.949   1.999
 1994SOL    HW1 6881   0.535   2.025   2.024
 1994SOL    HW2 6882   0.528   1.863   2.000
 1995SOL     OW 6883   6.163   2.235   2.129
 1995SOL    HW1 6884   6.260   2.214   2.141
 1995SOL    HW2 6885   6.116   2.229   2.217
 1996SOL     OW 6886   3.906   3.202   0.814
 1996SOL    HW1 6887   3.878   3.230   0.722
 1996SOL    HW2 6888   3.994   3.154   0.808
 1997SOL     OW 6889   6.004   1.230   5.139
 1997SOL    HW1 6890   5.944   1.281   5.079
 1997SOL    HW2 6891   5.951   1.165   5.193
 1998SOL     OW 6892   3.024   3.796   6.573
 1998SOL    HW1 6893   3.089   3.789   6.498
 1998SOL    HW2 6894   2.932   3.774   6.541
 1999SOL     OW 6895   2.187   0.148   2.202
 1999SOL    HW1 6896   2.156   0.068   2.255
 1999SOL    HW2 6897   2.142   0.230   2.238
 2000SOL     OW 6898   4.189   1.412   4.577
 2000SOL    HW1 6899   4.129   1.416   4.497
 2000SOL    HW2 6900   4.138   1.378   4.656
 2001SOL     OW 6901   3.430   1.661   1.682
 2001SOL    HW1 6902   3.513   1.702   1.718
 2001SOL    HW2 6903   3.377   1.730   1.633
 2002SOL     OW 6904   1.859   6.638   6.184
 2002SOL    HW1 6905   1.854   6.693   6.267
 2002SOL    HW2 6906   1.815   6.686   6.108
 2003SOL     OW 6907   5.089   0.315   3.462
 2003SOL    HW1 6908   5.124   0.221   3.455
 2003SOL    HW2 6909   5.071   0.350   3.371
 2004SOL     OW 6910   4.229   0.941   4.462
 2004SOL    HW1 6911   4.146   0.993   4.479
 2004SOL    HW2 6912   4.305   1.004   4.448
 2005SOL     OW 6913   1.898   5.902   6.706
 2005SOL    HW1 6914   1.940   5.941   6.624
 2005SOL    HW2 6915   1.951   5.823   6.736
 2006SOL     OW 6916   4.834   4.045   3.814
 2006SOL    HW1 6917   4.835   3.953   3.776
 2006SOL    HW2 6918   4.901   4.102   3.766
 2007SOL     OW 6919   4.964   5.058   0.035
 2007SOL    HW1 6920   5.045   5.114   0.019
 2007SOL    HW2 6921   4.992   4.967   0.067
 2008SOL     OW 6922   6.533   6.266   3.825
 2008SOL    HW1 6923   6.463   6.218   3.878
 2008SOL    HW2 6924   6.494   6.350   3.787
 2009SOL     OW 6925   6.455   0.287   1.776
 2009SOL    HW1 6926   6.421   0.355   1.711
 2009SOL    HW2 6927   6.526   0.328   1.833
 2010SOL     OW 6928   1.356   1.265   1.330
 2010SOL    HW1 6929   1.445   1.288   1.368
 2010SOL    HW2 6930   1.352   1.294   1.234
 2011SOL     OW 6931   6.775   2.587   5.070
 2011SOL    HW1 6932   6.871   2.613   5.078
 2011SOL    HW2 6933   6.738   2.567   5.160
 2012SOL     OW 6934   1.005   3.779   1.775
 2012SOL    HW1 6935   1.004   3.724   1.691
 2012SOL    HW2 6936   1.098   3.811   1.792
 2013SOL     OW 6937   5.126   1.444   3.297
 2013SOL    HW1 6938   5.071   1.373   3.342
 2013SOL    HW2 6939   5.177   1.495   3.365
 2014SOL     OW 6940   0.987   5.897   3.162
 2014SOL    HW1 6941   0.922   5.938   3.098
 2014SOL    HW2 6942   0.955   5.909   3.255
 2015SOL     OW 6943   3.594   0.951   0.391
 2015SOL    HW1 6944   3.528   0.977   0.462
 2015SOL    HW2 6945   3.562   0.983   0.302
 2016SOL     OW 6946   0.940   5.366   4.301
 2016SOL    HW1 6947   0.963   5.446   4.356
 2016SOL    HW2 6948   1.021   5.309   4.289
 2017SOL     OW 6949   3.043   6.664   3.597
 2017SOL    HW1 6950   3.041   6.564   3.593
 2017SOL    HW2 6951   2.950   6.699   3.606
 2018SOL     OW 6952   6.833   5.652   5.189
 2018SOL    HW1 6953   6.796   5.694   5.272
 2018SOL    HW2 6954   6.764   5.656   5.117
 2019SOL     OW 6955   5.494   2.623   0.976
 2019SOL    HW1 6956   5.559   2.602   0.903
 2019SOL    HW2 6957   5.511   2.716   1.010
 2020SOL     OW 6958   1.456   4.915   4.852
 2020SOL    HW1 6959   1.514   4.989   4.888
 2020SOL    HW2 6960   1.456   4.918   4.752
 2021SOL     OW 6961   1.686   0.578   2.757
 2021SOL    HW1 6962   1.697   0.599   2.854
 2021SOL    HW2 6963   1.594   0.604   2.727
 2022SOL     OW 6964   2.057   3.430   1.747
 2022SOL    HW1 6965   2.064   3.497   1.673
 2022SOL    HW2 6966   2.119   3.456   1.821
 2023SOL     OW 6967   0.256   1.288   6.911
 2023SOL    HW1 6968   0.349   1.274   6.943
 2023SOL    HW2 6969   0.202   1.331   6.983
 2024SOL     OW 6970   6.507   0.935   3.257
 2024SOL    HW1 6971   6.509   0.835   3.264
 2024SOL    HW2 6972   6.598   0.968   3.231
 2025SOL     OW 6973   1.224   1.886   1.663
 2025SOL    HW1 6974   1.197   1.970   1.617
 2025SOL    HW2 6975   1.323   1.879   1.666
 2026SOL     OW 6976   2.070   2.118   6.219
 2026SOL    HW1 6977   2.163   2.139   6.249
 2026SOL    HW2 6978   2.011   2.198   6.234
 2027SOL     OW 6979   0.346   0.859   2.355
 2027SOL    HW1 6980   0.263   0.834   2.306
 2027SOL    HW2 6981   0.413   0.894   2.290
 2028SOL     OW 6982   3.827   1.163   0.943
 2028SOL    HW1 6983   3.855   1.113   1.025
 2028SOL    HW2 6984   3.830   1.102   0.864
 2029SOL     OW 6985   1.069   0.705   6.774
 2029SOL    HW1 6986   1.057   0.741   6.867
 2029SOL    HW2 6987   1.146   0.642   6.772
 2030SOL     OW 6988   2.105   2.215   3.501
 2030SOL    HW1 6989   2.011   2.188   3.482
 2030SOL    HW2 6990   2.109   2.314   3.515
 2031SOL     OW 6991   5.353   5.909   2.208
 2031SOL    HW1 6992   5.302   5.863   2.135
 2031SOL    HW2 6993   5.289   5.960   2.266
 2032SOL     OW 6994   5.114   6.549   1.067
 2032SOL    HW1 6995   5.120   6.466   1.012
 2032SOL    HW2 6996   5.087   6.525   1.160
 2033SOL     OW 6997   4.254   4.815   6.092
 2033SOL    HW1 6998   4.184   4.885   6.108
 2033SOL    HW2 6999   4.217   4.746   6.029
 2034SOL     OW 7000   1.922   6.418   3.568
 2034SOL    HW1 7001   1.893   6.340   3.512
 2034SOL    HW2 7002   2.015   6.444   3.543
 2035SOL     OW 7003   6.810   1.664   2.574
 2035SOL    HW1 7004   6.742   1.642   2.644
 2035SOL    HW2 7005   6.765   1.709   2.497
 2036SOL     OW 7006   0.289   5.784   1.559
 2036SOL    HW1 7007   0.383   5.780   1.594
 2036SOL    HW2 7008   0.235   5.710   1.599
 2037SOL     OW 7009   7.018   2.198   5.641
 2037SOL    HW1 7010   0.031   2.110   5.613
 2037SOL    HW2 7011   7.018   2.261   5.563
 2038SOL     OW 7012   1.293   1.715   6.133
 2038SOL    HW1 7013   1.285   1.702   6.035
 2038SOL    HW2 7014   1.245   1.799   6.160
 2039SOL     OW 7015   0.068   5.928   3.856
 2039SOL    HW1 7016   0.114   6.013   3.831
 2039SOL    HW2 7017   7.000   5.947   3.881
 2040SOL     OW 7018   3.484   3.048   3.886
 2040SOL    HW1 7019   3.551   3.123   3.880
 2040SOL    HW2 7020   3.450   3.027   3.794
 2041SOL     OW 7021   5.821   5.523   6.138
 2041SOL    HW1 7022   5.822   5.470   6.053
 2041SOL    HW2 7023   5.912   5.524   6.178
 2042SOL     OW 7024   5.567   5.440   0.825
 2042SOL    HW1 7025   5.581   5.345   0.851
 2042SOL    HW2 7026   5.578   5.499   0.905
 2043SOL     OW 7027   6.299   5.413   2.005
 2043SOL    HW1 7028   6.393   5.446   2.007
 2043SOL    HW2 7029   6.250   5.457   1.931
 2044SOL     OW 7030   5.869   7.022   1.891
 2044SOL    HW1 7031   5.843   6.943   1.835
 2044SOL    HW2 7032   5.788   0.044   1.921
 2045SOL     OW 7033   1.923   4.690   5.395
 2045SOL    HW1 7034   1.939   4.617   5.328
 2045SOL    HW2 7035   2.010   4.734   5.417
 2046SOL     OW 7036   6.859   0.615   4.618
 2046SOL    HW1 7037   6.839   0.580   4.710
 2046SOL    HW2 7038   6.958   0.623   4.607
 2047SOL     OW 7039   4.610   2.086   1.023
 2047SOL    HW1 7040   4.576   2.148   1.095
 2047SOL    HW2 7041   4.541   2.018   1.002
 2048SOL     OW 7042   3.402   6.392   7.003
 2048SOL    HW1 7043   3.465   6.461   0.011
 2048SOL    HW2 7044   3.447   6.338   6.932
 2049SOL     OW 7045   4.649   2.273   6.612
 2049SOL    HW1 7046   4.555   2.289   6.640
 2049SOL    HW2 7047   4.695   2.218   6.682
 2050SOL     OW 7048   6.091   3.218   3.698
 2050SOL    HW1 7049   6.183   3.202   3.661
 2050SOL    HW2 7050   6.090   3.304   3.748
 2051SOL     OW 7051   0.296   5.098   6.608
 2051SOL    HW1 7052   0.258   5.189   6.627
 2051SOL    HW2 7053   0.222   5.033   6.596
 2052SOL     OW 7054   0.368   3.565   6.866
 2052SOL    HW1 7055   0.435   3.512   6.815
 2052SOL    HW2 7056   0.277   3.524   6.854
 2053SOL     OW 7057   6.131   0.156   0.463
 2053SOL    HW1 7058   6.040   0.195   0.480
 2053SOL    HW2 7059   6.188   0.224   0.417
 2054SOL     OW 7060   6.006   2.692   0.977
 2054SOL    HW1 7061   5.964   2.622   0.919
 2054SOL    HW2 7062   5.951   2.704   1.060
 2055SOL     OW 7063   5.529   2.911   3.149
 2055SOL    HW1 7064   5.550   2.852   3.072
 2055SOL    HW2 7065   5.571   2.874   3.232
 2056SOL     OW 7066   2.009   1.498   2.920
 2056SOL    HW1 7067   1.990   1.587   2.880
 2056SOL    HW2 7068   2.107   1.489   2.937
 2057SOL     OW 7069   5.405   2.087   3.985
 2057SOL    HW1 7070   5.488   2.058   3.938
 2057SOL    HW2 7071   5.428   2.144   4.064
 2058SOL     OW 7072   0.961   1.892   2.965
 2058SOL    HW1 7073   0.885   1.848   2.919
 2058SOL    HW2 7074   1.044   1.884   2.910
 2059SOL     OW 7075   2.453   6.795   0.050
 2059SOL    HW1 7076   2.484   6.853   7.001
 2059SOL    HW2 7077   2.524   6.730   0.074
 2060SOL     OW 7078   0.016   4.357   1.172
 2060SOL    HW1 7079   0.112   4.348   1.199
 2060SOL    HW2 7080   6.989   4.391   1.250
 2061SOL     OW 7081   0.485   1.341   2.406
 2061SOL    HW1 7082   0.577   1.322   2.441
 2061SOL    HW2 7083   0.453   1.429   2.442
 2062SOL     OW 7084   5.240   6.992   3.018
 2062SOL    HW1 7085   5.200   0.058   3.016
 2062SOL    HW2 7086   5.185   6.934   3.078
 2063SOL     OW 7087   1.120   1.059   6.846
 2063SOL    HW1 7088   1.028   1.051   6.808
 2063SOL    HW2 7089   1.183   1.087   6.774
 2064SOL     OW 7090   0.671   2.446   5.978
 2064SOL    HW1 7091   0.581   2.479   5.951
 2064SOL    HW2 7092   0.698   2.488   6.064
 2065SOL     OW 7093   5.721   3.698   2.137
 2065SOL    HW1 7094   5.736   3.756   2.057
 2065SOL    HW2 7095   5.769   3.611   2.125
 2066SOL     OW 7096   0.653   5.621   4.570
 2066SOL    HW1 7097   0.710   5.698   4.599
 2066SOL    HW2 7098   0.559   5.653   4.556
 2067SOL     OW 7099   6.853   6.634   0.653
 2067SOL    HW1 7100   6.953   6.629   0.655
 2067SOL    HW2 7101   6.819   6.572   0.582
 2068SOL     OW 7102   1.906   1.186   5.572
 2068SOL    HW1 7103   1.896   1.183   5.671
 2068SOL    HW2 7104   1.862   1.268   5.535
 2069SOL     OW 7105   0.657   2.770   2.485
 2069SOL    HW1 7106   0.646   2.671   2.493
 2069SOL    HW2 7107   0.664   2.795   2.388
 2070SOL     OW 7108   1.889   0.250   2.202
 2070SOL    HW1 7109   1.798   0.268   2.166
 2070SOL    HW2 7110   1.955   0.311   2.157
 2071SOL     OW 7111   0.638   6.628   4.446
 2071SOL    HW1 7112   0.571   6.695   4.477
 2071SOL    HW2 7113   0.708   6.616   4.517
 2072SOL     OW 7114   4.635   5.880   1.731
 2072SOL    HW1 7115   4.585   5.805   1.772
 2072SOL    HW2 7116   4.644   5.955   1.797
 2073SOL     OW 7117   3.755   6.884   4.505
 2073SOL    HW1 7118   3.685   6.955   4.511
 2073SOL    HW2 7119   3.815   6.889   4.584
 2074SOL     OW 7120   0.478   1.808   6.744
 2074SOL    HW1 7121   0.523   1.758   6.670
 2074SOL    HW2 7122   0.430   1.744   6.804
 2075SOL     OW 7123   4.812   3.050   1.531
 2075SOL    HW1 7124   4.874   3.103   1.588
 2075SOL    HW2 7125   4.809   3.089   1.439
 2076SOL     OW 7126   5.557   6.018   6.974
 2076SOL    HW1 7127   5.571   6.109   7.013
 2076SOL    HW2 7128   5.532   6.026   6.878
 2077SOL     OW 7129   5.172   2.455   2.205
 2077SOL    HW1 7130   5.112   2.386   2.246
 2077SOL    HW2 7131   5.214   2.418   2.122
 2078SOL     OW 7132   2.548   5.939   6.458
 2078SOL    HW1 7133   2.519   6.034   6.469
 2078SOL    HW2 7134   2.474   5.886   6.416
 2079SOL     OW 7135   5.566   1.142   3.881
 2079SOL    HW1 7136   5.491   1.203   3.856
 2079SOL    HW2 7137   5.591   1.087   3.801
 2080SOL     OW 7138   2.513   1.273   4.882
 2080SOL    HW1 7139   2.493   1.240   4.789
 2080SOL    HW2 7140   2.475   1.209   4.949
 2081SOL     OW 7141   1.279   5.941   5.188
 2081SOL    HW1 7142   1.286   5.984   5.278
 2081SOL    HW2 7143   1.224   5.858   5.194
 2082SOL     OW 7144   5.929   0.494   1.601
 2082SOL    HW1 7145   5.993   0.491   1.678
 2082SOL    HW2 7146   5.835   0.492   1.636
 2083SOL     OW 7147   4.188   4.541   6.638
 2083SOL    HW1 7148   4.180   4.543   6.737
 2083SOL    HW2 7149   4.205   4.447   6.607
 2084SOL     OW 7150   6.962   3.139   4.025
 2084SOL    HW1 7151   0.029   3.130   3.992
 2084SOL    HW2 7152   6.900   3.153   3.948
 2085SOL     OW 7153   5.298   1.093   6.760
 2085SOL    HW1 7154   5.202   1.114   6.740
 2085SOL    HW2 7155   5.302   1.014   6.821
 2086SOL     OW 7156   2.771   5.644   6.413
 2086SOL    HW1 7157   2.819   5.722   6.373
 2086SOL    HW2 7158   2.789   5.562   6.359
 2087SOL     OW 7159   4.719   6.225   1.593
 2087SOL    HW1 7160   4.758   6.186   1.676
 2087SOL    HW2 7161   4.726   6.325   1.596
 2088SOL     OW 7162   3.408   5.924   0.668
 2088SOL    HW1 7163   3.419   5.878   0.756
 2088SOL    HW2 7164   3.417   5.857   0.594
 2089SOL     OW 7165   4.228   1.165   0.142
 2089SOL    HW1 7166   4.159   1.232   0.171
 2089SOL    HW2 7167   4.292   1.208   0.079
 2090SOL     OW 7168   4.021   3.269   4.401
 2090SOL    HW1 7169   3.987   3.214   4.325
 2090SOL    HW2 7170   4.095   3.328   4.369
 2091SOL     OW 7171   0.629   6.343   0.058
 2091SOL    HW1 7172   0.546   6.289   0.068
 2091SOL    HW2 7173   0.708   6.282   0.048
 2092SOL     OW 7174   5.224   5.550   0.407
 2092SOL    HW1 7175   5.164   5.593   0.339
 2092SOL    HW2 7176   5.317   5.587   0.397
 2093SOL     OW 7177   1.500   1.878   1.663
 2093SOL    HW1 7178   1.509   1.882   1.564
 2093SOL    HW2 7179   1.532   1.788   1.696
 2094SOL     OW 7180   5.848   1.277   1.652
 2094SOL    HW1 7181   5.892   1.202   1.603
 2094SOL    HW2 7182   5.911   1.354   1.659
 2095SOL     OW 7183   5.890   0.299   3.765
 2095SOL    HW1 7184   5.883   0.231   3.691
 2095SOL    HW2 7185   5.874   0.254   3.853
 2096SOL     OW 7186   4.886   4.083   2.833
 2096SOL    HW1 7187   4.887   3.995   2.881
 2096SOL    HW2 7188   4.842   4.072   2.744
 2097SOL     OW 7189   1.251   3.109   6.335
 2097SOL    HW1 7190   1.225   3.204   6.321
 2097SOL    HW2 7191   1.269   3.066   6.246
 2098SOL     OW 7192   3.611   5.897   3.673
 2098SOL    HW1 7193   3.589   5.891   3.576
 2098SOL    HW2 7194   3.581   5.814   3.719
 2099SOL     OW 7195   2.277   1.643   4.856
 2099SOL    HW1 7196   2.182   1.676   4.859
 2099SOL    HW2 7197   2.283   1.564   4.795
 2100SOL     OW 7198   3.724   3.641   6.382
 2100SOL    HW1 7199   3.733   3.576   6.307
 2100SOL    HW2 7200   3.679   3.597   6.460
 2101SOL     OW 7201   1.139   6.569   2.109
 2101SOL    HW1 7202   1.055   6.579   2.162
 2101SOL    HW2 7203   1.190   6.490   2.142
 2102SOL     OW 7204   0.574   5.110   1.872
 2102SOL    HW1 7205   0.541   5.035   1.814
 2102SOL    HW2 7206   0.565   5.084   1.968
 2103SOL     OW 7207   2.675   3.810   0.111
 2103SOL    HW1 7208   2.671   3.889   0.172
 2103SOL    HW2 7209   2.737   3.829   0.035
 2104SOL     OW 7210   1.564   3.833   6.857
 2104SOL    HW1 7211   1.604   3.745   6.830
 2104SOL    HW2 7212   1.623   3.877   6.925
 2105SOL     OW 7213   5.257   5.191   3.735
 2105SOL    HW1 7214   5.336   5.131   3.721
 2105SOL    HW2 7215   5.176   5.136   3.752
 2106SOL     OW 7216   4.173   5.452   0.458
 2106SOL    HW1 7217   4.157   5.465   0.556
 2106SOL    HW2 7218   4.270   5.465   0.438
 2107SOL     OW 7219   4.370   3.085   5.529
 2107SOL    HW1 7220   4.325   3.078   5.440
 2107SOL    HW2 7221   4.413   3.175   5.537
 2108SOL     OW 7222   6.205   6.307   5.775
 2108SOL    HW1 7223   6.299   6.281   5.793
 2108SOL    HW2 7224   6.148   6.287   5.854
 2109SOL     OW 7225   5.150   6.841   3.474
 2109SOL    HW1 7226   5.058   6.811   3.502
 2109SOL    HW2 7227   5.205   6.860   3.555
 2110SOL     OW 7228   2.932   3.746   5.988
 2110SOL    HW1 7229   2.849   3.735   6.043
 2110SOL    HW2 7230   2.979   3.658   5.980
 2111SOL     OW 7231   0.556   1.886   6.422
 2111SOL    HW1 7232   0.494   1.812   6.449
 2111SOL    HW2 7233   0.651   1.854   6.427
 2112SOL     OW 7234   4.693   1.770   1.364
 2112SOL    HW1 7235   4.724   1.862   1.388
 2112SOL    HW2 7236   4.601   1.755   1.400
 2113SOL     OW 7237   1.104   0.042   4.205
 2113SOL    HW1 7238   1.193   0.086   4.195
 2113SOL    HW2 7239   1.053   0.048   4.119
 2114SOL     OW 7240   1.606   2.837   0.532
 2114SOL    HW1 7241   1.552   2.875   0.456
 2114SOL    HW2 7242   1.600   2.738   0.531
 2115SOL     OW 7243   1.928   3.995   2.834
 2115SOL    HW1 7244   1.913   3.959   2.926
 2115SOL    HW2 7245   1.971   4.085   2.839
 2116SOL     OW 7246   6.993   4.097   3.413
 2116SOL    HW1 7247   0.058   4.109   3.454
 2116SOL    HW2 7248   6.985   4.156   3.333
 2117SOL     OW 7249   6.735   4.896   1.814
 2117SOL    HW1 7250   6.734   4.924   1.718
 2117SOL    HW2 7251   6.686   4.809   1.824
 2118SOL     OW 7252   0.062   3.122   2.715
 2118SOL    HW1 7253   0.147   3.151   2.673
 2118SOL    HW2 7254   0.078   3.098   2.811
 2119SOL     OW 7255   2.215   5.492   0.784
 2119SOL    HW1 7256   2.139   5.523   0.727
 2119SOL    HW2 7257   2.244   5.566   0.845
 2120SOL     OW 7258   7.006   5.505   3.340
 2120SOL    HW1 7259   0.066   5.525   3.387
 2120SOL    HW2 7260   6.932   5.499   3.407
 2121SOL     OW 7261   1.112   4.443   5.649
 2121SOL    HW1 7262   1.108   4.380   5.726
 2121SOL    HW2 7263   1.045   4.516   5.662
 2122SOL     OW 7264   6.404   4.181   5.293
 2122SOL    HW1 7265   6.475   4.121   5.331
 2122SOL    HW2 7266   6.445   4.268   5.266
 2123SOL     OW 7267   0.561   4.414   2.753
 2123SOL    HW1 7268   0.466   4.406   2.723
 2123SOL    HW2 7269   0.567   4.483   2.826
 2124SOL     OW 7270   2.204   1.163   1.655
 2124SOL    HW1 7271   2.271   1.186   1.584
 2124SOL    HW2 7272   2.197   1.063   1.663
 2125SOL     OW 7273   1.448   0.430   0.687
 2125SOL    HW1 7274   1.393   0.354   0.723
 2125SOL    HW2 7275   1.398   0.476   0.614
 2126SOL     OW 7276   2.913   0.709   1.224
 2126SOL    HW1 7277   2.886   0.625   1.177
 2126SOL    HW2 7278   2.874   0.711   1.316
 2127SOL     OW 7279   6.242   3.571   4.634
 2127SOL    HW1 7280   6.268   3.492   4.690
 2127SOL    HW2 7281   6.214   3.539   4.543
 2128SOL     OW 7282   0.142   4.510   4.326
 2128SOL    HW1 7283   0.128   4.567   4.407
 2128SOL    HW2 7284   0.088   4.426   4.334
 2129SOL     OW 7285   4.561   2.883   5.598
 2129SOL    HW1 7286   4.519   2.797   5.628
 2129SOL    HW2 7287   4.489   2.946   5.567
 2130SOL     OW 7288   4.773   6.834   2.566
 2130SOL    HW1 7289   4.770   6.838   2.666
 2130SOL    HW2 7290   4.839   6.900   2.532
 2131SOL     OW 7291   0.046   0.964   0.910
 2131SOL    HW1 7292   0.048   1.063   0.924
 2131SOL    HW2 7293   0.125   0.936   0.856
 2132SOL     OW 7294   4.194   2.861   1.316
 2132SOL    HW1 7295   4.284   2.876   1.357
 2132SOL    HW2 7296   4.173   2.763   1.318
 2133SOL     OW 7297   2.971   2.436   5.345
 2133SOL    HW1 7298   3.056   2.445   5.294
 2133SOL    HW2 7299   2.893   2.445   5.283
 2134SOL     OW 7300   0.168   2.202   0.801
 2134SOL    HW1 7301   0.171   2.163   0.894
 2134SOL    HW2 7302   0.258   2.240   0.778
 2135SOL     OW 7303   0.390   4.377   4.217
 2135SOL    HW1 7304   0.433   4.465   4.232
 2135SOL    HW2 7305   0.293   4.382   4.242
 2136SOL     OW 7306   2.692   5.046   2.502
 2136SOL    HW1 7307   2.653   5.136   2.484
 2136SOL    HW2 7308   2.792   5.052   2.502
 2137SOL     OW 7309   2.911   5.094   5.204
 2137SOL    HW1 7310   2.960   5.163   5.150
 2137SOL    HW2 7311   2.971   5.061   5.277
 2138SOL     OW 7312   6.309   0.934   2.883
 2138SOL    HW1 7313   6.396   0.965   2.922
 2138SOL    HW2 7314   6.327   0.883   2.799
 2139SOL     OW 7315   3.777   0.470   4.721
 2139SOL    HW1 7316   3.831   0.515   4.792
 2139SOL    HW2 7317   3.708   0.532   4.687
 2140SOL     OW 7318   3.329   6.885   4.483
 2140SOL    HW1 7319   3.384   6.904   4.402
 2140SOL    HW2 7320   3.239   6.928   4.473
 2141SOL     OW 7321   6.416   3.618   2.326
 2141SOL    HW1 7322   6.494   3.559   2.304
 2141SOL    HW2 7323   6.332   3.573   2.298
 2142SOL     OW 7324   1.064   1.878   3.465
 2142SOL    HW1 7325   1.023   1.840   3.382
 2142SOL    HW2 7326   1.161   1.896   3.449
 2143SOL     OW 7327   1.924   5.367   0.951
 2143SOL    HW1 7328   1.839   5.345   1.000
 2143SOL    HW2 7329   1.904   5.377   0.853
 2144SOL     OW 7330   0.352   5.092   4.232
 2144SOL    HW1 7331   0.440   5.102   4.187
 2144SOL    HW2 7332   0.290   5.165   4.200
 2145SOL     OW 7333   3.919   6.718   4.179
 2145SOL    HW1 7334   3.960   6.802   4.215
 2145SOL    HW2 7335   3.849   6.686   4.243
 2146SOL     OW 7336   1.859   2.186   1.133
 2146SOL    HW1 7337   1.868   2.252   1.058
 2146SOL    HW2 7338   1.932   2.201   1.200
 2147SOL     OW 7339   6.732   1.554   6.355
 2147SOL    HW1 7340   6.798   1.481   6.367
 2147SOL    HW2 7341   6.655   1.522   6.300
 2148SOL     OW 7342   6.851   3.287   6.135
 2148SOL    HW1 7343   6.884   3.197   6.162
 2148SOL    HW2 7344   6.757   3.299   6.167
 2149SOL     OW 7345   1.469   1.560   1.240
 2149SOL    HW1 7346   1.559   1.548   1.199
 2149SOL    HW2 7347   1.401   1.510   1.186
 2150SOL     OW 7348   2.679   2.562   1.796
 2150SOL    HW1 7349   2.613   2.531   1.864
 2150SOL    HW2 7350   2.765   2.513   1.808
 2151SOL     OW 7351   1.042   6.131   6.821
 2151SOL    HW1 7352   1.089   6.051   6.784
 2151SOL    HW2 7353   1.053   6.208   6.758
 2152SOL     OW 7354   3.707   4.918   2.462
 2152SOL    HW1 7355   3.729   4.881   2.371
 2152SOL    HW2 7356   3.610   4.903   2.481
 2153SOL     OW 7357   4.845   1.815   2.529
 2153SOL    HW1 7358   4.902   1.850   2.603
 2153SOL    HW2 7359   4.839   1.883   2.456
 2154SOL     OW 7360   2.847   0.013   4.027
 2154SOL    HW1 7361   2.864   6.973   3.955
 2154SOL    HW2 7362   2.923   0.078   4.032
 2155SOL     OW 7363   4.057   6.800   1.082
 2155SOL    HW1 7364   4.133   6.739   1.103
 2155SOL    HW2 7365   4.070   6.840   0.991
 2156SOL     OW 7366   6.737   0.492   4.420
 2156SOL    HW1 7367   6.711   0.419   4.482
 2156SOL    HW2 7368   6.768   0.571   4.473
 2157SOL     OW 7369   4.882   5.837   3.741
 2157SOL    HW1 7370   4.807   5.895   3.772
 2157SOL    HW2 7371   4.969   5.871   3.779
 2158SOL     OW 7372   4.260   6.450   0.853
 2158SOL    HW1 7373   4.268   6.516   0.779
 2158SOL    HW2 7374   4.217   6.366   0.819
 2159SOL     OW 7375   1.851   0.632   5.083
 2159SOL    HW1 7376   1.770   0.575   5.098
 2159SOL    HW2 7377   1.852   0.707   5.149
 2160SOL     OW 7378   5.096   4.999   6.431
 2160SOL    HW1 7379   5.135   4.981   6.341
 2160SOL    HW2 7380   5.108   4.918   6.489
 2161SOL     OW 7381   6.765   4.057   2.250
 2161SOL    HW1 7382   6.834   3.985   2.237
 2161SOL    HW2 7383   6.787   4.135   2.191
 2162SOL     OW 7384   2.822   0.029   2.937
 2162SOL    HW1 7385   2.785   0.107   2.988
 2162SOL    HW2 7386   2.814   6.972   2.991
 2163SOL     OW 7387   1.736   3.893   0.384
 2163SOL    HW1 7388   1.718   3.832   0.461
 2163SOL    HW2 7389   1.743   3.840   0.300
 2164SOL     OW 7390   2.400   2.721   6.964
 2164SOL    HW1 7391   2.315   2.767   6.940
 2164SOL    HW2 7392   2.478   2.781   6.943
 2165SOL     OW 7393   0.754   1.799   4.055
 2165SOL    HW1 7394   0.679   1.835   3.999
 2165SOL    HW2 7395   0.841   1.818   4.009
 2166SOL     OW 7396   0.180   4.215   4.005
 2166SOL    HW1 7397   0.183   4.314   4.012
 2166SOL    HW2 7398   0.273   4.179   4.000
 2167SOL     OW 7399   0.704   2.855   3.859
 2167SOL    HW1 7400   0.673   2.776   3.912
 2167SOL    HW2 7401   0.713   2.831   3.763
 2168SOL     OW 7402   0.786   1.912   2.495
 2168SOL    HW1 7403   0.696   1.887   2.461
 2168SOL    HW2 7404   0.856   1.859   2.446
 2169SOL     OW 7405   0.102   0.235   0.937
 2169SOL    HW1 7406   0.030   0.203   0.999
 2169SOL    HW2 7407   0.156   0.157   0.905
 2170SOL     OW 7408   6.985   4.268   4.348
 2170SOL    HW1 7409   7.011   4.199   4.281
 2170SOL    HW2 7410   6.972   4.225   4.437
 2171SOL     OW 7411   0.755   5.986   1.479
 2171SOL    HW1 7412   0.797   6.077   1.481
 2171SOL    HW2 7413   0.754   5.952   1.386
 2172SOL     OW 7414   2.214   1.751   5.827
 2172SOL    HW1 7415   2.185   1.827   5.884
 2172SOL    HW2 7416   2.308   1.767   5.796
 2173SOL     OW 7417   5.119   0.273   5.941
 2173SOL    HW1 7418   5.094   0.361   5.983
 2173SOL    HW2 7419   5.085   0.271   5.847
 2174SOL     OW 7420   6.912   6.565   4.970
 2174SOL    HW1 7421   6.984   6.635   4.978
 2174SOL    HW2 7422   6.954   6.475   4.960
 2175SOL     OW 7423   1.942   2.538   4.872
 2175SOL    HW1 7424   1.930   2.470   4.799
 2175SOL    HW2 7425   2.030   2.584   4.860
 2176SOL     OW 7426   5.089   2.206   1.219
 2176SOL    HW1 7427   5.046   2.294   1.199
 2176SOL    HW2 7428   5.031   2.132   1.184
 2177SOL     OW 7429   6.316   0.334   2.062
 2177SOL    HW1 7430   6.227   0.288   2.048
 2177SOL    HW2 7431   6.333   0.397   1.986
 2178SOL     OW 7432   1.171   1.180   2.120
 2178SOL    HW1 7433   1.193   1.094   2.166
 2178SOL    HW2 7434   1.250   1.241   2.123
 2179SOL     OW 7435   1.799   3.073   6.237
 2179SOL    HW1 7436   1.774   3.155   6.288
 2179SOL    HW2 7437   1.875   3.094   6.176
 2180SOL     OW 7438   1.626   3.144   2.107
 2180SOL    HW1 7439   1.609   3.185   2.197
 2180SOL    HW2 7440   1.702   3.191   2.063
 2181SOL     OW 7441   4.628   5.032   4.147
 2181SOL    HW1 7442   4.615   5.062   4.053
 2181SOL    HW2 7443   4.682   5.100   4.197
 2182SOL     OW 7444   0.931   4.834   3.725
 2182SOL    HW1 7445   0.968   4.764   3.664
 2182SOL    HW2 7446   0.845   4.803   3.764
 2183SOL     OW 7447   2.525   3.933   0.530
 2183SOL    HW1 7448   2.492   3.965   0.619
 2183SOL    HW2 7449   2.447   3.906   0.474
 2184SOL     OW 7450   4.274   0.186   6.243
 2184SOL    HW1 7451   4.373   0.180   6.233
 2184SOL    HW2 7452   4.231   0.161   6.156
 2185SOL     OW 7453   1.373   0.817   6.884
 2185SOL    HW1 7454   1.424   0.734   6.860
 2185SOL    HW2 7455   1.343   0.863   6.800
 2186SOL     OW 7456   6.250   5.917   6.153
 2186SOL    HW1 7457   6.227   5.900   6.058
 2186SOL    HW2 7458   6.294   5.836   6.192
 2187SOL     OW 7459   7.015   6.133   2.397
 2187SOL    HW1 7460   7.017   6.226   2.358
 2187SOL    HW2 7461   0.051   6.074   2.345
 2188SOL     OW 7462   2.023   5.181   5.577
 2188SOL    HW1 7463   2.023   5.229   5.489
 2188SOL    HW2 7464   1.973   5.236   5.645
 2189SOL     OW 7465   1.641   0.389   2.149
 2189SOL    HW1 7466   1.613   0.355   2.059
 2189SOL    HW2 7467   1.571   0.450   2.186
 2190SOL     OW 7468   6.560   3.691   1.919
 2190SOL    HW1 7469   6.515   3.744   1.846
 2190SOL    HW2 7470   6.574   3.750   1.998
 2191SOL     OW 7471   2.739   1.310   5.534
 2191SOL    HW1 7472   2.782   1.375   5.472
 2191SOL    HW2 7473   2.736   1.220   5.490
 2192SOL     OW 7474   5.361   0.244   2.664
 2192SOL    HW1 7475   5.396   0.185   2.736
 2192SOL    HW2 7476   5.274   0.208   2.630
 2193SOL     OW 7477   6.636   0.295   5.991
 2193SOL    HW1 7478   6.584   0.255   5.915
 2193SOL    HW2 7479   6.685   0.223   6.039
 2194SOL     OW 7480   0.760   4.057   5.974
 2194SOL    HW1 7481   0.858   4.063   5.991
 2194SOL    HW2 7482   0.713   4.022   6.055
 2195SOL     OW 7483   0.131   6.553   5.445
 2195SOL    HW1 7484   0.099   6.529   5.353
 2195SOL    HW2 7485   0.065   6.616   5.487
 2196SOL     OW 7486   3.449   6.894   5.212
 2196SOL    HW1 7487   3.373   6.886   5.147
 2196SOL    HW2 7488   3.529   6.846   5.176
 2197SOL     OW 7489   2.988   3.493   6.449
 2197SOL    HW1 7490   2.945   3.516   6.536
 2197SOL    HW2 7491   3.013   3.577   6.401
 2198SOL     OW 7492   6.324   6.906   0.856
 2198SOL    HW1 7493   6.238   6.897   0.806
 2198SOL    HW2 7494   6.397   6.862   0.804
 2199SOL     OW 7495   5.221   0.395   5.023
 2199SOL    HW1 7496   5.238   0.486   4.985
 2199SOL    HW2 7497   5.308   0.345   5.031
 2200SOL     OW 7498   2.463   1.639   3.922
 2200SOL    HW1 7499   2.436   1.656   3.827
 2200SOL    HW2 7500   2.414   1.702   3.982
 2201SOL     OW 7501   6.210   3.060   3.049
 2201SOL    HW1 7502   6.302   3.093   3.067
 2201SOL    HW2 7503   6.214   2.963   3.023
 2202SOL     OW 7504   3.361   5.520   2.282
 2202SOL    HW1 7505   3.265   5.512   2.307
 2202SOL    HW2 7506   3.370   5.576   2.200
 2203SOL     OW 7507   2.738   3.512   1.500
 2203SOL    HW1 7508   2.741   3.417   1.472
 2203SOL    HW2 7509   2.653   3.530   1.550
 2204SOL     OW 7510   4.560   2.686   0.514
 2204SOL    HW1 7511   4.604   2.772   0.490
 2204SOL    HW2 7512   4.531   2.690   0.610
 2205SOL     OW 7513   1.534   0.064   0.234
 2205SOL    HW1 7514   1.512   0.056   0.331
 2205SOL    HW2 7515   1.515   7.003   0.188
 2206SOL     OW 7516   2.236   4.424   6.324
 2206SOL    HW1 7517   2.333   4.439   6.344
 2206SOL    HW2 7518   2.226   4.344   6.265
 2207SOL     OW 7519   3.581   4.711   0.244
 2207SOL    HW1 7520   3.588   4.611   0.252
 2207SOL    HW2 7521   3.506   4.734   0.182
 2208SOL     OW 7522   0.515   5.292   2.904
 2208SOL    HW1 7523   0.467   5.365   2.855
 2208SOL    HW2 7524   0.612   5.295   2.881
 2209SOL     OW 7525   2.891   6.153   4.638
 2209SOL    HW1 7526   2.819   6.171   4.704
 2209SOL    HW2 7527   2.892   6.055   4.616
 2210SOL     OW 7528   6.537   5.569   2.993
 2210SOL    HW1 7529   6.595   5.558   3.074
 2210SOL    HW2 7530   6.561   5.654   2.946
 2211SOL     OW 7531   6.560   0.635   0.545
 2211SOL    HW1 7532   6.629   0.699   0.513
 2211SOL    HW2 7533   6.471   0.658   0.505
 2212SOL     OW 7534   1.943   5.326   0.000
 2212SOL    HW1 7535   1.999   5.343   0.081
 2212SOL    HW2 7536   1.955   5.400   6.960
 2213SOL     OW 7537   4.470   2.643   5.660
 2213SOL    HW1 7538   4.518   2.557   5.678
 2213SOL    HW2 7539   4.374   2.623   5.641
 2214SOL     OW 7540   2.986   3.515   4.855
 2214SOL    HW1 7541   2.969   3.420   4.828
 2214SOL    HW2 7542   2.994   3.520   4.955
 2215SOL     OW 7543   6.004   1.612   6.321
 2215SOL    HW1 7544   5.945   1.544   6.278
 2215SOL    HW2 7545   5.975   1.627   6.415
 2216SOL     OW 7546   7.009   0.531   5.831
 2216SOL    HW1 7547   6.922   0.551   5.876
 2216SOL    HW2 7548   7.009   0.568   5.739
 2217SOL     OW 7549   4.425   6.904   2.874
 2217SOL    HW1 7550   4.440   7.000   2.852
 2217SOL    HW2 7551   4.327   6.884   2.870
 2218SOL     OW 7552   6.964   4.933   6.718
 2218SOL    HW1 7553   6.893   4.867   6.744
 2218SOL    HW2 7554   6.931   5.026   6.735
 2219SOL     OW 7555   6.405   2.335   1.075
 2219SOL    HW1 7556   6.343   2.259   1.095
 2219SOL    HW2 7557   6.352   2.417   1.055
 2220SOL     OW 7558   1.422   5.605   5.409
 2220SOL    HW1 7559   1.422   5.594   5.310
 2220SOL    HW2 7560   1.517   5.605   5.442
 2221SOL     OW 7561   6.608   1.712   5.214
 2221SOL    HW1 7562   6.569   1.804   5.228
 2221SOL    HW2 7563   6.602   1.661   5.299
 2222SOL     OW 7564   6.145   0.294   0.746
 2222SOL    HW1 7565   6.153   0.392   0.726
 2222SOL    HW2 7566   6.230   0.247   0.721
 2223SOL     OW 7567   6.281   1.621   6.394
 2223SOL    HW1 7568   6.188   1.608   6.359
 2223SOL    HW2 7569   6.277   1.667   6.483
 2224SOL     OW 7570   6.286   3.219   2.052
 2224SOL    HW1 7571   6.318   3.300   2.003
 2224SOL    HW2 7572   6.186   3.216   2.050
 2225SOL     OW 7573   6.644   6.708   3.422
 2225SOL    HW1 7574   6.678   6.615   3.417
 2225SOL    HW2 7575   6.715   6.771   3.391
 2226SOL     OW 7576   3.641   5.504   0.721
 2226SOL    HW1 7577   3.556   5.483   0.771
 2226SOL    HW2 7578   3.628   5.484   0.624
 2227SOL     OW 7579   5.050   2.706   1.708
 2227SOL    HW1 7580   4.981   2.647   1.667
 2227SOL    HW2 7581   5.006   2.790   1.742
 2228SOL     OW 7582   3.966   5.266   0.384
 2228SOL    HW1 7583   3.944   5.191   0.446
 2228SOL    HW2 7584   4.047   5.314   0.418
 2229SOL     OW 7585   3.831   3.227   4.991
 2229SOL    HW1 7586   3.770   3.217   5.069
 2229SOL    HW2 7587   3.844   3.138   4.946
 2230SOL     OW 7588   5.561   6.351   0.963
 2230SOL    HW1 7589   5.491   6.302   1.014
 2230SOL    HW2 7590   5.651   6.330   1.000
 2231SOL     OW 7591   0.714   0.625   0.071
 2231SOL    HW1 7592   0.671   0.538   0.048
 2231SOL    HW2 7593   0.814   0.614   0.073
 2232SOL     OW 7594   1.027   1.594   5.098
 2232SOL    HW1 7595   1.055   1.630   5.010
 2232SOL    HW2 7596   0.927   1.583   5.099
 2233SOL     OW 7597   2.703   3.066   0.926
 2233SOL    HW1 7598   2.686   2.978   0.881
 2233SOL    HW2 7599   2.773   3.054   0.997
 2234SOL     OW 7600   3.420   1.368   0.682
 2234SOL    HW1 7601   3.502   1.345   0.735
 2234SOL    HW2 7602   3.339   1.334   0.730
 2235SOL     OW 7603   2.733   0.104   1.819
 2235SOL    HW1 7604   2.795   0.042   1.865
 2235SOL    HW2 7605   2.663   0.051   1.770
 2236SOL     OW 7606   1.833   3.345   6.356
 2236SOL    HW1 7607   1.922   3.353   6.310
 2236SOL    HW2 7608   1.846   3.347   6.455
 2237SOL     OW 7609   6.131   4.838   4.426
 2237SOL    HW1 7610   6.098   4.762   4.481
 2237SOL    HW2 7611   6.188   4.803   4.351
 2238SOL     OW 7612   4.463   5.167   2.433
 2238SOL    HW1 7613   4.492   5.074   2.458
 2238SOL    HW2 7614   4.434   5.168   2.338
 2239SOL     OW 7615   4.807   6.012   3.988
 2239SOL    HW1 7616   4.767   6.077   4.053
 2239SOL    HW2 7617   4.905   6.002   4.007
 2240SOL     OW 7618   3.668   5.300   2.887
 2240SOL    HW1 7619   3.751   5.249   2.865
 2240SOL    HW2 7620   3.668   5.324   2.984
 2241SOL     OW 7621   6.633   6.363   1.917
 2241SOL    HW1 7622   6.556   6.426   1.910
 2241SOL    HW2 7623   6.619   6.303   1.996
 2242SOL     OW 7624   4.881   3.643   2.720
 2242SOL    HW1 7625   4.827   3.672   2.641
 2242SOL    HW2 7626   4.894   3.544   2.718
 2243SOL     OW 7627   2.202   6.800   6.952
 2243SOL    HW1 7628   2.167   6.888   6.920
 2243SOL    HW2 7629   2.282   6.815   7.009
 2244SOL     OW 7630   3.011   0.003   1.847
 2244SOL    HW1 7631   3.059   7.012   1.934
 2244SOL    HW2 7632   2.959   6.948   1.822
 2245SOL     OW 7633   0.567   1.755   1.363
 2245SOL    HW1 7634   0.482   1.764   1.416
 2245SOL    HW2 7635   0.607   1.665   1.379
 2246SOL     OW 7636   2.369   0.931   4.279
 2246SOL    HW1 7637   2.296   0.947   4.347
 2246SOL    HW2 7638   2.398   0.835   4.284
 2247SOL     OW 7639   2.921   3.430   3.227
 2247SOL    HW1 7640   2.822   3.442   3.223
 2247SOL    HW2 7641   2.942   3.340   3.265
 2248SOL     OW 7642   6.062   3.843   4.617
 2248SOL    HW1 7643   6.060   3.926   4.673
 2248SOL    HW2 7644   6.156   3.811   4.608
 2249SOL     OW 7645   5.167   6.645   3.991
 2249SOL    HW1 7646   5.156   6.743   3.975
 2249SOL    HW2 7647   5.261   6.627   4.020
 2250SOL     OW 7648   3.279   3.803   5.335
 2250SOL    HW1 7649   3.249   3.790   5.429
 2250SOL    HW2 7650   3.358   3.745   5.317
 2251SOL     OW 7651   4.956   0.391   6.521
 2251SOL    HW1 7652   4.928   0.296   6.506
 2251SOL    HW2 7653   5.033   0.413   6.461
 2252SOL     OW 7654   4.759   1.636   3.148
 2252SOL    HW1 7655   4.687   1.569   3.167
 2252SOL    HW2 7656   4.845   1.588   3.127
 2253SOL     OW 7657   6.980   3.289   0.090
 2253SOL    HW1 7658   0.033   3.238   0.123
 2253SOL    HW2 7659   6.897   3.253   0.135
 2254SOL     OW 7660   3.209   3.001   4.212
 2254SOL    HW1 7661   3.183   3.093   4.241
 2254SOL    HW2 7662   3.251   2.953   4.289
 2255SOL     OW 7663   3.492   3.638   5.794
 2255SOL    HW1 7664   3.572   3.586   5.823
 2255SOL    HW2 7665   3.502   3.734   5.821
 2256SOL     OW 7666   5.382   0.000   2.397
 2256SOL    HW1 7667   5.350   6.933   2.414
 2256SOL    HW2 7668   5.465   0.017   2.449
 2257SOL     OW 7669   0.416   1.569   4.265
 2257SOL    HW1 7670   0.469   1.651   4.245
 2257SOL    HW2 7671   0.407   1.559   4.364
 2258SOL     OW 7672   1.247   5.810   4.819
 2258SOL    HW1 7673   1.308   5.885   4.845
 2258SOL    HW2 7674   1.298   5.743   4.766
 2259SOL     OW 7675   5.576   2.662   5.428
 2259SOL    HW1 7676   5.668   2.699   5.411
 2259SOL    HW2 7677   5.565   2.576   5.378
 2260SOL     OW 7678   0.299   3.632   0.878
 2260SOL    HW1 7679   0.294   3.555   0.941
 2260SOL    HW2 7680   0.210   3.678   0.874
 2261SOL     OW 7681   6.564   5.176   0.676
 2261SOL    HW1 7682   6.578   5.240   0.751
 2261SOL    HW2 7683   6.467   5.168   0.656
 2262SOL     OW 7684   6.051   0.118   2.829
 2262SOL    HW1 7685   6.031   0.200   2.884
 2262SOL    HW2 7686   6.149   0.102   2.828
 2263SOL     OW 7687   2.451   6.123   0.326
 2263SOL    HW1 7688   2.437   6.162   0.235
 2263SOL    HW2 7689   2.370   6.072   0.354
 2264SOL     OW 7690   3.025   6.221   6.358
 2264SOL    HW1 7691   3.026   6.287   6.433
 2264SOL    HW2 7692   3.119   6.200   6.331
 2265SOL     OW 7693   1.907   0.926   4.297
 2265SOL    HW1 7694   2.004   0.947   4.311
 2265SOL    HW2 7695   1.888   0.833   4.328
 2266SOL     OW 7696   5.174   1.963   6.319
 2266SOL    HW1 7697   5.177   2.023   6.239
 2266SOL    HW2 7698   5.195   1.869   6.290
 2267SOL     OW 7699   5.021   3.157   5.195
 2267SOL    HW1 7700   5.037   3.183   5.290
 2267SOL    HW2 7701   5.020   3.057   5.187
 2268SOL     OW 7702   5.928   4.450   6.417
 2268SOL    HW1 7703   5.841   4.432   6.371
 2268SOL    HW2 7704   5.911   4.504   6.499
 2269SOL     OW 7705   0.668   3.651   5.230
 2269SOL    HW1 7706   0.635   3.704   5.151
 2269SOL    HW2 7707   0.621   3.682   5.313
 2270SOL     OW 7708   4.190   2.842   5.922
 2270SOL    HW1 7709   4.253   2.772   5.887
 2270SOL    HW2 7710   4.194   2.923   5.863
 2271SOL     OW 7711   5.573   4.587   7.011
 2271SOL    HW1 7712   5.611   4.552   0.069
 2271SOL    HW2 7713   5.541   4.681   7.025
 2272SOL     OW 7714   5.702   0.957   6.809
 2272SOL    HW1 7715   5.719   0.979   6.905
 2272SOL    HW2 7716   5.643   1.027   6.769
 2273SOL     OW 7717   1.493   1.964   2.267
 2273SOL    HW1 7718   1.458   1.948   2.175
 2273SOL    HW2 7719   1.585   1.925   2.274
 2274SOL     OW 7720   0.413   1.673   6.481
 2274SOL    HW1 7721   0.329   1.674   6.533
 2274SOL    HW2 7722   0.460   1.586   6.495
 2275SOL     OW 7723   6.351   6.923   3.262
 2275SOL    HW1 7724   6.419   6.884   3.200
 2275SOL    HW2 7725   6.398   6.976   3.333
 2276SOL     OW 7726   2.267   5.510   1.856
 2276SOL    HW1 7727   2.313   5.460   1.930
 2276SOL    HW2 7728   2.176   5.472   1.842
 2277SOL     OW 7729   3.605   4.147   4.432
 2277SOL    HW1 7730   3.560   4.127   4.344
 2277SOL    HW2 7731   3.699   4.114   4.430
 2278SOL     OW 7732   5.919   3.095   4.207
 2278SOL    HW1 7733   5.905   3.007   4.253
 2278SOL    HW2 7734   5.897   3.085   4.110
 2279SOL     OW 7735   6.044   0.283   5.140
 2279SOL    HW1 7736   5.960   0.229   5.135
 2279SOL    HW2 7737   6.097   0.256   5.221
 2280SOL     OW 7738   6.603   6.896   4.451
 2280SOL    HW1 7739   6.507   6.904   4.478
 2280SOL    HW2 7740   6.662   6.933   4.523
 2281SOL     OW 7741   3.815   0.642   1.917
 2281SOL    HW1 7742   3.717   0.650   1.935
 2281SOL    HW2 7743   3.846   0.551   1.943
 2282SOL     OW 7744   5.375   6.565   5.479
 2282SOL    HW1 7745   5.403   6.559   5.383
 2282SOL    HW2 7746   5.296   6.506   5.494
 2283SOL     OW 7747   1.902   7.013   1.758
 2283SOL    HW1 7748   1.935   0.015   1.848
 2283SOL    HW2 7749   1.887   6.914   1.758
 2284SOL     OW 7750   1.282   3.397   6.560
 2284SOL    HW1 7751   1.364   3.367   6.608
 2284SOL    HW2 7752   1.296   3.390   6.461
 2285SOL     OW 7753   1.217   2.824   0.441
 2285SOL    HW1 7754   1.241   2.911   0.398
 2285SOL    HW2 7755   1.129   2.834   0.489
 2286SOL     OW 7756   5.674   0.194   3.331
 2286SOL    HW1 7757   5.725   0.164   3.251
 2286SOL    HW2 7758   5.582   0.222   3.303
 2287SOL     OW 7759   2.135   0.277   3.595
 2287SOL    HW1 7760   2.159   0.234   3.682
 2287SOL    HW2 7761   2.167   0.372   3.596
 2288SOL     OW 7762   5.920   5.135   3.992
 2288SOL    HW1 7763   5.947   5.230   3.975
 2288SOL    HW2 7764   5.928   5.082   3.907
 2289SOL     OW 7765   6.908   5.118   0.834
 2289SOL    HW1 7766   6.842   5.044   0.848
 2289SOL    HW2 7767   6.991   5.081   0.793
 2290SOL     OW 7768   0.598   3.746   1.248
 2290SOL    HW1 7769   0.555   3.739   1.158
 2290SOL    HW2 7770   0.697   3.760   1.237
 2291SOL     OW 7771   2.403   2.444   5.700
 2291SOL    HW1 7772   2.332   2.380   5.672
 2291SOL    HW2 7773   2.368   2.505   5.771
 2292SOL     OW 7774   1.040   1.837   4.393
 2292SOL    HW1 7775   1.077   1.842   4.486
 2292SOL    HW2 7776   0.960   1.778   4.392
 2293SOL     OW 7777   4.950   6.508   1.545
 2293SOL    HW1 7778   4.882   6.494   1.617
 2293SOL    HW2 7779   4.999   6.593   1.562
 2294SOL     OW 7780   2.973   0.798   0.379
 2294SOL    HW1 7781   2.983   0.740   0.298
 2294SOL    HW2 7782   2.957   0.892   0.351
 2295SOL     OW 7783   0.478   1.882   2.659
 2295SOL    HW1 7784   0.396   1.879   2.715
 2295SOL    HW2 7785   0.453   1.877   2.562
 2296SOL     OW 7786   3.719   5.833   0.459
 2296SOL    HW1 7787   3.700   5.927   0.432
 2296SOL    HW2 7788   3.641   5.775   0.433
 2297SOL     OW 7789   3.660   4.294   5.131
 2297SOL    HW1 7790   3.718   4.321   5.055
 2297SOL    HW2 7791   3.673   4.197   5.151
 2298SOL     OW 7792   4.104   2.893   1.690
 2298SOL    HW1 7793   4.027   2.864   1.747
 2298SOL    HW2 7794   4.153   2.966   1.737
 2299SOL     OW 7795   5.083   6.913   6.364
 2299SOL    HW1 7796   5.153   6.945   6.300
 2299SOL    HW2 7797   5.105   6.820   6.393
 2300SOL     OW 7798   2.809   4.479   1.605
 2300SOL    HW1 7799   2.825   4.466   1.703
 2300SOL    HW2 7800   2.789   4.575   1.586
 2301SOL     OW 7801   3.009   3.191   3.418
 2301SOL    HW1 7802   3.059   3.147   3.344
 2301SOL    HW2 7803   3.041   3.156   3.506
 2302SOL     OW 7804   3.680   6.747   1.639
 2302SOL    HW1 7805   3.588   6.785   1.641
 2302SOL    HW2 7806   3.710   6.726   1.732
 2303SOL     OW 7807   1.991   3.395   6.604
 2303SOL    HW1 7808   1.952   3.442   6.683
 2303SOL    HW2 7809   2.087   3.422   6.594
 2304SOL     OW 7810   3.175   0.207   3.293
 2304SOL    HW1 7811   3.113   0.215   3.215
 2304SOL    HW2 7812   3.234   0.288   3.297
 2305SOL     OW 7813   2.862   6.314   2.841
 2305SOL    HW1 7814   2.829   6.378   2.772
 2305SOL    HW2 7815   2.796   6.239   2.850
 2306SOL     OW 7816   2.270   5.041   1.938
 2306SOL    HW1 7817   2.266   5.135   1.906
 2306SOL    HW2 7818   2.269   4.979   1.859
 2307SOL     OW 7819   1.659   3.586   2.361
 2307SOL    HW1 7820   1.634   3.610   2.455
 2307SOL    HW2 7821   1.756   3.562   2.356
 2308SOL     OW 7822   1.704   6.650   0.102
 2308SOL    HW1 7823   1.667   6.610   0.018
 2308SOL    HW2 7824   1.801   6.669   0.089
 2309SOL     OW 7825   3.298   6.646   6.967
 2309SOL    HW1 7826   3.326   6.650   6.871
 2309SOL    HW2 7827   3.207   6.606   6.974
 2310SOL     OW 7828   5.734   6.219   1.893
 2310SOL    HW1 7829   5.826   6.193   1.921
 2310SOL    HW2 7830   5.668   6.183   1.959
 2311SOL     OW 7831   2.453   6.229   2.597
 2311SOL    HW1 7832   2.547   6.213   2.568
 2311SOL    HW2 7833   2.438   6.184   2.685
 2312SOL     OW 7834   3.954   6.304   4.185
 2312SOL    HW1 7835   3.859   6.331   4.199
 2312SOL    HW2 7836   4.000   6.374   4.131
 2313SOL     OW 7837   5.286   5.402   2.102
 2313SOL    HW1 7838   5.224   5.478   2.119
 2313SOL    HW2 7839   5.296   5.389   2.003
 2314SOL     OW 7840   5.422   0.803   4.429
 2314SOL    HW1 7841   5.440   0.724   4.488
 2314SOL    HW2 7842   5.490   0.804   4.355
 2315SOL     OW 7843   5.118   3.584   5.136
 2315SOL    HW1 7844   5.150   3.678   5.148
 2315SOL    HW2 7845   5.026   3.585   5.098
 2316SOL     OW 7846   3.158   0.438   4.601
 2316SOL    HW1 7847   3.134   0.531   4.628
 2316SOL    HW2 7848   3.083   0.376   4.626
 2317SOL     OW 7849   6.557   6.180   3.173
 2317SOL    HW1 7850   6.471   6.204   3.130
 2317SOL    HW2 7851   6.633   6.204   3.112
 2318SOL     OW 7852   2.171   3.322   4.141
 2318SOL    HW1 7853   2.263   3.355   4.164
 2318SOL    HW2 7854   2.126   3.388   4.081
 2319SOL     OW 7855   2.972   5.358   4.756
 2319SOL    HW1 7856   2.884   5.310   4.746
 2319SOL    HW2 7857   3.005   5.348   4.850
 2320SOL     OW 7858   1.449   2.404   5.395
 2320SOL    HW1 7859   1.373   2.441   5.342
 2320SOL    HW2 7860   1.422   2.394   5.491
 2321SOL     OW 7861   1.636   5.211   0.387
 2321SOL    HW1 7862   1.551   5.262   0.400
 2321SOL    HW2 7863   1.676   5.234   0.299
 2322SOL     OW 7864   1.876   4.375   2.882
 2322SOL    HW1 7865   1.853   4.322   2.801
 2322SOL    HW2 7866   1.860   4.472   2.866
 2323SOL     OW 7867   3.261   4.841   1.745
 2323SOL    HW1 7868   3.282   4.747   1.717
 2323SOL    HW2 7869   3.309   4.861   1.831
 2324SOL     OW 7870   6.599   5.812   0.412
 2324SOL    HW1 7871   6.557   5.868   0.483
 2324SOL    HW2 7872   6.535   5.742   0.382
 2325SOL     OW 7873   0.650   4.345   1.407
 2325SOL    HW1 7874   0.716   4.301   1.468
 2325SOL    HW2 7875   0.606   4.275   1.351
 2326SOL     OW 7876   1.946   6.670   6.923
 2326SOL    HW1 7877   1.938   6.577   6.886
 2326SOL    HW2 7878   2.042   6.698   6.926
 2327SOL     OW 7879   6.912   1.532   3.817
 2327SOL    HW1 7880   6.904   1.490   3.907
 2327SOL    HW2 7881   6.865   1.620   3.816
 2328SOL     OW 7882   1.749   1.369   2.964
 2328SOL    HW1 7883   1.723   1.300   3.031
 2328SOL    HW2 7884   1.847   1.385   2.967
 2329SOL     OW 7885   1.249   3.893   4.825
 2329SOL    HW1 7886   1.306   3.953   4.882
 2329SOL    HW2 7887   1.247   3.928   4.732
 2330SOL     OW 7888   0.462   2.759   1.412
 2330SOL    HW1 7889   0.525   2.762   1.489
 2330SOL    HW2 7890   0.438   2.852   1.385
 2331SOL     OW 7891   4.053   5.289   0.013
 2331SOL    HW1 7892   4.115   5.272   0.090
 2331SOL    HW2 7893   3.996   5.369   0.033
 2332SOL     OW 7894   6.622   0.327   5.384
 2332SOL    HW1 7895   6.718   0.305   5.400
 2332SOL    HW2 7896   6.607   0.338   5.286
 2333SOL     OW 7897   0.406   3.881   3.356
 2333SOL    HW1 7898   0.487   3.914   3.308
 2333SOL    HW2 7899   0.352   3.824   3.294
 2334SOL     OW 7900   1.886   0.818   6.452
 2334SOL    HW1 7901   1.943   0.841   6.373
 2334SOL    HW2 7902   1.944   0.787   6.527
 2335SOL     OW 7903   6.364   0.949   4.234
 2335SOL    HW1 7904   6.404   0.970   4.145
 2335SOL    HW2 7905   6.299   1.020   4.260
 2336SOL     OW 7906   3.775   1.501   4.359
 2336SOL    HW1 7907   3.704   1.479   4.426
 2336SOL    HW2 7908   3.740   1.482   4.267
 2337SOL     OW 7909   4.047   0.122   1.655
 2337SOL    HW1 7910   4.086   0.208   1.623
 2337SOL    HW2 7911   4.019   0.067   1.576
 2338SOL     OW 7912   0.638   2.706   5.117
 2338SOL    HW1 7913   0.711   2.646   5.086
 2338SOL    HW2 7914   0.609   2.680   5.209
 2339SOL     OW 7915   2.950   3.754   3.202
 2339SOL    HW1 7916   2.864   3.782   3.159
 2339SOL    HW2 7917   2.932   3.717   3.292
 2340SOL     OW 7918   6.692   4.410   6.398
 2340SOL    HW1 7919   6.619   4.418   6.466
 2340SOL    HW2 7920   6.684   4.322   6.351
 2341SOL     OW 7921   3.083   4.784   2.089
 2341SOL    HW1 7922   3.164   4.771   2.031
 2341SOL    HW2 7923   3.012   4.719   2.061
 2342SOL     OW 7924   0.861   6.630   5.800
 2342SOL    HW1 7925   0.885   6.721   5.833
 2342SOL    HW2 7926   0.934   6.594   5.743
 2343SOL     OW 7927   1.627   5.372   2.949
 2343SOL    HW1 7928   1.644   5.337   2.857
 2343SOL    HW2 7929   1.678   5.317   3.016
 2344SOL     OW 7930   1.274   5.708   6.844
 2344SOL    HW1 7931   1.288   5.633   6.779
 2344SOL    HW2 7932   1.362   5.732   6.886
 2345SOL     OW 7933   3.203   5.718   5.211
 2345SOL    HW1 7934   3.110   5.735   5.243
 2345SOL    HW2 7935   3.213   5.749   5.117
 2346SOL     OW 7936   3.777   3.670   5.187
 2346SOL    HW1 7937   3.689   3.664   5.235
 2346SOL    HW2 7938   3.778   3.604   5.112
 2347SOL     OW 7939   3.334   2.094   1.602
 2347SOL    HW1 7940   3.420   2.138   1.630
 2347SOL    HW2 7941   3.290   2.150   1.532
 2348SOL     OW 7942   2.564   6.940   4.059
 2348SOL    HW1 7943   2.544   6.875   3.986
 2348SOL    HW2 7944   2.661   6.965   4.056
 2349SOL     OW 7945   0.974   5.012   5.675
 2349SOL    HW1 7946   0.978   5.089   5.610
 2349SOL    HW2 7947   0.908   5.032   5.747
 2350SOL     OW 7948   6.268   6.858   6.065
 2350SOL    HW1 7949   6.356   6.829   6.027
 2350SOL    HW2 7950   6.222   6.778   6.105
 2351SOL     OW 7951   2.521   5.204   4.545
 2351SOL    HW1 7952   2.501   5.302   4.545
 2351SOL    HW2 7953   2.576   5.181   4.466
 2352SOL     OW 7954   0.692   4.207   2.578
 2352SOL    HW1 7955   0.643   4.120   2.566
 2352SOL    HW2 7956   0.644   4.263   2.646
 2353SOL     OW 7957   3.493   5.209   5.275
 2353SOL    HW1 7958   3.440   5.260   5.343
 2353SOL    HW2 7959   3.532   5.127   5.317
 2354SOL     OW 7960   2.616   1.714   5.339
 2354SOL    HW1 7961   2.584   1.673   5.254
 2354SOL    HW2 7962   2.610   1.814   5.333
 2355SOL     OW 7963   1.825   6.393   0.177
 2355SOL    HW1 7964   1.900   6.456   0.201
 2355SOL    HW2 7965   1.754   6.444   0.128
 2356SOL     OW 7966   0.896   3.692   6.297
 2356SOL    HW1 7967   0.851   3.738   6.220
 2356SOL    HW2 7968   0.879   3.593   6.290
 2357SOL     OW 7969   4.675   0.106   2.625
 2357SOL    HW1 7970   4.720   0.025   2.664
 2357SOL    HW2 7971   4.744   0.174   2.603
 2358SOL     OW 7972   3.742   5.143   4.905
 2358SOL    HW1 7973   3.816   5.165   4.969
 2358SOL    HW2 7974   3.780   5.100   4.823
 2359SOL     OW 7975   6.388   0.895   5.186
 2359SOL    HW1 7976   6.347   0.859   5.102
 2359SOL    HW2 7977   6.342   0.980   5.212
 2360SOL     OW 7978   5.313   3.908   0.242
 2360SOL    HW1 7979   5.313   3.822   0.192
 2360SOL    HW2 7980   5.238   3.966   0.210
 2361SOL     OW 7981   2.943   1.170   5.228
 2361SOL    HW1 7982   2.905   1.111   5.299
 2361SOL    HW2 7983   2.984   1.114   5.156
 2362SOL     OW 7984   2.566   6.578   4.176
 2362SOL    HW1 7985   2.469   6.591   4.153
 2362SOL    HW2 7986   2.592   6.483   4.160
 2363SOL     OW 7987   4.616   2.380   4.736
 2363SOL    HW1 7988   4.644   2.476   4.740
 2363SOL    HW2 7989   4.517   2.373   4.749
 2364SOL     OW 7990   0.928   2.112   2.753
 2364SOL    HW1 7991   0.852   2.119   2.688
 2364SOL    HW2 7992   0.905   2.162   2.836
 2365SOL     OW 7993   6.092   2.661   6.455
 2365SOL    HW1 7994   6.095   2.665   6.555
 2365SOL    HW2 7995   6.003   2.626   6.426
 2366SOL     OW 7996   2.338   5.193   6.411
 2366SOL    HW1 7997   2.346   5.201   6.510
 2366SOL    HW2 7998   2.316   5.099   6.386
 2367SOL     OW 7999   2.672   3.728   0.663
 2367SOL    HW1 8000   2.624   3.792   0.603
 2367SOL    HW2 8001   2.761   3.766   0.688
 2368SOL     OW 8002   3.984   0.472   4.126
 2368SOL    HW1 8003   3.949   0.382   4.099
 2368SOL    HW2 8004   3.990   0.531   4.046
 2369SOL     OW 8005   1.610   1.217   5.725
 2369SOL    HW1 8006   1.676   1.142   5.714
 2369SOL    HW2 8007   1.659   1.301   5.750
 2370SOL     OW 8008   4.893   3.125   0.085
 2370SOL    HW1 8009   4.933   3.208   0.123
 2370SOL    HW2 8010   4.828   3.148   0.013
 2371SOL     OW 8011   0.136   6.748   2.172
 2371SOL    HW1 8012   0.214   6.727   2.113
 2371SOL    HW2 8013   0.118   6.846   2.169
 2372SOL     OW 8014   0.300   2.782   2.726
 2372SOL    HW1 8015   0.275   2.750   2.818
 2372SOL    HW2 8016   0.220   2.775   2.666
 2373SOL     OW 8017   0.233   1.984   6.458
 2373SOL    HW1 8018   0.331   1.981   6.477
 2373SOL    HW2 8019   0.183   2.000   6.543
 2374SOL     OW 8020   5.811   1.406   3.719
 2374SOL    HW1 8021   5.857   1.356   3.793
 2374SOL    HW2 8022   5.716   1.422   3.745
 2375SOL     OW 8023   3.003   6.666   5.064
 2375SOL    HW1 8024   2.978   6.613   5.145
 2375SOL    HW2 8025   2.924   6.676   5.004
 2376SOL     OW 8026   6.872   2.668   4.472
 2376SOL    HW1 8027   6.928   2.720   4.407
 2376SOL    HW2 8028   6.862   2.574   4.439
 2377SOL     OW 8029   3.464   4.170   3.160
 2377SOL    HW1 8030   3.514   4.172   3.247
 2377SOL    HW2 8031   3.365   4.165   3.179
 2378SOL     OW 8032   5.176   1.305   0.344
 2378SOL    HW1 8033   5.220   1.369   0.407
 2378SOL    HW2 8034   5.245   1.246   0.302
 2379SOL     OW 8035   5.613   1.799   6.930
 2379SOL    HW1 8036   5.554   1.734   6.977
 2379SOL    HW2 8037   5.559   1.876   6.896
 2380SOL     OW 8038   1.121   0.957   0.246
 2380SOL    HW1 8039   1.024   0.973   0.264
 2380SOL    HW2 8040   1.172   1.042   0.260
 2381SOL     OW 8041   1.887   4.189   4.748
 2381SOL    HW1 8042   1.940   4.211   4.830
 2381SOL    HW2 8043   1.946   4.200   4.667
 2382SOL     OW 8044   2.181   4.084   4.249
 2382SOL    HW1 8045   2.264   4.140   4.241
 2382SOL    HW2 8046   2.101   4.143   4.254
 2383SOL     OW 8047   5.107   6.710   1.560
 2383SOL    HW1 8048   5.183   6.761   1.519
 2383SOL    HW2 8049   5.121   6.704   1.659
 2384SOL     OW 8050   5.459   0.869   2.911
 2384SOL    HW1 8051   5.406   0.901   2.833
 2384SOL    HW2 8052   5.410   0.892   2.996
 2385SOL     OW 8053   1.497   0.029   0.759
 2385SOL    HW1 8054   1.432   0.092   0.801
 2385SOL    HW2 8055   1.577   0.019   0.818
 2386SOL     OW 8056   5.994   5.831   4.406
 2386SOL    HW1 8057   6.044   5.913   4.434
 2386SOL    HW2 8058   5.996   5.824   4.306
 2387SOL     OW 8059   1.535   2.284   3.689
 2387SOL    HW1 8060   1.570   2.217   3.624
 2387SOL    HW2 8061   1.452   2.326   3.653
 2388SOL     OW 8062   0.618   2.431   4.804
 2388SOL    HW1 8063   0.639   2.380   4.721
 2388SOL    HW2 8064   0.568   2.514   4.781
 2389SOL     OW 8065   4.837   3.971   3.110
 2389SOL    HW1 8066   4.881   3.959   3.199
 2389SOL    HW2 8067   4.781   4.054   3.110
 2390SOL     OW 8068   3.812   2.939   3.154
 2390SOL    HW1 8069   3.774   2.966   3.243
 2390SOL    HW2 8070   3.860   3.016   3.113
 2391SOL     OW 8071   5.082   4.085   6.003
 2391SOL    HW1 8072   5.180   4.071   5.988
 2391SOL    HW2 8073   5.069   4.161   6.067
 2392SOL     OW 8074   4.590   6.640   5.115
 2392SOL    HW1 8075   4.570   6.542   5.114
 2392SOL    HW2 8076   4.505   6.692   5.124
 2393SOL     OW 8077   5.935   3.929   6.127
 2393SOL    HW1 8078   5.908   3.864   6.056
 2393SOL    HW2 8079   5.866   4.001   6.134
 2394SOL     OW 8080   1.166   2.712   4.518
 2394SOL    HW1 8081   1.223   2.735   4.597
 2394SOL    HW2 8082   1.188   2.774   4.443
 2395SOL     OW 8083   5.276   2.324   6.374
 2395SOL    HW1 8084   5.360   2.374   6.395
 2395SOL    HW2 8085   5.204   2.352   6.439
 2396SOL     OW 8086   3.684   5.137   1.256
 2396SOL    HW1 8087   3.586   5.123   1.272
 2396SOL    HW2 8088   3.714   5.221   1.301
 2397SOL     OW 8089   0.323   4.314   5.749
 2397SOL    HW1 8090   0.303   4.317   5.651
 2397SOL    HW2 8091   0.388   4.387   5.771
 2398SOL     OW 8092   2.960   3.353   0.135
 2398SOL    HW1 8093   2.874   3.322   0.176
 2398SOL    HW2 8094   2.992   3.435   0.181
 2399SOL     OW 8095   4.648   1.741   2.100
 2399SOL    HW1 8096   4.651   1.681   2.021
 2399SOL    HW2 8097   4.683   1.692   2.180
 2400SOL     OW 8098   3.055   3.999   0.684
 2400SOL    HW1 8099   3.148   4.024   0.658
 2400SOL    HW2 8100   3.028   4.050   0.766
 2401SOL     OW 8101   4.357   6.523   6.233
 2401SOL    HW1 8102   4.408   6.605   6.257
 2401SOL    HW2 8103   4.419   6.457   6.189
 2402SOL     OW 8104   6.695   0.630   3.828
 2402SOL    HW1 8105   6.623   0.583   3.777
 2402SOL    HW2 8106   6.778   0.636   3.772
 2403SOL     OW 8107   2.062   2.895   0.219
 2403SOL    HW1 8108   2.049   2.813   0.164
 2403SOL    HW2 8109   2.156   2.898   0.253
 2404SOL     OW 8110   3.509   0.967   1.237
 2404SOL    HW1 8111   3.575   0.997   1.306
 2404SOL    HW2 8112   3.514   0.867   1.227
 2405SOL     OW 8113   3.822   3.508   2.637
 2405SOL    HW1 8114   3.903   3.450   2.635
 2405SOL    HW2 8115   3.740   3.452   2.623
 2406SOL     OW 8116   2.751   6.499   2.665
 2406SOL    HW1 8117   2.750   6.598   2.647
 2406SOL    HW2 8118   2.781   6.451   2.583
 2407SOL     OW 8119   5.434   1.550   2.477
 2407SOL    HW1 8120   5.380   1.470   2.450
 2407SOL    HW2 8121   5.423   1.623   2.410
 2408SOL     OW 8122   3.676   4.892   3.156
 2408SOL    HW1 8123   3.708   4.899   3.062
 2408SOL    HW2 8124   3.746   4.846   3.211
 2409SOL     OW 8125   1.787   4.831   2.062
 2409SOL    HW1 8126   1.817   4.828   1.967
 2409SOL    HW2 8127   1.694   4.793   2.069
 2410SOL     OW 8128   4.235   2.787   5.545
 2410SOL    HW1 8129   4.252   2.877   5.584
 2410SOL    HW2 8130   4.141   2.759   5.562
 2411SOL     OW 8131   4.293   5.562   4.762
 2411SOL    HW1 8132   4.305   5.552   4.663
 2411SOL    HW2 8133   4.355   5.499   4.809
 2412SOL     OW 8134   4.939   5.132   1.053
 2412SOL    HW1 8135   5.015   5.073   1.029
 2412SOL    HW2 8136   4.969   5.228   1.049
 2413SOL     OW 8137   6.252   2.148   0.983
 2413SOL    HW1 8138   6.222   2.066   1.033
 2413SOL    HW2 8139   6.302   2.120   0.901
 2414SOL     OW 8140   4.816   4.552   2.751
 2414SOL    HW1 8141   4.859   4.467   2.783
 2414SOL    HW2 8142   4.719   4.550   2.774
 2415SOL     OW 8143   6.500   0.594   2.697
 2415SOL    HW1 8144   6.539   0.604   2.788
 2415SOL    HW2 8145   6.574   0.588   2.630
 2416SOL     OW 8146   4.371   2.266   5.574
 2416SOL    HW1 8147   4.404   2.186   5.525
 2416SOL    HW2 8148   4.382   2.348   5.518
 2417SOL     OW 8149   3.473   3.248   5.407
 2417SOL    HW1 8150   3.403   3.303   5.453
 2417SOL    HW2 8151   3.549   3.231   5.470
 2418SOL     OW 8152   3.082   3.242   4.281
 2418SOL    HW1 8153   3.019   3.273   4.210
 2418SOL    HW2 8154   3.035   3.239   4.369
 2419SOL     OW 8155   0.160   0.042   4.929
 2419SOL    HW1 8156   0.154   0.115   4.861
 2419SOL    HW2 8157   0.217   6.994   4.894
 2420SOL     OW 8158   2.991   0.955   2.548
 2420SOL    HW1 8159   3.000   0.889   2.473
 2420SOL    HW2 8160   3.000   1.048   2.512
 2421SOL     OW 8161   2.435   2.144   4.788
 2421SOL    HW1 8162   2.506   2.143   4.859
 2421SOL    HW2 8163   2.419   2.051   4.757
 2422SOL     OW 8164   5.585   1.566   0.881
 2422SOL    HW1 8165   5.581   1.498   0.808
 2422SOL    HW2 8166   5.681   1.591   0.897
 2423SOL     OW 8167   1.391   5.839   2.697
 2423SOL    HW1 8168   1.412   5.933   2.668
 2423SOL    HW2 8169   1.293   5.821   2.683
 2424SOL     OW 8170   6.030   0.437   6.124
 2424SOL    HW1 8171   6.119   0.466   6.159
 2424SOL    HW2 8172   5.964   0.511   6.134
 2425SOL     OW 8173   5.636   0.795   3.666
 2425SOL    HW1 8174   5.623   0.701   3.634
 2425SOL    HW2 8175   5.725   0.803   3.711
 2426SOL     OW 8176   1.079   6.117   5.058
 2426SOL    HW1 8177   1.011   6.182   5.025
 2426SOL    HW2 8178   1.070   6.031   5.007
 2427SOL     OW 8179   5.609   6.163   5.417
 2427SOL    HW1 8180   5.684   6.160   5.484
 2427SOL    HW2 8181   5.580   6.070   5.395
 2428SOL     OW 8182   6.318   0.129   2.278
 2428SOL    HW1 8183   6.410   0.160   2.253
 2428SOL    HW2 8184   6.250   0.191   2.240
 2429SOL     OW 8185   5.139   5.658   3.598
 2429SOL    HW1 8186   5.070   5.716   3.556
 2429SOL    HW2 8187   5.216   5.713   3.630
 2430SOL     OW 8188   5.597   1.288   1.489
 2430SOL    HW1 8189   5.690   1.294   1.524
 2430SOL    HW2 8190   5.538   1.243   1.557
 2431SOL     OW 8191   4.416   0.674   2.321
 2431SOL    HW1 8192   4.395   0.737   2.246
 2431SOL    HW2 8193   4.365   0.589   2.309
 2432SOL     OW 8194   3.243   6.206   2.705
 2432SOL    HW1 8195   3.185   6.187   2.784
 2432SOL    HW2 8196   3.225   6.298   2.671
 2433SOL     OW 8197   3.633   1.369   0.929
 2433SOL    HW1 8198   3.548   1.378   0.980
 2433SOL    HW2 8199   3.681   1.286   0.958
 2434SOL     OW 8200   3.500   1.090   5.683
 2434SOL    HW1 8201   3.449   1.175   5.672
 2434SOL    HW2 8202   3.515   1.049   5.593
 2435SOL     OW 8203   4.218   5.110   5.849
 2435SOL    HW1 8204   4.161   5.150   5.777
 2435SOL    HW2 8205   4.160   5.064   5.916
 2436SOL     OW 8206   1.274   5.446   0.543
 2436SOL    HW1 8207   1.254   5.353   0.573
 2436SOL    HW2 8208   1.338   5.443   0.466
 2437SOL     OW 8209   5.458   6.583   6.451
 2437SOL    HW1 8210   5.376   6.572   6.506
 2437SOL    HW2 8211   5.433   6.591   6.355
 2438SOL     OW 8212   3.272   0.946   6.951
 2438SOL    HW1 8213   3.253   0.853   6.981
 2438SOL    HW2 8214   3.351   0.982   7.000
 2439SOL     OW 8215   1.198   4.346   6.126
 2439SOL    HW1 8216   1.176   4.286   6.203
 2439SOL    HW2 8217   1.295   4.369   6.127
 2440SOL     OW 8218   4.718   6.437   5.954
 2440SOL    HW1 8219   4.718   6.402   5.860
 2440SOL    HW2 8220   4.740   6.534   5.953
 2441SOL     OW 8221   0.721   1.505   0.511
 2441SOL    HW1 8222   0.675   1.558   0.582
 2441SOL    HW2 8223   0.657   1.440   0.470
 2442SOL     OW 8224   0.731   3.196   5.916
 2442SOL    HW1 8225   0.816   3.185   5.864
 2442SOL    HW2 8226   0.745   3.265   5.987
 2443SOL     OW 8227   3.545   5.364   5.749
 2443SOL    HW1 8228   3.470   5.312   5.789
 2443SOL    HW2 8229   3.595   5.306   5.685
 2444SOL     OW 8230   2.853   4.520   6.808
 2444SOL    HW1 8231   2.786   4.591   6.786
 2444SOL    HW2 8232   2.915   4.508   6.731
 2445SOL     OW 8233   0.039   1.206   1.313
 2445SOL    HW1 8234   0.099   1.153   1.253
 2445SOL    HW2 8235   0.067   1.302   1.312
 2446SOL     OW 8236   6.358   4.530   3.913
 2446SOL    HW1 8237   6.438   4.565   3.963
 2446SOL    HW2 8238   6.359   4.566   3.820
 2447SOL     OW 8239   2.127   3.063   0.527
 2447SOL    HW1 8240   2.141   2.986   0.589
 2447SOL    HW2 8241   2.031   3.063   0.496
 2448SOL     OW 8242   0.276   0.732   4.694
 2448SOL    HW1 8243   0.216   0.804   4.659
 2448SOL    HW2 8244   0.222   0.666   4.745
 2449SOL     OW 8245   6.778   4.675   0.094
 2449SOL    HW1 8246   6.832   4.600   0.134
 2449SOL    HW2 8247   6.783   4.670   7.021
 2450SOL     OW 8248   2.401   4.462   2.965
 2450SOL    HW1 8249   2.345   4.544   2.948
 2450SOL    HW2 8250   2.497   4.484   2.948
 2451SOL     OW 8251   1.607   0.496   3.961
 2451SOL    HW1 8252   1.685   0.503   3.899
 2451SOL    HW2 8253   1.633   0.531   4.051
 2452SOL     OW 8254   1.932   3.443   2.844
 2452SOL    HW1 8255   1.960   3.435   2.939
 2452SOL    HW2 8256   1.970   3.366   2.791
 2453SOL     OW 8257   6.516   5.116   1.270
 2453SOL    HW1 8258   6.588   5.171   1.227
 2453SOL    HW2 8259   6.541   5.019   1.266
 2454SOL     OW 8260   3.327   0.969   1.996
 2454SOL    HW1 8261   3.252   1.014   2.044
 2454SOL    HW2 8262   3.363   1.030   1.925
 2455SOL     OW 8263   5.410   6.469   0.388
 2455SOL    HW1 8264   5.501   6.435   0.364
 2455SOL    HW2 8265   5.399   6.562   0.352
 2456SOL     OW 8266   5.265   6.717   2.242
 2456SOL    HW1 8267   5.203   6.653   2.197
 2456SOL    HW2 8268   5.245   6.720   2.340
 2457SOL     OW 8269   5.318   6.720   0.417
 2457SOL    HW1 8270   5.326   6.817   0.438
 2457SOL    HW2 8271   5.250   6.678   0.477
 2458SOL     OW 8272   2.445   5.714   3.555
 2458SOL    HW1 8273   2.518   5.685   3.493
 2458SOL    HW2 8274   2.360   5.726   3.503
 2459SOL     OW 8275   2.174   6.879   0.833
 2459SOL    HW1 8276   2.218   6.883   0.744
 2459SOL    HW2 8277   2.076   6.864   0.822
 2460SOL     OW 8278   2.295   6.844   1.952
 2460SOL    HW1 8279   2.298   6.749   1.923
 2460SOL    HW2 8280   2.203   6.867   1.983
 2461SOL     OW 8281   5.703   0.655   2.201
 2461SOL    HW1 8282   5.738   0.730   2.256
 2461SOL    HW2 8283   5.682   0.577   2.260
 2462SOL     OW 8284   2.791   5.197   0.630
 2462SOL    HW1 8285   2.738   5.164   0.552
 2462SOL    HW2 8286   2.805   5.296   0.621
 2463SOL     OW 8287   6.599   2.161   3.879
 2463SOL    HW1 8288   6.554   2.102   3.946
 2463SOL    HW2 8289   6.550   2.248   3.872
 2464SOL     OW 8290   0.828   4.524   1.043
 2464SOL    HW1 8291   0.757   4.531   0.973
 2464SOL    HW2 8292   0.809   4.446   1.102
 2465SOL     OW 8293   0.223   5.582   1.764
 2465SOL    HW1 8294   0.235   5.514   1.836
 2465SOL    HW2 8295   0.137   5.565   1.716
 2466SOL     OW 8296   4.742   1.545   2.496
 2466SOL    HW1 8297   4.792   1.631   2.496
 2466SOL    HW2 8298   4.651   1.559   2.458
 2467SOL     OW 8299   6.399   1.570   5.975
 2467SOL    HW1 8300   6.371   1.657   6.016
 2467SOL    HW2 8301   6.444   1.513   6.043
 2468SOL     OW 8302   6.880   6.176   2.019
 2468SOL    HW1 8303   6.844   6.135   2.102
 2468SOL    HW2 8304   6.979   6.167   2.017
 2469SOL     OW 8305   3.188   3.592   5.734
 2469SOL    HW1 8306   3.176   3.511   5.677
 2469SOL    HW2 8307   3.193   3.673   5.676
 2470SOL     OW 8308   2.897   3.906   5.763
 2470SOL    HW1 8309   2.933   3.848   5.836
 2470SOL    HW2 8310   2.969   3.966   5.729
 2471SOL     OW 8311   0.960   6.116   1.721
 2471SOL    HW1 8312   0.932   6.150   1.631
 2471SOL    HW2 8313   1.038   6.054   1.710
 2472SOL     OW 8314   5.588   2.006   4.690
 2472SOL    HW1 8315   5.679   1.968   4.710
 2472SOL    HW2 8316   5.571   2.002   4.592
 2473SOL     OW 8317   0.970   5.055   4.115
 2473SOL    HW1 8318   0.948   5.152   4.104
 2473SOL    HW2 8319   1.028   5.025   4.039
 2474SOL     OW 8320   6.883   5.088   5.490
 2474SOL    HW1 8321   6.796   5.065   5.447
 2474SOL    HW2 8322   6.920   5.170   5.448
 2475SOL     OW 8323   4.247   2.336   0.559
 2475SOL    HW1 8324   4.186   2.410   0.586
 2475SOL    HW2 8325   4.338   2.372   0.541
 2476SOL     OW 8326   0.941   1.958   3.729
 2476SOL    HW1 8327   0.999   1.971   3.649
 2476SOL    HW2 8328   0.845   1.968   3.704
 2477SOL     OW 8329   5.654   6.340   1.351
 2477SOL    HW1 8330   5.704   6.323   1.266
 2477SOL    HW2 8331   5.618   6.254   1.386
 2478SOL     OW 8332   6.551   6.712   2.516
 2478SOL    HW1 8333   6.604   6.753   2.590
 2478SOL    HW2 8334   6.541   6.779   2.441
 2479SOL     OW 8335   0.124   2.508   1.623
 2479SOL    HW1 8336   0.126   2.607   1.639
 2479SOL    HW2 8337   0.154   2.460   1.706
 2480SOL     OW 8338   6.775   3.259   1.161
 2480SOL    HW1 8339   6.773   3.351   1.199
 2480SOL    HW2 8340   6.703   3.204   1.203
 2481SOL     OW 8341   4.022   5.801   1.257
 2481SOL    HW1 8342   4.005   5.704   1.237
 2481SOL    HW2 8343   3.998   5.856   1.177
 2482SOL     OW 8344   4.853   3.383   5.537
 2482SOL    HW1 8345   4.786   3.378   5.463
 2482SOL    HW2 8346   4.925   3.316   5.522
 2483SOL     OW 8347   1.123   0.941   1.149
 2483SOL    HW1 8348   1.146   0.889   1.231
 2483SOL    HW2 8349   1.192   0.925   1.079
 2484SOL     OW 8350   2.355   0.706   0.686
 2484SOL    HW1 8351   2.314   0.776   0.745
 2484SOL    HW2 8352   2.289   0.677   0.617
 2485SOL     OW 8353   0.101   5.176   2.262
 2485SOL    HW1 8354   0.056   5.087   2.268
 2485SOL    HW2 8355   0.163   5.187   2.340
 2486SOL     OW 8356   2.189   5.679   3.441
 2486SOL    HW1 8357   2.131   5.599   3.430
 2486SOL    HW2 8358   2.175   5.741   3.364
 2487SOL     OW 8359   3.860   6.640   0.253
 2487SOL    HW1 8360   3.884   6.564   0.193
 2487SOL    HW2 8361   3.760   6.644   0.263
 2488SOL     OW 8362   2.815   4.406   1.268
 2488SOL    HW1 8363   2.726   4.399   1.313
 2488SOL    HW2 8364   2.841   4.317   1.230
 2489SOL     OW 8365   1.679   5.547   5.466
 2489SOL    HW1 8366   1.720   5.575   5.553
 2489SOL    HW2 8367   1.747   5.556   5.393
 2490SOL     OW 8368   6.658   4.650   0.551
 2490SOL    HW1 8369   6.632   4.576   0.490
 2490SOL    HW2 8370   6.692   4.728   0.497
 2491SOL     OW 8371   3.163   5.523   3.192
 2491SOL    HW1 8372   3.103   5.470   3.131
 2491SOL    HW2 8373   3.171   5.476   3.280
 2492SOL     OW 8374   4.965   3.304   6.174
 2492SOL    HW1 8375   4.901   3.377   6.198
 2492SOL    HW2 8376   4.999   3.260   6.257
 2493SOL     OW 8377   5.673   1.240   2.538
 2493SOL    HW1 8378   5.718   1.256   2.626
 2493SOL    HW2 8379   5.582   1.282   2.540
 2494SOL     OW 8380   4.691   2.704   2.654
 2494SOL    HW1 8381   4.771   2.686   2.597
 2494SOL    HW2 8382   4.688   2.801   2.677
 2495SOL     OW 8383   4.881   1.395   5.113
 2495SOL    HW1 8384   4.801   1.342   5.083
 2495SOL    HW2 8385   4.897   1.379   5.210
 2496SOL     OW 8386   0.846   5.292   0.051
 2496SOL    HW1 8387   0.803   5.379   0.026
 2496SOL    HW2 8388   0.819   5.267   0.145
 2497SOL     OW 8389   0.077   1.585   0.285
 2497SOL    HW1 8390   0.075   1.672   0.235
 2497SOL    HW2 8391   0.161   1.580   0.340
 2498SOL     OW 8392   2.182   2.929   3.399
 2498SOL    HW1 8393   2.093   2.888   3.416
 2498SOL    HW2 8394   2.231   2.874   3.331
 2499SOL     OW 8395   5.022   0.712   4.486
 2499SOL    HW1 8396   5.102   0.688   4.540
 2499SOL    HW2 8397   5.018   0.811   4.473
 2500SOL     OW 8398   4.932   3.019   6.052
 2500SOL    HW1 8399   4.912   3.111   6.018
 2500SOL    HW2 8400   4.847   2.965   6.053
 2501SOL     OW 8401   5.772   4.303   7.014
 2501SOL    HW1 8402   5.808   4.288   0.080
 2501SOL    HW2 8403   5.673   4.320   7.019
 2502SOL     OW 8404   2.163   6.688   3.189
 2502SOL    HW1 8405   2.162   6.752   3.111
 2502SOL    HW2 8406   2.069   6.665   3.215
 2503SOL     OW 8407   3.870   5.116   5.912
 2503SOL    HW1 8408   3.897   5.143   5.820
 2503SOL    HW2 8409   3.866   5.196   5.971
 2504SOL     OW 8410   1.881   4.694   4.921
 2504SOL    HW1 8411   1.958   4.631   4.905
 2504SOL    HW2 8412   1.859   4.742   4.837
 2505SOL     OW 8413   4.043   5.805   4.261
 2505SOL    HW1 8414   4.077   5.874   4.198
 2505SOL    HW2 8415   4.119   5.751   4.296
 2506SOL     OW 8416   6.610   3.352   6.217
 2506SOL    HW1 8417   6.558   3.430   6.252
 2506SOL    HW2 8418   6.578   3.268   6.262
 2507SOL     OW 8419   6.108   5.998   0.761
 2507SOL    HW1 8420   6.189   5.986   0.818
 2507SOL    HW2 8421   6.117   5.944   0.677
 2508SOL     OW 8422   2.627   1.630   2.166
 2508SOL    HW1 8423   2.541   1.676   2.144
 2508SOL    HW2 8424   2.683   1.691   2.222
 2509SOL     OW 8425   5.702   2.735   3.272
 2509SOL    HW1 8426   5.777   2.796   3.248
 2509SOL    HW2 8427   5.709   2.650   3.220
 2510SOL     OW 8428   3.298   5.094   0.180
 2510SOL    HW1 8429   3.340   5.131   0.262
 2510SOL    HW2 8430   3.292   5.165   0.109
 2511SOL     OW 8431   1.287   0.543   4.924
 2511SOL    HW1 8432   1.276   0.518   5.020
 2511SOL    HW2 8433   1.269   0.641   4.913
 2512SOL     OW 8434   4.851   4.096   4.955
 2512SOL    HW1 8435   4.799   4.176   4.982
 2512SOL    HW2 8436   4.945   4.123   4.931
 2513SOL     OW 8437   0.970   2.670   6.709
 2513SOL    HW1 8438   0.922   2.744   6.663
 2513SOL    HW2 8439   0.908   2.626   6.774
 2514SOL     OW 8440   0.916   1.003   4.599
 2514SOL    HW1 8441   0.819   1.027   4.592
 2514SOL    HW2 8442   0.928   0.906   4.577
 2515SOL     OW 8443   1.386   6.008   0.213
 2515SOL    HW1 8444   1.316   6.064   0.169
 2515SOL    HW2 8445   1.343   5.942   0.274
 2516SOL     OW 8446   6.155   6.384   3.430
 2516SOL    HW1 8447   6.220   6.434   3.373
 2516SOL    HW2 8448   6.137   6.437   3.513
 2517SOL     OW 8449   2.590   4.737   0.291
 2517SOL    HW1 8450   2.569   4.639   0.291
 2517SOL    HW2 8451   2.549   4.780   0.371
 2518SOL     OW 8452   2.408   3.083   6.437
 2518SOL    HW1 8453   2.454   3.162   6.397
 2518SOL    HW2 8454   2.444   3.067   6.530
 2519SOL     OW 8455   4.823   4.588   4.804
 2519SOL    HW1 8456   4.753   4.655   4.779
 2519SOL    HW2 8457   4.835   4.522   4.730
 2520SOL     OW 8458   2.552   3.559   1.245
 2520SOL    HW1 8459   2.639   3.520   1.274
 2520SOL    HW2 8460   2.528   3.524   1.155
 2521SOL     OW 8461   6.725   0.584   5.588
 2521SOL    HW1 8462   6.631   0.550   5.588
 2521SOL    HW2 8463   6.764   0.575   5.679
 2522SOL     OW 8464   1.143   3.174   4.370
 2522SOL    HW1 8465   1.179   3.254   4.322
 2522SOL    HW2 8466   1.216   3.132   4.424
 2523SOL     OW 8467   6.724   4.049   0.800
 2523SOL    HW1 8468   6.797   4.040   0.732
 2523SOL    HW2 8469   6.717   4.144   0.829
 2524SOL     OW 8470   1.364   6.578   3.970
 2524SOL    HW1 8471   1.458   6.549   3.992
 2524SOL    HW2 8472   1.366   6.668   3.927
 2525SOL     OW 8473   1.325   4.112   4.327
 2525SOL    HW1 8474   1.320   4.108   4.228
 2525SOL    HW2 8475   1.301   4.023   4.366
 2526SOL     OW 8476   7.008   1.887   4.175
 2526SOL    HW1 8477   0.071   1.932   4.167
 2526SOL    HW2 8478   6.950   1.915   4.098
 2527SOL     OW 8479   5.391   6.673   4.568
 2527SOL    HW1 8480   5.308   6.700   4.520
 2527SOL    HW2 8481   5.397   6.574   4.572
 2528SOL     OW 8482   5.897   5.392   0.724
 2528SOL    HW1 8483   5.870   5.328   0.796
 2528SOL    HW2 8484   5.853   5.480   0.740
 2529SOL     OW 8485   5.265   5.590   4.518
 2529SOL    HW1 8486   5.208   5.596   4.436
 2529SOL    HW2 8487   5.348   5.644   4.505
 2530SOL     OW 8488   1.362   6.931   3.224
 2530SOL    HW1 8489   1.291   6.988   3.266
 2530SOL    HW2 8490   1.396   6.865   3.291
 2531SOL     OW 8491   4.741   0.650   5.511
 2531SOL    HW1 8492   4.803   0.585   5.467
 2531SOL    HW2 8493   4.689   0.604   5.582
 2532SOL     OW 8494   1.252   5.180   6.689
 2532SOL    HW1 8495   1.271   5.138   6.600
 2532SOL    HW2 8496   1.264   5.112   6.761
 2533SOL     OW 8497   5.230   6.912   5.375
 2533SOL    HW1 8498   5.203   6.835   5.319
 2533SOL    HW2 8499   5.327   6.905   5.397
 2534SOL     OW 8500   2.038   0.268   3.355
 2534SOL    HW1 8501   2.059   0.268   3.453
 2534SOL    HW2 8502   2.068   0.182   3.315
 2535SOL     OW 8503   1.434   1.241   3.900
 2535SOL    HW1 8504   1.518   1.288   3.872
 2535SOL    HW2 8505   1.443   1.143   3.881
 2536SOL     OW 8506   5.900   1.568   4.545
 2536SOL    HW1 8507   5.930   1.537   4.635
 2536SOL    HW2 8508   5.923   1.499   4.476
 2537SOL     OW 8509   5.132   5.935   1.264
 2537SOL    HW1 8510   5.135   5.892   1.173
 2537SOL    HW2 8511   5.044   5.980   1.276
 2538SOL     OW 8512   1.769   4.816   4.701
 2538SOL    HW1 8513   1.675   4.844   4.679
 2538SOL    HW2 8514   1.817   4.791   4.617
 2539SOL     OW 8515   4.496   0.371   5.199
 2539SOL    HW1 8516   4.501   0.289   5.141
 2539SOL    HW2 8517   4.450   0.444   5.150
 2540SOL     OW 8518   5.359   1.235   2.077
 2540SOL    HW1 8519   5.457   1.236   2.056
 2540SOL    HW2 8520   5.317   1.321   2.047
 2541SOL     OW 8521   1.399   6.863   5.609
 2541SOL    HW1 8522   1.494   6.857   5.639
 2541SOL    HW2 8523   1.378   6.957   5.582
 2542SOL     OW 8524   3.384   1.680   4.274
 2542SOL    HW1 8525   3.359   1.617   4.201
 2542SOL    HW2 8526   3.353   1.772   4.250
 2543SOL     OW 8527   1.157   1.151   2.754
 2543SOL    HW1 8528   1.086   1.102   2.704
 2543SOL    HW2 8529   1.135   1.152   2.852
 2544SOL     OW 8530   6.734   5.269   1.181
 2544SOL    HW1 8531   6.724   5.336   1.254
 2544SOL    HW2 8532   6.736   5.316   1.093
 2545SOL     OW 8533   0.755   1.809   1.715
 2545SOL    HW1 8534   0.812   1.769   1.643
 2545SOL    HW2 8535   0.799   1.795   1.804
 2546SOL     OW 8536   6.244   3.880   2.243
 2546SOL    HW1 8537   6.265   3.957   2.304
 2546SOL    HW2 8538   6.325   3.822   2.234
 2547SOL     OW 8539   5.602   4.570   0.534
 2547SOL    HW1 8540   5.648   4.584   0.446
 2547SOL    HW2 8541   5.504   4.559   0.518
 2548SOL     OW 8542   0.338   0.179   5.232
 2548SOL    HW1 8543   0.311   0.086   5.259
 2548SOL    HW2 8544   0.257   0.229   5.201
 2549SOL     OW 8545   1.899   1.942   1.826
 2549SOL    HW1 8546   1.824   1.993   1.784
 2549SOL    HW2 8547   1.891   1.845   1.804
 2550SOL     OW 8548   4.578   0.408   6.581
 2550SOL    HW1 8549   4.641   0.435   6.507
 2550SOL    HW2 8550   4.484   0.426   6.552
 2551SOL     OW 8551   3.112   5.424   6.747
 2551SOL    HW1 8552   3.130   5.397   6.653
 2551SOL    HW2 8553   3.020   5.393   6.773
 2552SOL     OW 8554   2.098   5.370   0.243
 2552SOL    HW1 8555   2.132   5.279   0.268
 2552SOL    HW2 8556   2.176   5.429   0.220
 2553SOL     OW 8557   3.880   2.268   6.439
 2553SOL    HW1 8558   3.869   2.280   6.340
 2553SOL    HW2 8559   3.941   2.191   6.457
 2554SOL     OW 8560   1.953   5.815   1.278
 2554SOL    HW1 8561   1.922   5.808   1.183
 2554SOL    HW2 8562   2.046   5.778   1.285
 2555SOL     OW 8563   6.061   6.695   5.859
 2555SOL    HW1 8564   6.104   6.747   5.785
 2555SOL    HW2 8565   6.131   6.647   5.912
 2556SOL     OW 8566   3.391   6.838   1.633
 2556SOL    HW1 8567   3.305   6.842   1.582
 2556SOL    HW2 8568   3.388   6.902   1.710
 2557SOL     OW 8569   3.291   0.731   0.450
 2557SOL    HW1 8570   3.278   0.699   0.543
 2557SOL    HW2 8571   3.248   0.821   0.439
 2558SOL     OW 8572   5.509   4.665   6.701
 2558SOL    HW1 8573   5.483   4.573   6.672
 2558SOL    HW2 8574   5.530   4.665   6.799
 2559SOL     OW 8575   0.868   3.832   3.138
 2559SOL    HW1 8576   0.910   3.764   3.199
 2559SOL    HW2 8577   0.843   3.913   3.190
 2560SOL     OW 8578   4.574   2.593   3.218
 2560SOL    HW1 8579   4.565   2.538   3.135
 2560SOL    HW2 8580   4.595   2.687   3.193
 2561SOL     OW 8581   3.076   0.914   4.017
 2561SOL    HW1 8582   3.021   0.978   4.069
 2561SOL    HW2 8583   3.171   0.946   4.013
 2562SOL     OW 8584   3.499   6.255   3.458
 2562SOL    HW1 8585   3.583   6.200   3.453
 2562SOL    HW2 8586   3.493   6.315   3.379
 2563SOL     OW 8587   2.923   1.280   6.961
 2563SOL    HW1 8588   2.832   1.319   6.969
 2563SOL    HW2 8589   2.990   1.353   6.952
 2564SOL     OW 8590   1.608   0.681   0.782
 2564SOL    HW1 8591   1.545   0.613   0.743
 2564SOL    HW2 8592   1.614   0.759   0.720
 2565SOL     OW 8593   0.952   1.880   6.754
 2565SOL    HW1 8594   1.051   1.896   6.758
 2565SOL    HW2 8595   0.928   1.805   6.815
 2566SOL     OW 8596   3.189   1.262   1.720
 2566SOL    HW1 8597   3.150   1.222   1.803
 2566SOL    HW2 8598   3.124   1.251   1.644
 2567SOL     OW 8599   1.328   0.204   0.081
 2567SOL    HW1 8600   1.386   0.207   7.026
 2567SOL    HW2 8601   1.378   0.163   0.157
 2568SOL     OW 8602   2.703   6.112   1.245
 2568SOL    HW1 8603   2.655   6.070   1.169
 2568SOL    HW2 8604   2.661   6.084   1.331
 2569SOL     OW 8605   1.822   1.289   1.129
 2569SOL    HW1 8606   1.880   1.268   1.050
 2569SOL    HW2 8607   1.767   1.209   1.152
 2570SOL     OW 8608   5.015   6.006   6.856
 2570SOL    HW1 8609   4.950   6.037   6.787
 2570SOL    HW2 8610   5.000   6.057   6.941
 2571SOL     OW 8611   3.643   2.910   4.091
 2571SOL    HW1 8612   3.583   2.934   4.014
 2571SOL    HW2 8613   3.587   2.881   4.168
 2572SOL     OW 8614   2.524   5.053   1.681
 2572SOL    HW1 8615   2.608   5.003   1.703
 2572SOL    HW2 8616   2.501   5.038   1.584
 2573SOL     OW 8617   6.847   2.393   3.914
 2573SOL    HW1 8618   6.876   2.389   3.818
 2573SOL    HW2 8619   6.900   2.462   3.963
 2574SOL     OW 8620   6.707   3.497   1.288
 2574SOL    HW1 8621   6.642   3.561   1.248
 2574SOL    HW2 8622   6.683   3.481   1.384
 2575SOL     OW 8623   5.318   4.278   0.704
 2575SOL    HW1 8624   5.244   4.220   0.739
 2575SOL    HW2 8625   5.406   4.238   0.728
 2576SOL     OW 8626   2.270   6.892   3.427
 2576SOL    HW1 8627   2.317   6.813   3.388
 2576SOL    HW2 8628   2.185   6.863   3.470
 2577SOL     OW 8629   3.363   6.915   3.059
 2577SOL    HW1 8630   3.435   6.879   3.000
 2577SOL    HW2 8631   3.282   6.937   3.004
 2578SOL     OW 8632   4.418   2.450   4.497
 2578SOL    HW1 8633   4.435   2.546   4.517
 2578SOL    HW2 8634   4.380   2.405   4.578
 2579SOL     OW 8635   0.314   2.048   6.817
 2579SOL    HW1 8636   0.389   1.985   6.795
 2579SOL    HW2 8637   0.305   2.056   6.916
 2580SOL     OW 8638   1.711   2.095   6.479
 2580SOL    HW1 8639   1.640   2.024   6.474
 2580SOL    HW2 8640   1.712   2.147   6.394
 2581SOL     OW 8641   5.292   5.662   2.363
 2581SOL    HW1 8642   5.331   5.613   2.441
 2581SOL    HW2 8643   5.356   5.730   2.329
 2582SOL     OW 8644   0.989   5.455   2.521
 2582SOL    HW1 8645   0.938   5.476   2.604
 2582SOL    HW2 8646   1.022   5.539   2.479
 2583SOL     OW 8647   0.510   0.233   0.801
 2583SOL    HW1 8648   0.574   0.162   0.772
 2583SOL    HW2 8649   0.429   0.230   0.743
 2584SOL     OW 8650   3.296   6.308   1.212
 2584SOL    HW1 8651   3.317   6.318   1.115
 2584SOL    HW2 8652   3.199   6.328   1.228
 2585SOL     OW 8653   3.194   6.757   0.736
 2585SOL    HW1 8654   3.263   6.815   0.692
 2585SOL    HW2 8655   3.156   6.806   0.815
 2586SOL     OW 8656   6.049   1.371   4.686
 2586SOL    HW1 8657   6.092   1.348   4.774
 2586SOL    HW2 8658   5.979   1.303   4.664
 2587SOL     OW 8659   6.320   6.986   4.462
 2587SOL    HW1 8660   6.332   6.936   4.548
 2587SOL    HW2 8661   6.247   6.943   4.408
 2588SOL     OW 8662   5.866   0.762   1.539
 2588SOL    HW1 8663   5.837   0.795   1.629
 2588SOL    HW2 8664   5.909   0.672   1.549
 2589SOL     OW 8665   6.462   0.206   5.809
 2589SOL    HW1 8666   6.508   0.175   5.725
 2589SOL    HW2 8667   6.380   0.258   5.785
 2590SOL     OW 8668   3.700   6.775   2.520
 2590SOL    HW1 8669   3.711   6.676   2.520
 2590SOL    HW2 8670   3.782   6.818   2.559
 2591SOL     OW 8671   5.045   6.402   1.302
 2591SOL    HW1 8672   5.145   6.403   1.301
 2591SOL    HW2 8673   5.011   6.453   1.381
 2592SOL     OW 8674   3.429   5.435   1.245
 2592SOL    HW1 8675   3.429   5.410   1.342
 2592SOL    HW2 8676   3.391   5.360   1.191
 2593SOL     OW 8677   3.456   6.366   3.183
 2593SOL    HW1 8678   3.479   6.462   3.165
 2593SOL    HW2 8679   3.470   6.313   3.099
 2594SOL     OW 8680   0.242   0.659   6.869
 2594SOL    HW1 8681   0.236   0.643   6.967
 2594SOL    HW2 8682   0.151   0.680   6.833
 2595SOL     OW 8683   6.916   3.402   4.815
 2595SOL    HW1 8684   6.845   3.451   4.865
 2595SOL    HW2 8685   6.957   3.464   4.747
 2596SOL     OW 8686   4.009   2.066   1.999
 2596SOL    HW1 8687   4.001   1.976   2.040
 2596SOL    HW2 8688   3.930   2.122   2.024
 2597SOL     OW 8689   2.757   3.260   1.430
 2597SOL    HW1 8690   2.699   3.180   1.450
 2597SOL    HW2 8691   2.771   3.268   1.332
 2598SOL     OW 8692   6.606   3.150   4.153
 2598SOL    HW1 8693   6.586   3.243   4.122
 2598SOL    HW2 8694   6.558   3.084   4.095
 2599SOL     OW 8695   4.116   6.049   6.351
 2599SOL    HW1 8696   4.086   5.993   6.428
 2599SOL    HW2 8697   4.131   6.143   6.381
 2600SOL     OW 8698   5.750   3.909   3.813
 2600SOL    HW1 8699   5.811   3.883   3.888
 2600SOL    HW2 8700   5.655   3.895   3.841
 2601SOL     OW 8701   3.465   2.913   5.453
 2601SOL    HW1 8702   3.389   2.855   5.482
 2601SOL    HW2 8703   3.429   2.998   5.414
 2602SOL     OW 8704   0.078   4.933   4.473
 2602SOL    HW1 8705   0.163   4.894   4.437
 2602SOL    HW2 8706   0.083   5.033   4.469
 2603SOL     OW 8707   2.243   2.267   1.709
 2603SOL    HW1 8708   2.331   2.222   1.701
 2603SOL    HW2 8709   2.251   2.362   1.679
 2604SOL     OW 8710   5.222   0.251   1.064
 2604SOL    HW1 8711   5.207   0.305   1.147
 2604SOL    HW2 8712   5.312   0.272   1.027
 2605SOL     OW 8713   4.229   4.747   3.650
 2605SOL    HW1 8714   4.253   4.683   3.577
 2605SOL    HW2 8715   4.297   4.821   3.653
 2606SOL     OW 8716   6.546   4.221   1.013
 2606SOL    HW1 8717   6.517   4.312   0.983
 2606SOL    HW2 8718   6.642   4.225   1.042
 2607SOL     OW 8719   1.567   1.241   3.499
 2607SOL    HW1 8720   1.482   1.291   3.515
 2607SOL    HW2 8721   1.623   1.289   3.431
 2608SOL     OW 8722   5.557   0.220   1.879
 2608SOL    HW1 8723   5.459   0.237   1.885
 2608SOL    HW2 8724   5.578   0.176   1.791
 2609SOL     OW 8725   0.605   2.496   2.567
 2609SOL    HW1 8726   0.509   2.509   2.592
 2609SOL    HW2 8727   0.610   2.452   2.477
 2610SOL     OW 8728   6.873   5.357   4.813
 2610SOL    HW1 8729   6.837   5.318   4.897
 2610SOL    HW2 8730   6.901   5.452   4.829
 2611SOL     OW 8731   5.169   6.829   0.779
 2611SOL    HW1 8732   5.210   6.809   0.868
 2611SOL    HW2 8733   5.171   6.746   0.722
 2612SOL     OW 8734   5.321   6.656   4.290
 2612SOL    HW1 8735   5.317   6.752   4.261
 2612SOL    HW2 8736   5.352   6.600   4.214
 2613SOL     OW 8737   3.216   6.914   2.018
 2613SOL    HW1 8738   3.142   6.848   2.006
 2613SOL    HW2 8739   3.229   6.934   2.115
 2614SOL     OW 8740   6.495   6.902   5.554
 2614SOL    HW1 8741   6.520   6.999   5.560
 2614SOL    HW2 8742   6.396   6.893   5.544
 2615SOL     OW 8743   5.320   5.461   3.592
 2615SOL    HW1 8744   5.290   5.385   3.649
 2615SOL    HW2 8745   5.242   5.520   3.571
 2616SOL     OW 8746   4.136   3.526   3.264
 2616SOL    HW1 8747   4.147   3.621   3.234
 2616SOL    HW2 8748   4.128   3.523   3.364
 2617SOL     OW 8749   3.721   5.164   0.990
 2617SOL    HW1 8750   3.756   5.084   0.942
 2617SOL    HW2 8751   3.714   5.144   1.088
 2618SOL     OW 8752   0.103   6.994   2.547
 2618SOL    HW1 8753   0.180   6.984   2.484
 2618SOL    HW2 8754   0.047   6.911   2.544
 2619SOL     OW 8755   4.513   1.889   2.357
 2619SOL    HW1 8756   4.414   1.874   2.358
 2619SOL    HW2 8757   4.542   1.910   2.263
 2620SOL     OW 8758   1.408   5.322   3.153
 2620SOL    HW1 8759   1.433   5.281   3.241
 2620SOL    HW2 8760   1.484   5.313   3.089
 2621SOL     OW 8761   0.351   5.370   3.678
 2621SOL    HW1 8762   0.393   5.282   3.698
 2621SOL    HW2 8763   0.399   5.442   3.727
 2622SOL     OW 8764   2.021   3.085   6.070
 2622SOL    HW1 8765   1.962   3.163   6.047
 2622SOL    HW2 8766   2.117   3.113   6.060
 2623SOL     OW 8767   3.485   1.293   4.193
 2623SOL    HW1 8768   3.575   1.292   4.236
 2623SOL    HW2 8769   3.426   1.226   4.239
 2624SOL     OW 8770   5.970   2.953   2.740
 2624SOL    HW1 8771   5.983   2.942   2.642
 2624SOL    HW2 8772   6.000   2.870   2.787
 2625SOL     OW 8773   1.890   3.024   5.247
 2625SOL    HW1 8774   1.905   2.928   5.223
 2625SOL    HW2 8775   1.979   3.070   5.257
 2626SOL     OW 8776   1.118   6.461   3.890
 2626SOL    HW1 8777   1.211   6.482   3.921
 2626SOL    HW2 8778   1.059   6.541   3.905
 2627SOL     OW 8779   0.544   0.839   4.709
 2627SOL    HW1 8780   0.582   0.848   4.801
 2627SOL    HW2 8781   0.456   0.791   4.715
 2628SOL     OW 8782   3.551   6.370   6.406
 2628SOL    HW1 8783   3.568   6.277   6.436
 2628SOL    HW2 8784   3.534   6.429   6.485
 2629SOL     OW 8785   3.832   4.055   1.662
 2629SOL    HW1 8786   3.778   4.133   1.693
 2629SOL    HW2 8787   3.828   3.982   1.730
 2630SOL     OW 8788   3.697   1.682   2.110
 2630SOL    HW1 8789   3.628   1.615   2.084
 2630SOL    HW2 8790   3.659   1.744   2.179
 2631SOL     OW 8791   4.996   6.872   4.157
 2631SOL    HW1 8792   4.999   6.858   4.256
 2631SOL    HW2 8793   4.985   6.970   4.137
 2632SOL     OW 8794   3.208   2.477   0.298
 2632SOL    HW1 8795   3.152   2.536   0.357
 2632SOL    HW2 8796   3.246   2.402   0.353
 2633SOL     OW 8797   6.073   2.757   6.732
 2633SOL    HW1 8798   6.117   2.808   6.658
 2633SOL    HW2 8799   5.993   2.808   6.765
 2634SOL     OW 8800   1.982   4.236   2.275
 2634SOL    HW1 8801   2.055   4.169   2.287
 2634SOL    HW2 8802   1.998   4.290   2.193
 2635SOL     OW 8803   5.585   6.431   4.344
 2635SOL    HW1 8804   5.672   6.382   4.333
 2635SOL    HW2 8805   5.537   6.435   4.257
 2636SOL     OW 8806   6.129   0.012   6.245
 2636SOL    HW1 8807   6.052   6.975   6.247
 2636SOL    HW2 8808   6.185   7.021   6.165
 2637SOL     OW 8809   6.033   0.839   3.257
 2637SOL    HW1 8810   5.945   0.869   3.294
 2637SOL    HW2 8811   6.060   0.753   3.301
 2638SOL     OW 8812   5.604   6.833   1.514
 2638SOL    HW1 8813   5.634   6.788   1.430
 2638SOL    HW2 8814   5.647   6.923   1.521
 2639SOL     OW 8815   6.228   6.743   2.150
 2639SOL    HW1 8816   6.147   6.759   2.095
 2639SOL    HW2 8817   6.302   6.804   2.120
 2640SOL     OW 8818   0.018   6.319   4.944
 2640SOL    HW1 8819   0.048   6.244   5.003
 2640SOL    HW2 8820   0.024   6.291   4.849
 2641SOL     OW 8821   5.653   3.556   0.370
 2641SOL    HW1 8822   5.645   3.635   0.430
 2641SOL    HW2 8823   5.608   3.477   0.411
 2642SOL     OW 8824   5.461   0.345   4.291
 2642SOL    HW1 8825   5.489   0.436   4.321
 2642SOL    HW2 8826   5.519   0.315   4.216
 2643SOL     OW 8827   6.629   5.769   2.857
 2643SOL    HW1 8828   6.587   5.756   2.767
 2643SOL    HW2 8829   6.605   5.859   2.892
 2644SOL     OW 8830   1.081   4.776   5.682
 2644SOL    HW1 8831   1.078   4.730   5.593
 2644SOL    HW2 8832   1.042   4.868   5.673
 2645SOL     OW 8833   5.128   6.877   5.675
 2645SOL    HW1 8834   5.200   6.896   5.742
 2645SOL    HW2 8835   5.157   6.910   5.585
 2646SOL     OW 8836   6.238   0.607   6.282
 2646SOL    HW1 8837   6.278   0.597   6.191
 2646SOL    HW2 8838   6.298   0.663   6.338
 2647SOL     OW 8839   4.873   0.749   0.746
 2647SOL    HW1 8840   4.919   0.717   0.662
 2647SOL    HW2 8841   4.926   0.824   0.786
 2648SOL     OW 8842   6.687   6.812   2.732
 2648SOL    HW1 8843   6.669   6.892   2.790
 2648SOL    HW2 8844   6.760   6.757   2.774
 2649SOL     OW 8845   3.614   1.528   6.036
 2649SOL    HW1 8846   3.532   1.483   6.001
 2649SOL    HW2 8847   3.606   1.627   6.024
 2650SOL     OW 8848   0.768   4.927   3.500
 2650SOL    HW1 8849   0.795   4.834   3.473
 2650SOL    HW2 8850   0.763   4.932   3.600
 2651SOL     OW 8851   0.821   1.830   1.274
 2651SOL    HW1 8852   0.723   1.823   1.290
 2651SOL    HW2 8853   0.843   1.793   1.184
 2652SOL     OW 8854   3.175   3.117   3.214
 2652SOL    HW1 8855   3.155   3.205   3.169
 2652SOL    HW2 8856   3.226   3.059   3.151
 2653SOL     OW 8857   5.664   6.898   6.161
 2653SOL    HW1 8858   5.729   6.857   6.098
 2653SOL    HW2 8859   5.577   6.848   6.157
 2654SOL     OW 8860   5.418   3.177   5.927
 2654SOL    HW1 8861   5.514   3.149   5.932
 2654SOL    HW2 8862   5.395   3.233   6.006
 2655SOL     OW 8863   4.564   5.763   4.323
 2655SOL    HW1 8864   4.542   5.669   4.298
 2655SOL    HW2 8865   4.539   5.824   4.248
 2656SOL     OW 8866   5.256   4.857   3.787
 2656SOL    HW1 8867   5.286   4.830   3.878
 2656SOL    HW2 8868   5.167   4.902   3.793
 2657SOL     OW 8869   2.489   3.953   6.197
 2657SOL    HW1 8870   2.511   3.880   6.263
 2657SOL    HW2 8871   2.476   3.913   6.107
 2658SOL     OW 8872   6.397   4.675   6.258
 2658SOL    HW1 8873   6.324   4.700   6.194
 2658SOL    HW2 8874   6.482   4.719   6.230
 2659SOL     OW 8875   6.455   2.724   4.131
 2659SOL    HW1 8876   6.546   2.699   4.097
 2659SOL    HW2 8877   6.427   2.659   4.202
 2660SOL     OW 8878   6.753   2.073   2.243
 2660SOL    HW1 8879   6.801   2.160   2.232
 2660SOL    HW2 8880   6.733   2.058   2.340
 2661SOL     OW 8881   2.934   6.117   1.089
 2661SOL    HW1 8882   2.844   6.124   1.133
 2661SOL    HW2 8883   2.992   6.056   1.142
 2662SOL     OW 8884   4.376   6.819   4.352
 2662SOL    HW1 8885   4.330   6.892   4.402
 2662SOL    HW2 8886   4.440   6.772   4.412
 2663SOL     OW 8887   1.859   4.497   1.381
 2663SOL    HW1 8888   1.895   4.564   1.447
 2663SOL    HW2 8889   1.927   4.425   1.366
 2664SOL     OW 8890   3.228   4.028   3.440
 2664SOL    HW1 8891   3.190   4.029   3.348
 2664SOL    HW2 8892   3.319   3.987   3.438
 2665SOL     OW 8893   3.209   1.195   4.418
 2665SOL    HW1 8894   3.191   1.117   4.359
 2665SOL    HW2 8895   3.208   1.279   4.363
 2666SOL     OW 8896   5.097   4.954   0.861
 2666SOL    HW1 8897   5.086   4.959   0.761
 2666SOL    HW2 8898   5.182   4.905   0.882
 2667SOL     OW 8899   1.410   6.054   5.553
 2667SOL    HW1 8900   1.442   6.110   5.477
 2667SOL    HW2 8901   1.393   6.113   5.632
 2668SOL     OW 8902   6.758   3.544   4.267
 2668SOL    HW1 8903   6.765   3.490   4.351
 2668SOL    HW2 8904   6.840   3.531   4.212
 2669SOL     OW 8905   3.593   4.951   5.166
 2669SOL    HW1 8906   3.536   4.936   5.246
 2669SOL    HW2 8907   3.552   5.023   5.109
 2670SOL     OW 8908   0.130   1.065   6.815
 2670SOL    HW1 8909   0.134   1.019   6.904
 2670SOL    HW2 8910   0.114   1.163   6.830
 2671SOL     OW 8911   2.114   3.725   6.604
 2671SOL    HW1 8912   2.147   3.632   6.623
 2671SOL    HW2 8913   2.084   3.732   6.509
 2672SOL     OW 8914   1.697   5.278   0.126
 2672SOL    HW1 8915   1.784   5.276   0.076
 2672SOL    HW2 8916   1.622   5.293   0.061
 2673SOL     OW 8917   4.792   2.922   3.571
 2673SOL    HW1 8918   4.758   2.857   3.502
 2673SOL    HW2 8919   4.780   2.883   3.662
 2674SOL     OW 8920   1.546   4.598   4.713
 2674SOL    HW1 8921   1.589   4.546   4.639
 2674SOL    HW2 8922   1.610   4.605   4.790
 2675SOL     OW 8923   0.858   4.310   5.800
 2675SOL    HW1 8924   0.859   4.383   5.868
 2675SOL    HW2 8925   0.847   4.222   5.846
 2676SOL     OW 8926   5.231   1.944   2.605
 2676SOL    HW1 8927   5.199   2.036   2.580
 2676SOL    HW2 8928   5.168   1.903   2.670
 2677SOL     OW 8929   2.209   4.880   1.720
 2677SOL    HW1 8930   2.249   4.792   1.693
 2677SOL    HW2 8931   2.204   4.939   1.640
 2678SOL     OW 8932   1.061   4.888   6.926
 2678SOL    HW1 8933   1.114   4.886   7.011
 2678SOL    HW2 8934   0.978   4.941   6.940
 2679SOL     OW 8935   3.941   4.873   0.899
 2679SOL    HW1 8936   3.878   4.900   0.827
 2679SOL    HW2 8937   3.895   4.875   0.987
 2680SOL     OW 8938   2.227   1.387   0.516
 2680SOL    HW1 8939   2.327   1.382   0.527
 2680SOL    HW2 8940   2.183   1.365   0.602
 2681SOL     OW 8941   1.248   3.827   4.106
 2681SOL    HW1 8942   1.348   3.828   4.105
 2681SOL    HW2 8943   1.213   3.920   4.112
 2682SOL     OW 8944   5.545   2.823   2.127
 2682SOL    HW1 8945   5.632   2.775   2.136
 2682SOL    HW2 8946   5.548   2.884   2.047
 2683SOL     OW 8947   0.706   5.009   1.467
 2683SOL    HW1 8948   0.610   5.026   1.491
 2683SOL    HW2 8949   0.751   5.095   1.445
 2684SOL     OW 8950   4.221   6.122   2.438
 2684SOL    HW1 8951   4.154   6.135   2.365
 2684SOL    HW2 8952   4.177   6.139   2.527
 2685SOL     OW 8953   6.306   6.866   4.029
 2685SOL    HW1 8954   6.230   6.808   4.060
 2685SOL    HW2 8955   6.270   6.949   3.988
 2686SOL     OW 8956   1.761   2.550   4.308
 2686SOL    HW1 8957   1.836   2.556   4.374
 2686SOL    HW2 8958   1.792   2.503   4.226
 2687SOL     OW 8959   3.960   4.846   2.649
 2687SOL    HW1 8960   3.891   4.840   2.578
 2687SOL    HW2 8961   4.000   4.938   2.649
 2688SOL     OW 8962   4.026   5.253   5.702
 2688SOL    HW1 8963   4.038   5.337   5.756
 2688SOL    HW2 8964   4.014   5.277   5.606
 2689SOL     OW 8965   1.412   1.555   3.537
 2689SOL    HW1 8966   1.344   1.482   3.544
 2689SOL    HW2 8967   1.439   1.585   3.628
 2690SOL     OW 8968   4.021   3.105   3.753
 2690SOL    HW1 8969   4.032   3.199   3.785
 2690SOL    HW2 8970   3.945   3.061   3.802
 2691SOL     OW 8971   2.020   6.038   1.711
 2691SOL    HW1 8972   2.012   6.132   1.675
 2691SOL    HW2 8973   1.959   6.027   1.789
 2692SOL     OW 8974   6.184   5.123   3.786
 2692SOL    HW1 8975   6.099   5.113   3.733
 2692SOL    HW2 8976   6.206   5.035   3.828
 2693SOL     OW 8977   2.350   4.325   3.199
 2693SOL    HW1 8978   2.310   4.240   3.165
 2693SOL    HW2 8979   2.372   4.385   3.121
 2694SOL     OW 8980   3.081   0.209   2.834
 2694SOL    HW1 8981   2.990   0.196   2.793
 2694SOL    HW2 8982   3.122   0.293   2.797
 2695SOL     OW 8983   5.125   2.175   2.481
 2695SOL    HW1 8984   5.200   2.218   2.432
 2695SOL    HW2 8985   5.099   2.090   2.434
 2696SOL     OW 8986   4.119   3.282   5.538
 2696SOL    HW1 8987   4.128   3.205   5.475
 2696SOL    HW2 8988   4.086   3.362   5.487
 2697SOL     OW 8989   4.319   1.901   3.992
 2697SOL    HW1 8990   4.275   1.991   4.001
 2697SOL    HW2 8991   4.273   1.848   3.922
 2698SOL     OW 8992   1.046   4.690   0.666
 2698SOL    HW1 8993   1.143   4.708   0.679
 2698SOL    HW2 8994   1.001   4.773   0.633
 2699SOL     OW 8995   3.329   5.601   0.598
 2699SOL    HW1 8996   3.400   5.582   0.530
 2699SOL    HW2 8997   3.327   5.528   0.666
 2700SOL     OW 8998   2.150   3.224   2.990
 2700SOL    HW1 8999   2.194   3.162   3.055
 2700SOL    HW2 9000   2.136   3.313   3.033
 2701SOL     OW 9001   3.758   0.646   6.943
 2701SOL    HW1 9002   3.832   0.651   7.010
 2701SOL    HW2 9003   3.760   0.556   6.899
 2702SOL     OW 9004   6.394   1.873   3.224
 2702SOL    HW1 9005   6.377   1.857   3.127
 2702SOL    HW2 9006   6.367   1.966   3.248
 2703SOL     OW 9007   2.878   0.966   2.964
 2703SOL    HW1 9008   2.814   0.919   2.903
 2703SOL    HW2 9009   2.838   1.053   2.994
 2704SOL     OW 9010   2.048   5.669   1.913
 2704SOL    HW1 9011   2.141   5.640   1.888
 2704SOL    HW2 9012   2.018   5.616   1.993
 2705SOL     OW 9013   7.010   4.860   3.691
 2705SOL    HW1 9014   6.925   4.809   3.706
 2705SOL    HW2 9015   7.020   4.881   3.594
 2706SOL     OW 9016   6.623   1.557   1.825
 2706SOL    HW1 9017   6.641   1.649   1.789
 2706SOL    HW2 9018   6.682   1.491   1.778
 2707SOL     OW 9019   2.234   0.742   6.925
 2707SOL    HW1 9020   2.213   0.815   6.990
 2707SOL    HW2 9021   2.150   0.699   6.894
 2708SOL     OW 9022   2.520   2.444   1.989
 2708SOL    HW1 9023   2.558   2.410   2.075
 2708SOL    HW2 9024   2.421   2.453   1.998
 2709SOL     OW 9025   4.844   6.230   1.155
 2709SOL    HW1 9026   4.894   6.193   1.076
 2709SOL    HW2 9027   4.908   6.274   1.218
 2710SOL     OW 9028   6.766   3.632   2.922
 2710SOL    HW1 9029   6.727   3.597   2.837
 2710SOL    HW2 9030   6.798   3.555   2.978
 2711SOL     OW 9031   1.304   0.034   2.451
 2711SOL    HW1 9032   1.401   0.056   2.439
 2711SOL    HW2 9033   1.291   6.961   2.445
 2712SOL     OW 9034   2.988   4.643   0.281
 2712SOL    HW1 9035   2.971   4.659   0.184
 2712SOL    HW2 9036   2.902   4.649   0.331
 2713SOL     OW 9037   2.184   2.615   4.846
 2713SOL    HW1 9038   2.192   2.714   4.856
 2713SOL    HW2 9039   2.260   2.582   4.789
 2714SOL     OW 9040   5.513   1.645   6.383
 2714SOL    HW1 9041   5.465   1.731   6.400
 2714SOL    HW2 9042   5.561   1.616   6.466
 2715SOL     OW 9043   5.911   0.459   0.150
 2715SOL    HW1 9044   5.861   0.517   0.086
 2715SOL    HW2 9045   5.912   0.365   0.118
 2716SOL     OW 9046   7.003   5.530   1.162
 2716SOL    HW1 9047   0.044   5.548   1.234
 2716SOL    HW2 9048   7.011   5.435   1.132
 2717SOL     OW 9049   0.757   5.607   1.849
 2717SOL    HW1 9050   0.787   5.682   1.790
 2717SOL    HW2 9051   0.657   5.607   1.855
 2718SOL     OW 9052   1.879   3.782   4.264
 2718SOL    HW1 9053   1.908   3.810   4.355
 2718SOL    HW2 9054   1.859   3.684   4.263
 2719SOL     OW 9055   4.456   4.795   2.203
 2719SOL    HW1 9056   4.472   4.710   2.152
 2719SOL    HW2 9057   4.480   4.873   2.145
 2720SOL     OW 9058   1.791   5.993   3.231
 2720SOL    HW1 9059   1.743   6.063   3.179
 2720SOL    HW2 9060   1.730   5.916   3.248
 2721SOL     OW 9061   2.515   0.471   4.655
 2721SOL    HW1 9062   2.503   0.521   4.741
 2721SOL    HW2 9063   2.584   0.517   4.600
 2722SOL     OW 9064   0.219   5.746   3.145
 2722SOL    HW1 9065   0.244   5.772   3.238
 2722SOL    HW2 9066   0.191   5.650   3.144
 2723SOL     OW 9067   2.380   0.777   5.732
 2723SOL    HW1 9068   2.424   0.748   5.817
 2723SOL    HW2 9069   2.360   0.875   5.736
 2724SOL     OW 9070   3.162   5.385   5.978
 2724SOL    HW1 9071   3.078   5.334   5.996
 2724SOL    HW2 9072   3.239   5.337   6.020
 2725SOL     OW 9073   5.183   4.600   3.256
 2725SOL    HW1 9074   5.235   4.665   3.311
 2725SOL    HW2 9075   5.090   4.634   3.242
 2726SOL     OW 9076   5.171   4.773   1.939
 2726SOL    HW1 9077   5.246   4.763   1.873
 2726SOL    HW2 9078   5.148   4.683   1.976
 2727SOL     OW 9079   0.925   5.080   3.055
 2727SOL    HW1 9080   0.983   5.146   3.102
 2727SOL    HW2 9081   0.926   5.098   2.957
 2728SOL     OW 9082   2.937   0.186   5.088
 2728SOL    HW1 9083   2.914   0.173   4.992
 2728SOL    HW2 9084   2.875   0.255   5.128
 2729SOL     OW 9085   6.353   5.635   2.668
 2729SOL    HW1 9086   6.332   5.666   2.760
 2729SOL    HW2 9087   6.288   5.564   2.641
 2730SOL     OW 9088   2.382   0.307   0.849
 2730SOL    HW1 9089   2.327   0.315   0.766
 2730SOL    HW2 9090   2.395   0.210   0.872
 2731SOL     OW 9091   3.052   3.650   1.435
 2731SOL    HW1 9092   3.085   3.649   1.340
 2731SOL    HW2 9093   2.958   3.616   1.438
 2732SOL     OW 9094   5.778   3.058   2.269
 2732SOL    HW1 9095   5.827   3.108   2.340
 2732SOL    HW2 9096   5.681   3.053   2.293
 2733SOL     OW 9097   1.008   0.083   5.860
 2733SOL    HW1 9098   0.986   0.169   5.814
 2733SOL    HW2 9099   1.097   0.091   5.905
 2734SOL     OW 9100   1.643   6.121   3.689
 2734SOL    HW1 9101   1.662   6.042   3.631
 2734SOL    HW2 9102   1.727   6.149   3.737
 2735SOL     OW 9103   0.847   3.945   2.815
 2735SOL    HW1 9104   0.861   3.984   2.725
 2735SOL    HW2 9105   0.931   3.953   2.869
 2736SOL     OW 9106   4.890   0.904   5.483
 2736SOL    HW1 9107   4.892   0.874   5.388
 2736SOL    HW2 9108   4.799   0.891   5.521
 2737SOL     OW 9109   3.363   3.448   6.229
 2737SOL    HW1 9110   3.356   3.505   6.148
 2737SOL    HW2 9111   3.338   3.354   6.207
 2738SOL     OW 9112   5.043   5.498   3.793
 2738SOL    HW1 9113   5.085   5.545   3.715
 2738SOL    HW2 9114   5.045   5.558   3.873
 2739SOL     OW 9115   5.814   4.325   0.940
 2739SOL    HW1 9116   5.740   4.296   1.001
 2739SOL    HW2 9117   5.871   4.392   0.987
 2740SOL     OW 9118   6.353   2.053   2.390
 2740SOL    HW1 9119   6.378   1.982   2.324
 2740SOL    HW2 9120   6.335   2.138   2.341
 2741SOL     OW 9121   0.250   1.755   5.981
 2741SOL    HW1 9122   0.225   1.712   6.068
 2741SOL    HW2 9123   0.322   1.701   5.937
 2742SOL     OW 9124   1.067   5.686   6.351
 2742SOL    HW1 9125   1.092   5.777   6.315
 2742SOL    HW2 9126   1.151   5.635   6.370
 2743SOL     OW 9127   5.600   5.794   1.465
 2743SOL    HW1 9128   5.513   5.827   1.430
 2743SOL    HW2 9129   5.671   5.806   1.395
 2744SOL     OW 9130   4.200   2.535   6.663
 2744SOL    HW1 9131   4.165   2.615   6.711
 2744SOL    HW2 9132   4.138   2.511   6.588
 2745SOL     OW 9133   1.724   6.044   0.815
 2745SOL    HW1 9134   1.666   5.963   0.814
 2745SOL    HW2 9135   1.802   6.030   0.753
 2746SOL     OW 9136   1.726   2.699   4.878
 2746SOL    HW1 9137   1.811   2.647   4.888
 2746SOL    HW2 9138   1.733   2.784   4.930
 2747SOL     OW 9139   5.745   5.315   5.243
 2747SOL    HW1 9140   5.759   5.370   5.160
 2747SOL    HW2 9141   5.693   5.233   5.220
 2748SOL     OW 9142   3.805   1.504   3.477
 2748SOL    HW1 9143   3.801   1.549   3.388
 2748SOL    HW2 9144   3.714   1.472   3.502
 2749SOL     OW 9145   5.427   4.510   4.355
 2749SOL    HW1 9146   5.423   4.410   4.346
 2749SOL    HW2 9147   5.481   4.534   4.436
 2750SOL     OW 9148   0.547   5.779   1.668
 2750SOL    HW1 9149   0.536   5.722   1.750
 2750SOL    HW2 9150   0.612   5.852   1.687
 2751SOL     OW 9151   1.907   6.924   0.780
 2751SOL    HW1 9152   1.887   7.022   0.787
 2751SOL    HW2 9153   1.853   6.885   0.706
 2752SOL     OW 9154   4.642   6.341   5.071
 2752SOL    HW1 9155   4.727   6.341   5.124
 2752SOL    HW2 9156   4.591   6.257   5.092
 2753SOL     OW 9157   3.234   5.853   6.100
 2753SOL    HW1 9158   3.302   5.921   6.072
 2753SOL    HW2 9159   3.281   5.773   6.139
 2754SOL     OW 9160   0.391   0.308   4.182
 2754SOL    HW1 9161   0.395   0.316   4.082
 2754SOL    HW2 9162   0.397   0.400   4.222
 2755SOL     OW 9163   2.582   6.210   3.434
 2755SOL    HW1 9164   2.535   6.174   3.515
 2755SOL    HW2 9165   2.583   6.141   3.362
 2756SOL     OW 9166   5.671   4.093   4.589
 2756SOL    HW1 9167   5.653   4.000   4.620
 2756SOL    HW2 9168   5.637   4.105   4.496
 2757SOL     OW 9169   4.131   2.110   6.727
 2757SOL    HW1 9170   4.133   2.060   6.813
 2757SOL    HW2 9171   4.072   2.190   6.737
 2758SOL     OW 9172   5.193   4.909   3.321
 2758SOL    HW1 9173   5.244   4.992   3.344
 2758SOL    HW2 9174   5.100   4.933   3.295
 2759SOL     OW 9175   3.326   4.237   5.979
 2759SOL    HW1 9176   3.421   4.220   5.951
 2759SOL    HW2 9177   3.322   4.247   6.078
 2760SOL     OW 9178   5.870   5.853   3.104
 2760SOL    HW1 9179   5.965   5.824   3.113
 2760SOL    HW2 9180   5.846   5.913   3.180
 2761SOL     OW 9181   1.764   3.704   2.846
 2761SOL    HW1 9182   1.826   3.628   2.865
 2761SOL    HW2 9183   1.761   3.765   2.925
 2762SOL     OW 9184   1.610   2.076   6.787
 2762SOL    HW1 9185   1.635   2.123   6.702
 2762SOL    HW2 9186   1.693   2.039   6.829
 2763SOL     OW 9187   4.852   1.494   6.123
 2763SOL    HW1 9188   4.852   1.519   6.026
 2763SOL    HW2 9189   4.761   1.462   6.149
 2764SOL     OW 9190   1.107   4.498   2.889
 2764SOL    HW1 9191   1.020   4.536   2.858
 2764SOL    HW2 9192   1.092   4.411   2.935
 2765SOL     OW 9193   6.349   6.769   6.847
 2765SOL    HW1 9194   6.327   6.705   6.921
 2765SOL    HW2 9195   6.407   6.843   6.883
 2766SOL     OW 9196   4.379   1.409   0.038
 2766SOL    HW1 9197   4.465   1.418   7.015
 2766SOL    HW2 9198   4.387   1.453   0.127
 2767SOL     OW 9199   5.721   5.779   6.059
 2767SOL    HW1 9200   5.625   5.750   6.058
 2767SOL    HW2 9201   5.780   5.699   6.061
 2768SOL     OW 9202   3.816   0.324   1.095
 2768SOL    HW1 9203   3.751   0.260   1.136
 2768SOL    HW2 9204   3.909   0.297   1.119
 2769SOL     OW 9205   1.863   3.759   5.486
 2769SOL    HW1 9206   1.948   3.800   5.453
 2769SOL    HW2 9207   1.789   3.825   5.477
 2770SOL     OW 9208   3.310   6.537   6.254
 2770SOL    HW1 9209   3.256   6.471   6.201
 2770SOL    HW2 9210   3.399   6.496   6.276
 2771SOL     OW 9211   4.971   0.082   4.017
 2771SOL    HW1 9212   4.913   0.153   4.058
 2771SOL    HW2 9213   5.003   0.113   3.928
 2772SOL     OW 9214   3.580   0.660   2.655
 2772SOL    HW1 9215   3.581   0.576   2.710
 2772SOL    HW2 9216   3.662   0.714   2.675
 2773SOL     OW 9217   0.469   2.711   4.783
 2773SOL    HW1 9218   0.465   2.710   4.883
 2773SOL    HW2 9219   0.399   2.773   4.748
 2774SOL     OW 9220   5.025   2.205   3.452
 2774SOL    HW1 9221   5.039   2.290   3.503
 2774SOL    HW2 9222   5.080   2.207   3.368
 2775SOL     OW 9223   0.164   3.867   4.248
 2775SOL    HW1 9224   0.129   3.787   4.199
 2775SOL    HW2 9225   0.198   3.839   4.338
 2776SOL     OW 9226   4.677   4.718   6.342
 2776SOL    HW1 9227   4.578   4.730   6.349
 2776SOL    HW2 9228   4.706   4.738   6.248
 2777SOL     OW 9229   3.244   2.306   5.802
 2777SOL    HW1 9230   3.319   2.264   5.854
 2777SOL    HW2 9231   3.243   2.269   5.709
 2778SOL     OW 9232   2.602   5.666   6.615
 2778SOL    HW1 9233   2.639   5.736   6.675
 2778SOL    HW2 9234   2.665   5.650   6.539
 2779SOL     OW 9235   5.672   6.216   2.190
 2779SOL    HW1 9236   5.660   6.315   2.181
 2779SOL    HW2 9237   5.602   6.169   2.137
 2780SOL     OW 9238   0.569   1.263   6.338
 2780SOL    HW1 9239   0.535   1.173   6.366
 2780SOL    HW2 9240   0.605   1.258   6.245
 2781SOL     OW 9241   6.668   0.685   2.260
 2781SOL    HW1 9242   6.719   0.727   2.185
 2781SOL    HW2 9243   6.571   0.705   2.250
 2782SOL     OW 9244   4.254   1.294   6.580
 2782SOL    HW1 9245   4.237   1.329   6.672
 2782SOL    HW2 9246   4.213   1.356   6.512
 2783SOL     OW 9247   6.149   3.523   2.213
 2783SOL    HW1 9248   6.157   3.587   2.136
 2783SOL    HW2 9249   6.102   3.441   2.184
 2784SOL     OW 9250   2.082   1.631   1.931
 2784SOL    HW1 9251   1.994   1.652   1.889
 2784SOL    HW2 9252   2.131   1.565   1.874
 2785SOL     OW 9253   5.099   3.135   1.687
 2785SOL    HW1 9254   5.176   3.084   1.651
 2785SOL    HW2 9255   5.078   3.104   1.780
 2786SOL     OW 9256   6.864   5.416   0.513
 2786SOL    HW1 9257   6.942   5.477   0.528
 2786SOL    HW2 9258   6.895   5.321   0.516
 2787SOL     OW 9259   6.186   5.884   5.886
 2787SOL    HW1 9260   6.108   5.930   5.842
 2787SOL    HW2 9261   6.259   5.871   5.819
 2788SOL     OW 9262   3.268   6.348   5.785
 2788SOL    HW1 9263   3.367   6.358   5.797
 2788SOL    HW2 9264   3.229   6.310   5.869
 2789SOL     OW 9265   1.467   2.843   4.070
 2789SOL    HW1 9266   1.529   2.885   4.136
 2789SOL    HW2 9267   1.447   2.749   4.098
 2790SOL     OW 9268   2.300   5.337   0.582
 2790SOL    HW1 9269   2.359   5.395   0.527
 2790SOL    HW2 9270   2.258   5.391   0.656
 2791SOL     OW 9271   6.781   3.545   2.634
 2791SOL    HW1 9272   6.699   3.502   2.596
 2791SOL    HW2 9273   6.851   3.474   2.650
 2792SOL     OW 9274   3.215   0.835   5.100
 2792SOL    HW1 9275   3.265   0.919   5.078
 2792SOL    HW2 9276   3.126   0.859   5.140
 2793SOL     OW 9277   4.089   3.933   1.345
 2793SOL    HW1 9278   4.120   4.025   1.367
 2793SOL    HW2 9279   4.134   3.868   1.406
 2794SOL     OW 9280   0.068   1.462   6.349
 2794SOL    HW1 9281   0.080   1.369   6.386
 2794SOL    HW2 9282   0.053   1.457   6.250
 2795SOL     OW 9283   0.203   4.792   1.187
 2795SOL    HW1 9284   0.218   4.873   1.130
 2795SOL    HW2 9285   0.291   4.762   1.224
 2796SOL     OW 9286   0.765   6.240   5.725
 2796SOL    HW1 9287   0.747   6.260   5.629
 2796SOL    HW2 9288   0.861   6.255   5.746
 2797SOL     OW 9289   5.654   6.632   4.532
 2797SOL    HW1 9290   5.564   6.660   4.567
 2797SOL    HW2 9291   5.641   6.562   4.462
 2798SOL     OW 9292   6.566   6.810   1.842
 2798SOL    HW1 9293   6.492   6.745   1.826
 2798SOL    HW2 9294   6.628   6.774   1.912
 2799SOL     OW 9295   4.082   6.109   4.739
 2799SOL    HW1 9296   4.015   6.086   4.809
 2799SOL    HW2 9297   4.042   6.094   4.648
 2800SOL     OW 9298   6.456   0.471   0.047
 2800SOL    HW1 9299   6.407   0.557   0.058
 2800SOL    HW2 9300   6.395   0.403   0.008
 2801SOL     OW 9301   0.410   5.159   6.115
 2801SOL    HW1 9302   0.323   5.208   6.113
 2801SOL    HW2 9303   0.394   5.060   6.121
 2802SOL     OW 9304   6.547   6.366   5.328
 2802SOL    HW1 9305   6.508   6.292   5.273
 2802SOL    HW2 9306   6.608   6.421   5.271
 2803SOL     OW 9307   3.389   3.176   5.939
 2803SOL    HW1 9308   3.413   3.213   5.849
 2803SOL    HW2 9309   3.464   3.194   6.003
 2804SOL     OW 9310   0.741   2.695   4.150
 2804SOL    HW1 9311   0.812   2.730   4.211
 2804SOL    HW2 9312   0.656   2.744   4.166
 2805SOL     OW 9313   4.783   3.861   1.725
 2805SOL    HW1 9314   4.742   3.786   1.672
 2805SOL    HW2 9315   4.880   3.870   1.700
 2806SOL     OW 9316   1.325   3.928   5.853
 2806SOL    HW1 9317   1.226   3.914   5.856
 2806SOL    HW2 9318   1.364   3.870   5.781
 2807SOL     OW 9319   2.861   0.238   2.660
 2807SOL    HW1 9320   2.805   0.321   2.658
 2807SOL    HW2 9321   2.809   0.161   2.625
 2808SOL     OW 9322   6.122   5.623   0.454
 2808SOL    HW1 9323   6.197   5.584   0.509
 2808SOL    HW2 9324   6.123   5.580   0.363
 2809SOL     OW 9325   6.364   4.996   2.277
 2809SOL    HW1 9326   6.378   5.093   2.255
 2809SOL    HW2 9327   6.350   4.987   2.376
 2810SOL     OW 9328   2.473   5.754   3.848
 2810SOL    HW1 9329   2.473   5.735   3.749
 2810SOL    HW2 9330   2.567   5.765   3.880
 2811SOL     OW 9331   0.428   0.113   2.266
 2811SOL    HW1 9332   0.517   0.156   2.248
 2811SOL    HW2 9333   0.355   0.171   2.230
 2812SOL     OW 9334   0.803   3.247   1.035
 2812SOL    HW1 9335   0.704   3.229   1.027
 2812SOL    HW2 9336   0.829   3.316   0.967
 2813SOL     OW 9337   0.206   1.929   1.051
 2813SOL    HW1 9338   0.114   1.919   1.089
 2813SOL    HW2 9339   0.242   2.020   1.074
 2814SOL     OW 9340   2.243   4.484   7.008
 2814SOL    HW1 9341   2.250   4.492   6.909
 2814SOL    HW2 9342   2.330   4.508   0.024
 2815SOL     OW 9343   0.209   5.683   4.896
 2815SOL    HW1 9344   0.187   5.711   4.989
 2815SOL    HW2 9345   0.135   5.627   4.860
 2816SOL     OW 9346   0.349   6.240   5.463
 2816SOL    HW1 9347   0.355   6.164   5.398
 2816SOL    HW2 9348   0.426   6.302   5.448
 2817SOL     OW 9349   3.977   0.439   1.965
 2817SOL    HW1 9350   3.905   0.380   1.929
 2817SOL    HW2 9351   4.028   0.391   2.036
 2818SOL     OW 9352   1.714   0.367   1.387
 2818SOL    HW1 9353   1.662   0.281   1.394
 2818SOL    HW2 9354   1.773   0.364   1.307
 2819SOL     OW 9355   0.576   7.023   0.601
 2819SOL    HW1 9356   0.603   6.928   0.586
 2819SOL    HW2 9357   0.498   0.019   0.542
 2820SOL     OW 9358   0.833   2.321   2.152
 2820SOL    HW1 9359   0.828   2.286   2.246
 2820SOL    HW2 9360   0.924   2.361   2.137
 2821SOL     OW 9361   3.530   4.203   6.628
 2821SOL    HW1 9362   3.584   4.286   6.613
 2821SOL    HW2 9363   3.537   4.144   6.548
 2822SOL     OW 9364   4.035   2.541   0.579
 2822SOL    HW1 9365   4.053   2.597   0.497
 2822SOL    HW2 9366   4.032   2.600   0.659
 2823SOL     OW 9367   5.226   1.248   0.670
 2823SOL    HW1 9368   5.225   1.172   0.605
 2823SOL    HW2 9369   5.133   1.264   0.703
 2824SOL     OW 9370   1.066   3.515   5.763
 2824SOL    HW1 9371   1.041   3.591   5.704
 2824SOL    HW2 9372   1.158   3.530   5.799
 2825SOL     OW 9373   5.200   1.715   6.211
 2825SOL    HW1 9374   5.192   1.623   6.250
 2825SOL    HW2 9375   5.209   1.708   6.111
 2826SOL     OW 9376   0.847   3.649   5.942
 2826SOL    HW1 9377   0.823   3.691   5.854
 2826SOL    HW2 9378   0.885   3.558   5.926
 2827SOL     OW 9379   0.038   1.195   6.459
 2827SOL    HW1 9380   6.981   1.223   6.411
 2827SOL    HW2 9381   0.037   1.096   6.473
 2828SOL     OW 9382   1.460   3.477   0.951
 2828SOL    HW1 9383   1.558   3.463   0.965
 2828SOL    HW2 9384   1.411   3.462   1.037
 2829SOL     OW 9385   3.645   4.143   3.379
 2829SOL    HW1 9386   3.585   4.144   3.459
 2829SOL    HW2 9387   3.740   4.159   3.407
 2830SOL     OW 9388   3.717   5.528   6.457
 2830SOL    HW1 9389   3.780   5.483   6.394
 2830SOL    HW2 9390   3.767   5.594   6.513
 2831SOL     OW 9391   6.876   2.312   2.203
 2831SOL    HW1 9392   6.834   2.394   2.242
 2831SOL    HW2 9393   6.924   2.337   2.119
 2832SOL     OW 9394   0.889   3.217   1.307
 2832SOL    HW1 9395   0.877   3.209   1.208
 2832SOL    HW2 9396   0.987   3.216   1.329
 2833SOL     OW 9397   2.211   1.297   1.989
 2833SOL    HW1 9398   2.203   1.366   1.917
 2833SOL    HW2 9399   2.121   1.277   2.026
 2834SOL     OW 9400   4.286   6.261   4.802
 2834SOL    HW1 9401   4.365   6.249   4.743
 2834SOL    HW2 9402   4.209   6.209   4.766
 2835SOL     OW 9403   1.030   6.220   0.495
 2835SOL    HW1 9404   1.106   6.274   0.456
 2835SOL    HW2 9405   1.068   6.145   0.550
 2836SOL     OW 9406   3.595   6.580   3.076
 2836SOL    HW1 9407   3.684   6.538   3.059
 2836SOL    HW2 9408   3.604   6.647   3.149
 2837SOL     OW 9409   5.807   3.838   2.504
 2837SOL    HW1 9410   5.821   3.742   2.481
 2837SOL    HW2 9411   5.889   3.890   2.483
 2838SOL     OW 9412   5.160   3.693   5.938
 2838SOL    HW1 9413   5.202   3.678   6.028
 2838SOL    HW2 9414   5.067   3.726   5.950
 2839SOL     OW 9415   6.181   3.488   4.392
 2839SOL    HW1 9416   6.229   3.460   4.308
 2839SOL    HW2 9417   6.083   3.493   4.374
 2840SOL     OW 9418   0.445   5.939   2.478
 2840SOL    HW1 9419   0.353   5.941   2.518
 2840SOL    HW2 9420   0.513   5.941   2.550
 2841SOL     OW 9421   6.050   2.255   1.533
 2841SOL    HW1 9422   6.119   2.245   1.604
 2841SOL    HW2 9423   6.090   2.302   1.454
 2842SOL     OW 9424   1.554   6.346   4.198
 2842SOL    HW1 9425   1.624   6.348   4.269
 2842SOL    HW2 9426   1.575   6.415   4.128
 2843SOL     OW 9427   2.313   2.745   3.184
 2843SOL    HW1 9428   2.384   2.674   3.188
 2843SOL    HW2 9429   2.247   2.722   3.112
 2844SOL     OW 9430   4.710   4.793   0.550
 2844SOL    HW1 9431   4.643   4.794   0.625
 2844SOL    HW2 9432   4.718   4.885   0.511
 2845SOL     OW 9433   4.329   2.283   2.943
 2845SOL    HW1 9434   4.392   2.355   2.972
 2845SOL    HW2 9435   4.378   2.196   2.939
 2846SOL     OW 9436   4.818   0.568   0.183
 2846SOL    HW1 9437   4.916   0.584   0.193
 2846SOL    HW2 9438   4.790   0.493   0.244
 2847SOL     OW 9439   4.699   4.326   2.222
 2847SOL    HW1 9440   4.646   4.310   2.305
 2847SOL    HW2 9441   4.642   4.309   2.142
 2848SOL     OW 9442   0.570   3.224   5.035
 2848SOL    HW1 9443   0.618   3.262   4.956
 2848SOL    HW2 9444   0.615   3.256   5.119
 2849SOL     OW 9445   3.388   0.302   2.537
 2849SOL    HW1 9446   3.408   0.332   2.631
 2849SOL    HW2 9447   3.363   0.205   2.538
 2850SOL     OW 9448   2.404   0.006   2.811
 2850SOL    HW1 9449   2.435   7.021   2.905
 2850SOL    HW2 9450   2.356   6.949   2.781
 2851SOL     OW 9451   4.371   3.333   1.000
 2851SOL    HW1 9452   4.470   3.341   0.997
 2851SOL    HW2 9453   4.344   3.237   0.997
 2852SOL     OW 9454   6.705   4.361   5.797
 2852SOL    HW1 9455   6.607   4.350   5.783
 2852SOL    HW2 9456   6.744   4.417   5.724
 2853SOL     OW 9457   0.086   3.666   0.426
 2853SOL    HW1 9458   0.055   3.754   0.389
 2853SOL    HW2 9459   0.119   3.608   0.351
 2854SOL     OW 9460   2.975   1.434   6.121
 2854SOL    HW1 9461   3.013   1.513   6.170
 2854SOL    HW2 9462   2.961   1.458   6.025
 2855SOL     OW 9463   1.765   1.571   4.419
 2855SOL    HW1 9464   1.700   1.641   4.446
 2855SOL    HW2 9465   1.736   1.529   4.332
 2856SOL     OW 9466   1.411   4.087   2.738
 2856SOL    HW1 9467   1.345   4.059   2.669
 2856SOL    HW2 9468   1.502   4.052   2.714
 2857SOL     OW 9469   0.453   2.945   0.990
 2857SOL    HW1 9470   0.432   2.904   0.901
 2857SOL    HW2 9471   0.376   2.929   1.053
 2858SOL     OW 9472   4.534   4.910   2.463
 2858SOL    HW1 9473   4.488   4.870   2.384
 2858SOL    HW2 9474   4.633   4.910   2.448
 2859SOL     OW 9475   5.302   5.787   1.430
 2859SOL    HW1 9476   5.233   5.828   1.371
 2859SOL    HW2 9477   5.284   5.812   1.525
 2860SOL     OW 9478   1.477   6.125   1.060
 2860SOL    HW1 9479   1.485   6.160   0.967
 2860SOL    HW2 9480   1.554   6.063   1.080
 2861SOL     OW 9481   4.159   4.557   6.376
 2861SOL    HW1 9482   4.128   4.464   6.355
 2861SOL    HW2 9483   4.173   4.565   6.475
 2862SOL     OW 9484   4.453   3.343   1.512
 2862SOL    HW1 9485   4.540   3.315   1.553
 2862SOL    HW2 9486   4.386   3.269   1.521
 2863SOL     OW 9487   6.021   6.968   5.687
 2863SOL    HW1 9488   6.104   7.022   5.704
 2863SOL    HW2 9489   5.950   6.995   5.752
 2864SOL     OW 9490   3.832   3.294   1.252
 2864SOL    HW1 9491   3.804   3.208   1.210
 2864SOL    HW2 9492   3.917   3.280   1.303
 2865SOL     OW 9493   5.226   6.205   4.556
 2865SOL    HW1 9494   5.188   6.283   4.606
 2865SOL    HW2 9495   5.161   6.175   4.486
 2866SOL     OW 9496   4.979   4.136   6.387
 2866SOL    HW1 9497   4.992   4.044   6.349
 2866SOL    HW2 9498   4.901   4.135   6.449
 2867SOL     OW 9499   6.247   6.781   1.756
 2867SOL    HW1 9500   6.312   6.706   1.768
 2867SOL    HW2 9501   6.287   6.866   1.791
 2868SOL     OW 9502   1.662   1.038   5.981
 2868SOL    HW1 9503   1.741   1.066   6.036
 2868SOL    HW2 9504   1.692   1.017   5.888
 2869SOL     OW 9505   5.351   6.120   3.647
 2869SOL    HW1 9506   5.391   6.189   3.587
 2869SOL    HW2 9507   5.315   6.163   3.730
 2870SOL     OW 9508   1.044   1.371   1.383
 2870SOL    HW1 9509   1.066   1.438   1.312
 2870SOL    HW2 9510   1.102   1.291   1.372
 2871SOL     OW 9511   6.639   2.110   1.435
 2871SOL    HW1 9512   6.591   2.169   1.370
 2871SOL    HW2 9513   6.573   2.053   1.484
 2872SOL     OW 9514   2.822   1.555   2.409
 2872SOL    HW1 9515   2.832   1.651   2.435
 2872SOL    HW2 9516   2.820   1.547   2.309
 2873SOL     OW 9517   0.803   6.088   1.115
 2873SOL    HW1 9518   0.771   6.059   1.025
 2873SOL    HW2 9519   0.725   6.121   1.168
 2874SOL     OW 9520   2.582   0.433   2.972
 2874SOL    HW1 9521   2.547   0.521   3.002
 2874SOL    HW2 9522   2.631   0.444   2.886
 2875SOL     OW 9523   3.051   0.059   2.423
 2875SOL    HW1 9524   3.017   0.106   2.341
 2875SOL    HW2 9525   3.037   0.117   2.503
 2876SOL     OW 9526   1.598   6.158   1.960
 2876SOL    HW1 9527   1.642   6.247   1.971
 2876SOL    HW2 9528   1.668   6.088   1.942
 2877SOL     OW 9529   1.754   0.979   5.730
 2877SOL    HW1 9530   1.731   0.906   5.664
 2877SOL    HW2 9531   1.835   0.953   5.782
 2878SOL     OW 9532   3.871   3.009   4.824
 2878SOL    HW1 9533   3.912   3.042   4.739
 2878SOL    HW2 9534   3.779   2.975   4.806
 2879SOL     OW 9535   3.802   4.325   5.821
 2879SOL    HW1 9536   3.809   4.392   5.747
 2879SOL    HW2 9537   3.893   4.297   5.850
 2880SOL     OW 9538   1.185   1.801   4.166
 2880SOL    HW1 9539   1.138   1.839   4.086
 2880SOL    HW2 9540   1.148   1.842   4.249
 2881SOL     OW 9541   3.075   6.135   6.735
 2881SOL    HW1 9542   2.997   6.073   6.727
 2881SOL    HW2 9543   3.046   6.228   6.713
 2882SOL     OW 9544   4.409   6.234   0.230
 2882SOL    HW1 9545   4.497   6.197   0.201
 2882SOL    HW2 9546   4.424   6.306   0.298
 2883SOL     OW 9547   6.138   6.480   3.135
 2883SOL    HW1 9548   6.078   6.504   3.058
 2883SOL    HW2 9549   6.139   6.555   3.201
 2884SOL     OW 9550   6.850   5.357   2.458
 2884SOL    HW1 9551   6.915   5.284   2.480
 2884SOL    HW2 9552   6.821   5.403   2.542
 2885SOL     OW 9553   1.227   3.290   2.657
 2885SOL    HW1 9554   1.185   3.229   2.590
 2885SOL    HW2 9555   1.265   3.236   2.732
 2886SOL     OW 9556   2.777   4.568   6.436
 2886SOL    HW1 9557   2.763   4.472   6.412
 2886SOL    HW2 9558   2.861   4.577   6.491
 2887SOL     OW 9559   0.732   6.778   4.244
 2887SOL    HW1 9560   0.683   6.721   4.309
 2887SOL    HW2 9561   0.668   6.842   4.201
 2888SOL     OW 9562   6.545   6.281   0.083
 2888SOL    HW1 9563   6.492   6.222   0.144
 2888SOL    HW2 9564   6.610   6.225   0.031
 2889SOL     OW 9565   2.928   6.744   3.031
 2889SOL    HW1 9566   2.853   6.776   3.089
 2889SOL    HW2 9567   2.929   6.644   3.031
 2890SOL     OW 9568   1.812   0.099   1.040
 2890SOL    HW1 9569   1.861   0.016   1.067
 2890SOL    HW2 9570   1.819   0.112   0.941
 2891SOL     OW 9571   6.751   3.373   3.040
 2891SOL    HW1 9572   6.808   3.413   3.112
 2891SOL    HW2 9573   6.654   3.388   3.063
 2892SOL     OW 9574   6.169   3.994   0.947
 2892SOL    HW1 9575   6.253   4.009   0.895
 2892SOL    HW2 9576   6.099   4.059   0.916
 2893SOL     OW 9577   0.090   5.336   4.612
 2893SOL    HW1 9578   0.074   5.277   4.533
 2893SOL    HW2 9579   0.002   5.364   4.651
 2894SOL     OW 9580   1.292   5.206   2.120
 2894SOL    HW1 9581   1.217   5.140   2.117
 2894SOL    HW2 9582   1.378   5.158   2.103
 2895SOL     OW 9583   3.658   0.134   6.145
 2895SOL    HW1 9584   3.700   0.049   6.178
 2895SOL    HW2 9585   3.562   0.136   6.173
 2896SOL     OW 9586   5.405   6.308   5.053
 2896SOL    HW1 9587   5.411   6.225   5.107
 2896SOL    HW2 9588   5.415   6.286   4.956
 2897SOL     OW 9589   2.867   4.818   3.157
 2897SOL    HW1 9590   2.966   4.823   3.144
 2897SOL    HW2 9591   2.821   4.870   3.084
 2898SOL     OW 9592   5.909   4.229   2.245
 2898SOL    HW1 9593   5.943   4.140   2.276
 2898SOL    HW2 9594   5.919   4.236   2.146
 2899SOL     OW 9595   6.924   2.608   0.752
 2899SOL    HW1 9596   6.992   2.570   0.815
 2899SOL    HW2 9597   6.896   2.537   0.688
 2900SOL     OW 9598   2.826   3.886   6.931
 2900SOL    HW1 9599   2.820   3.789   6.906
 2900SOL    HW2 9600   2.891   3.932   6.872
 2901SOL     OW 9601   1.435   4.087   3.060
 2901SOL    HW1 9602   1.489   4.005   3.074
 2901SOL    HW2 9603   1.460   4.129   2.972
 2902SOL     OW 9604   0.497   5.794   3.955
 2902SOL    HW1 9605   0.404   5.821   3.980
 2902SOL    HW2 9606   0.545   5.758   4.035
 2903SOL     OW 9607   4.248   6.025   0.767
 2903SOL    HW1 9608   4.315   6.034   0.692
 2903SOL    HW2 9609   4.156   6.023   0.729
 2904SOL     OW 9610   2.687   4.410   5.268
 2904SOL    HW1 9611   2.770   4.459   5.240
 2904SOL    HW2 9612   2.711   4.337   5.331
 2905SOL     OW 9613   0.940   4.275   2.261
 2905SOL    HW1 9614   0.865   4.211   2.241
 2905SOL    HW2 9615   0.902   4.364   2.285
 2906SOL     OW 9616   5.750   5.668   2.939
 2906SOL    HW1 9617   5.650   5.661   2.945
 2906SOL    HW2 9618   5.785   5.712   3.022
 2907SOL     OW 9619   0.779   0.463   3.621
 2907SOL    HW1 9620   0.859   0.493   3.673
 2907SOL    HW2 9621   0.801   0.463   3.523
 2908SOL     OW 9622   5.038   6.861   3.138
 2908SOL    HW1 9623   5.021   6.768   3.171
 2908SOL    HW2 9624   5.003   6.927   3.204
 2909SOL     OW 9625   1.096   5.866   2.028
 2909SOL    HW1 9626   1.166   5.895   1.962
 2909SOL    HW2 9627   1.087   5.766   2.023
 2910SOL     OW 9628   0.059   1.054   3.273
 2910SOL    HW1 9629   0.003   1.069   3.354
 2910SOL    HW2 9630   0.153   1.034   3.300
 2911SOL     OW 9631   6.636   4.440   3.612
 2911SOL    HW1 9632   6.695   4.423   3.533
 2911SOL    HW2 9633   6.684   4.414   3.696
 2912SOL     OW 9634   6.784   6.463   0.460
 2912SOL    HW1 9635   6.862   6.414   0.421
 2912SOL    HW2 9636   6.706   6.456   0.398
 2913SOL     OW 9637   1.933   5.116   1.317
 2913SOL    HW1 9638   1.943   5.021   1.286
 2913SOL    HW2 9639   1.836   5.136   1.330
 2914SOL     OW 9640   5.510   5.019   0.410
 2914SOL    HW1 9641   5.568   4.938   0.414
 2914SOL    HW2 9642   5.452   5.022   0.492
 2915SOL     OW 9643   3.671   1.616   2.955
 2915SOL    HW1 9644   3.726   1.628   3.038
 2915SOL    HW2 9645   3.581   1.659   2.968
 2916SOL     OW 9646   2.218   5.696   0.515
 2916SOL    HW1 9647   2.219   5.768   0.445
 2916SOL    HW2 9648   2.130   5.695   0.561
 2917SOL     OW 9649   2.446   6.916   3.095
 2917SOL    HW1 9650   2.504   6.839   3.122
 2917SOL    HW2 9651   2.460   6.992   3.158
 2918SOL     OW 9652   5.986   4.134   0.806
 2918SOL    HW1 9653   5.921   4.091   0.743
 2918SOL    HW2 9654   5.945   4.217   0.844
 2919SOL     OW 9655   0.823   6.518   4.647
 2919SOL    HW1 9656   0.918   6.521   4.676
 2919SOL    HW2 9657   0.792   6.423   4.640
 2920SOL     OW 9658   1.352   0.457   2.043
 2920SOL    HW1 9659   1.324   0.504   2.127
 2920SOL    HW2 9660   1.295   0.375   2.031
 2921SOL     OW 9661   0.228   0.030   5.822
 2921SOL    HW1 9662   0.166   0.108   5.824
 2921SOL    HW2 9663   0.284   0.030   5.904
 2922SOL     OW 9664   4.677   0.935   3.426
 2922SOL    HW1 9665   4.669   1.031   3.452
 2922SOL    HW2 9666   4.594   0.886   3.454
 2923SOL     OW 9667   6.253   4.779   4.822
 2923SOL    HW1 9668   6.294   4.821   4.903
 2923SOL    HW2 9669   6.257   4.843   4.745
 2924SOL     OW 9670   7.003   2.392   5.435
 2924SOL    HW1 9671   0.003   2.481   5.472
 2924SOL    HW2 9672   6.980   2.401   5.338
 2925SOL     OW 9673   5.579   1.167   5.724
 2925SOL    HW1 9674   5.483   1.154   5.746
 2925SOL    HW2 9675   5.631   1.085   5.748
 2926SOL     OW 9676   0.452   1.413   4.825
 2926SOL    HW1 9677   0.499   1.326   4.812
 2926SOL    HW2 9678   0.353   1.397   4.826
 2927SOL     OW 9679   1.955   2.469   1.616
 2927SOL    HW1 9680   2.027   2.476   1.685
 2927SOL    HW2 9681   1.871   2.434   1.659
 2928SOL     OW 9682   6.631   2.037   7.008
 2928SOL    HW1 9683   6.563   2.045   0.055
 2928SOL    HW2 9684   6.613   2.107   6.938
 2929SOL     OW 9685   1.917   2.337   4.619
 2929SOL    HW1 9686   1.986   2.289   4.673
 2929SOL    HW2 9687   1.826   2.317   4.657
 2930SOL     OW 9688   6.998   5.592   4.797
 2930SOL    HW1 9689   6.982   5.685   4.831
 2930SOL    HW2 9690   6.988   5.591   4.697
 2931SOL     OW 9691   3.743   3.919   6.418
 2931SOL    HW1 9692   3.792   3.948   6.336
 2931SOL    HW2 9693   3.725   3.821   6.413
 2932SOL     OW 9694   6.645   5.508   0.626
 2932SOL    HW1 9695   6.733   5.488   0.584
 2932SOL    HW2 9696   6.573   5.503   0.557
 2933SOL     OW 9697   0.890   6.819   0.991
 2933SOL    HW1 9698   0.933   6.884   0.929
 2933SOL    HW2 9699   0.950   6.740   1.005
 2934SOL     OW 9700   4.059   3.476   0.685
 2934SOL    HW1 9701   4.045   3.575   0.679
 2934SOL    HW2 9702   4.155   3.458   0.707
 2935SOL     OW 9703   0.461   2.568   6.432
 2935SOL    HW1 9704   0.453   2.597   6.337
 2935SOL    HW2 9705   0.456   2.468   6.437
 2936SOL     OW 9706   4.683   0.404   0.566
 2936SOL    HW1 9707   4.733   0.326   0.602
 2936SOL    HW2 9708   4.747   0.479   0.548
 2937SOL     OW 9709   3.987   5.716   1.936
 2937SOL    HW1 9710   4.004   5.655   1.859
 2937SOL    HW2 9711   3.963   5.661   2.016
 2938SOL     OW 9712   6.378   6.152   6.137
 2938SOL    HW1 9713   6.322   6.069   6.129
 2938SOL    HW2 9714   6.326   6.222   6.185
 2939SOL     OW 9715   0.020   5.502   1.617
 2939SOL    HW1 9716   6.993   5.418   1.625
 2939SOL    HW2 9717   0.084   5.493   1.541
 2940SOL     OW 9718   5.533   5.838   3.908
 2940SOL    HW1 9719   5.608   5.792   3.861
 2940SOL    HW2 9720   5.514   5.792   3.995
 2941SOL     OW 9721   1.793   3.207   3.620
 2941SOL    HW1 9722   1.754   3.191   3.530
 2941SOL    HW2 9723   1.879   3.257   3.611
 2942SOL     OW 9724   2.626   1.581   0.159
 2942SOL    HW1 9725   2.545   1.607   0.212
 2942SOL    HW2 9726   2.705   1.634   0.191
 2943SOL     OW 9727   5.926   4.470   3.791
 2943SOL    HW1 9728   6.004   4.532   3.799
 2943SOL    HW2 9729   5.843   4.516   3.823
 2944SOL     OW 9730   2.659   6.309   4.144
 2944SOL    HW1 9731   2.744   6.313   4.196
 2944SOL    HW2 9732   2.614   6.221   4.160
 2945SOL     OW 9733   5.453   4.235   1.397
 2945SOL    HW1 9734   5.438   4.221   1.495
 2945SOL    HW2 9735   5.551   4.241   1.379
 2946SOL     OW 9736   2.813   3.942   6.303
 2946SOL    HW1 9737   2.799   3.982   6.212
 2946SOL    HW2 9738   2.802   3.843   6.297
 2947SOL     OW 9739   6.015   6.259   0.843
 2947SOL    HW1 9740   6.056   6.179   0.800
 2947SOL    HW2 9741   6.063   6.280   0.928
 2948SOL     OW 9742   5.925   4.537   3.071
 2948SOL    HW1 9743   5.884   4.589   3.146
 2948SOL    HW2 9744   5.906   4.439   3.083
 2949SOL     OW 9745   1.276   6.924   1.655
 2949SOL    HW1 9746   1.338   6.850   1.680
 2949SOL    HW2 9747   1.233   6.903   1.567
 2950SOL     OW 9748   4.799   4.884   2.490
 2950SOL    HW1 9749   4.881   4.942   2.494
 2950SOL    HW2 9750   4.824   4.795   2.451
 2951SOL     OW 9751   5.951   0.858   1.292
 2951SOL    HW1 9752   5.918   0.848   1.386
 2951SOL    HW2 9753   5.899   0.928   1.245
 2952SOL     OW 9754   5.569   0.769   4.202
 2952SOL    HW1 9755   5.575   0.855   4.151
 2952SOL    HW2 9756   5.659   0.728   4.210
 2953SOL     OW 9757   0.943   6.226   3.247
 2953SOL    HW1 9758   0.853   6.186   3.266
 2953SOL    HW2 9759   0.969   6.205   3.153
 2954SOL     OW 9760   0.704   4.444   6.172
 2954SOL    HW1 9761   0.702   4.391   6.257
 2954SOL    HW2 9762   0.684   4.383   6.095
 2955SOL     OW 9763   1.373   4.011   6.926
 2955SOL    HW1 9764   1.311   3.966   6.990
 2955SOL    HW2 9765   1.440   3.945   6.893
 2956SOL     OW 9766   6.396   4.571   3.638
 2956SOL    HW1 9767   6.311   4.518   3.629
 2956SOL    HW2 9768   6.474   4.509   3.633
 2957SOL     OW 9769   2.843   4.976   1.797
 2957SOL    HW1 9770   2.877   5.061   1.757
 2957SOL    HW2 9771   2.903   4.900   1.771
 2958SOL     OW 9772   2.131   5.028   3.405
 2958SOL    HW1 9773   2.141   4.994   3.498
 2958SOL    HW2 9774   2.192   5.106   3.391
 2959SOL     OW 9775   6.504   2.585   2.754
 2959SOL    HW1 9776   6.418   2.576   2.704
 2959SOL    HW2 9777   6.577   2.542   2.701
 2960SOL     OW 9778   4.229   0.815   0.520
 2960SOL    HW1 9779   4.171   0.830   0.601
 2960SOL    HW2 9780   4.201   0.730   0.475
 2961SOL     OW 9781   5.396   4.345   2.107
 2961SOL    HW1 9782   5.296   4.337   2.101
 2961SOL    HW2 9783   5.438   4.261   2.074
 2962SOL     OW 9784   6.559   6.231   2.158
 2962SOL    HW1 9785   6.522   6.236   2.251
 2962SOL    HW2 9786   6.610   6.146   2.147
 2963SOL     OW 9787   1.387   1.034   5.721
 2963SOL    HW1 9788   1.407   0.955   5.663
 2963SOL    HW2 9789   1.461   1.101   5.714
 2964SOL     OW 9790   0.699   2.998   6.684
 2964SOL    HW1 9791   0.693   2.968   6.779
 2964SOL    HW2 9792   0.707   2.919   6.624
 2965SOL     OW 9793   0.620   0.830   4.993
 2965SOL    HW1 9794   0.652   0.785   5.076
 2965SOL    HW2 9795   0.521   0.844   4.999
 2966SOL     OW 9796   4.266   5.746   3.574
 2966SOL    HW1 9797   4.315   5.665   3.543
 2966SOL    HW2 9798   4.181   5.755   3.522
 2967SOL     OW 9799   6.597   1.172   5.515
 2967SOL    HW1 9800   6.635   1.125   5.436
 2967SOL    HW2 9801   6.671   1.194   5.579
 2968SOL     OW 9802   1.525   1.863   1.386
 2968SOL    HW1 9803   1.474   1.942   1.351
 2968SOL    HW2 9804   1.540   1.798   1.312
 2969SOL     OW 9805   5.317   3.943   4.633
 2969SOL    HW1 9806   5.413   3.938   4.661
 2969SOL    HW2 9807   5.259   3.947   4.715
 2970SOL     OW 9808   2.226   2.887   4.857
 2970SOL    HW1 9809   2.131   2.912   4.872
 2970SOL    HW2 9810   2.283   2.924   4.930
 2971SOL     OW 9811   5.706   3.778   6.995
 2971SOL    HW1 9812   5.698   3.680   7.014
 2971SOL    HW2 9813   5.691   3.830   0.053
 2972SOL     OW 9814   6.056   5.546   6.293
 2972SOL    HW1 9815   6.086   5.564   6.387
 2972SOL    HW2 9816   6.127   5.575   6.229
 2973SOL     OW 9817   5.368   6.957   2.124
 2973SOL    HW1 9818   5.392   7.005   2.209
 2973SOL    HW2 9819   5.332   6.867   2.146
 2974SOL     OW 9820   5.470   5.026   3.718
 2974SOL    HW1 9821   5.442   4.935   3.748
 2974SOL    HW2 9822   5.530   5.018   3.639
 2975SOL     OW 9823   4.824   4.617   4.284
 2975SOL    HW1 9824   4.781   4.541   4.235
 2975SOL    HW2 9825   4.754   4.669   4.334
 2976SOL     OW 9826   4.852   2.252   2.591
 2976SOL    HW1 9827   4.950   2.266   2.579
 2976SOL    HW2 9828   4.803   2.279   2.508
 2977SOL     OW 9829   0.427   6.971   1.534
 2977SOL    HW1 9830   0.379   0.033   1.531
 2977SOL    HW2 9831   0.361   6.898   1.552
 2978SOL     OW 9832   4.015   4.640   5.888
 2978SOL    HW1 9833   4.056   4.718   5.841
 2978SOL    HW2 9834   3.937   4.606   5.835
 2979SOL     OW 9835   2.646   1.599   4.583
 2979SOL    HW1 9836   2.726   1.572   4.529
 2979SOL    HW2 9837   2.590   1.663   4.531
 2980SOL     OW 9838   3.902   3.960   6.188
 2980SOL    HW1 9839   3.864   3.894   6.123
 2980SOL    HW2 9840   3.997   3.936   6.208
 2981SOL     OW 9841   1.890   1.160   0.689
 2981SOL    HW1 9842   1.927   1.100   0.618
 2981SOL    HW2 9843   1.801   1.125   0.719
 2982SOL     OW 9844   1.461   6.778   2.048
 2982SOL    HW1 9845   1.502   6.744   1.963
 2982SOL    HW2 9846   1.361   6.779   2.038
 2983SOL     OW 9847   6.095   3.229   6.926
 2983SOL    HW1 9848   6.130   3.151   6.978
 2983SOL    HW2 9849   6.167   3.298   6.916
 2984SOL     OW 9850   6.296   4.855   0.060
 2984SOL    HW1 9851   6.269   4.950   0.042
 2984SOL    HW2 9852   6.270   4.798   7.008
 2985SOL     OW 9853   0.440   0.536   4.978
 2985SOL    HW1 9854   0.442   0.436   4.978
 2985SOL    HW2 9855   0.448   0.570   5.072
 2986SOL     OW 9856   3.397   4.130   2.680
 2986SOL    HW1 9857   3.349   4.213   2.651
 2986SOL    HW2 9858   3.461   4.153   2.753
 2987SOL     OW 9859   0.607   1.780   4.285
 2987SOL    HW1 9860   0.675   1.804   4.216
 2987SOL    HW2 9861   0.583   1.861   4.338
 2988SOL     OW 9862   0.947   1.339   0.960
 2988SOL    HW1 9863   1.017   1.410   0.948
 2988SOL    HW2 9864   0.909   1.314   0.871
 2989SOL     OW 9865   5.275   3.016   4.871
 2989SOL    HW1 9866   5.183   3.052   4.880
 2989SOL    HW2 9867   5.342   3.087   4.894
 2990SOL     OW 9868   4.887   1.929   4.991
 2990SOL    HW1 9869   4.931   1.979   4.917
 2990SOL    HW2 9870   4.798   1.895   4.960
 2991SOL     OW 9871   5.550   3.105   0.839
 2991SOL    HW1 9872   5.648   3.098   0.820
 2991SOL    HW2 9873   5.524   3.202   0.847
 2992SOL     OW 9874   0.501   3.748   5.432
 2992SOL    HW1 9875   0.463   3.657   5.417
 2992SOL    HW2 9876   0.440   3.817   5.392
 2993SOL     OW 9877   0.949   4.623   6.731
 2993SOL    HW1 9878   0.889   4.693   6.692
 2993SOL    HW2 9879   1.013   4.666   6.795
 2994SOL     OW 9880   4.664   6.040   0.135
 2994SOL    HW1 9881   4.752   6.087   0.145
 2994SOL    HW2 9882   4.654   6.006   0.042
 2995SOL     OW 9883   4.656   0.071   0.839
 2995SOL    HW1 9884   4.717   0.122   0.780
 2995SOL    HW2 9885   4.703   7.016   0.874
 2996SOL     OW 9886   1.623   1.773   4.595
 2996SOL    HW1 9887   1.665   1.726   4.673
 2996SOL    HW2 9888   1.526   1.789   4.614
 2997SOL     OW 9889   5.002   0.877   3.712
 2997SOL    HW1 9890   5.075   0.936   3.677
 2997SOL    HW2 9891   5.003   0.878   3.812
 2998SOL     OW 9892   2.851   0.934   3.253
 2998SOL    HW1 9893   2.940   0.944   3.208
 2998SOL    HW2 9894   2.838   1.010   3.317
 2999SOL     OW 9895   2.441   4.524   0.495
 2999SOL    HW1 9896   2.350   4.557   0.471
 2999SOL    HW2 9897   2.471   4.455   0.429
 3000SOL     OW 9898   2.855   3.794   5.176
 3000SOL    HW1 9899   2.850   3.868   5.243
 3000SOL    HW2 9900   2.950   3.765   5.166
 3001SOL     OW 9901   6.099   1.872   6.257
 3001SOL    HW1 9902   6.049   1.790   6.284
 3001SOL    HW2 9903   6.166   1.895   6.328
 3002SOL     OW 9904   2.847   1.213   1.320
 3002SOL    HW1 9905   2.813   1.299   1.281
 3002SOL    HW2 9906   2.829   1.138   1.256
 3003SOL     OW 9907   1.195   6.005   0.591
 3003SOL    HW1 9908   1.205   5.905   0.585
 3003SOL    HW2 9909   1.283   6.048   0.571
 3004SOL     OW 9910   2.624   5.024   3.992
 3004SOL    HW1 9911   2.591   4.970   4.069
 3004SOL    HW2 9912   2.721   5.005   3.976
 3005SOL     OW 9913   1.401   2.747   5.889
 3005SOL    HW1 9914   1.499   2.727   5.893
 3005SOL    HW2 9915   1.361   2.698   5.812
 3006SOL     OW 9916   4.900   2.171   5.280
 3006SOL    HW1 9917   4.844   2.088   5.273
 3006SOL    HW2 9918   4.959   2.179   5.199
 3007SOL     OW 9919   5.837   5.389   0.047
 3007SOL    HW1 9920   5.863   5.485   0.062
 3007SOL    HW2 9921   5.866   5.334   0.125
 3008SOL     OW 9922   4.196   2.582   5.752
 3008SOL    HW1 9923   4.117   2.522   5.754
 3008SOL    HW2 9924   4.175   2.663   5.697
 3009SOL     OW 9925   0.442   2.829   3.119
 3009SOL    HW1 9926   0.419   2.762   3.190
 3009SOL    HW2 9927   0.434   2.786   3.029
 3010SOL     OW 9928   4.035   5.531   6.329
 3010SOL    HW1 9929   4.120   5.552   6.281
 3010SOL    HW2 9930   4.046   5.552   6.427
 3011SOL     OW 9931   6.081   0.260   1.028
 3011SOL    HW1 9932   6.089   0.162   1.048
 3011SOL    HW2 9933   6.109   0.277   0.934
 3012SOL     OW 9934   2.867   3.009   6.215
 3012SOL    HW1 9935   2.877   3.070   6.136
 3012SOL    HW2 9936   2.880   3.061   6.299
 3013SOL     OW 9937   0.170   6.183   3.797
 3013SOL    HW1 9938   0.225   6.190   3.714
 3013SOL    HW2 9939   0.190   6.260   3.858
 3014SOL     OW 9940   4.672   1.086   5.373
 3014SOL    HW1 9941   4.715   1.017   5.314
 3014SOL    HW2 9942   4.574   1.070   5.378
 3015SOL     OW 9943   1.561   0.897   0.616
 3015SOL    HW1 9944   1.463   0.881   0.631
 3015SOL    HW2 9945   1.576   0.931   0.524
 3016SOL     OW 9946   2.979   6.588   4.378
 3016SOL    HW1 9947   2.981   6.650   4.457
 3016SOL    HW2 9948   3.072   6.564   4.352
 3017SOL     OW 9949   6.349   5.804   1.907
 3017SOL    HW1 9950   6.322   5.897   1.883
 3017SOL    HW2 9951   6.333   5.743   1.829
 3018SOL     OW 9952   3.439   0.361   0.206
 3018SOL    HW1 9953   3.381   0.308   0.143
 3018SOL    HW2 9954   3.492   0.299   0.263
 3019SOL     OW 9955   1.585   6.855   6.282
 3019SOL    HW1 9956   1.502   6.801   6.273
 3019SOL    HW2 9957   1.565   6.939   6.333
 3020SOL     OW 9958   5.299   3.345   0.181
 3020SOL    HW1 9959   5.309   3.312   0.087
 3020SOL    HW2 9960   5.377   3.316   0.235
 3021SOL     OW 9961   3.363   6.551   5.091
 3021SOL    HW1 9962   3.414   6.626   5.131
 3021SOL    HW2 9963   3.329   6.491   5.163
 3022SOL     OW 9964   3.885   5.936   3.587
 3022SOL    HW1 9965   3.923   5.862   3.530
 3022SOL    HW2 9966   3.803   5.902   3.634
 3023SOL     OW 9967   4.238   6.599   2.859
 3023SOL    HW1 9968   4.186   6.528   2.811
 3023SOL    HW2 9969   4.327   6.611   2.815
 3024SOL     OW 9970   0.054   6.650   6.138
 3024SOL    HW1 9971   0.109   6.583   6.089
 3024SOL    HW2 9972   0.047   6.624   6.234
 3025SOL     OW 9973   4.043   6.084   1.000
 3025SOL    HW1 9974   4.026   6.153   0.930
 3025SOL    HW2 9975   4.128   6.104   1.048
 3026SOL     OW 9976   5.461   1.457   0.313
 3026SOL    HW1 9977   5.413   1.518   0.375
 3026SOL    HW2 9978   5.454   1.492   0.219
 3027SOL     OW 9979   5.014   1.564   1.627
 3027SOL    HW1 9980   5.038   1.598   1.536
 3027SOL    HW2 9981   4.932   1.507   1.620
 3028SOL     OW 9982   2.530   4.451   6.348
 3028SOL    HW1 9983   2.583   4.534   6.333
 3028SOL    HW2 9984   2.565   4.378   6.289
 3029SOL     OW 9985   0.934   2.315   4.521
 3029SOL    HW1 9986   0.997   2.316   4.444
 3029SOL    HW2 9987   0.978   2.354   4.602
 3030SOL     OW 9988   1.303   3.939   1.731
 3030SOL    HW1 9989   1.234   3.984   1.788
 3030SOL    HW2 9990   1.393   3.950   1.772
 3031SOL     OW 9991   1.494   5.726   1.141
 3031SOL    HW1 9992   1.420   5.774   1.188
 3031SOL    HW2 9993   1.581   5.749   1.184
 3032SOL     OW 9994   1.403   0.426   2.924
 3032SOL    HW1 9995   1.422   0.349   2.864
 3032SOL    HW2 9996   1.480   0.489   2.922
 3033SOL     OW 9997   6.532   2.546   4.541
 3033SOL    HW1 9998   6.589   2.465   4.552
 3033SOL    HW2 9999   6.525   2.594   4.628
 3034SOL     OW10000   0.613   5.982   3.824
 3034SOL    HW110001   0.682   5.968   3.754
 3034SOL    HW210002   0.580   5.894   3.857
 3035SOL     OW10003   1.752   2.280   6.261
 3035SOL    HW110004   1.837   2.320   6.296
 3035SOL    HW210005   1.755   2.278   6.161
 3036SOL     OW10006   2.281   2.239   6.338
 3036SOL    HW110007   2.332   2.301   6.398
 3036SOL    HW210008   2.315   2.248   6.245
 3037SOL     OW10009   0.751   5.705   6.092
 3037SOL    HW110010   0.822   5.768   6.062
 3037SOL    HW210011   0.739   5.712   6.191
 3038SOL     OW10012   4.871   5.055   6.153
 3038SOL    HW110013   4.835   5.109   6.230
 3038SOL    HW210014   4.965   5.029   6.172
 3039SOL     OW10015   6.089   3.912   6.655
 3039SOL    HW110016   6.002   3.887   6.699
 3039SOL    HW210017   6.165   3.886   6.714
 3040SOL     OW10018   3.612   4.091   5.693
 3040SOL    HW110019   3.655   4.122   5.608
 3040SOL    HW210020   3.642   4.149   5.768
 3041SOL     OW10021   2.057   4.153   4.992
 3041SOL    HW110022   2.035   4.099   5.073
 3041SOL    HW210023   2.146   4.126   4.956
 3042SOL     OW10024   0.530   5.113   3.393
 3042SOL    HW110025   0.584   5.081   3.315
 3042SOL    HW210026   0.524   5.040   3.461
 3043SOL     OW10027   3.036   4.107   0.993
 3043SOL    HW110028   3.118   4.082   1.045
 3043SOL    HW210029   3.049   4.197   0.951
 3044SOL     OW10030   3.558   3.687   4.941
 3044SOL    HW110031   3.607   3.612   4.896
 3044SOL    HW210032   3.604   3.773   4.921
 3045SOL     OW10033   5.024   1.583   3.078
 3045SOL    HW110034   5.050   1.536   3.162
 3045SOL    HW210035   5.105   1.606   3.025
 3046SOL     OW10036   5.631   5.484   0.561
 3046SOL    HW110037   5.607   5.465   0.656
 3046SOL    HW210038   5.636   5.398   0.510
 3047SOL     OW10039   6.183   0.394   6.949
 3047SOL    HW110040   6.123   0.374   6.872
 3047SOL    HW210041   6.190   0.493   6.962
 3048SOL     OW10042   4.083   3.238   1.390
 3048SOL    HW110043   4.110   3.334   1.404
 3048SOL    HW210044   4.151   3.178   1.431
 3049SOL     OW10045   1.254   0.474   4.246
 3049SOL    HW110046   1.229   0.481   4.343
 3049SOL    HW210047   1.200   0.539   4.193
 3050SOL     OW10048   3.226   2.274   1.399
 3050SOL    HW110049   3.245   2.203   1.332
 3050SOL    HW210050   3.297   2.345   1.393
 3051SOL     OW10051   2.494   6.926   4.785
 3051SOL    HW110052   2.445   7.013   4.779
 3051SOL    HW210053   2.528   6.913   4.878
 3052SOL     OW10054   5.893   6.231   2.746
 3052SOL    HW110055   5.833   6.311   2.756
 3052SOL    HW210056   5.989   6.262   2.749
 3053SOL     OW10057   2.021   4.200   0.601
 3053SOL    HW110058   2.027   4.274   0.534
 3053SOL    HW210059   1.962   4.128   0.567
 3054SOL     OW10060   5.577   1.447   2.951
 3054SOL    HW110061   5.671   1.472   2.972
 3054SOL    HW210062   5.531   1.523   2.905
 3055SOL     OW10063   6.086   5.887   6.591
 3055SOL    HW110064   6.015   5.822   6.566
 3055SOL    HW210065   6.046   5.963   6.643
 3056SOL     OW10066   4.925   1.680   6.291
 3056SOL    HW110067   4.882   1.612   6.231
 3056SOL    HW210068   5.008   1.714   6.247
 3057SOL     OW10069   6.240   5.575   3.490
 3057SOL    HW110070   6.199   5.651   3.540
 3057SOL    HW210071   6.333   5.559   3.525
 3058SOL     OW10072   5.719   3.949   0.210
 3058SOL    HW110073   5.707   4.019   0.281
 3058SOL    HW210074   5.811   3.910   0.218
 3059SOL     OW10075   2.389   2.540   4.678
 3059SOL    HW110076   2.391   2.571   4.583
 3059SOL    HW210077   2.472   2.487   4.698
 3060SOL     OW10078   3.866   5.034   5.422
 3060SOL    HW110079   3.820   4.963   5.474
 3060SOL    HW210080   3.856   5.015   5.324
 3061SOL     OW10081   5.160   4.472   5.553
 3061SOL    HW110082   5.149   4.555   5.607
 3061SOL    HW210083   5.216   4.492   5.473
 3062SOL     OW10084   4.394   4.392   1.439
 3062SOL    HW110085   4.482   4.363   1.476
 3062SOL    HW210086   4.348   4.452   1.504
 3063SOL     OW10087   6.894   4.101   1.367
 3063SOL    HW110088   6.844   4.071   1.448
 3063SOL    HW210089   6.991   4.111   1.390
 3064SOL     OW10090   3.972   2.367   6.793
 3064SOL    HW110091   3.901   2.394   6.858
 3064SOL    HW210092   3.988   2.442   6.728
 3065SOL     OW10093   1.017   0.573   0.429
 3065SOL    HW110094   1.097   0.612   0.382
 3065SOL    HW210095   0.941   0.638   0.426
 3066SOL     OW10096   4.776   5.760   5.682
 3066SOL    HW110097   4.716   5.818   5.738
 3066SOL    HW210098   4.722   5.691   5.635
 3067SOL     OW10099   2.776   2.066   6.892
 3067SOL    HW110100   2.763   1.982   6.840
 3067SOL    HW210101   2.798   2.141   6.829
 3068SOL     OW10102   0.412   1.096   0.811
 3068SOL    HW110103   0.425   1.155   0.891
 3068SOL    HW210104   0.372   1.009   0.839
 3069SOL     OW10105   5.133   6.957   2.758
 3069SOL    HW110106   5.036   6.972   2.743
 3069SOL    HW210107   5.151   6.947   2.856
 3070SOL     OW10108   2.945   1.501   0.902
 3070SOL    HW110109   2.944   1.601   0.902
 3070SOL    HW210110   2.940   1.467   0.996
 3071SOL     OW10111   0.475   3.045   3.528
 3071SOL    HW110112   0.471   3.022   3.626
 3071SOL    HW210113   0.474   2.960   3.474
 3072SOL     OW10114   2.037   6.695   6.589
 3072SOL    HW110115   2.101   6.695   6.512
 3072SOL    HW210116   2.001   6.603   6.604
 3073SOL     OW10117   5.941   4.736   0.730
 3073SOL    HW110118   5.987   4.813   0.774
 3073SOL    HW210119   6.009   4.678   0.685
 3074SOL     OW10120   1.037   3.731   1.083
 3074SOL    HW110121   1.064   3.635   1.073
 3074SOL    HW210122   0.982   3.742   1.166
 3075SOL     OW10123   2.037   5.231   3.826
 3075SOL    HW110124   2.044   5.296   3.901
 3075SOL    HW210125   2.128   5.211   3.790
 3076SOL     OW10126   0.206   1.279   4.820
 3076SOL    HW110127   0.138   1.340   4.861
 3076SOL    HW210128   0.187   1.268   4.723
 3077SOL     OW10129   6.674   4.053   1.223
 3077SOL    HW110130   6.753   4.092   1.270
 3077SOL    HW210131   6.699   3.965   1.184
 3078SOL     OW10132   6.577   2.867   1.679
 3078SOL    HW110133   6.586   2.962   1.649
 3078SOL    HW210134   6.572   2.808   1.598
 3079SOL     OW10135   1.949   2.702   5.141
 3079SOL    HW110136   1.972   2.628   5.078
 3079SOL    HW210137   2.030   2.727   5.194
 3080SOL     OW10138   4.821   4.879   0.912
 3080SOL    HW110139   4.891   4.939   0.875
 3080SOL    HW210140   4.863   4.794   0.945
 3081SOL     OW10141   1.389   4.153   0.769
 3081SOL    HW110142   1.440   4.224   0.722
 3081SOL    HW210143   1.410   4.064   0.729
 3082SOL     OW10144   3.852   5.151   4.456
 3082SOL    HW110145   3.825   5.157   4.360
 3082SOL    HW210146   3.799   5.078   4.501
 3083SOL     OW10147   2.034   5.916   2.908
 3083SOL    HW110148   1.989   5.834   2.942
 3083SOL    HW210149   1.985   5.950   2.828
 3084SOL     OW10150   1.085   3.696   3.249
 3084SOL    HW110151   1.143   3.771   3.280
 3084SOL    HW210152   1.013   3.679   3.317
 3085SOL     OW10153   4.722   5.138   0.690
 3085SOL    HW110154   4.768   5.226   0.697
 3085SOL    HW210155   4.734   5.101   0.598
 3086SOL     OW10156   6.530   1.242   6.611
 3086SOL    HW110157   6.626   1.213   6.609
 3086SOL    HW210158   6.491   1.234   6.519
 3087SOL     OW10159   3.002   6.705   2.067
 3087SOL    HW110160   2.976   6.748   2.153
 3087SOL    HW210161   2.937   6.731   1.996
 3088SOL     OW10162   0.394   2.937   5.442
 3088SOL    HW110163   0.361   2.866   5.503
 3088SOL    HW210164   0.478   2.906   5.397
 3089SOL     OW10165   4.807   6.987   5.090
 3089SOL    HW110166   4.850   0.045   5.124
 3089SOL    HW210167   4.798   6.921   5.164
 3090SOL     OW10168   1.018   2.049   1.444
 3090SOL    HW110169   1.039   1.952   1.430
 3090SOL    HW210170   0.944   2.076   1.384
 3091SOL     OW10171   1.291   1.872   1.147
 3091SOL    HW110172   1.276   1.824   1.060
 3091SOL    HW210173   1.368   1.935   1.137
 3092SOL     OW10174   6.094   7.003   2.284
 3092SOL    HW110175   6.177   0.032   2.282
 3092SOL    HW210176   6.116   6.910   2.313
 3093SOL     OW10177   5.655   5.101   6.130
 3093SOL    HW110178   5.573   5.134   6.084
 3093SOL    HW210179   5.735   5.147   6.091
 3094SOL     OW10180   2.777   0.706   5.777
 3094SOL    HW110181   2.821   0.624   5.742
 3094SOL    HW210182   2.687   0.683   5.814
 3095SOL     OW10183   2.147   2.864   5.264
 3095SOL    HW110184   2.147   2.933   5.191
 3095SOL    HW210185   2.216   2.794   5.244
 3096SOL     OW10186   0.762   3.304   4.845
 3096SOL    HW110187   0.787   3.394   4.881
 3096SOL    HW210188   0.844   3.247   4.837
 3097SOL     OW10189   5.550   2.408   6.372
 3097SOL    HW110190   5.616   2.482   6.372
 3097SOL    HW210191   5.597   2.320   6.363
 3098SOL     OW10192   2.039   1.514   2.186
 3098SOL    HW110193   2.071   1.555   2.101
 3098SOL    HW210194   2.047   1.415   2.180
 3099SOL     OW10195   0.705   6.866   3.831
 3099SOL    HW110196   0.756   6.861   3.745
 3099SOL    HW210197   0.653   6.782   3.844
 3100SOL     OW10198   6.547   6.282   2.867
 3100SOL    HW110199   6.538   6.351   2.796
 3100SOL    HW210200   6.479   6.299   2.939
 3101SOL     OW10201   4.249   6.557   5.980
 3101SOL    HW110202   4.292   6.647   5.988
 3101SOL    HW210203   4.253   6.510   6.068
 3102SOL     OW10204   6.945   5.100   0.487
 3102SOL    HW110205   0.004   5.146   0.461
 3102SOL    HW210206   6.958   5.052   0.573
 3103SOL     OW10207   3.222   0.138   1.376
 3103SOL    HW110208   3.209   0.218   1.435
 3103SOL    HW210209   3.137   0.119   1.327
 3104SOL     OW10210   4.515   0.693   6.068
 3104SOL    HW110211   4.477   0.602   6.055
 3104SOL    HW210212   4.610   0.694   6.036
 3105SOL     OW10213   5.294   3.203   6.958
 3105SOL    HW110214   5.203   3.179   6.924
 3105SOL    HW210215   5.357   3.212   6.881
 3106SOL     OW10216   5.646   1.002   4.785
 3106SOL    HW110217   5.550   0.982   4.803
 3106SOL    HW210218   5.703   0.927   4.819
 3107SOL     OW10219   3.945   1.349   5.096
 3107SOL    HW110220   4.044   1.362   5.092
 3107SOL    HW210221   3.900   1.427   5.054
 3108SOL     OW10222   2.076   4.205   4.579
 3108SOL    HW110223   2.156   4.264   4.567
 3108SOL    HW210224   2.105   4.109   4.573
 3109SOL     OW10225   6.603   6.580   4.112
 3109SOL    HW110226   6.697   6.553   4.092
 3109SOL    HW210227   6.581   6.663   4.061
 3110SOL     OW10228   2.486   4.430   3.939
 3110SOL    HW110229   2.576   4.466   3.965
 3110SOL    HW210230   2.498   4.346   3.887
 3111SOL     OW10231   6.486   4.526   4.731
 3111SOL    HW110232   6.523   4.503   4.821
 3111SOL    HW210233   6.386   4.524   4.734
 3112SOL     OW10234   3.620   2.249   6.994
 3112SOL    HW110235   3.535   2.280   6.951
 3112SOL    HW210236   3.689   2.321   6.986
 3113SOL     OW10237   2.515   5.419   3.247
 3113SOL    HW110238   2.554   5.509   3.265
 3113SOL    HW210239   2.584   5.360   3.204
 3114SOL     OW10240   3.695   1.583   0.316
 3114SOL    HW110241   3.599   1.596   0.340
 3114SOL    HW210242   3.745   1.549   0.397
 3115SOL     OW10243   4.057   4.352   5.567
 3115SOL    HW110244   4.112   4.343   5.484
 3115SOL    HW210245   4.032   4.262   5.601
 3116SOL     OW10246   0.299   2.415   0.683
 3116SOL    HW110247   0.365   2.356   0.637
 3116SOL    HW210248   0.295   2.503   0.635
 3117SOL     OW10249   4.543   1.963   5.521
 3117SOL    HW110250   4.503   1.924   5.437
 3117SOL    HW210251   4.595   2.045   5.498
 3118SOL     OW10252   1.620   1.023   3.011
 3118SOL    HW110253   1.589   0.986   2.924
 3118SOL    HW210254   1.608   0.954   3.083
 3119SOL     OW10255   4.117   3.568   5.795
 3119SOL    HW110256   4.194   3.546   5.735
 3119SOL    HW210257   4.150   3.602   5.883
 3120SOL     OW10258   2.708   6.911   5.317
 3120SOL    HW110259   2.682   6.823   5.358
 3120SOL    HW210260   2.800   6.904   5.279
 3121SOL     OW10261   4.814   1.503   4.739
 3121SOL    HW110262   4.835   1.547   4.826
 3121SOL    HW210263   4.724   1.461   4.743
 3122SOL     OW10264   4.180   4.748   4.303
 3122SOL    HW110265   4.259   4.806   4.282
 3122SOL    HW210266   4.181   4.668   4.244
 3123SOL     OW10267   2.497   1.483   2.780
 3123SOL    HW110268   2.577   1.440   2.823
 3123SOL    HW210269   2.523   1.571   2.743
 3124SOL     OW10270   4.883   6.576   4.453
 3124SOL    HW110271   4.827   6.656   4.431
 3124SOL    HW210272   4.882   6.560   4.551
 3125SOL     OW10273   1.408   2.699   5.429
 3125SOL    HW110274   1.351   2.666   5.354
 3125SOL    HW210275   1.505   2.688   5.404
 3126SOL     OW10276   5.528   5.634   4.439
 3126SOL    HW110277   5.621   5.599   4.443
 3126SOL    HW210278   5.503   5.652   4.344
 3127SOL     OW10279   0.725   2.178   4.641
 3127SOL    HW110280   0.806   2.236   4.635
 3127SOL    HW210281   0.716   2.127   4.555
 3128SOL     OW10282   4.068   0.155   0.184
 3128SOL    HW110283   4.130   0.206   0.244
 3128SOL    HW210284   4.122   0.095   0.124
 3129SOL     OW10285   4.639   3.391   1.262
 3129SOL    HW110286   4.577   3.349   1.328
 3129SOL    HW210287   4.727   3.411   1.306
 3130SOL     OW10288   1.764   4.035   1.211
 3130SOL    HW110289   1.751   4.058   1.307
 3130SOL    HW210290   1.714   3.951   1.190
 3131SOL     OW10291   6.596   4.027   1.921
 3131SOL    HW110292   6.688   4.024   1.961
 3131SOL    HW210293   6.592   3.965   1.842
 3132SOL     OW10294   4.092   3.947   0.140
 3132SOL    HW110295   4.184   3.984   0.128
 3132SOL    HW210296   4.025   4.009   0.097
 3133SOL     OW10297   4.163   0.153   3.119
 3133SOL    HW110298   4.160   0.142   3.019
 3133SOL    HW210299   4.073   0.181   3.152
 3134SOL     OW10300   3.353   5.273   2.430
 3134SOL    HW110301   3.274   5.231   2.386
 3134SOL    HW210302   3.369   5.363   2.390
 3135SOL     OW10303   5.836   6.810   5.967
 3135SOL    HW110304   5.812   6.884   5.904
 3135SOL    HW210305   5.912   6.757   5.930
 3136SOL     OW10306   6.331   1.209   2.760
 3136SOL    HW110307   6.325   1.200   2.660
 3136SOL    HW210308   6.409   1.158   2.794
 3137SOL     OW10309   6.411   6.816   0.160
 3137SOL    HW110310   6.488   6.771   0.206
 3137SOL    HW210311   6.445   6.868   0.082
 3138SOL     OW10312   5.286   5.279   4.008
 3138SOL    HW110313   5.311   5.195   4.056
 3138SOL    HW210314   5.279   5.261   3.910
 3139SOL     OW10315   2.028   5.345   1.214
 3139SOL    HW110316   2.018   5.361   1.116
 3139SOL    HW210317   1.985   5.259   1.239
 3140SOL     OW10318   6.666   6.431   5.555
 3140SOL    HW110319   6.713   6.346   5.576
 3140SOL    HW210320   6.615   6.420   5.469
 3141SOL     OW10321   0.095   2.598   6.743
 3141SOL    HW110322   0.019   2.594   6.808
 3141SOL    HW210323   0.079   2.671   6.676
 3142SOL     OW10324   5.206   0.755   1.998
 3142SOL    HW110325   5.238   0.832   2.053
 3142SOL    HW210326   5.170   0.683   2.058
 3143SOL     OW10327   5.888   1.516   0.207
 3143SOL    HW110328   5.888   1.578   0.285
 3143SOL    HW210329   5.907   1.567   0.123
 3144SOL     OW10330   4.352   3.623   6.578
 3144SOL    HW110331   4.260   3.662   6.573
 3144SOL    HW210332   4.399   3.660   6.657
 3145SOL     OW10333   2.502   6.096   2.072
 3145SOL    HW110334   2.592   6.139   2.073
 3145SOL    HW210335   2.475   6.073   2.165
 3146SOL     OW10336   0.607   1.487   5.486
 3146SOL    HW110337   0.514   1.452   5.477
 3146SOL    HW210338   0.654   1.438   5.559
 3147SOL     OW10339   3.424   4.538   6.070
 3147SOL    HW110340   3.330   4.564   6.048
 3147SOL    HW210341   3.425   4.450   6.117
 3148SOL     OW10342   0.580   6.193   2.612
 3148SOL    HW110343   0.630   6.278   2.596
 3148SOL    HW210344   0.482   6.213   2.614
 3149SOL     OW10345   3.190   1.313   0.801
 3149SOL    HW110346   3.173   1.230   0.855
 3149SOL    HW210347   3.128   1.385   0.831
 3150SOL     OW10348   6.261   6.497   5.371
 3150SOL    HW110349   6.272   6.556   5.291
 3150SOL    HW210350   6.347   6.493   5.422
 3151SOL     OW10351   6.284   1.948   6.459
 3151SOL    HW110352   6.287   2.047   6.449
 3151SOL    HW210353   6.364   1.907   6.415
 3152SOL     OW10354   1.651   4.008   6.617
 3152SOL    HW110355   1.694   3.925   6.581
 3152SOL    HW210356   1.613   3.989   6.707
 3153SOL     OW10357   6.674   5.089   0.422
 3153SOL    HW110358   6.638   5.113   0.512
 3153SOL    HW210359   6.774   5.082   0.427
 3154SOL     OW10360   5.544   1.573   1.693
 3154SOL    HW110361   5.616   1.583   1.624
 3154SOL    HW210362   5.455   1.569   1.649
 3155SOL     OW10363   6.378   4.679   0.251
 3155SOL    HW110364   6.323   4.596   0.241
 3155SOL    HW210365   6.355   4.744   0.178
 3156SOL     OW10366   3.635   4.140   2.046
 3156SOL    HW110367   3.671   4.230   2.072
 3156SOL    HW210368   3.671   4.070   2.107
 3157SOL     OW10369   1.037   1.955   5.537
 3157SOL    HW110370   0.998   1.899   5.463
 3157SOL    HW210371   0.973   1.957   5.614
 3158SOL     OW10372   2.766   1.969   5.551
 3158SOL    HW110373   2.674   2.006   5.537
 3158SOL    HW210374   2.765   1.901   5.623
 3159SOL     OW10375   4.676   6.692   0.310
 3159SOL    HW110376   4.673   6.684   0.409
 3159SOL    HW210377   4.585   6.677   0.272
 3160SOL     OW10378   2.650   0.225   5.980
 3160SOL    HW110379   2.562   0.269   5.958
 3160SOL    HW210380   2.724   0.283   5.946
 3161SOL     OW10381   1.817   2.818   2.623
 3161SOL    HW110382   1.854   2.733   2.585
 3161SOL    HW210383   1.795   2.881   2.549
 3162SOL     OW10384   1.681   5.518   0.461
 3162SOL    HW110385   1.670   5.456   0.539
 3162SOL    HW210386   1.772   5.506   0.422
 3163SOL     OW10387   4.085   3.814   0.376
 3163SOL    HW110388   4.151   3.742   0.357
 3163SOL    HW210389   4.096   3.888   0.310
 3164SOL     OW10390   3.066   5.299   3.000
 3164SOL    HW110391   3.049   5.239   3.078
 3164SOL    HW210392   3.076   5.245   2.917
 3165SOL     OW10393   0.716   5.218   0.289
 3165SOL    HW110394   0.668   5.131   0.288
 3165SOL    HW210395   0.679   5.276   0.362
 3166SOL     OW10396   3.798   1.014   4.702
 3166SOL    HW110397   3.868   1.070   4.746
 3166SOL    HW210398   3.774   0.938   4.762
 3167SOL     OW10399   4.620   4.011   0.420
 3167SOL    HW110400   4.532   3.990   0.463
 3167SOL    HW210401   4.624   4.108   0.398
 3168SOL     OW10402   5.000   2.593   0.507
 3168SOL    HW110403   5.085   2.583   0.559
 3168SOL    HW210404   4.928   2.540   0.552
 3169SOL     OW10405   1.749   4.569   2.547
 3169SOL    HW110406   1.656   4.539   2.526
 3169SOL    HW210407   1.810   4.489   2.548
 3170SOL     OW10408   3.616   5.631   3.138
 3170SOL    HW110409   3.524   5.668   3.127
 3170SOL    HW210410   3.611   5.539   3.176
 3171SOL     OW10411   5.377   2.922   2.618
 3171SOL    HW110412   5.467   2.882   2.637
 3171SOL    HW210413   5.357   2.991   2.688
 3172SOL     OW10414   6.778   4.784   0.335
 3172SOL    HW110415   6.761   4.738   0.247
 3172SOL    HW210416   6.855   4.739   0.381
 3173SOL     OW10417   3.219   1.654   0.063
 3173SOL    HW110418   3.150   1.716   0.101
 3173SOL    HW210419   3.310   1.694   0.076
 3174SOL     OW10420   2.605   3.007   5.845
 3174SOL    HW110421   2.675   2.935   5.842
 3174SOL    HW210422   2.650   3.097   5.847
 3175SOL     OW10423   6.499   1.610   3.821
 3175SOL    HW110424   6.434   1.631   3.894
 3175SOL    HW210425   6.472   1.658   3.737
 3176SOL     OW10426   7.008   4.097   4.587
 3176SOL    HW110427   7.001   4.079   4.685
 3176SOL    HW210428   0.046   4.173   4.572
 3177SOL     OW10429   5.515   3.960   3.157
 3177SOL    HW110430   5.442   3.934   3.219
 3177SOL    HW210431   5.535   3.884   3.095
 3178SOL     OW10432   5.640   1.280   0.180
 3178SOL    HW110433   5.598   1.335   0.252
 3178SOL    HW210434   5.658   1.338   0.100
 3179SOL     OW10435   0.536   1.922   2.331
 3179SOL    HW110436   0.456   1.982   2.339
 3179SOL    HW210437   0.506   1.827   2.329
 3180SOL     OW10438   5.964   6.436   6.228
 3180SOL    HW110439   5.877   6.388   6.214
 3180SOL    HW210440   6.032   6.373   6.263
 3181SOL     OW10441   0.378   1.351   4.507
 3181SOL    HW110442   0.462   1.299   4.490
 3181SOL    HW210443   0.399   1.428   4.567
 3182SOL     OW10444   3.322   0.283   0.624
 3182SOL    HW110445   3.336   0.234   0.538
 3182SOL    HW210446   3.225   0.279   0.648
 3183SOL     OW10447   4.440   4.571   2.487
 3183SOL    HW110448   4.425   4.560   2.389
 3183SOL    HW210449   4.354   4.596   2.531
 3184SOL     OW10450   0.663   2.288   3.610
 3184SOL    HW110451   0.615   2.217   3.662
 3184SOL    HW210452   0.755   2.301   3.648
 3185SOL     OW10453   6.860   0.158   5.531
 3185SOL    HW110454   6.862   0.058   5.531
 3185SOL    HW210455   6.947   0.192   5.567
 3186SOL     OW10456   1.643   1.000   0.382
 3186SOL    HW110457   1.726   0.985   0.436
 3186SOL    HW210458   1.653   0.955   0.293
 3187SOL     OW10459   3.626   5.620   2.768
 3187SOL    HW110460   3.538   5.619   2.815
 3187SOL    HW210461   3.626   5.550   2.697
 3188SOL     OW10462   2.300   4.812   4.985
 3188SOL    HW110463   2.312   4.800   4.886
 3188SOL    HW210464   2.249   4.735   5.022
 3189SOL     OW10465   2.277   1.396   0.144
 3189SOL    HW110466   2.229   1.449   0.214
 3189SOL    HW210467   2.363   1.361   0.182
 3190SOL     OW10468   6.460   5.650   5.046
 3190SOL    HW110469   6.372   5.667   5.090
 3190SOL    HW210470   6.451   5.573   4.982
 3191SOL     OW10471   4.151   5.380   2.186
 3191SOL    HW110472   4.161   5.292   2.139
 3191SOL    HW210473   4.238   5.406   2.226
 3192SOL     OW10474   6.814   2.457   1.762
 3192SOL    HW110475   6.868   2.514   1.824
 3192SOL    HW210476   6.771   2.383   1.813
 3193SOL     OW10477   4.204   1.159   4.856
 3193SOL    HW110478   4.279   1.174   4.920
 3193SOL    HW210479   4.186   1.061   4.848
 3194SOL     OW10480   1.217   1.140   5.289
 3194SOL    HW110481   1.309   1.179   5.288
 3194SOL    HW210482   1.149   1.213   5.288
 3195SOL     OW10483   0.419   1.006   1.967
 3195SOL    HW110484   0.426   0.917   2.012
 3195SOL    HW210485   0.511   1.041   1.949
 3196SOL     OW10486   6.628   0.830   5.470
 3196SOL    HW110487   6.671   0.905   5.421
 3196SOL    HW210488   6.679   0.746   5.454
 3197SOL     OW10489   1.963   6.873   6.035
 3197SOL    HW110490   2.050   6.881   6.083
 3197SOL    HW210491   1.978   6.829   5.946
 3198SOL     OW10492   6.476   2.430   3.835
 3198SOL    HW110493   6.495   2.477   3.749
 3198SOL    HW210494   6.446   2.496   3.904
 3199SOL     OW10495   5.463   4.880   2.697
 3199SOL    HW110496   5.376   4.843   2.664
 3199SOL    HW210497   5.517   4.806   2.739
 3200SOL     OW10498   6.131   3.158   4.363
 3200SOL    HW110499   6.055   3.139   4.302
 3200SOL    HW210500   6.204   3.204   4.312
 3201SOL     OW10501   6.346   4.486   3.068
 3201SOL    HW110502   6.304   4.396   3.059
 3201SOL    HW210503   6.303   4.536   3.144
 3202SOL     OW10504   1.120   5.164   0.544
 3202SOL    HW110505   1.059   5.240   0.566
 3202SOL    HW210506   1.115   5.144   0.446
 3203SOL     OW10507   4.265   6.795   1.518
 3203SOL    HW110508   4.214   6.780   1.603
 3203SOL    HW210509   4.264   6.711   1.464
 3204SOL     OW10510   2.644   1.536   3.580
 3204SOL    HW110511   2.675   1.514   3.672
 3204SOL    HW210512   2.723   1.562   3.523
 3205SOL     OW10513   5.722   3.661   5.948
 3205SOL    HW110514   5.720   3.566   5.918
 3205SOL    HW210515   5.660   3.715   5.891
 3206SOL     OW10516   2.627   3.017   1.475
 3206SOL    HW110517   2.665   2.932   1.514
 3206SOL    HW210518   2.598   3.077   1.549
 3207SOL     OW10519   0.930   0.817   5.733
 3207SOL    HW110520   0.985   0.756   5.677
 3207SOL    HW210521   0.975   0.906   5.741
 3208SOL     OW10522   6.011   5.883   5.097
 3208SOL    HW110523   6.006   5.803   5.158
 3208SOL    HW210524   5.980   5.964   5.147
 3209SOL     OW10525   4.116   5.135   5.395
 3209SOL    HW110526   4.017   5.124   5.382
 3209SOL    HW210527   4.140   5.112   5.489
 3210SOL     OW10528   0.431   5.018   1.568
 3210SOL    HW110529   0.343   5.066   1.558
 3210SOL    HW210530   0.424   4.954   1.644
 3211SOL     OW10531   1.374   5.029   0.769
 3211SOL    HW110532   1.314   5.059   0.696
 3211SOL    HW210533   1.373   4.929   0.774
 3212SOL     OW10534   2.966   0.235   2.231
 3212SOL    HW110535   3.037   0.305   2.234
 3212SOL    HW210536   2.889   0.269   2.178
 3213SOL     OW10537   2.030   0.478   6.414
 3213SOL    HW110538   2.032   0.535   6.332
 3213SOL    HW210539   1.936   0.470   6.447
 3214SOL     OW10540   4.465   6.858   3.596
 3214SOL    HW110541   4.448   6.817   3.506
 3214SOL    HW210542   4.560   6.889   3.601
 3215SOL     OW10543   1.220   3.768   0.236
 3215SOL    HW110544   1.310   3.808   0.215
 3215SOL    HW210545   1.206   3.687   0.178
 3216SOL     OW10546   5.529   5.003   1.376
 3216SOL    HW110547   5.483   5.078   1.425
 3216SOL    HW210548   5.469   4.924   1.373
 3217SOL     OW10549   0.077   5.304   3.183
 3217SOL    HW110550   0.022   5.367   3.239
 3217SOL    HW210551   0.170   5.339   3.175
 3218SOL     OW10552   5.974   2.224   3.487
 3218SOL    HW110553   5.919   2.238   3.569
 3218SOL    HW210554   6.043   2.297   3.480
 3219SOL     OW10555   6.952   0.948   4.880
 3219SOL    HW110556   6.876   0.917   4.822
 3219SOL    HW210557   0.012   0.934   4.831
 3220SOL     OW10558   0.221   6.141   6.306
 3220SOL    HW110559   0.303   6.086   6.317
 3220SOL    HW210560   0.203   6.155   6.209
 3221SOL     OW10561   3.979   0.217   2.557
 3221SOL    HW110562   3.969   0.249   2.651
 3221SOL    HW210563   3.917   0.140   2.542
 3222SOL     OW10564   3.134   1.519   3.454
 3222SOL    HW110565   3.164   1.545   3.546
 3222SOL    HW210566   3.213   1.518   3.393
 3223SOL     OW10567   1.751   6.635   0.715
 3223SOL    HW110568   1.837   6.603   0.754
 3223SOL    HW210569   1.749   6.616   0.617
 3224SOL     OW10570   4.914   2.664   4.768
 3224SOL    HW110571   4.966   2.673   4.853
 3224SOL    HW210572   4.958   2.597   4.708
 3225SOL     OW10573   4.065   1.361   3.927
 3225SOL    HW110574   4.034   1.422   3.854
 3225SOL    HW210575   3.986   1.330   3.981
 3226SOL     OW10576   1.642   6.800   2.237
 3226SOL    HW110577   1.586   6.800   2.154
 3226SOL    HW210578   1.713   6.870   2.229
 3227SOL     OW10579   3.717   2.526   6.513
 3227SOL    HW110580   3.698   2.452   6.578
 3227SOL    HW210581   3.682   2.501   6.423
 3228SOL     OW10582   0.344   4.211   0.812
 3228SOL    HW110583   0.310   4.135   0.758
 3228SOL    HW210584   0.431   4.244   0.773
 3229SOL     OW10585   3.158   0.610   5.756
 3229SOL    HW110586   3.186   0.514   5.765
 3229SOL    HW210587   3.143   0.632   5.660
 3230SOL     OW10588   2.356   5.419   5.947
 3230SOL    HW110589   2.278   5.379   5.996
 3230SOL    HW210590   2.426   5.350   5.934
 3231SOL     OW10591   3.214   1.072   2.924
 3231SOL    HW110592   3.311   1.094   2.931
 3231SOL    HW210593   3.163   1.154   2.896
 3232SOL     OW10594   4.108   6.060   4.098
 3232SOL    HW110595   4.126   6.054   3.999
 3232SOL    HW210596   4.018   6.101   4.113
 3233SOL     OW10597   6.922   2.537   0.257
 3233SOL    HW110598   6.915   2.535   0.357
 3233SOL    HW210599   7.015   2.510   0.230
 3234SOL     OW10600   1.494   2.833   0.296
 3234SOL    HW110601   1.428   2.758   0.287
 3234SOL    HW210602   1.481   2.898   0.221
 3235SOL     OW10603   5.998   5.725   1.947
 3235SOL    HW110604   6.038   5.749   2.036
 3235SOL    HW210605   5.983   5.808   1.894
 3236SOL     OW10606   2.430   3.454   0.332
 3236SOL    HW110607   2.411   3.471   0.429
 3236SOL    HW210608   2.514   3.503   0.306
 3237SOL     OW10609   6.259   1.865   4.235
 3237SOL    HW110610   6.206   1.823   4.309
 3237SOL    HW210611   6.330   1.924   4.274
 3238SOL     OW10612   6.099   5.336   0.351
 3238SOL    HW110613   6.182   5.316   0.300
 3238SOL    HW210614   6.123   5.368   0.443
 3239SOL     OW10615   0.017   7.017   3.531
 3239SOL    HW110616   0.104   0.040   3.523
 3239SOL    HW210617   0.000   6.996   3.628
 3240SOL     OW10618   0.041   0.911   6.480
 3240SOL    HW110619   0.073   0.836   6.538
 3240SOL    HW210620   6.972   0.895   6.455
 3241SOL     OW10621   4.780   2.107   6.810
 3241SOL    HW110622   4.866   2.085   6.764
 3241SOL    HW210623   4.794   2.183   6.873
 3242SOL     OW10624   5.102   3.969   5.602
 3242SOL    HW110625   5.197   3.975   5.634
 3242SOL    HW210626   5.082   3.875   5.577
 3243SOL     OW10627   4.199   5.602   6.598
 3243SOL    HW110628   4.275   5.570   6.541
 3243SOL    HW210629   4.166   5.527   6.655
 3244SOL     OW10630   5.725   6.180   0.314
 3244SOL    HW110631   5.688   6.273   0.314
 3244SOL    HW210632   5.795   6.172   0.244
 3245SOL     OW10633   4.817   2.314   4.217
 3245SOL    HW110634   4.881   2.249   4.258
 3245SOL    HW210635   4.770   2.365   4.289
 3246SOL     OW10636   0.023   0.171   2.363
 3246SOL    HW110637   0.077   0.153   2.445
 3246SOL    HW210638   6.956   0.136   2.377
 3247SOL     OW10639   0.322   4.301   2.662
 3247SOL    HW110640   0.270   4.386   2.673
 3247SOL    HW210641   0.292   4.255   2.579
 3248SOL     OW10642   5.519   2.755   2.891
 3248SOL    HW110643   5.479   2.664   2.879
 3248SOL    HW210644   5.556   2.786   2.803
 3249SOL     OW10645   4.017   3.441   3.499
 3249SOL    HW110646   3.970   3.353   3.489
 3249SOL    HW210647   4.069   3.441   3.585
 3250SOL     OW10648   5.100   6.514   3.750
 3250SOL    HW110649   5.118   6.582   3.822
 3250SOL    HW210650   5.002   6.509   3.732
 3251SOL     OW10651   2.673   0.834   4.598
 3251SOL    HW110652   2.583   0.850   4.639
 3251SOL    HW210653   2.673   0.869   4.504
 3252SOL     OW10654   3.049   1.270   3.313
 3252SOL    HW110655   3.054   1.351   3.373
 3252SOL    HW210656   3.040   1.188   3.369
 3253SOL     OW10657   5.144   3.884   0.959
 3253SOL    HW110658   5.177   3.817   0.892
 3253SOL    HW210659   5.198   3.876   1.043
 3254SOL     OW10660   5.174   0.238   6.336
 3254SOL    HW110661   5.098   0.178   6.361
 3254SOL    HW210662   5.254   0.183   6.311
 3255SOL     OW10663   5.864   6.070   0.575
 3255SOL    HW110664   5.902   5.981   0.550
 3255SOL    HW210665   5.835   6.119   0.493
 3256SOL     OW10666   4.490   2.248   1.242
 3256SOL    HW110667   4.443   2.192   1.310
 3256SOL    HW210668   4.434   2.328   1.219
 3257SOL     OW10669   3.046   2.086   2.014
 3257SOL    HW110670   3.130   2.106   1.964
 3257SOL    HW210671   3.007   2.170   2.051
 3258SOL     OW10672   3.433   5.220   3.739
 3258SOL    HW110673   3.456   5.150   3.807
 3258SOL    HW210674   3.345   5.261   3.762
 3259SOL     OW10675   5.509   4.591   4.131
 3259SOL    HW110676   5.585   4.529   4.112
 3259SOL    HW210677   5.461   4.561   4.214
 3260SOL     OW10678   1.669   3.981   2.041
 3260SOL    HW110679   1.714   3.892   2.034
 3260SOL    HW210680   1.613   3.983   2.123
 3261SOL     OW10681   5.523   0.666   2.619
 3261SOL    HW110682   5.578   0.682   2.701
 3261SOL    HW210683   5.426   0.661   2.644
 3262SOL     OW10684   3.982   1.917   2.339
 3262SOL    HW110685   4.040   1.865   2.275
 3262SOL    HW210686   3.904   1.954   2.289
 3263SOL     OW10687   3.240   1.024   3.650
 3263SOL    HW110688   3.285   0.950   3.601
 3263SOL    HW210689   3.304   1.064   3.716
 3264SOL     OW10690   1.812   4.876   0.764
 3264SOL    HW110691   1.796   4.901   0.669
 3264SOL    HW210692   1.771   4.787   0.784
 3265SOL     OW10693   5.971   6.481   5.729
 3265SOL    HW110694   6.057   6.430   5.741
 3265SOL    HW210695   5.983   6.575   5.759
 3266SOL     OW10696   2.508   4.497   0.054
 3266SOL    HW110697   2.535   4.454   6.994
 3266SOL    HW210698   2.551   4.450   0.130
 3267SOL     OW10699   3.871   0.487   1.617
 3267SOL    HW110700   3.871   0.584   1.592
 3267SOL    HW210701   3.844   0.433   1.537
 3268SOL     OW10702   0.846   4.714   1.655
 3268SOL    HW110703   0.874   4.653   1.581
 3268SOL    HW210704   0.900   4.798   1.651
 3269SOL     OW10705   0.804   5.418   2.238
 3269SOL    HW110706   0.799   5.352   2.313
 3269SOL    HW210707   0.853   5.500   2.268
 3270SOL     OW10708   0.992   3.455   6.151
 3270SOL    HW110709   1.063   3.526   6.145
 3270SOL    HW210710   1.034   3.366   6.134
 3271SOL     OW10711   6.626   3.440   1.556
 3271SOL    HW110712   6.587   3.532   1.562
 3271SOL    HW210713   6.555   3.375   1.529
 3272SOL     OW10714   3.836   5.214   6.848
 3272SOL    HW110715   3.913   5.228   6.910
 3272SOL    HW210716   3.808   5.118   6.850
 3273SOL     OW10717   5.081   4.285   6.188
 3273SOL    HW110718   5.036   4.222   6.251
 3273SOL    HW210719   5.146   4.342   6.238
 3274SOL     OW10720   6.270   0.670   0.014
 3274SOL    HW110721   6.225   0.642   0.099
 3274SOL    HW210722   6.293   0.767   0.019
 3275SOL     OW10723   4.604   0.831   0.756
 3275SOL    HW110724   4.544   0.779   0.696
 3275SOL    HW210725   4.699   0.804   0.742
 3276SOL     OW10726   4.493   6.538   6.906
 3276SOL    HW110727   4.576   6.589   6.930
 3276SOL    HW210728   4.500   6.445   6.943
 3277SOL     OW10729   3.085   1.132   1.004
 3277SOL    HW110730   2.995   1.136   0.959
 3277SOL    HW210731   3.100   1.040   1.040
 3278SOL     OW10732   7.026   0.745   6.138
 3278SOL    HW110733   0.049   0.822   6.178
 3278SOL    HW210734   0.059   0.698   6.073
 3279SOL     OW10735   4.245   6.159   1.199
 3279SOL    HW110736   4.249   6.123   1.292
 3279SOL    HW210737   4.330   6.209   1.179
 3280SOL     OW10738   5.626   3.906   4.161
 3280SOL    HW110739   5.612   3.964   4.081
 3280SOL    HW210740   5.542   3.900   4.214
 3281SOL     OW10741   6.705   5.014   1.523
 3281SOL    HW110742   6.617   4.967   1.534
 3281SOL    HW210743   6.690   5.103   1.478
 3282SOL     OW10744   0.611   3.804   5.021
 3282SOL    HW110745   0.644   3.773   4.932
 3282SOL    HW210746   0.640   3.899   5.036
 3283SOL     OW10747   3.904   1.400   1.112
 3283SOL    HW110748   3.821   1.421   1.164
 3283SOL    HW210749   3.882   1.334   1.040
 3284SOL     OW10750   1.210   5.209   4.529
 3284SOL    HW110751   1.217   5.199   4.430
 3284SOL    HW210752   1.233   5.123   4.574
 3285SOL     OW10753   5.837   1.889   4.659
 3285SOL    HW110754   5.800   1.832   4.586
 3285SOL    HW210755   5.871   1.831   4.733
 3286SOL     OW10756   3.563   2.237   1.658
 3286SOL    HW110757   3.506   2.315   1.632
 3286SOL    HW210758   3.612   2.258   1.742
 3287SOL     OW10759   0.771   0.383   6.864
 3287SOL    HW110760   0.676   0.392   6.834
 3287SOL    HW210761   0.829   0.441   6.807
 3288SOL     OW10762   1.967   6.511   0.852
 3288SOL    HW110763   2.016   6.425   0.836
 3288SOL    HW210764   2.004   6.556   0.934
 3289SOL     OW10765   3.099   1.919   6.879
 3289SOL    HW110766   3.029   1.869   6.827
 3289SOL    HW210767   3.184   1.920   6.827
 3290SOL     OW10768   6.446   5.259   0.331
 3290SOL    HW110769   6.374   5.216   0.385
 3290SOL    HW210770   6.527   5.199   0.329
 3291SOL     OW10771   3.979   0.905   6.489
 3291SOL    HW110772   4.078   0.891   6.479
 3291SOL    HW210773   3.937   0.822   6.526
 3292SOL     OW10774   0.129   1.231   0.867
 3292SOL    HW110775   0.189   1.185   0.802
 3292SOL    HW210776   0.050   1.269   0.820
 3293SOL     OW10777   6.693   4.563   2.488
 3293SOL    HW110778   6.631   4.512   2.427
 3293SOL    HW210779   6.777   4.511   2.500
 3294SOL     OW10780   5.308   2.383   5.832
 3294SOL    HW110781   5.376   2.345   5.770
 3294SOL    HW210782   5.319   2.343   5.923
 3295SOL     OW10783   1.696   3.169   0.236
 3295SOL    HW110784   1.671   3.248   0.292
 3295SOL    HW210785   1.614   3.122   0.205
 3296SOL     OW10786   6.348   0.230   5.283
 3296SOL    HW110787   6.416   0.260   5.215
 3296SOL    HW210788   6.298   0.309   5.318
 3297SOL     OW10789   3.539   1.772   4.937
 3297SOL    HW110790   3.503   1.865   4.935
 3297SOL    HW210791   3.486   1.717   5.002
 3298SOL     OW10792   6.424   3.292   5.341
 3298SOL    HW110793   6.452   3.378   5.298
 3298SOL    HW210794   6.324   3.287   5.344
 3299SOL     OW10795   4.588   5.782   3.263
 3299SOL    HW110796   4.557   5.822   3.349
 3299SOL    HW210797   4.519   5.720   3.228
 3300SOL     OW10798   2.210   0.438   5.408
 3300SOL    HW110799   2.173   0.459   5.317
 3300SOL    HW210800   2.203   0.519   5.467
 3301SOL     OW10801   1.346   3.096   2.809
 3301SOL    HW110802   1.383   3.125   2.897
 3301SOL    HW210803   1.415   3.044   2.759
 3302SOL     OW10804   1.059   4.572   6.362
 3302SOL    HW110805   0.997   4.501   6.395
 3302SOL    HW210806   1.047   4.583   6.264
 3303SOL     OW10807   3.905   3.316   0.540
 3303SOL    HW110808   3.966   3.378   0.588
 3303SOL    HW210809   3.874   3.360   0.455
 3304SOL     OW10810   2.162   4.716   6.129
 3304SOL    HW110811   2.078   4.727   6.077
 3304SOL    HW210812   2.151   4.644   6.197
 3305SOL     OW10813   3.084   0.610   1.472
 3305SOL    HW110814   3.107   0.518   1.505
 3305SOL    HW210815   3.041   0.603   1.382
 3306SOL     OW10816   1.571   5.939   6.224
 3306SOL    HW110817   1.475   5.910   6.233
 3306SOL    HW210818   1.620   5.915   6.308
 3307SOL     OW10819   1.017   0.326   6.207
 3307SOL    HW110820   1.048   0.369   6.292
 3307SOL    HW210821   1.090   0.268   6.171
 3308SOL     OW10822   4.173   4.864   1.195
 3308SOL    HW110823   4.110   4.927   1.149
 3308SOL    HW210824   4.145   4.770   1.177
 3309SOL     OW10825   5.548   4.182   4.027
 3309SOL    HW110826   5.508   4.176   3.936
 3309SOL    HW210827   5.492   4.241   4.085
 3310SOL     OW10828   0.745   4.270   4.886
 3310SOL    HW110829   0.729   4.249   4.789
 3310SOL    HW210830   0.754   4.369   4.897
 3311SOL     OW10831   3.506   3.450   1.130
 3311SOL    HW110832   3.523   3.383   1.057
 3311SOL    HW210833   3.591   3.469   1.177
 3312SOL     OW10834   4.182   3.055   5.739
 3312SOL    HW110835   4.122   3.126   5.774
 3312SOL    HW210836   4.213   3.080   5.647
 3313SOL     OW10837   0.710   0.819   3.315
 3313SOL    HW110838   0.668   0.880   3.248
 3313SOL    HW210839   0.653   0.815   3.397
 3314SOL     OW10840   2.706   0.236   3.089
 3314SOL    HW110841   2.661   0.315   3.048
 3314SOL    HW210842   2.641   0.185   3.145
 3315SOL     OW10843   0.881   3.963   5.301
 3315SOL    HW110844   0.925   4.015   5.375
 3315SOL    HW210845   0.859   3.871   5.334
 3316SOL     OW10846   3.341   0.625   5.988
 3316SOL    HW110847   3.381   0.533   5.991
 3316SOL    HW210848   3.298   0.639   5.898
 3317SOL     OW10849   5.485   1.649   2.761
 3317SOL    HW110850   5.564   1.694   2.718
 3317SOL    HW210851   5.423   1.616   2.690
 3318SOL     OW10852   2.178   1.618   6.682
 3318SOL    HW110853   2.107   1.687   6.666
 3318SOL    HW210854   2.181   1.594   6.779
 3319SOL     OW10855   6.689   0.026   2.857
 3319SOL    HW110856   6.643   0.060   2.940
 3319SOL    HW210857   6.785   0.007   2.878
 3320SOL     OW10858   6.648   0.257   6.930
 3320SOL    HW110859   6.559   0.239   6.973
 3320SOL    HW210860   6.709   0.301   6.995
 3321SOL     OW10861   6.035   1.624   0.902
 3321SOL    HW110862   6.118   1.672   0.872
 3321SOL    HW210863   6.058   1.560   0.975
 3322SOL     OW10864   6.920   3.261   0.833
 3322SOL    HW110865   6.875   3.190   0.888
 3322SOL    HW210866   7.015   3.233   0.815
 3323SOL     OW10867   2.579   1.307   0.980
 3323SOL    HW110868   2.516   1.268   1.047
 3323SOL    HW210869   2.572   1.407   0.983
 3324SOL     OW10870   4.141   5.662   5.562
 3324SOL    HW110871   4.072   5.592   5.542
 3324SOL    HW210872   4.224   5.641   5.511
 3325SOL     OW10873   0.185   3.261   6.217
 3325SOL    HW110874   0.106   3.322   6.216
 3325SOL    HW210875   0.250   3.291   6.286
 3326SOL     OW10876   4.742   1.106   2.355
 3326SOL    HW110877   4.711   1.080   2.263
 3326SOL    HW210878   4.747   1.024   2.412
 3327SOL     OW10879   2.120   5.929   2.024
 3327SOL    HW110880   2.164   5.879   2.098
 3327SOL    HW210881   2.062   5.867   1.971
 3328SOL     OW10882   3.500   1.783   1.339
 3328SOL    HW110883   3.566   1.814   1.407
 3328SOL    HW210884   3.505   1.842   1.258
 3329SOL     OW10885   5.979   0.369   5.611
 3329SOL    HW110886   5.938   0.436   5.673
 3329SOL    HW210887   6.009   0.290   5.663
 3330SOL     OW10888   0.041   3.659   1.948
 3330SOL    HW110889   0.133   3.652   1.985
 3330SOL    HW210890   0.045   3.653   1.848
 3331SOL     OW10891   2.243   2.622   1.275
 3331SOL    HW110892   2.227   2.699   1.213
 3331SOL    HW210893   2.158   2.569   1.286
 3332SOL     OW10894   5.044   5.551   6.902
 3332SOL    HW110895   5.117   5.618   6.915
 3332SOL    HW210896   5.015   5.517   6.992
 3333SOL     OW10897   4.734   5.141   6.936
 3333SOL    HW110898   4.755   5.226   6.887
 3333SOL    HW210899   4.819   5.092   6.954
 3334SOL     OW10900   3.358   3.356   1.355
 3334SOL    HW110901   3.385   3.398   1.269
 3334SOL    HW210902   3.347   3.427   1.425
 3335SOL     OW10903   4.683   5.581   5.361
 3335SOL    HW110904   4.646   5.672   5.382
 3335SOL    HW210905   4.722   5.582   5.269
 3336SOL     OW10906   3.046   5.366   5.500
 3336SOL    HW110907   3.015   5.279   5.539
 3336SOL    HW210908   3.144   5.376   5.515
 3337SOL     OW10909   3.459   2.509   1.410
 3337SOL    HW110910   3.467   2.509   1.510
 3337SOL    HW210911   3.526   2.446   1.371
 3338SOL     OW10912   6.569   3.724   1.212
 3338SOL    HW110913   6.637   3.736   1.140
 3338SOL    HW210914   6.478   3.741   1.175
 3339SOL     OW10915   0.035   6.042   6.880
 3339SOL    HW110916   0.062   6.045   6.976
 3339SOL    HW210917   6.990   6.110   6.863
 3340SOL     OW10918   3.787   6.672   1.989
 3340SOL    HW110919   3.867   6.644   2.043
 3340SOL    HW210920   3.737   6.590   1.961
 3341SOL     OW10921   0.586   0.221   3.332
 3341SOL    HW110922   0.501   0.259   3.368
 3341SOL    HW210923   0.657   0.292   3.333
 3342SOL     OW10924   2.119   0.028   3.281
 3342SOL    HW110925   2.156   0.033   3.188
 3342SOL    HW210926   2.164   6.980   3.330
 3343SOL     OW10927   4.863   3.215   0.478
 3343SOL    HW110928   4.903   3.138   0.428
 3343SOL    HW210929   4.927   3.292   0.477
 3344SOL     OW10930   5.571   4.206   5.026
 3344SOL    HW110931   5.594   4.124   5.079
 3344SOL    HW210932   5.557   4.283   5.089
 3345SOL     OW10933   2.843   3.408   6.175
 3345SOL    HW110934   2.907   3.395   6.252
 3345SOL    HW210935   2.855   3.333   6.110
 3346SOL     OW10936   0.926   0.956   2.318
 3346SOL    HW110937   0.928   0.964   2.219
 3346SOL    HW210938   0.952   1.043   2.360
 3347SOL     OW10939   7.021   4.469   2.916
 3347SOL    HW110940   6.923   4.461   2.934
 3347SOL    HW210941   0.038   4.517   2.992
 3348SOL     OW10942   3.427   2.980   3.626
 3348SOL    HW110943   3.367   2.919   3.573
 3348SOL    HW210944   3.418   3.073   3.591
 3349SOL     OW10945   0.272   4.863   4.073
 3349SOL    HW110946   0.254   4.906   4.162
 3349SOL    HW210947   0.358   4.813   4.077
 3350SOL     OW10948   1.421   1.262   6.941
 3350SOL    HW110949   1.499   1.201   6.934
 3350SOL    HW210950   1.439   1.346   6.889
 3351SOL     OW10951   5.764   0.316   1.370
 3351SOL    HW110952   5.689   0.382   1.380
 3351SOL    HW210953   5.847   0.351   1.413
 3352SOL     OW10954   0.426   3.845   0.190
 3352SOL    HW110955   0.414   3.857   0.092
 3352SOL    HW210956   0.381   3.762   0.220
 3353SOL     OW10957   1.595   0.121   1.334
 3353SOL    HW110958   1.691   0.115   1.305
 3353SOL    HW210959   1.582   0.067   1.417
 3354SOL     OW10960   6.703   2.761   3.553
 3354SOL    HW110961   6.662   2.750   3.644
 3354SOL    HW210962   6.694   2.676   3.501
 3355SOL     OW10963   0.885   1.940   0.349
 3355SOL    HW110964   0.836   2.012   0.398
 3355SOL    HW210965   0.832   1.855   0.353
 3356SOL     OW10966   2.713   3.053   0.334
 3356SOL    HW110967   2.677   3.145   0.350
 3356SOL    HW210968   2.770   3.025   0.411
 3357SOL     OW10969   2.307   4.783   1.343
 3357SOL    HW110970   2.214   4.811   1.317
 3357SOL    HW210971   2.310   4.766   1.441
 3358SOL     OW10972   4.857   6.397   1.960
 3358SOL    HW110973   4.952   6.390   1.930
 3358SOL    HW210974   4.854   6.402   2.060
 3359SOL     OW10975   0.086   0.284   3.238
 3359SOL    HW110976   0.051   0.238   3.320
 3359SOL    HW210977   0.011   0.304   3.176
 3360SOL     OW10978   0.413   0.839   0.554
 3360SOL    HW110979   0.371   0.748   0.545
 3360SOL    HW210980   0.501   0.830   0.601
 3361SOL     OW10981   6.289   5.533   3.120
 3361SOL    HW110982   6.287   5.464   3.192
 3361SOL    HW210983   6.380   5.537   3.080
 3362SOL     OW10984   2.800   1.198   4.922
 3362SOL    HW110985   2.891   1.236   4.938
 3362SOL    HW210986   2.762   1.235   4.837
 3363SOL     OW10987   0.513   1.008   6.503
 3363SOL    HW110988   0.575   0.929   6.498
 3363SOL    HW210989   0.424   0.978   6.536
 3364SOL     OW10990   0.811   5.608   5.677
 3364SOL    HW110991   0.779   5.520   5.712
 3364SOL    HW210992   0.767   5.682   5.728
 3365SOL     OW10993   0.745   2.237   4.322
 3365SOL    HW110994   0.665   2.297   4.319
 3365SOL    HW210995   0.802   2.260   4.401
 3366SOL     OW10996   5.273   1.020   4.541
 3366SOL    HW110997   5.322   1.104   4.515
 3366SOL    HW210998   5.326   0.941   4.510
 3367SOL     OW10999   1.848   2.784   1.508
 3367SOL    HW111000   1.828   2.729   1.589
 3367SOL    HW211001   1.946   2.784   1.491
 3368SOL     OW11002   6.779   5.317   6.349
 3368SOL    HW111003   6.743   5.280   6.435
 3368SOL    HW211004   6.760   5.415   6.345
 3369SOL     OW11005   3.400   1.698   0.308
 3369SOL    HW111006   3.444   1.786   0.324
 3369SOL    HW211007   3.356   1.666   0.392
 3370SOL     OW11008   6.300   6.631   5.123
 3370SOL    HW111009   6.271   6.536   5.112
 3370SOL    HW211010   6.390   6.644   5.081
 3371SOL     OW11011   1.731   4.359   2.350
 3371SOL    HW111012   1.820   4.338   2.311
 3371SOL    HW211013   1.659   4.342   2.282
 3372SOL     OW11014   0.528   1.309   2.121
 3372SOL    HW111015   0.592   1.242   2.083
 3372SOL    HW211016   0.539   1.314   2.220
 3373SOL     OW11017   6.261   1.269   4.512
 3373SOL    HW111018   6.207   1.285   4.594
 3373SOL    HW211019   6.249   1.346   4.449
 3374SOL     OW11020   3.481   6.155   5.169
 3374SOL    HW111021   3.559   6.197   5.122
 3374SOL    HW211022   3.494   6.160   5.268
 3375SOL     OW11023   4.325   4.736   4.790
 3375SOL    HW111024   4.365   4.712   4.702
 3375SOL    HW211025   4.345   4.665   4.857
 3376SOL     OW11026   4.106   3.458   2.965
 3376SOL    HW111027   4.126   3.469   3.062
 3376SOL    HW211028   4.124   3.364   2.937
 3377SOL     OW11029   1.065   6.412   4.668
 3377SOL    HW111030   1.097   6.404   4.574
 3377SOL    HW211031   1.112   6.343   4.725
 3378SOL     OW11032   6.464   0.880   0.710
 3378SOL    HW111033   6.370   0.862   0.683
 3378SOL    HW211034   6.509   0.795   0.737
 3379SOL     OW11035   0.517   4.143   5.840
 3379SOL    HW111036   0.501   4.221   5.779
 3379SOL    HW211037   0.611   4.147   5.875
 3380SOL     OW11038   6.886   5.729   5.703
 3380SOL    HW111039   6.841   5.641   5.717
 3380SOL    HW211040   6.926   5.732   5.611
 3381SOL     OW11041   2.410   2.010   0.460
 3381SOL    HW111042   2.327   2.059   0.487
 3381SOL    HW211043   2.482   2.075   0.436
 3382SOL     OW11044   0.466   1.686   0.230
 3382SOL    HW111045   0.565   1.687   0.217
 3382SOL    HW211046   0.431   1.593   0.220
 3383SOL     OW11047   6.026   5.186   2.497
 3383SOL    HW111048   5.992   5.116   2.434
 3383SOL    HW211049   5.953   5.251   2.518
 3384SOL     OW11050   2.988   3.373   5.168
 3384SOL    HW111051   2.945   3.443   5.225
 3384SOL    HW211052   2.942   3.285   5.182
 3385SOL     OW11053   0.004   4.130   3.801
 3385SOL    HW111054   0.062   4.122   3.720
 3385SOL    HW211055   0.060   4.154   3.880
 3386SOL     OW11056   5.938   3.881   5.495
 3386SOL    HW111057   5.849   3.845   5.525
 3386SOL    HW211058   5.924   3.961   5.437
 3387SOL     OW11059   2.280   1.467   2.960
 3387SOL    HW111060   2.365   1.486   2.912
 3387SOL    HW211061   2.295   1.395   3.027
 3388SOL     OW11062   5.587   3.148   1.446
 3388SOL    HW111063   5.653   3.191   1.384
 3388SOL    HW211064   5.546   3.069   1.402
 3389SOL     OW11065   4.543   4.479   4.417
 3389SOL    HW111066   4.592   4.394   4.433
 3389SOL    HW211067   4.489   4.471   4.333
 3390SOL     OW11068   5.121   3.537   5.697
 3390SOL    HW111069   5.160   3.599   5.766
 3390SOL    HW211070   5.056   3.476   5.741
 3391SOL     OW11071   4.157   1.842   4.707
 3391SOL    HW111072   4.198   1.933   4.699
 3391SOL    HW211073   4.154   1.815   4.803
 3392SOL     OW11074   2.594   0.719   4.104
 3392SOL    HW111075   2.686   0.706   4.066
 3392SOL    HW211076   2.547   0.791   4.052
 3393SOL     OW11077   6.549   6.617   0.364
 3393SOL    HW111078   6.625   6.661   0.413
 3393SOL    HW211079   6.463   6.640   0.410
 3394SOL     OW11080   5.881   3.070   1.293
 3394SOL    HW111081   5.864   3.004   1.366
 3394SOL    HW211082   5.857   3.162   1.325
 3395SOL     OW11083   6.327   3.338   3.918
 3395SOL    HW111084   6.334   3.421   3.864
 3395SOL    HW211085   6.391   3.269   3.883
 3396SOL     OW11086   0.696   3.114   3.743
 3396SOL    HW111087   0.679   3.026   3.786
 3396SOL    HW211088   0.614   3.145   3.695
 3397SOL     OW11089   3.389   1.261   5.132
 3397SOL    HW111090   3.306   1.316   5.134
 3397SOL    HW211091   3.379   1.188   5.065
 3398SOL     OW11092   0.823   0.148   4.278
 3398SOL    HW111093   0.807   0.171   4.182
 3398SOL    HW211094   0.819   0.049   4.290
 3399SOL     OW11095   4.610   4.360   4.132
 3399SOL    HW111096   4.653   4.327   4.048
 3399SOL    HW211097   4.625   4.294   4.205
 3400SOL     OW11098   3.871   1.793   5.880
 3400SOL    HW111099   3.850   1.786   5.783
 3400SOL    HW211100   3.879   1.702   5.920
 3401SOL     OW11101   6.940   4.007   0.579
 3401SOL    HW111102   6.935   3.992   0.480
 3401SOL    HW211103   6.998   3.936   0.620
 3402SOL     OW11104   5.178   5.792   1.037
 3402SOL    HW111105   5.109   5.740   0.987
 3402SOL    HW211106   5.254   5.732   1.062
 3403SOL     OW11107   3.733   0.460   5.382
 3403SOL    HW111108   3.709   0.413   5.297
 3403SOL    HW211109   3.766   0.552   5.361
 3404SOL     OW11110   4.024   1.767   0.907
 3404SOL    HW111111   4.032   1.672   0.938
 3404SOL    HW211112   4.070   1.776   0.818
 3405SOL     OW11113   6.299   3.516   5.040
 3405SOL    HW111114   6.391   3.486   5.063
 3405SOL    HW211115   6.304   3.592   4.975
 3406SOL     OW11116   1.957   3.886   1.778
 3406SOL    HW111117   2.022   3.856   1.848
 3406SOL    HW211118   1.902   3.809   1.748
 3407SOL     OW11119   1.653   5.111   1.287
 3407SOL    HW111120   1.618   5.026   1.248
 3407SOL    HW211121   1.601   5.134   1.369
 3408SOL     OW11122   4.742   4.248   4.353
 3408SOL    HW111123   4.718   4.248   4.450
 3408SOL    HW211124   4.831   4.204   4.341
 3409SOL     OW11125   4.042   6.868   5.702
 3409SOL    HW111126   3.972   6.859   5.631
 3409SOL    HW211127   4.112   6.798   5.688
 3410SOL     OW11128   5.990   6.108   6.749
 3410SOL    HW111129   6.040   6.193   6.734
 3410SOL    HW211130   5.896   6.117   6.716
 3411SOL     OW11131   6.109   3.027   2.223
 3411SOL    HW111132   6.112   2.939   2.175
 3411SOL    HW211133   6.202   3.055   2.245
 3412SOL     OW11134   4.202   2.954   6.987
 3412SOL    HW111135   4.136   2.999   6.926
 3412SOL    HW211136   4.285   3.008   6.992
 3413SOL     OW11137   4.251   1.367   2.782
 3413SOL    HW111138   4.278   1.366   2.685
 3413SOL    HW211139   4.181   1.438   2.796
 3414SOL     OW11140   3.207   1.469   5.142
 3414SOL    HW111141   3.172   1.409   5.069
 3414SOL    HW211142   3.131   1.512   5.190
 3415SOL     OW11143   1.282   3.997   4.578
 3415SOL    HW111144   1.270   4.093   4.604
 3415SOL    HW211145   1.378   3.981   4.556
 3416SOL     OW11146   6.804   4.675   6.404
 3416SOL    HW111147   6.777   4.579   6.396
 3416SOL    HW211148   6.743   4.721   6.467
 3417SOL     OW11149   6.082   5.903   2.818
 3417SOL    HW111150   6.123   5.813   2.836
 3417SOL    HW211151   5.983   5.897   2.833
 3418SOL     OW11152   4.635   1.012   4.136
 3418SOL    HW111153   4.616   1.108   4.119
 3418SOL    HW211154   4.684   1.002   4.223
 3419SOL     OW11155   3.625   5.451   6.010
 3419SOL    HW111156   3.713   5.426   6.050
 3419SOL    HW211157   3.626   5.433   5.912
 3420SOL     OW11158   4.928   2.275   3.873
 3420SOL    HW111159   4.976   2.208   3.928
 3420SOL    HW211160   4.895   2.349   3.932
 3421SOL     OW11161   6.190   0.745   5.500
 3421SOL    HW111162   6.196   0.843   5.517
 3421SOL    HW211163   6.186   0.728   5.401
 3422SOL     OW11164   3.441   6.957   1.130
 3422SOL    HW111165   3.372   6.896   1.170
 3422SOL    HW211166   3.423   0.025   1.158
 3423SOL     OW11167   1.978   0.536   0.791
 3423SOL    HW111168   2.073   0.514   0.769
 3423SOL    HW211169   1.941   0.596   0.720
 3424SOL     OW11170   3.802   0.657   2.236
 3424SOL    HW111171   3.776   0.702   2.150
 3424SOL    HW211172   3.813   0.559   2.220
 3425SOL     OW11173   5.161   4.425   2.435
 3425SOL    HW111174   5.155   4.486   2.514
 3425SOL    HW211175   5.182   4.332   2.467
 3426SOL     OW11176   3.527   3.484   0.518
 3426SOL    HW111177   3.439   3.490   0.470
 3426SOL    HW211178   3.546   3.389   0.540
 3427SOL     OW11179   6.417   6.206   6.806
 3427SOL    HW111180   6.349   6.230   6.875
 3427SOL    HW211181   6.378   6.219   6.715
 3428SOL     OW11182   3.983   4.722   1.670
 3428SOL    HW111183   4.082   4.727   1.657
 3428SOL    HW211184   3.955   4.790   1.738
 3429SOL     OW11185   0.763   1.736   6.971
 3429SOL    HW111186   0.690   1.673   6.947
 3429SOL    HW211187   0.837   1.686   7.016
 3430SOL     OW11188   1.075   6.568   6.229
 3430SOL    HW111189   0.985   6.612   6.240
 3430SOL    HW211190   1.115   6.597   6.142
 3431SOL     OW11191   2.794   6.673   0.822
 3431SOL    HW111192   2.770   6.579   0.845
 3431SOL    HW211193   2.838   6.676   0.733
 3432SOL     OW11194   2.729   2.495   5.186
 3432SOL    HW111195   2.662   2.458   5.121
 3432SOL    HW211196   2.684   2.561   5.246
 3433SOL     OW11197   2.260   0.454   6.602
 3433SOL    HW111198   2.184   0.470   6.539
 3433SOL    HW211199   2.306   0.541   6.621
 3434SOL     OW11200   3.470   2.739   0.800
 3434SOL    HW111201   3.419   2.820   0.828
 3434SOL    HW211202   3.433   2.705   0.713
 3435SOL     OW11203   0.257   1.953   1.822
 3435SOL    HW111204   0.319   1.939   1.899
 3435SOL    HW211205   0.310   1.962   1.738
 3436SOL     OW11206   4.452   7.023   5.348
 3436SOL    HW111207   4.480   0.088   5.375
 3436SOL    HW211208   4.360   7.004   5.382
 3437SOL     OW11209   4.758   1.020   6.196
 3437SOL    HW111210   4.792   1.091   6.259
 3437SOL    HW211211   4.784   0.930   6.230
 3438SOL     OW11212   1.517   2.661   6.197
 3438SOL    HW111213   1.426   2.625   6.174
 3438SOL    HW211214   1.533   2.651   6.295
 3439SOL     OW11215   2.789   0.322   5.302
 3439SOL    HW111216   2.780   0.421   5.309
 3439SOL    HW211217   2.885   0.296   5.312
 3440SOL     OW11218   5.123   3.314   1.392
 3440SOL    HW111219   5.106   3.216   1.394
 3440SOL    HW211220   5.215   3.333   1.426
 3441SOL     OW11221   4.947   0.592   3.264
 3441SOL    HW111222   4.908   0.683   3.256
 3441SOL    HW211223   4.883   0.524   3.227
 3442SOL     OW11224   2.605   4.665   3.215
 3442SOL    HW111225   2.691   4.699   3.177
 3442SOL    HW211226   2.528   4.698   3.161
 3443SOL     OW11227   5.233   0.885   2.702
 3443SOL    HW111228   5.173   0.965   2.708
 3443SOL    HW211229   5.177   0.802   2.702
 3444SOL     OW11230   5.131   5.249   6.511
 3444SOL    HW111231   5.125   5.151   6.494
 3444SOL    HW211232   5.225   5.273   6.537
 3445SOL     OW11233   6.265   4.408   4.157
 3445SOL    HW111234   6.277   4.454   4.069
 3445SOL    HW211235   6.241   4.312   4.142
 3446SOL     OW11236   5.604   0.801   3.277
 3446SOL    HW111237   5.673   0.874   3.272
 3446SOL    HW211238   5.546   0.805   3.195
 3447SOL     OW11239   4.986   4.836   0.165
 3447SOL    HW111240   5.037   4.899   0.224
 3447SOL    HW211241   5.012   4.742   0.187
 3448SOL     OW11242   3.650   6.833   0.998
 3448SOL    HW111243   3.567   6.863   1.044
 3448SOL    HW211244   3.705   6.778   1.061
 3449SOL     OW11245   5.583   6.501   3.047
 3449SOL    HW111246   5.502   6.486   2.990
 3449SOL    HW211247   5.614   6.595   3.036
 3450SOL     OW11248   0.986   2.880   0.596
 3450SOL    HW111249   0.894   2.845   0.611
 3450SOL    HW211250   0.994   2.971   0.637
 3451SOL     OW11251   0.367   5.483   2.745
 3451SOL    HW111252   0.272   5.509   2.759
 3451SOL    HW211253   0.385   5.475   2.647
 3452SOL     OW11254   6.008   1.267   0.138
 3452SOL    HW111255   6.033   1.235   0.230
 3452SOL    HW211256   5.954   1.351   0.145
 3453SOL     OW11257   5.816   6.244   5.592
 3453SOL    HW111258   5.887   6.257   5.662
 3453SOL    HW211259   5.736   6.300   5.615
 3454SOL     OW11260   2.049   0.823   6.228
 3454SOL    HW111261   2.136   0.837   6.276
 3454SOL    HW211262   2.042   0.726   6.202
 3455SOL     OW11263   1.275   2.892   4.338
 3455SOL    HW111264   1.374   2.906   4.344
 3455SOL    HW211265   1.239   2.939   4.257
 3456SOL     OW11266   5.776   6.138   2.444
 3456SOL    HW111267   5.862   6.180   2.473
 3456SOL    HW211268   5.734   6.195   2.373
 3457SOL     OW11269   2.260   4.918   4.327
 3457SOL    HW111270   2.353   4.943   4.298
 3457SOL    HW211271   2.202   4.906   4.246
 3458SOL     OW11272   5.598   6.537   6.785
 3458SOL    HW111273   5.621   6.469   6.715
 3458SOL    HW211274   5.655   6.618   6.772
 3459SOL     OW11275   0.433   4.053   2.989
 3459SOL    HW111276   0.415   4.034   2.892
 3459SOL    HW211277   0.490   3.980   3.027
 3460SOL     OW11278   3.314   3.165   0.567
 3460SOL    HW111279   3.352   3.222   0.641
 3460SOL    HW211280   3.224   3.130   0.595
 3461SOL     OW11281   4.578   5.451   4.247
 3461SOL    HW111282   4.503   5.389   4.224
 3461SOL    HW211283   4.665   5.403   4.238
 3462SOL     OW11284   6.097   3.762   1.615
 3462SOL    HW111285   6.003   3.752   1.582
 3462SOL    HW211286   6.160   3.758   1.538
 3463SOL     OW11287   0.552   3.344   2.672
 3463SOL    HW111288   0.571   3.442   2.683
 3463SOL    HW211289   0.543   3.302   2.762
 3464SOL     OW11290   5.734   2.401   6.812
 3464SOL    HW111291   5.763   2.307   6.831
 3464SOL    HW211292   5.666   2.430   6.879
 3465SOL     OW11293   1.374   3.027   1.980
 3465SOL    HW111294   1.409   3.102   2.037
 3465SOL    HW211295   1.300   2.980   2.028
 3466SOL     OW11296   5.144   5.025   5.729
 3466SOL    HW111297   5.205   5.019   5.650
 3466SOL    HW211298   5.052   5.051   5.698
 3467SOL     OW11299   2.492   1.578   1.006
 3467SOL    HW111300   2.470   1.585   1.104
 3467SOL    HW211301   2.408   1.561   0.955
 3468SOL     OW11302   5.953   1.725   2.877
 3468SOL    HW111303   6.014   1.738   2.955
 3468SOL    HW211304   5.880   1.793   2.880
 3469SOL     OW11305   5.184   1.320   5.895
 3469SOL    HW111306   5.114   1.317   5.966
 3469SOL    HW211307   5.255   1.385   5.922
 3470SOL     OW11308   0.257   2.945   1.885
 3470SOL    HW111309   0.314   3.028   1.890
 3470SOL    HW211310   0.210   2.932   1.972
 3471SOL     OW11311   4.689   4.255   3.892
 3471SOL    HW111312   4.641   4.281   3.809
 3471SOL    HW211313   4.731   4.165   3.880
 3472SOL     OW11314   3.736   1.017   1.425
 3472SOL    HW111315   3.727   1.006   1.524
 3472SOL    HW211316   3.825   1.059   1.404
 3473SOL     OW11317   5.968   3.490   3.255
 3473SOL    HW111318   6.001   3.398   3.235
 3473SOL    HW211319   5.969   3.545   3.172
 3474SOL     OW11320   0.920   3.923   3.797
 3474SOL    HW111321   0.872   4.009   3.779
 3474SOL    HW211322   0.877   3.850   3.744
 3475SOL     OW11323   1.053   4.397   4.860
 3475SOL    HW111324   0.981   4.464   4.846
 3475SOL    HW211325   1.030   4.339   4.938
 3476SOL     OW11326   1.677   2.003   2.863
 3476SOL    HW111327   1.624   1.987   2.780
 3476SOL    HW211328   1.620   1.980   2.943
 3477SOL     OW11329   0.821   4.132   0.612
 3477SOL    HW111330   0.819   4.092   0.520
 3477SOL    HW211331   0.894   4.088   0.666
 3478SOL     OW11332   2.791   6.392   6.808
 3478SOL    HW111333   2.783   6.492   6.799
 3478SOL    HW211334   2.824   6.369   6.899
 3479SOL     OW11335   0.638   0.994   3.106
 3479SOL    HW111336   0.597   1.085   3.102
 3479SOL    HW211337   0.727   0.995   3.062
 3480SOL     OW11338   1.058   6.274   5.697
 3480SOL    HW111339   1.110   6.333   5.635
 3480SOL    HW211340   1.051   6.182   5.658
 3481SOL     OW11341   5.052   0.211   0.320
 3481SOL    HW111342   5.042   0.137   0.386
 3481SOL    HW211343   5.109   0.181   0.244
 3482SOL     OW11344   5.936   1.357   2.339
 3482SOL    HW111345   5.916   1.403   2.252
 3482SOL    HW211346   5.884   1.399   2.413
 3483SOL     OW11347   5.737   1.928   2.878
 3483SOL    HW111348   5.721   1.913   2.780
 3483SOL    HW211349   5.654   1.906   2.929
 3484SOL     OW11350   1.419   3.103   6.756
 3484SOL    HW111351   1.518   3.093   6.766
 3484SOL    HW211352   1.384   3.032   6.695
 3485SOL     OW11353   1.399   2.014   4.495
 3485SOL    HW111354   1.320   2.016   4.434
 3485SOL    HW211355   1.479   2.050   4.448
 3486SOL     OW11356   1.865   0.217   3.847
 3486SOL    HW111357   1.898   0.171   3.764
 3486SOL    HW211358   1.896   0.167   3.928
 3487SOL     OW11359   6.430   2.376   0.003
 3487SOL    HW111360   6.518   2.340   0.036
 3487SOL    HW211361   6.389   2.433   0.075
 3488SOL     OW11362   5.418   0.738   4.837
 3488SOL    HW111363   5.458   0.709   4.924
 3488SOL    HW211364   5.445   0.675   4.764
 3489SOL     OW11365   3.735   0.364   1.859
 3489SOL    HW111366   3.764   0.422   1.783
 3489SOL    HW211367   3.653   0.314   1.833
 3490SOL     OW11368   3.274   4.578   1.421
 3490SOL    HW111369   3.288   4.581   1.520
 3490SOL    HW211370   3.187   4.620   1.398
 3491SOL     OW11371   3.946   3.090   6.015
 3491SOL    HW111372   3.891   3.012   5.990
 3491SOL    HW211373   3.968   3.144   5.934
 3492SOL     OW11374   5.724   4.343   0.658
 3492SOL    HW111375   5.683   4.427   0.623
 3492SOL    HW211376   5.735   4.351   0.757
 3493SOL     OW11377   5.818   3.738   4.071
 3493SOL    HW111378   5.853   3.671   4.136
 3493SOL    HW211379   5.756   3.801   4.118
 3494SOL     OW11380   2.484   0.770   1.918
 3494SOL    HW111381   2.434   0.732   1.840
 3494SOL    HW211382   2.551   0.837   1.885
 3495SOL     OW11383   0.430   3.875   2.370
 3495SOL    HW111384   0.445   3.969   2.340
 3495SOL    HW211385   0.333   3.862   2.392
 3496SOL     OW11386   5.896   5.505   1.269
 3496SOL    HW111387   5.861   5.443   1.340
 3496SOL    HW211388   5.990   5.480   1.248
 3497SOL     OW11389   2.585   1.562   4.198
 3497SOL    HW111390   2.505   1.593   4.249
 3497SOL    HW211391   2.567   1.568   4.100
 3498SOL     OW11392   2.974   1.193   2.432
 3498SOL    HW111393   2.913   1.180   2.353
 3498SOL    HW211394   2.930   1.254   2.498
 3499SOL     OW11395   6.590   5.031   4.022
 3499SOL    HW111396   6.600   4.945   3.973
 3499SOL    HW211397   6.664   5.041   4.088
 3500SOL     OW11398   1.978   2.774   2.846
 3500SOL    HW111399   1.940   2.759   2.755
 3500SOL    HW211400   1.992   2.687   2.891
 3501SOL     OW11401   3.453   6.934   6.831
 3501SOL    HW111402   3.518   6.956   6.903
 3501SOL    HW211403   3.361   6.963   6.858
 3502SOL     OW11404   6.860   2.903   1.744
 3502SOL    HW111405   6.887   2.993   1.710
 3502SOL    HW211406   6.761   2.891   1.732
 3503SOL     OW11407   0.038   6.465   5.768
 3503SOL    HW111408   0.133   6.493   5.752
 3503SOL    HW211409   0.024   6.373   5.730
 3504SOL     OW11410   1.858   0.570   2.094
 3504SOL    HW111411   1.793   0.500   2.123
 3504SOL    HW211412   1.823   0.660   2.120
 3505SOL     OW11413   5.324   5.015   5.269
 3505SOL    HW111414   5.306   4.917   5.261
 3505SOL    HW211415   5.257   5.066   5.215
 3506SOL     OW11416   5.380   4.601   5.090
 3506SOL    HW111417   5.467   4.601   5.040
 3506SOL    HW211418   5.314   4.658   5.041
 3507SOL     OW11419   2.746   0.406   0.542
 3507SOL    HW111420   2.714   0.405   0.447
 3507SOL    HW211421   2.730   0.496   0.582
 3508SOL     OW11422   2.548   1.868   6.490
 3508SOL    HW111423   2.565   1.896   6.396
 3508SOL    HW211424   2.487   1.934   6.535
 3509SOL     OW11425   5.734   0.006   6.687
 3509SOL    HW111426   5.805   0.042   6.748
 3509SOL    HW211427   5.678   0.082   6.653
 3510SOL     OW11428   1.405   0.199   1.839
 3510SOL    HW111429   1.335   0.230   1.904
 3510SOL    HW211430   1.363   0.187   1.749
 3511SOL     OW11431   2.069   4.151   1.848
 3511SOL    HW111432   2.074   4.053   1.829
 3511SOL    HW211433   2.155   4.182   1.890
 3512SOL     OW11434   0.301   4.430   0.953
 3512SOL    HW111435   0.333   4.342   0.918
 3512SOL    HW211436   0.365   4.502   0.925
 3513SOL     OW11437   5.844   2.071   0.714
 3513SOL    HW111438   5.744   2.069   0.715
 3513SOL    HW211439   5.879   1.980   0.690
 3514SOL     OW11440   6.627   0.930   1.377
 3514SOL    HW111441   6.685   1.003   1.412
 3514SOL    HW211442   6.681   0.847   1.365
 3515SOL     OW11443   5.284   6.130   3.131
 3515SOL    HW111444   5.265   6.218   3.175
 3515SOL    HW211445   5.381   6.109   3.138
 3516SOL     OW11446   4.531   6.170   0.880
 3516SOL    HW111447   4.484   6.138   0.798
 3516SOL    HW211448   4.583   6.253   0.858
 3517SOL     OW11449   0.130   1.586   0.714
 3517SOL    HW111450   0.059   1.541   0.660
 3517SOL    HW211451   0.125   1.556   0.809
 3518SOL     OW11452   5.019   2.717   5.015
 3518SOL    HW111453   5.019   2.794   5.079
 3518SOL    HW211454   5.033   2.632   5.065
 3519SOL     OW11455   1.791   0.530   5.620
 3519SOL    HW111456   1.720   0.506   5.686
 3519SOL    HW211457   1.876   0.553   5.669
 3520SOL     OW11458   3.623   6.353   0.558
 3520SOL    HW111459   3.718   6.335   0.530
 3520SOL    HW211460   3.581   6.416   0.494
 3521SOL     OW11461   4.454   2.460   0.451
 3521SOL    HW111462   4.490   2.547   0.482
 3521SOL    HW211463   4.375   2.476   0.392
 3522SOL     OW11464   6.803   5.883   6.458
 3522SOL    HW111465   6.894   5.907   6.427
 3522SOL    HW211466   6.800   5.883   6.558
 3523SOL     OW11467   1.657   4.226   5.250
 3523SOL    HW111468   1.651   4.304   5.313
 3523SOL    HW211469   1.644   4.141   5.301
 3524SOL     OW11470   5.006   2.078   1.721
 3524SOL    HW111471   4.969   2.142   1.789
 3524SOL    HW211472   5.024   1.990   1.764
 3525SOL     OW11473   6.589   3.433   4.043
 3525SOL    HW111474   6.575   3.450   4.141
 3525SOL    HW211475   6.565   3.516   3.992
 3526SOL     OW11476   2.149   6.836   3.753
 3526SOL    HW111477   2.108   6.845   3.843
 3526SOL    HW211478   2.209   6.756   3.752
 3527SOL     OW11479   5.794   3.684   6.416
 3527SOL    HW111480   5.721   3.617   6.427
 3527SOL    HW211481   5.821   3.689   6.319
 3528SOL     OW11482   2.275   6.602   5.311
 3528SOL    HW111483   2.341   6.660   5.264
 3528SOL    HW211484   2.183   6.623   5.277
 3529SOL     OW11485   3.926   6.461   0.744
 3529SOL    HW111486   3.888   6.550   0.770
 3529SOL    HW211487   3.995   6.473   0.674
 3530SOL     OW11488   6.727   5.585   1.218
 3530SOL    HW111489   6.823   5.565   1.199
 3530SOL    HW211490   6.715   5.682   1.237
 3531SOL     OW11491   5.311   2.213   0.527
 3531SOL    HW111492   5.357   2.125   0.518
 3531SOL    HW211493   5.262   2.234   0.442
 3532SOL     OW11494   2.748   0.504   1.683
 3532SOL    HW111495   2.815   0.433   1.658
 3532SOL    HW211496   2.780   0.553   1.763
 3533SOL     OW11497   6.966   0.992   2.381
 3533SOL    HW111498   6.963   1.091   2.369
 3533SOL    HW211499   0.012   0.968   2.445
 3534SOL     OW11500   0.488   2.252   0.593
 3534SOL    HW111501   0.561   2.212   0.649
 3534SOL    HW211502   0.512   2.242   0.496
 3535SOL     OW11503   1.804   5.095   6.047
 3535SOL    HW111504   1.815   4.996   6.059
 3535SOL    HW211505   1.824   5.141   6.133
 3536SOL     OW11506   3.374   1.684   2.876
 3536SOL    HW111507   3.378   1.733   2.788
 3536SOL    HW211508   3.341   1.591   2.861
 3537SOL     OW11509   2.239   5.359   2.766
 3537SOL    HW111510   2.221   5.446   2.720
 3537SOL    HW211511   2.210   5.366   2.862
 3538SOL     OW11512   2.630   6.127   5.443
 3538SOL    HW111513   2.559   6.089   5.384
 3538SOL    HW211514   2.656   6.060   5.512
 3539SOL     OW11515   3.819   3.518   4.977
 3539SOL    HW111516   3.820   3.418   4.973
 3539SOL    HW211517   3.900   3.554   4.931
 3540SOL     OW11518   2.143   2.789   4.567
 3540SOL    HW111519   2.211   2.811   4.497
 3540SOL    HW211520   2.186   2.792   4.657
 3541SOL     OW11521   2.671   2.575   5.999
 3541SOL    HW111522   2.763   2.563   5.960
 3541SOL    HW211523   2.668   2.662   6.048
 3542SOL     OW11524   1.213   5.435   3.414
 3542SOL    HW111525   1.259   5.385   3.487
 3542SOL    HW211526   1.160   5.371   3.358
 3543SOL     OW11527   0.304   2.530   5.055
 3543SOL    HW111528   0.374   2.477   5.102
 3543SOL    HW211529   0.231   2.470   5.025
 3544SOL     OW11530   1.436   3.749   6.129
 3544SOL    HW111531   1.458   3.732   6.033
 3544SOL    HW211532   1.513   3.795   6.173
 3545SOL     OW11533   3.764   5.980   6.746
 3545SOL    HW111534   3.666   5.963   6.738
 3545SOL    HW211535   3.805   5.913   6.808
 3546SOL     OW11536   1.103   4.941   3.906
 3546SOL    HW111537   1.177   4.875   3.899
 3546SOL    HW211538   1.029   4.915   3.844
 3547SOL     OW11539   5.370   4.356   3.609
 3547SOL    HW111540   5.353   4.359   3.511
 3547SOL    HW211541   5.325   4.435   3.653
 3548SOL     OW11542   5.798   1.451   6.214
 3548SOL    HW111543   5.796   1.378   6.283
 3548SOL    HW211544   5.849   1.419   6.134
 3549SOL     OW11545   6.579   4.443   4.985
 3549SOL    HW111546   6.599   4.515   5.052
 3549SOL    HW211547   6.659   4.384   4.975
 3550SOL     OW11548   5.506   1.998   2.634
 3550SOL    HW111549   5.511   2.067   2.706
 3550SOL    HW211550   5.429   1.937   2.651
 3551SOL     OW11551   3.929   6.397   2.418
 3551SOL    HW111552   4.023   6.391   2.387
 3551SOL    HW211553   3.902   6.310   2.459
 3552SOL     OW11554   4.774   6.152   1.872
 3552SOL    HW111555   4.764   6.247   1.901
 3552SOL    HW211556   4.839   6.105   1.932
 3553SOL     OW11557   5.859   3.335   1.350
 3553SOL    HW111558   5.842   3.377   1.261
 3553SOL    HW211559   5.807   3.385   1.420
 3554SOL     OW11560   3.831   2.647   1.030
 3554SOL    HW111561   3.863   2.639   1.124
 3554SOL    HW211562   3.739   2.608   1.023
 3555SOL     OW11563   1.038   3.254   3.080
 3555SOL    HW111564   0.945   3.287   3.063
 3555SOL    HW211565   1.097   3.332   3.101
 3556SOL     OW11566   4.018   0.710   4.799
 3556SOL    HW111567   4.081   0.766   4.853
 3556SOL    HW211568   4.052   0.703   4.705
 3557SOL     OW11569   0.330   0.307   3.387
 3557SOL    HW111570   0.261   0.294   3.316
 3557SOL    HW211571   0.315   0.396   3.431
 3558SOL     OW11572   0.793   5.706   0.926
 3558SOL    HW111573   0.816   5.625   0.980
 3558SOL    HW211574   0.869   5.727   0.864
 3559SOL     OW11575   0.341   6.873   4.840
 3559SOL    HW111576   0.375   6.795   4.894
 3559SOL    HW211577   0.418   6.928   4.810
 3560SOL     OW11578   1.204   5.452   0.883
 3560SOL    HW111579   1.248   5.474   0.796
 3560SOL    HW211580   1.114   5.412   0.866
 3561SOL     OW11581   3.860   4.956   5.167
 3561SOL    HW111582   3.909   4.999   5.091
 3561SOL    HW211583   3.762   4.953   5.146
 3562SOL     OW11584   5.002   0.673   4.208
 3562SOL    HW111585   5.085   0.729   4.207
 3562SOL    HW211586   4.972   0.660   4.303
 3563SOL     OW11587   5.324   0.279   1.567
 3563SOL    HW111588   5.399   0.331   1.525
 3563SOL    HW211589   5.255   0.258   1.498
 3564SOL     OW11590   1.333   4.984   4.404
 3564SOL    HW111591   1.306   4.888   4.413
 3564SOL    HW211592   1.354   5.004   4.308
 3565SOL     OW11593   4.038   6.596   4.580
 3565SOL    HW111594   4.009   6.523   4.519
 3565SOL    HW211595   4.108   6.561   4.643
 3566SOL     OW11596   6.654   3.579   6.572
 3566SOL    HW111597   6.605   3.613   6.491
 3566SOL    HW211598   6.620   3.626   6.653
 3567SOL     OW11599   0.845   2.770   0.058
 3567SOL    HW111600   0.943   2.754   0.063
 3567SOL    HW211601   0.804   2.705   7.020
 3568SOL     OW11602   4.990   5.212   3.439
 3568SOL    HW111603   4.969   5.254   3.527
 3568SOL    HW211604   5.082   5.175   3.440
 3569SOL     OW11605   2.918   2.541   5.926
 3569SOL    HW111606   2.969   2.620   5.961
 3569SOL    HW211607   2.930   2.536   5.827
 3570SOL     OW11608   5.229   0.399   4.654
 3570SOL    HW111609   5.174   0.351   4.586
 3570SOL    HW211610   5.270   0.332   4.717
 3571SOL     OW11611   2.142   0.932   5.046
 3571SOL    HW111612   2.107   1.025   5.035
 3571SOL    HW211613   2.240   0.931   5.027
 3572SOL     OW11614   5.308   3.754   2.861
 3572SOL    HW111615   5.339   3.662   2.835
 3572SOL    HW211616   5.344   3.821   2.797
 3573SOL     OW11617   6.658   4.311   2.372
 3573SOL    HW111618   6.560   4.299   2.359
 3573SOL    HW211619   6.697   4.229   2.415
 3574SOL     OW11620   1.466   3.845   0.195
 3574SOL    HW111621   1.528   3.905   0.145
 3574SOL    HW211622   1.512   3.760   0.216
 3575SOL     OW11623   5.245   5.826   1.949
 3575SOL    HW111624   5.146   5.835   1.958
 3575SOL    HW211625   5.268   5.732   1.925
 3576SOL     OW11626   0.262   2.093   0.075
 3576SOL    HW111627   0.296   2.058   0.163
 3576SOL    HW211628   0.325   2.163   0.042
 3577SOL     OW11629   2.659   2.827   6.148
 3577SOL    HW111630   2.570   2.860   6.116
 3577SOL    HW211631   2.728   2.899   6.137
 3578SOL     OW11632   4.461   2.705   1.127
 3578SOL    HW111633   4.487   2.730   1.033
 3578SOL    HW211634   4.431   2.787   1.175
 3579SOL     OW11635   0.021   2.849   3.057
 3579SOL    HW111636   6.958   2.831   3.015
 3579SOL    HW211637   0.068   2.921   3.007
 3580SOL     OW11638   6.522   3.678   0.895
 3580SOL    HW111639   6.553   3.583   0.893
 3580SOL    HW211640   6.597   3.737   0.924
 3581SOL     OW11641   0.414   6.583   2.819
 3581SOL    HW111642   0.459   6.620   2.900
 3581SOL    HW211643   0.473   6.515   2.776
 3582SOL     OW11644   2.472   4.733   5.804
 3582SOL    HW111645   2.447   4.677   5.882
 3582SOL    HW211646   2.567   4.714   5.777
 3583SOL     OW11647   1.123   4.314   0.207
 3583SOL    HW111648   1.147   4.229   0.158
 3583SOL    HW211649   1.181   4.323   0.288
 3584SOL     OW11650   5.522   4.724   5.417
 3584SOL    HW111651   5.431   4.690   5.393
 3584SOL    HW211652   5.584   4.713   5.339
 3585SOL     OW11653   3.301   1.805   4.600
 3585SOL    HW111654   3.291   1.706   4.609
 3585SOL    HW211655   3.397   1.827   4.588
 3586SOL     OW11656   0.007   2.695   5.030
 3586SOL    HW111657   0.099   2.656   5.024
 3586SOL    HW211658   7.021   2.740   5.119
 3587SOL     OW11659   2.904   5.367   6.536
 3587SOL    HW111660   2.841   5.331   6.467
 3587SOL    HW211661   2.965   5.434   6.494
 3588SOL     OW11662   6.778   4.022   4.355
 3588SOL    HW111663   6.824   3.935   4.372
 3588SOL    HW211664   6.823   4.069   4.279
 3589SOL     OW11665   5.912   6.538   6.500
 3589SOL    HW111666   5.962   6.615   6.541
 3589SOL    HW211667   5.949   6.519   6.409
 3590SOL     OW11668   0.464   3.778   0.706
 3590SOL    HW111669   0.543   3.739   0.659
 3590SOL    HW211670   0.404   3.704   0.737
 3591SOL     OW11671   5.484   2.911   1.012
 3591SOL    HW111672   5.513   2.985   0.951
 3591SOL    HW211673   5.388   2.889   0.995
 3592SOL     OW11674   0.318   0.272   2.525
 3592SOL    HW111675   0.356   0.248   2.614
 3592SOL    HW211676   0.338   0.198   2.459
 3593SOL     OW11677   0.578   4.731   5.889
 3593SOL    HW111678   0.653   4.790   5.859
 3593SOL    HW211679   0.591   4.707   5.985
 3594SOL     OW11680   4.751   0.221   4.449
 3594SOL    HW111681   4.693   0.162   4.391
 3594SOL    HW211682   4.693   0.272   4.512
 3595SOL     OW11683   6.038   6.035   0.340
 3595SOL    HW111684   6.133   6.023   0.367
 3595SOL    HW211685   5.996   5.945   0.326
 3596SOL     OW11686   4.240   2.284   3.546
 3596SOL    HW111687   4.304   2.247   3.613
 3596SOL    HW211688   4.291   2.330   3.474
 3597SOL     OW11689   1.964   2.575   5.974
 3597SOL    HW111690   2.022   2.641   6.022
 3597SOL    HW211691   2.009   2.486   5.973
 3598SOL     OW11692   2.033   6.308   5.348
 3598SOL    HW111693   2.019   6.371   5.425
 3598SOL    HW211694   2.106   6.343   5.290
 3599SOL     OW11695   4.953   1.802   6.526
 3599SOL    HW111696   4.966   1.749   6.442
 3599SOL    HW211697   4.915   1.891   6.503
 3600SOL     OW11698   1.537   3.409   1.868
 3600SOL    HW111699   1.549   3.506   1.888
 3600SOL    HW211700   1.615   3.358   1.904
 3601SOL     OW11701   5.497   1.999   5.772
 3601SOL    HW111702   5.562   2.070   5.799
 3601SOL    HW211703   5.405   2.025   5.801
 3602SOL     OW11704   1.883   3.040   0.404
 3602SOL    HW111705   1.807   3.052   0.341
 3602SOL    HW211706   1.943   2.967   0.370
 3603SOL     OW11707   3.318   0.891   5.977
 3603SOL    HW111708   3.399   0.937   5.941
 3603SOL    HW211709   3.336   0.792   5.983
 3604SOL     OW11710   5.934   1.107   3.502
 3604SOL    HW111711   6.001   1.181   3.493
 3604SOL    HW211712   5.980   1.022   3.526
 3605SOL     OW11713   0.984   5.324   3.944
 3605SOL    HW111714   0.988   5.414   3.987
 3605SOL    HW211715   0.937   5.331   3.856
 3606SOL     OW11716   1.363   6.330   2.150
 3606SOL    HW111717   1.402   6.375   2.069
 3606SOL    HW211718   1.397   6.236   2.155
 3607SOL     OW11719   5.174   2.601   2.738
 3607SOL    HW111720   5.130   2.640   2.819
 3607SOL    HW211721   5.179   2.670   2.666
 3608SOL     OW11722   4.981   1.422   3.948
 3608SOL    HW111723   5.004   1.330   3.916
 3608SOL    HW211724   4.999   1.429   4.046
 3609SOL     OW11725   2.230   6.482   4.676
 3609SOL    HW111726   2.144   6.482   4.625
 3609SOL    HW211727   2.306   6.458   4.615
 3610SOL     OW11728   1.953   0.336   5.491
 3610SOL    HW111729   2.047   0.358   5.464
 3610SOL    HW211730   1.893   0.412   5.467
 3611SOL     OW11731   4.353   4.582   4.136
 3611SOL    HW111732   4.382   4.490   4.111
 3611SOL    HW211733   4.303   4.623   4.060
 3612SOL     OW11734   6.840   1.397   6.810
 3612SOL    HW111735   6.753   1.408   6.858
 3612SOL    HW211736   6.899   1.475   6.832
 3613SOL     OW11737   4.157   5.100   2.142
 3613SOL    HW111738   4.132   5.011   2.105
 3613SOL    HW211739   4.255   5.100   2.163
 3614SOL     OW11740   2.987   3.310   6.877
 3614SOL    HW111741   2.992   3.349   6.969
 3614SOL    HW211742   3.006   3.381   6.809
 3615SOL     OW11743   6.133   3.023   6.046
 3615SOL    HW111744   6.059   2.991   5.987
 3615SOL    HW211745   6.095   3.063   6.129
 3616SOL     OW11746   1.867   1.264   6.524
 3616SOL    HW111747   1.835   1.180   6.567
 3616SOL    HW211748   1.791   1.310   6.479
 3617SOL     OW11749   4.573   0.243   5.902
 3617SOL    HW111750   4.628   0.301   5.841
 3617SOL    HW211751   4.574   0.282   5.994
 3618SOL     OW11752   2.256   3.488   5.202
 3618SOL    HW111753   2.324   3.433   5.251
 3618SOL    HW211754   2.274   3.585   5.217
 3619SOL     OW11755   5.432   3.037   0.569
 3619SOL    HW111756   5.466   3.068   0.658
 3619SOL    HW211757   5.333   3.053   0.563
 3620SOL     OW11758   6.337   5.889   4.700
 3620SOL    HW111759   6.393   5.812   4.670
 3620SOL    HW211760   6.258   5.856   4.751
 3621SOL     OW11761   3.221   3.105   3.950
 3621SOL    HW111762   3.185   3.061   4.032
 3621SOL    HW211763   3.318   3.082   3.939
 3622SOL     OW11764   0.927   0.362   1.439
 3622SOL    HW111765   0.886   0.438   1.389
 3622SOL    HW211766   0.904   0.276   1.392
 3623SOL     OW11767   0.608   5.969   5.067
 3623SOL    HW111768   0.637   5.893   5.009
 3623SOL    HW211769   0.665   5.973   5.149
 3624SOL     OW11770   1.553   6.683   1.812
 3624SOL    HW111771   1.548   6.584   1.825
 3624SOL    HW211772   1.545   6.704   1.714
 3625SOL     OW11773   0.314   3.218   6.595
 3625SOL    HW111774   0.270   3.213   6.685
 3625SOL    HW211775   0.281   3.299   6.546
 3626SOL     OW11776   0.390   3.780   4.732
 3626SOL    HW111777   0.415   3.684   4.719
 3626SOL    HW211778   0.471   3.838   4.714
 3627SOL     OW11779   5.357   2.974   1.676
 3627SOL    HW111780   5.413   2.891   1.677
 3627SOL    HW211781   5.381   3.031   1.755
 3628SOL     OW11782   1.587   1.289   2.157
 3628SOL    HW111783   1.660   1.324   2.217
 3628SOL    HW211784   1.617   1.294   2.062
 3629SOL     OW11785   1.056   0.700   4.171
 3629SOL    HW111786   1.088   0.765   4.102
 3629SOL    HW211787   0.968   0.661   4.143
 3630SOL     OW11788   6.945   2.588   3.011
 3630SOL    HW111789   6.847   2.567   3.010
 3630SOL    HW211790   6.987   2.549   3.093
 3631SOL     OW11791   1.873   6.636   4.047
 3631SOL    HW111792   1.885   6.634   3.947
 3631SOL    HW211793   1.949   6.687   4.088
 3632SOL     OW11794   4.586   4.290   1.221
 3632SOL    HW111795   4.627   4.205   1.252
 3632SOL    HW211796   4.487   4.287   1.238
 3633SOL     OW11797   3.572   2.304   5.483
 3633SOL    HW111798   3.652   2.317   5.425
 3633SOL    HW211799   3.548   2.391   5.527
 3634SOL     OW11800   1.992   6.414   6.246
 3634SOL    HW111801   2.089   6.412   6.224
 3634SOL    HW211802   1.948   6.489   6.196
 3635SOL     OW11803   2.388   1.545   1.500
 3635SOL    HW111804   2.391   1.455   1.542
 3635SOL    HW211805   2.319   1.601   1.546
 3636SOL     OW11806   0.141   5.394   0.886
 3636SOL    HW111807   0.137   5.359   0.980
 3636SOL    HW211808   0.077   5.471   0.877
 3637SOL     OW11809   1.068   2.388   0.338
 3637SOL    HW111810   1.114   2.448   0.403
 3637SOL    HW211811   1.072   2.428   0.247
 3638SOL     OW11812   6.821   3.820   2.659
 3638SOL    HW111813   6.797   3.724   2.643
 3638SOL    HW211814   6.825   3.837   2.757
 3639SOL     OW11815   3.765   4.412   5.460
 3639SOL    HW111816   3.769   4.313   5.449
 3639SOL    HW211817   3.670   4.442   5.453
 3640SOL     OW11818   5.570   2.370   0.574
 3640SOL    HW111819   5.521   2.384   0.488
 3640SOL    HW211820   5.552   2.277   0.608
 3641SOL     OW11821   5.004   4.477   1.261
 3641SOL    HW111822   5.072   4.508   1.327
 3641SOL    HW211823   5.002   4.377   1.260
 3642SOL     OW11824   5.394   1.895   6.461
 3642SOL    HW111825   5.458   1.965   6.431
 3642SOL    HW211826   5.300   1.927   6.444
 3643SOL     OW11827   4.108   6.830   6.104
 3643SOL    HW111828   4.203   6.825   6.076
 3643SOL    HW211829   4.069   6.917   6.074
 3644SOL     OW11830   3.663   1.350   1.524
 3644SOL    HW111831   3.608   1.291   1.465
 3644SOL    HW211832   3.620   1.358   1.614
 3645SOL     OW11833   1.381   3.557   3.822
 3645SOL    HW111834   1.463   3.597   3.863
 3645SOL    HW211835   1.304   3.619   3.838
 3646SOL     OW11836   2.477   5.049   4.934
 3646SOL    HW111837   2.521   4.978   4.988
 3646SOL    HW211838   2.396   5.082   4.981
 3647SOL     OW11839   2.724   0.194   6.839
 3647SOL    HW111840   2.646   0.233   6.887
 3647SOL    HW211841   2.727   0.230   6.746
 3648SOL     OW11842   5.233   5.928   3.299
 3648SOL    HW111843   5.223   5.996   3.226
 3648SOL    HW211844   5.184   5.845   3.274
 3649SOL     OW11845   5.453   4.005   6.831
 3649SOL    HW111846   5.437   3.910   6.806
 3649SOL    HW211847   5.471   4.010   6.930
 3650SOL     OW11848   5.290   4.422   1.050
 3650SOL    HW111849   5.220   4.471   0.999
 3650SOL    HW211850   5.380   4.444   1.013
 3651SOL     OW11851   2.307   1.441   5.762
 3651SOL    HW111852   2.403   1.432   5.735
 3651SOL    HW211853   2.255   1.483   5.688
 3652SOL     OW11854   5.604   0.881   2.424
 3652SOL    HW111855   5.564   0.814   2.486
 3652SOL    HW211856   5.583   0.973   2.456
 3653SOL     OW11857   0.973   0.896   2.683
 3653SOL    HW111858   0.918   0.814   2.671
 3653SOL    HW211859   1.027   0.913   2.601
 3654SOL     OW11860   4.735   6.008   0.580
 3654SOL    HW111861   4.819   5.954   0.583
 3654SOL    HW211862   4.717   6.048   0.670
 3655SOL     OW11863   2.892   1.091   4.147
 3655SOL    HW111864   2.870   1.174   4.095
 3655SOL    HW211865   2.860   1.101   4.242
 3656SOL     OW11866   0.641   5.656   1.430
 3656SOL    HW111867   0.632   5.557   1.441
 3656SOL    HW211868   0.591   5.703   1.503
 3657SOL     OW11869   4.362   6.032   5.530
 3657SOL    HW111870   4.334   6.109   5.473
 3657SOL    HW211871   4.461   6.024   5.529
 3658SOL     OW11872   1.270   5.083   6.358
 3658SOL    HW111873   1.225   4.996   6.340
 3658SOL    HW211874   1.238   5.151   6.292
 3659SOL     OW11875   0.489   1.408   6.556
 3659SOL    HW111876   0.530   1.370   6.473
 3659SOL    HW211877   0.403   1.359   6.575
 3660SOL     OW11878   5.724   6.601   5.733
 3660SOL    HW111879   5.704   6.503   5.731
 3660SOL    HW211880   5.820   6.615   5.754
 3661SOL     OW11881   0.038   0.711   4.441
 3661SOL    HW111882   0.104   0.644   4.407
 3661SOL    HW211883   6.985   0.714   4.379
 3662SOL     OW11884   4.072   1.130   5.476
 3662SOL    HW111885   4.160   1.165   5.508
 3662SOL    HW211886   4.026   1.082   5.550
 3663SOL     OW11887   2.405   2.349   6.560
 3663SOL    HW111888   2.418   2.439   6.602
 3663SOL    HW211889   2.451   2.279   6.615
 3664SOL     OW11890   4.492   1.628   2.409
 3664SOL    HW111891   4.432   1.635   2.488
 3664SOL    HW211892   4.532   1.717   2.389
 3665SOL     OW11893   0.739   6.229   5.445
 3665SOL    HW111894   0.804   6.162   5.409
 3665SOL    HW211895   0.713   6.292   5.372
 3666SOL     OW11896   1.332   2.384   3.369
 3666SOL    HW111897   1.332   2.395   3.469
 3666SOL    HW211898   1.379   2.462   3.327
 3667SOL     OW11899   1.141   1.570   3.198
 3667SOL    HW111900   1.205   1.559   3.122
 3667SOL    HW211901   1.110   1.480   3.228
 3668SOL     OW11902   0.927   0.031   2.021
 3668SOL    HW111903   0.976   0.049   1.936
 3668SOL    HW211904   0.910   0.117   2.069
 3669SOL     OW11905   6.106   1.762   4.456
 3669SOL    HW111906   6.015   1.736   4.486
 3669SOL    HW211907   6.137   1.842   4.509
 3670SOL     OW11908   3.423   5.088   1.320
 3670SOL    HW111909   3.368   5.087   1.403
 3670SOL    HW211910   3.396   5.011   1.262
 3671SOL     OW11911   6.472   1.206   3.203
 3671SOL    HW111912   6.475   1.107   3.210
 3671SOL    HW211913   6.430   1.233   3.117
 3672SOL     OW11914   5.850   1.501   2.559
 3672SOL    HW111915   5.864   1.448   2.643
 3672SOL    HW211916   5.789   1.578   2.578
 3673SOL     OW11917   4.583   5.925   0.352
 3673SOL    HW111918   4.602   5.990   0.278
 3673SOL    HW211919   4.624   5.957   0.437
 3674SOL     OW11920   1.327   6.154   5.848
 3674SOL    HW111921   1.282   6.188   5.930
 3674SOL    HW211922   1.277   6.075   5.813
 3675SOL     OW11923   0.400   2.134   3.646
 3675SOL    HW111924   0.399   2.086   3.558
 3675SOL    HW211925   0.380   2.069   3.719
 3676SOL     OW11926   4.816   3.044   3.227
 3676SOL    HW111927   4.754   2.996   3.289
 3676SOL    HW211928   4.787   3.030   3.132
 3677SOL     OW11929   2.153   1.137   4.745
 3677SOL    HW111930   2.112   1.046   4.755
 3677SOL    HW211931   2.247   1.128   4.715
 3678SOL     OW11932   1.342   0.526   3.929
 3678SOL    HW111933   1.319   0.544   3.833
 3678SOL    HW211934   1.442   0.527   3.940
 3679SOL     OW11935   6.196   0.507   2.856
 3679SOL    HW111936   6.174   0.601   2.880
 3679SOL    HW211937   6.219   0.501   2.758
 3680SOL     OW11938   4.658   1.852   3.041
 3680SOL    HW111939   4.692   1.775   3.094
 3680SOL    HW211940   4.559   1.859   3.054
 3681SOL     OW11941   1.122   0.687   5.570
 3681SOL    HW111942   1.062   0.620   5.527
 3681SOL    HW211943   1.129   0.768   5.511
 3682SOL     OW11944   5.566   2.256   1.168
 3682SOL    HW111945   5.518   2.337   1.201
 3682SOL    HW211946   5.513   2.174   1.190
 3683SOL     OW11947   0.211   0.841   4.140
 3683SOL    HW111948   0.122   0.863   4.180
 3683SOL    HW211949   0.283   0.855   4.208
 3684SOL     OW11950   1.811   0.057   6.147
 3684SOL    HW111951   1.860   0.090   6.227
 3684SOL    HW211952   1.872   0.000   6.091
 3685SOL     OW11953   2.701   5.731   5.379
 3685SOL    HW111954   2.630   5.770   5.321
 3685SOL    HW211955   2.778   5.700   5.323
 3686SOL     OW11956   0.180   3.768   3.733
 3686SOL    HW111957   0.269   3.796   3.770
 3686SOL    HW211958   0.181   3.779   3.634
 3687SOL     OW11959   5.085   6.581   3.191
 3687SOL    HW111960   5.042   6.519   3.125
 3687SOL    HW211961   5.118   6.529   3.269
 3688SOL     OW11962   6.000   3.554   0.179
 3688SOL    HW111963   5.976   3.494   0.103
 3688SOL    HW211964   6.008   3.500   0.263
 3689SOL     OW11965   1.977   1.648   5.409
 3689SOL    HW111966   2.013   1.609   5.494
 3689SOL    HW211967   1.932   1.577   5.355
 3690SOL     OW11968   5.344   5.417   0.696
 3690SOL    HW111969   5.318   5.499   0.644
 3690SOL    HW211970   5.439   5.425   0.726
 3691SOL     OW11971   2.613   2.077   5.984
 3691SOL    HW111972   2.700   2.090   6.032
 3691SOL    HW211973   2.596   2.155   5.924
 3692SOL     OW11974   6.687   4.064   6.023
 3692SOL    HW111975   6.742   4.128   6.077
 3692SOL    HW211976   6.680   3.977   6.072
 3693SOL     OW11977   0.778   1.781   2.756
 3693SOL    HW111978   0.706   1.843   2.788
 3693SOL    HW211979   0.818   1.818   2.672
 3694SOL     OW11980   1.037   0.678   1.687
 3694SOL    HW111981   0.945   0.697   1.653
 3694SOL    HW211982   1.089   0.631   1.616
 3695SOL     OW11983   6.842   2.558   2.378
 3695SOL    HW111984   6.941   2.557   2.372
 3695SOL    HW211985   6.807   2.645   2.342
 3696SOL     OW11986   4.925   0.978   4.989
 3696SOL    HW111987   4.972   1.016   5.068
 3696SOL    HW211988   4.984   0.984   4.908
 3697SOL     OW11989   6.493   5.794   3.301
 3697SOL    HW111990   6.499   5.702   3.263
 3697SOL    HW211991   6.496   5.789   3.401
 3698SOL     OW11992   2.028   0.763   3.817
 3698SOL    HW111993   2.058   0.672   3.846
 3698SOL    HW211994   1.930   0.772   3.834
 3699SOL     OW11995   2.329   2.292   3.964
 3699SOL    HW111996   2.391   2.289   3.886
 3699SOL    HW211997   2.362   2.231   4.035
 3700SOL     OW11998   1.572   5.355   5.305
 3700SOL    HW111999   1.619   5.379   5.221
 3700SOL    HW212000   1.600   5.416   5.379
 3701SOL     OW12001   0.954   6.274   1.978
 3701SOL    HW112002   0.856   6.276   1.997
 3701SOL    HW212003   0.971   6.219   1.896
 3702SOL     OW12004   6.049   6.458   4.193
 3702SOL    HW112005   6.006   6.368   4.190
 3702SOL    HW212006   6.067   6.484   4.288
 3703SOL     OW12007   1.187   1.278   6.368
 3703SOL    HW112008   1.211   1.375   6.361
 3703SOL    HW212009   1.187   1.238   6.276
 3704SOL     OW12010   5.525   2.926   1.279
 3704SOL    HW112011   5.594   2.858   1.303
 3704SOL    HW212012   5.508   2.922   1.180
 3705SOL     OW12013   4.986   4.827   3.567
 3705SOL    HW112014   4.986   4.889   3.646
 3705SOL    HW212015   5.078   4.824   3.527
 3706SOL     OW12016   0.625   3.914   0.340
 3706SOL    HW112017   0.537   3.890   0.298
 3706SOL    HW212018   0.642   4.011   0.328
 3707SOL     OW12019   3.560   5.014   3.846
 3707SOL    HW112020   3.640   4.958   3.869
 3707SOL    HW212021   3.477   4.966   3.872
 3708SOL     OW12022   4.251   6.356   1.525
 3708SOL    HW112023   4.286   6.361   1.618
 3708SOL    HW212024   4.163   6.307   1.525
 3709SOL     OW12025   1.465   0.342   1.197
 3709SOL    HW112026   1.530   0.416   1.184
 3709SOL    HW212027   1.507   0.269   1.250
 3710SOL     OW12028   0.757   4.745   5.304
 3710SOL    HW112029   0.708   4.797   5.375
 3710SOL    HW212030   0.793   4.661   5.344
 3711SOL     OW12031   1.749   6.256   4.868
 3711SOL    HW112032   1.667   6.253   4.925
 3711SOL    HW212033   1.819   6.196   4.908
 3712SOL     OW12034   2.290   5.668   6.943
 3712SOL    HW112035   2.375   5.648   6.895
 3712SOL    HW212036   2.290   5.763   6.973
 3713SOL     OW12037   6.838   6.952   4.646
 3713SOL    HW112038   6.935   6.969   4.663
 3713SOL    HW212039   6.807   6.876   4.704
 3714SOL     OW12040   0.780   4.837   6.652
 3714SOL    HW112041   0.846   4.910   6.636
 3714SOL    HW212042   0.687   4.874   6.647
 3715SOL     OW12043   0.597   5.914   3.471
 3715SOL    HW112044   0.606   5.818   3.500
 3715SOL    HW212045   0.617   5.921   3.373
 3716SOL     OW12046   6.333   5.673   3.988
 3716SOL    HW112047   6.340   5.760   4.037
 3716SOL    HW212048   6.385   5.603   4.037
 3717SOL     OW12049   4.679   1.205   0.301
 3717SOL    HW112050   4.708   1.294   0.267
 3717SOL    HW212051   4.758   1.157   0.341
 3718SOL     OW12052   0.411   0.052   6.801
 3718SOL    HW112053   0.426   0.032   6.898
 3718SOL    HW212054   0.349   0.130   6.793
 3719SOL     OW12055   4.258   3.390   6.238
 3719SOL    HW112056   4.266   3.307   6.182
 3719SOL    HW212057   4.315   3.380   6.320
 3720SOL     OW12058   5.793   3.491   1.117
 3720SOL    HW112059   5.798   3.591   1.122
 3720SOL    HW212060   5.747   3.464   1.033
 3721SOL     OW12061   6.250   5.482   6.664
 3721SOL    HW112062   6.277   5.530   6.748
 3721SOL    HW212063   6.313   5.406   6.647
 3722SOL     OW12064   4.421   0.008   1.538
 3722SOL    HW112065   4.378   6.944   1.525
 3722SOL    HW212066   4.517   7.022   1.560
 3723SOL     OW12067   4.255   5.240   0.211
 3723SOL    HW112068   4.296   5.282   0.293
 3723SOL    HW212069   4.327   5.207   0.151
 3724SOL     OW12070   1.842   5.587   5.243
 3724SOL    HW112071   1.786   5.602   5.162
 3724SOL    HW212072   1.889   5.498   5.234
 3725SOL     OW12073   0.374   6.025   6.968
 3725SOL    HW112074   0.315   5.977   6.903
 3725SOL    HW212075   0.468   6.024   6.936
 3726SOL     OW12076   5.467   4.774   4.739
 3726SOL    HW112077   5.389   4.788   4.801
 3726SOL    HW212078   5.513   4.862   4.724
 3727SOL     OW12079   6.973   3.581   4.612
 3727SOL    HW112080   6.962   3.671   4.568
 3727SOL    HW212081   0.027   3.536   4.575
 3728SOL     OW12082   2.977   3.057   0.100
 3728SOL    HW112083   3.003   2.994   0.173
 3728SOL    HW212084   2.971   3.150   0.136
 3729SOL     OW12085   0.597   0.241   4.796
 3729SOL    HW112086   0.572   0.316   4.736
 3729SOL    HW212087   0.543   0.245   4.880
 3730SOL     OW12088   4.560   6.704   5.804
 3730SOL    HW112089   4.502   6.736   5.879
 3730SOL    HW212090   4.504   6.696   5.721
 3731SOL     OW12091   0.953   1.283   0.152
 3731SOL    HW112092   0.935   1.195   0.195
 3731SOL    HW212093   1.046   1.283   0.114
 3732SOL     OW12094   1.429   2.062   1.019
 3732SOL    HW112095   1.358   2.037   0.953
 3732SOL    HW212096   1.438   2.162   1.021
 3733SOL     OW12097   1.897   2.799   3.403
 3733SOL    HW112098   1.819   2.835   3.454
 3733SOL    HW212099   1.872   2.788   3.307
 3734SOL     OW12100   4.330   0.473   1.161
 3734SOL    HW112101   4.316   0.411   1.084
 3734SOL    HW212102   4.250   0.470   1.221
 3735SOL     OW12103   4.348   6.931   2.219
 3735SOL    HW112104   4.362   6.836   2.189
 3735SOL    HW212105   4.397   6.946   2.305
 3736SOL     OW12106   6.758   0.424   0.706
 3736SOL    HW112107   6.845   0.461   0.737
 3736SOL    HW212108   6.687   0.495   0.710
 3737SOL     OW12109   5.961   2.845   3.537
 3737SOL    HW112110   5.906   2.857   3.619
 3737SOL    HW212111   5.973   2.934   3.492
 3738SOL     OW12112   6.682   5.710   0.977
 3738SOL    HW112113   6.660   5.660   1.060
 3738SOL    HW212114   6.740   5.788   1.000
 3739SOL     OW12115   2.981   4.766   1.763
 3739SOL    HW112116   3.079   4.773   1.781
 3739SOL    HW212117   2.946   4.683   1.805
 3740SOL     OW12118   5.929   5.943   6.949
 3740SOL    HW112119   5.966   6.021   6.898
 3740SOL    HW212120   5.833   5.930   6.925
 3741SOL     OW12121   5.144   2.712   0.094
 3741SOL    HW112122   5.135   2.617   0.063
 3741SOL    HW212123   5.104   2.774   0.026
 3742SOL     OW12124   4.928   5.554   0.120
 3742SOL    HW112125   4.842   5.505   0.116
 3742SOL    HW212126   4.930   5.613   0.201
 3743SOL     OW12127   4.597   4.300   1.590
 3743SOL    HW112128   4.573   4.246   1.670
 3743SOL    HW212129   4.692   4.282   1.565
 3744SOL     OW12130   1.168   6.588   1.835
 3744SOL    HW112131   1.081   6.623   1.803
 3744SOL    HW212132   1.166   6.578   1.935
 3745SOL     OW12133   4.869   3.622   2.410
 3745SOL    HW112134   4.836   3.695   2.351
 3745SOL    HW212135   4.891   3.541   2.356
 3746SOL     OW12136   6.773   0.405   3.635
 3746SOL    HW112137   6.681   0.446   3.634
 3746SOL    HW212138   6.840   0.475   3.660
 3747SOL     OW12139   4.411   6.836   5.993
 3747SOL    HW112140   4.407   6.928   5.954
 3747SOL    HW212141   4.500   6.823   6.037
 3748SOL     OW12142   5.883   0.873   2.325
 3748SOL    HW112143   5.910   0.959   2.281
 3748SOL    HW212144   5.791   0.883   2.363
 3749SOL     OW12145   1.272   5.544   2.740
 3749SOL    HW112146   1.321   5.626   2.709
 3749SOL    HW212147   1.273   5.540   2.840
 3750SOL     OW12148   5.674   4.680   0.771
 3750SOL    HW112149   5.773   4.693   0.768
 3750SOL    HW212150   5.641   4.652   0.680
 3751SOL     OW12151   1.150   3.142   0.805
 3751SOL    HW112152   1.230   3.194   0.774
 3751SOL    HW212153   1.162   3.045   0.784
 3752SOL     OW12154   0.496   0.474   6.900
 3752SOL    HW112155   0.440   0.526   6.965
 3752SOL    HW212156   0.436   0.431   6.833
 3753SOL     OW12157   0.611   6.351   5.241
 3753SOL    HW112158   0.599   6.291   5.162
 3753SOL    HW212159   0.543   6.425   5.238
 3754SOL     OW12160   5.379   6.496   1.588
 3754SOL    HW112161   5.395   6.458   1.680
 3754SOL    HW212162   5.465   6.532   1.552
 3755SOL     OW12163   5.760   5.575   4.327
 3755SOL    HW112164   5.803   5.641   4.265
 3755SOL    HW212165   5.731   5.494   4.275
 3756SOL     OW12166   2.402   0.308   6.193
 3756SOL    HW112167   2.340   0.268   6.126
 3756SOL    HW212168   2.438   0.395   6.158
 3757SOL     OW12169   3.651   5.778   5.847
 3757SOL    HW112170   3.567   5.732   5.818
 3757SOL    HW212171   3.728   5.744   5.794
 3758SOL     OW12172   2.058   1.568   4.496
 3758SOL    HW112173   1.972   1.550   4.448
 3758SOL    HW212174   2.052   1.657   4.543
 3759SOL     OW12175   4.467   5.336   5.241
 3759SOL    HW112176   4.377   5.292   5.232
 3759SOL    HW212177   4.505   5.352   5.150
 3760SOL     OW12178   1.175   3.468   3.109
 3760SOL    HW112179   1.158   3.555   3.156
 3760SOL    HW212180   1.258   3.476   3.053
 3761SOL     OW12181   0.559   7.008   4.769
 3761SOL    HW112182   0.647   6.961   4.765
 3761SOL    HW212183   0.574   0.079   4.789
 3762SOL     OW12184   0.761   4.202   6.791
 3762SOL    HW112185   0.774   4.104   6.777
 3762SOL    HW212186   0.799   4.228   6.880
 3763SOL     OW12187   6.705   4.542   6.783
 3763SOL    HW112188   6.677   4.637   6.769
 3763SOL    HW212189   6.624   4.486   6.803
 3764SOL     OW12190   2.051   0.887   4.708
 3764SOL    HW112191   2.080   0.838   4.790
 3764SOL    HW212192   1.951   0.897   4.709
 3765SOL     OW12193   4.627   0.987   3.017
 3765SOL    HW112194   4.604   1.031   2.930
 3765SOL    HW212195   4.596   0.892   3.016
 3766SOL     OW12196   0.968   0.620   3.793
 3766SOL    HW112197   1.027   0.671   3.855
 3766SOL    HW212198   0.949   0.529   3.832
 3767SOL     OW12199   1.833   4.503   0.436
 3767SOL    HW112200   1.891   4.527   0.514
 3767SOL    HW212201   1.779   4.422   0.459
 3768SOL     OW12202   3.630   6.457   6.149
 3768SOL    HW112203   3.712   6.514   6.148
 3768SOL    HW212204   3.611   6.427   6.242
 3769SOL     OW12205   5.245   5.823   5.438
 3769SOL    HW112206   5.159   5.793   5.398
 3769SOL    HW212207   5.230   5.854   5.531
 3770SOL     OW12208   2.500   0.996   6.521
 3770SOL    HW112209   2.527   1.076   6.468
 3770SOL    HW212210   2.552   0.995   6.607
 3771SOL     OW12211   5.419   1.955   0.513
 3771SOL    HW112212   5.325   1.922   0.522
 3771SOL    HW212213   5.483   1.879   0.525
 3772SOL     OW12214   6.245   1.247   0.621
 3772SOL    HW112215   6.172   1.267   0.555
 3772SOL    HW212216   6.319   1.199   0.574
 3773SOL     OW12217   5.762   3.394   5.869
 3773SOL    HW112218   5.766   3.308   5.919
 3773SOL    HW212219   5.752   3.375   5.771
 3774SOL     OW12220   1.313   6.876   6.886
 3774SOL    HW112221   1.249   6.953   6.882
 3774SOL    HW212222   1.266   6.792   6.858
 3775SOL     OW12223   5.473   3.770   2.292
 3775SOL    HW112224   5.381   3.750   2.257
 3775SOL    HW212225   5.541   3.728   2.233
 3776SOL     OW12226   2.589   1.139   2.067
 3776SOL    HW112227   2.583   1.123   2.165
 3776SOL    HW212228   2.497   1.152   2.029
 3777SOL     OW12229   2.778   4.795   4.638
 3777SOL    HW112230   2.829   4.791   4.724
 3777SOL    HW212231   2.689   4.837   4.654
 3778SOL     OW12232   2.241   5.978   3.089
 3778SOL    HW112233   2.207   6.044   3.155
 3778SOL    HW212234   2.167   5.952   3.027
 3779SOL     OW12235   2.812   5.012   6.867
 3779SOL    HW112236   2.865   4.949   6.809
 3779SOL    HW212237   2.805   4.973   6.959
 3780SOL     OW12238   3.646   4.924   4.607
 3780SOL    HW112239   3.579   4.989   4.643
 3780SOL    HW212240   3.629   4.834   4.646
 3781SOL     OW12241   1.854   6.020   4.250
 3781SOL    HW112242   1.894   5.929   4.250
 3781SOL    HW212243   1.922   6.087   4.280
 3782SOL     OW12244   2.787   2.320   4.346
 3782SOL    HW112245   2.824   2.240   4.300
 3782SOL    HW212246   2.709   2.356   4.293
 3783SOL     OW12247   6.656   0.019   4.876
 3783SOL    HW112248   6.706   0.016   4.789
 3783SOL    HW212249   6.718   7.021   4.951
 3784SOL     OW12250   5.272   1.545   3.553
 3784SOL    HW112251   5.278   1.447   3.536
 3784SOL    HW212252   5.235   1.561   3.645
 3785SOL     OW12253   2.241   1.682   0.565
 3785SOL    HW112254   2.242   1.583   0.581
 3785SOL    HW212255   2.161   1.706   0.510
 3786SOL     OW12256   3.038   5.099   3.709
 3786SOL    HW112257   3.109   5.169   3.713
 3786SOL    HW212258   3.073   5.018   3.661
 3787SOL     OW12259   5.296   6.911   3.683
 3787SOL    HW112260   5.280   6.903   3.781
 3787SOL    HW212261   5.377   6.967   3.667
 3788SOL     OW12262   6.459   3.498   3.580
 3788SOL    HW112263   6.391   3.538   3.642
 3788SOL    HW212264   6.498   3.571   3.523
 3789SOL     OW12265   1.735   4.478   4.282
 3789SOL    HW112266   1.793   4.544   4.233
 3789SOL    HW212267   1.711   4.403   4.220
 3790SOL     OW12268   2.024   3.670   4.876
 3790SOL    HW112269   1.967   3.615   4.815
 3790SOL    HW212270   2.061   3.748   4.826
 3791SOL     OW12271   5.596   6.862   1.038
 3791SOL    HW112272   5.653   6.807   0.978
 3791SOL    HW212273   5.653   6.919   1.097
 3792SOL     OW12274   6.875   0.271   4.915
 3792SOL    HW112275   6.801   0.336   4.896
 3792SOL    HW212276   6.935   0.265   4.835
 3793SOL     OW12277   2.203   1.129   2.860
 3793SOL    HW112278   2.238   1.197   2.797
 3793SOL    HW212279   2.180   1.045   2.810
 3794SOL     OW12280   3.668   5.449   1.814
 3794SOL    HW112281   3.674   5.525   1.748
 3794SOL    HW212282   3.610   5.377   1.776
 3795SOL     OW12283   4.193   6.812   6.367
 3795SOL    HW112284   4.165   6.892   6.419
 3795SOL    HW212285   4.144   6.810   6.280
 3796SOL     OW12286   1.897   1.653   1.415
 3796SOL    HW112287   1.877   1.746   1.445
 3796SOL    HW212288   1.924   1.654   1.319
 3797SOL     OW12289   6.629   5.405   2.286
 3797SOL    HW112290   6.573   5.328   2.317
 3797SOL    HW212291   6.723   5.392   2.316
 3798SOL     OW12292   2.629   4.994   2.826
 3798SOL    HW112293   2.637   5.089   2.796
 3798SOL    HW212294   2.669   4.934   2.757
 3799SOL     OW12295   1.201   2.051   4.319
 3799SOL    HW112296   1.123   1.991   4.335
 3799SOL    HW212297   1.170   2.146   4.313
 3800SOL     OW12298   5.048   2.337   4.829
 3800SOL    HW112299   4.992   2.321   4.747
 3800SOL    HW212300   5.118   2.405   4.809
 3801SOL     OW12301   6.265   5.700   5.558
 3801SOL    HW112302   6.228   5.608   5.568
 3801SOL    HW212303   6.190   5.765   5.545
 3802SOL     OW12304   1.225   2.174   5.141
 3802SOL    HW112305   1.128   2.156   5.160
 3802SOL    HW212306   1.234   2.203   5.045
 3803SOL     OW12307   3.837   0.963   2.219
 3803SOL    HW112308   3.811   0.871   2.250
 3803SOL    HW212309   3.899   1.004   2.286
 3804SOL     OW12310   4.330   2.096   4.703
 3804SOL    HW112311   4.309   2.072   4.609
 3804SOL    HW212312   4.420   2.060   4.728
 3805SOL     OW12313   3.404   4.063   1.648
 3805SOL    HW112314   3.404   4.025   1.741
 3805SOL    HW212315   3.498   4.062   1.612
 3806SOL     OW12316   2.982   2.509   0.125
 3806SOL    HW112317   2.924   2.428   0.120
 3806SOL    HW212318   3.056   2.493   0.191
 3807SOL     OW12319   1.716   1.444   4.710
 3807SOL    HW112320   1.728   1.455   4.611
 3807SOL    HW212321   1.766   1.363   4.741
 3808SOL     OW12322   3.122   0.484   1.986
 3808SOL    HW112323   3.206   0.483   2.040
 3808SOL    HW212324   3.114   0.397   1.937
 3809SOL     OW12325   5.854   1.768   0.065
 3809SOL    HW112326   5.929   1.831   0.046
 3809SOL    HW212327   5.786   1.773   7.018
 3810SOL     OW12328   4.169   3.061   5.348
 3810SOL    HW112329   4.131   2.976   5.313
 3810SOL    HW212330   4.211   3.113   5.274
 3811SOL     OW12331   0.625   4.430   4.008
 3811SOL    HW112332   0.557   4.502   4.018
 3811SOL    HW212333   0.602   4.373   3.929
 3812SOL     OW12334   6.007   1.580   5.900
 3812SOL    HW112335   5.937   1.628   5.847
 3812SOL    HW212336   6.040   1.639   5.974
 3813SOL     OW12337   4.205   4.726   0.776
 3813SOL    HW112338   4.191   4.629   0.796
 3813SOL    HW212339   4.121   4.777   0.795
 3814SOL     OW12340   0.155   5.872   1.202
 3814SOL    HW112341   0.177   5.900   1.109
 3814SOL    HW212342   0.217   5.800   1.231
 3815SOL     OW12343   4.999   2.168   0.531
 3815SOL    HW112344   5.009   2.222   0.615
 3815SOL    HW212345   5.069   2.196   0.466
 3816SOL     OW12346   0.127   6.152   1.903
 3816SOL    HW112347   0.170   6.233   1.864
 3816SOL    HW212348   0.071   6.107   1.833
 3817SOL     OW12349   4.820   2.884   4.316
 3817SOL    HW112350   4.801   2.819   4.242
 3817SOL    HW212351   4.760   2.864   4.394
 3818SOL     OW12352   4.268   6.321   2.070
 3818SOL    HW112353   4.307   6.409   2.042
 3818SOL    HW212354   4.261   6.262   1.990
 3819SOL     OW12355   5.448   5.625   0.116
 3819SOL    HW112356   5.396   5.691   0.061
 3819SOL    HW212357   5.542   5.656   0.124
 3820SOL     OW12358   6.223   5.994   3.825
 3820SOL    HW112359   6.231   6.080   3.876
 3820SOL    HW212360   6.314   5.962   3.800
 3821SOL     OW12361   1.814   3.356   1.937
 3821SOL    HW112362   1.863   3.301   1.868
 3821SOL    HW212363   1.879   3.413   1.987
 3822SOL     OW12364   1.398   5.704   1.970
 3822SOL    HW112365   1.402   5.746   2.060
 3822SOL    HW212366   1.318   5.644   1.965
 3823SOL     OW12367   4.034   2.223   4.960
 3823SOL    HW112368   3.994   2.207   5.050
 3823SOL    HW212369   4.090   2.306   4.963
 3824SOL     OW12370   6.446   2.074   5.787
 3824SOL    HW112371   6.533   2.066   5.836
 3824SOL    HW212372   6.443   2.008   5.713
 3825SOL     OW12373   6.745   6.905   6.912
 3825SOL    HW112374   6.807   6.958   6.854
 3825SOL    HW212375   6.749   6.809   6.884
 3826SOL     OW12376   0.258   3.487   0.549
 3826SOL    HW112377   0.222   3.563   0.496
 3826SOL    HW212378   0.274   3.409   0.489
 3827SOL     OW12379   4.121   4.487   0.858
 3827SOL    HW112380   4.026   4.516   0.844
 3827SOL    HW212381   4.153   4.519   0.947
 3828SOL     OW12382   4.514   2.142   0.644
 3828SOL    HW112383   4.424   2.113   0.677
 3828SOL    HW212384   4.508   2.162   0.546
 3829SOL     OW12385   2.500   4.972   3.764
 3829SOL    HW112386   2.588   4.931   3.739
 3829SOL    HW212387   2.506   5.009   3.857
 3830SOL     OW12388   1.589   0.188   5.441
 3830SOL    HW112389   1.596   0.170   5.342
 3830SOL    HW212390   1.681   0.196   5.479
 3831SOL     OW12391   3.991   1.783   2.075
 3831SOL    HW112392   3.917   1.729   2.115
 3831SOL    HW212393   3.995   1.766   1.976
 3832SOL     OW12394   6.349   1.031   1.595
 3832SOL    HW112395   6.435   0.984   1.611
 3832SOL    HW212396   6.358   1.089   1.513
 3833SOL     OW12397   0.509   5.088   0.494
 3833SOL    HW112398   0.510   4.994   0.530
 3833SOL    HW212399   0.468   5.088   0.403
 3834SOL     OW12400   2.858   2.262   0.334
 3834SOL    HW112401   2.842   2.344   0.389
 3834SOL    HW212402   2.937   2.213   0.369
 3835SOL     OW12403   3.933   5.430   5.483
 3835SOL    HW112404   3.946   5.419   5.384
 3835SOL    HW212405   3.840   5.463   5.500
 3836SOL     OW12406   2.051   3.519   5.986
 3836SOL    HW112407   2.085   3.452   5.920
 3836SOL    HW212408   2.054   3.478   6.078
 3837SOL     OW12409   4.532   3.423   0.439
 3837SOL    HW112410   4.434   3.425   0.461
 3837SOL    HW212411   4.582   3.478   0.506
 3838SOL     OW12412   5.390   2.968   4.298
 3838SOL    HW112413   5.366   3.063   4.313
 3838SOL    HW212414   5.391   2.919   4.385
 3839SOL     OW12415   5.420   0.215   5.308
 3839SOL    HW112416   5.505   0.163   5.310
 3839SOL    HW212417   5.385   0.224   5.402
 3840SOL     OW12418   1.456   1.079   5.034
 3840SOL    HW112419   1.380   1.071   4.969
 3840SOL    HW212420   1.540   1.101   4.985
 3841SOL     OW12421   0.671   4.083   5.063
 3841SOL    HW112422   0.747   4.070   5.126
 3841SOL    HW212423   0.686   4.164   5.007
 3842SOL     OW12424   0.750   5.522   7.008
 3842SOL    HW112425   0.799   5.586   6.949
 3842SOL    HW212426   0.652   5.537   6.999
 3843SOL     OW12427   6.923   3.323   0.546
 3843SOL    HW112428   6.962   3.296   0.634
 3843SOL    HW212429   6.931   3.248   0.481
 3844SOL     OW12430   1.281   5.577   5.627
 3844SOL    HW112431   1.350   5.561   5.556
 3844SOL    HW212432   1.288   5.506   5.697
 3845SOL     OW12433   3.602   3.000   2.789
 3845SOL    HW112434   3.504   2.986   2.773
 3845SOL    HW212435   3.646   3.026   2.704
 3846SOL     OW12436   6.798   4.652   3.726
 3846SOL    HW112437   6.751   4.684   3.644
 3846SOL    HW212438   6.831   4.559   3.712
 3847SOL     OW12439   6.794   1.179   6.598
 3847SOL    HW112440   6.821   1.259   6.652
 3847SOL    HW212441   6.833   1.097   6.639
 3848SOL     OW12442   2.175   5.061   2.372
 3848SOL    HW112443   2.153   4.964   2.385
 3848SOL    HW212444   2.138   5.114   2.448
 3849SOL     OW12445   0.958   1.692   5.908
 3849SOL    HW112446   1.052   1.665   5.927
 3849SOL    HW212447   0.943   1.785   5.942
 3850SOL     OW12448   3.216   3.890   1.564
 3850SOL    HW112449   3.280   3.947   1.616
 3850SOL    HW212450   3.182   3.816   1.622
 3851SOL     OW12451   2.183   4.111   3.117
 3851SOL    HW112452   2.209   4.016   3.134
 3851SOL    HW212453   2.208   4.137   3.024
 3852SOL     OW12454   4.475   1.282   5.164
 3852SOL    HW112455   4.446   1.313   5.255
 3852SOL    HW212456   4.573   1.264   5.165
 3853SOL     OW12457   0.500   3.173   2.879
 3853SOL    HW112458   0.572   3.153   2.947
 3853SOL    HW212459   0.484   3.091   2.824
 3854SOL     OW12460   1.130   3.461   3.490
 3854SOL    HW112461   1.118   3.362   3.480
 3854SOL    HW212462   1.045   3.508   3.463
 3855SOL     OW12463   5.907   5.281   5.969
 3855SOL    HW112464   5.841   5.327   5.910
 3855SOL    HW212465   5.901   5.182   5.956
 3856SOL     OW12466   6.977   0.535   6.300
 3856SOL    HW112467   0.036   0.526   6.350
 3856SOL    HW212468   6.978   0.619   6.246
 3857SOL     OW12469   1.030   6.822   5.124
 3857SOL    HW112470   0.947   6.767   5.126
 3857SOL    HW212471   1.063   6.830   5.030
 3858SOL     OW12472   1.176   5.934   6.277
 3858SOL    HW112473   1.247   5.928   6.348
 3858SOL    HW212474   1.144   6.028   6.270
 3859SOL     OW12475   6.973   2.666   3.676
 3859SOL    HW112476   6.958   2.569   3.658
 3859SOL    HW212477   6.901   2.719   3.632
 3860SOL     OW12478   2.027   5.843   5.291
 3860SOL    HW112479   1.946   5.864   5.235
 3860SOL    HW212480   2.008   5.763   5.348
 3861SOL     OW12481   5.410   4.689   1.598
 3861SOL    HW112482   5.407   4.633   1.516
 3861SOL    HW212483   5.408   4.630   1.679
 3862SOL     OW12484   0.348   6.971   6.163
 3862SOL    HW112485   0.390   6.882   6.144
 3862SOL    HW212486   0.354   6.990   6.261
 3863SOL     OW12487   3.280   3.698   0.790
 3863SOL    HW112488   3.335   3.752   0.727
 3863SOL    HW212489   3.319   3.704   0.882
 3864SOL     OW12490   3.702   2.055   6.836
 3864SOL    HW112491   3.662   2.133   6.884
 3864SOL    HW212492   3.685   1.971   6.887
 3865SOL     OW12493   3.831   0.113   2.214
 3865SOL    HW112494   3.817   0.054   2.135
 3865SOL    HW212495   3.754   0.103   2.277
 3866SOL     OW12496   4.034   6.929   1.327
 3866SOL    HW112497   4.058   6.891   1.238
 3866SOL    HW212498   4.005   6.854   1.388
 3867SOL     OW12499   2.109   3.506   3.036
 3867SOL    HW112500   2.116   3.583   2.973
 3867SOL    HW212501   2.126   3.537   3.129
 3868SOL     OW12502   2.486   6.518   1.767
 3868SOL    HW112503   2.451   6.498   1.858
 3868SOL    HW212504   2.537   6.604   1.769
 3869SOL     OW12505   0.187   2.295   3.329
 3869SOL    HW112506   0.119   2.353   3.283
 3869SOL    HW212507   0.156   2.200   3.328
 3870SOL     OW12508   3.061   4.905   0.188
 3870SOL    HW112509   3.134   4.973   0.195
 3870SOL    HW212510   3.097   4.822   0.147
 3871SOL     OW12511   3.272   0.059   2.672
 3871SOL    HW112512   3.276   6.989   2.699
 3871SOL    HW212513   3.196   0.104   2.720
 3872SOL     OW12514   4.011   3.733   1.178
 3872SOL    HW112515   4.107   3.706   1.166
 3872SOL    HW212516   4.007   3.817   1.232
 3873SOL     OW12517   5.584   5.379   1.453
 3873SOL    HW112518   5.550   5.333   1.371
 3873SOL    HW212519   5.506   5.419   1.503
 3874SOL     OW12520   3.896   6.427   0.067
 3874SOL    HW112521   3.988   6.411   0.030
 3874SOL    HW212522   3.844   6.342   0.067
 3875SOL     OW12523   1.392   4.321   1.341
 3875SOL    HW112524   1.362   4.227   1.330
 3875SOL    HW212525   1.481   4.323   1.387
 3876SOL     OW12526   6.009   5.053   4.961
 3876SOL    HW112527   5.931   5.019   5.014
 3876SOL    HW212528   6.011   5.008   4.872
 3877SOL     OW12529   6.322   1.171   2.448
 3877SOL    HW112530   6.381   1.165   2.368
 3877SOL    HW212531   6.234   1.127   2.428
 3878SOL     OW12532   3.877   6.630   6.161
 3878SOL    HW112533   3.944   6.702   6.143
 3878SOL    HW212534   3.923   6.541   6.158
 3879SOL     OW12535   4.080   5.235   1.805
 3879SOL    HW112536   4.010   5.215   1.873
 3879SOL    HW212537   4.052   5.313   1.750
 3880SOL     OW12538   5.563   3.214   2.546
 3880SOL    HW112539   5.486   3.157   2.520
 3880SOL    HW212540   5.539   3.310   2.533
 3881SOL     OW12541   0.820   4.560   0.657
 3881SOL    HW112542   0.826   4.491   0.586
 3881SOL    HW212543   0.911   4.593   0.680
 3882SOL     OW12544   6.356   1.385   5.559
 3882SOL    HW112545   6.394   1.292   5.555
 3882SOL    HW212546   6.270   1.384   5.609
 3883SOL     OW12547   4.172   1.277   3.579
 3883SOL    HW112548   4.117   1.341   3.632
 3883SOL    HW212549   4.265   1.313   3.569
 3884SOL     OW12550   1.411   6.060   4.945
 3884SOL    HW112551   1.361   6.035   5.028
 3884SOL    HW212552   1.474   6.135   4.966
 3885SOL     OW12553   6.856   1.366   3.603
 3885SOL    HW112554   6.860   1.439   3.671
 3885SOL    HW212555   6.855   1.407   3.511
 3886SOL     OW12556   6.852   0.055   5.063
 3886SOL    HW112557   6.904   0.045   5.147
 3886SOL    HW212558   6.879   0.139   5.016
 3887SOL     OW12559   3.965   2.052   5.431
 3887SOL    HW112560   3.944   2.102   5.515
 3887SOL    HW212561   3.915   1.966   5.431
 3888SOL     OW12562   6.263   1.795   0.887
 3888SOL    HW112563   6.214   1.830   0.967
 3888SOL    HW212564   6.348   1.752   0.915
 3889SOL     OW12565   0.804   5.736   6.385
 3889SOL    HW112566   0.778   5.831   6.402
 3889SOL    HW212567   0.901   5.723   6.405
 3890SOL     OW12568   5.583   4.895   2.469
 3890SOL    HW112569   5.526   4.918   2.548
 3890SOL    HW212570   5.574   4.798   2.447
 3891SOL     OW12571   5.408   5.170   4.725
 3891SOL    HW112572   5.348   5.130   4.795
 3891SOL    HW212573   5.376   5.262   4.702
 3892SOL     OW12574   5.914   6.939   2.738
 3892SOL    HW112575   5.824   6.916   2.774
 3892SOL    HW212576   5.951   7.019   2.786
 3893SOL     OW12577   3.187   5.480   4.596
 3893SOL    HW112578   3.254   5.526   4.654
 3893SOL    HW212579   3.142   5.407   4.647
 3894SOL     OW12580   4.265   3.385   0.436
 3894SOL    HW112581   4.216   3.311   0.388
 3894SOL    HW212582   4.255   3.373   0.534
 3895SOL     OW12583   2.330   1.397   6.031
 3895SOL    HW112584   2.313   1.300   6.049
 3895SOL    HW212585   2.318   1.415   5.933
 3896SOL     OW12586   7.016   2.794   5.276
 3896SOL    HW112587   0.062   2.859   5.252
 3896SOL    HW212588   0.015   2.745   5.359
 3897SOL     OW12589   3.360   0.470   2.118
 3897SOL    HW112590   3.321   0.486   2.209
 3897SOL    HW212591   3.418   0.389   2.120
 3898SOL     OW12592   4.103   3.287   3.963
 3898SOL    HW112593   4.175   3.323   4.022
 3898SOL    HW212594   4.052   3.217   4.012
 3899SOL     OW12595   4.361   1.915   5.719
 3899SOL    HW112596   4.414   1.895   5.802
 3899SOL    HW212597   4.424   1.942   5.646
 3900SOL     OW12598   6.079   2.700   3.228
 3900SOL    HW112599   6.099   2.620   3.173
 3900SOL    HW212600   6.056   2.672   3.321
 3901SOL     OW12601   1.240   6.790   5.291
 3901SOL    HW112602   1.164   6.792   5.226
 3901SOL    HW212603   1.205   6.805   5.383
 3902SOL     OW12604   4.819   5.217   1.580
 3902SOL    HW112605   4.750   5.241   1.512
 3902SOL    HW212606   4.907   5.257   1.554
 3903SOL     OW12607   4.531   2.549   6.473
 3903SOL    HW112608   4.479   2.490   6.534
 3903SOL    HW212609   4.627   2.552   6.503
 3904SOL     OW12610   0.857   5.938   0.670
 3904SOL    HW112611   0.781   5.907   0.613
 3904SOL    HW212612   0.942   5.895   0.638
 3905SOL     OW12613   0.027   0.638   5.573
 3905SOL    HW112614   0.108   0.695   5.561
 3905SOL    HW212615   0.005   0.591   5.488
 3906SOL     OW12616   2.072   4.908   4.128
 3906SOL    HW112617   2.108   4.868   4.044
 3906SOL    HW212618   2.011   4.984   4.105
 3907SOL     OW12619   6.535   1.319   4.084
 3907SOL    HW112620   6.515   1.389   4.152
 3907SOL    HW212621   6.552   1.362   3.996
 3908SOL     OW12622   1.447   0.512   4.710
 3908SOL    HW112623   1.503   0.430   4.720
 3908SOL    HW212624   1.383   0.518   4.787
 3909SOL     OW12625   5.685   3.110   5.977
 3909SOL    HW112626   5.778   3.087   5.948
 3909SOL    HW212627   5.666   3.068   6.065
 3910SOL     OW12628   3.645   2.424   0.500
 3910SOL    HW112629   3.582   2.347   0.490
 3910SOL    HW212630   3.727   2.394   0.548
 3911SOL     OW12631   6.379   1.102   1.320
 3911SOL    HW112632   6.470   1.062   1.328
 3911SOL    HW212633   6.317   1.034   1.280
 3912SOL     OW12634   4.136   1.897   6.913
 3912SOL    HW112635   4.062   1.869   6.974
 3912SOL    HW212636   4.130   1.845   6.828
 3913SOL     OW12637   4.677   5.421   0.476
 3913SOL    HW112638   4.676   5.519   0.454
 3913SOL    HW212639   4.772   5.390   0.481
 3914SOL     OW12640   5.766   1.044   0.652
 3914SOL    HW112641   5.747   1.110   0.580
 3914SOL    HW212642   5.690   1.043   0.717
 3915SOL     OW12643   4.494   5.226   0.069
 3915SOL    HW112644   4.535   5.179   7.017
 3915SOL    HW212645   4.556   5.297   0.101
 3916SOL     OW12646   1.793   0.832   2.162
 3916SOL    HW112647   1.797   0.866   2.256
 3916SOL    HW212648   1.698   0.822   2.134
 3917SOL     OW12649   3.053   5.037   0.800
 3917SOL    HW112650   2.972   5.002   0.849
 3917SOL    HW212651   3.070   5.131   0.827
 3918SOL     OW12652   5.448   0.642   0.698
 3918SOL    HW112653   5.392   0.561   0.713
 3918SOL    HW212654   5.402   0.723   0.736
 3919SOL     OW12655   3.871   0.088   1.844
 3919SOL    HW112656   3.834   0.172   1.884
 3919SOL    HW212657   3.931   0.111   1.767
 3920SOL     OW12658   3.034   0.983   5.981
 3920SOL    HW112659   3.121   0.941   5.956
 3920SOL    HW212660   3.017   1.062   5.923
 3921SOL     OW12661   0.901   2.874   6.491
 3921SOL    HW112662   0.932   2.968   6.497
 3921SOL    HW212663   0.939   2.831   6.409
 3922SOL     OW12664   5.020   4.768   2.787
 3922SOL    HW112665   5.085   4.771   2.711
 3922SOL    HW212666   4.961   4.687   2.777
 3923SOL     OW12667   5.476   0.946   1.204
 3923SOL    HW112668   5.544   0.902   1.146
 3923SOL    HW212669   5.414   0.877   1.241
 3924SOL     OW12670   6.300   4.662   4.267
 3924SOL    HW112671   6.384   4.712   4.288
 3924SOL    HW212672   6.320   4.565   4.259
 3925SOL     OW12673   4.575   3.973   1.043
 3925SOL    HW112674   4.660   3.969   0.991
 3925SOL    HW212675   4.595   3.973   1.141
 3926SOL     OW12676   0.153   0.125   5.556
 3926SOL    HW112677   0.160   0.092   5.650
 3926SOL    HW212678   0.184   0.053   5.493
 3927SOL     OW12679   5.865   3.129   5.049
 3927SOL    HW112680   5.871   3.165   5.142
 3927SOL    HW212681   5.912   3.191   4.986
 3928SOL     OW12682   1.938   6.101   2.713
 3928SOL    HW112683   1.958   6.170   2.643
 3928SOL    HW212684   1.918   6.146   2.800
 3929SOL     OW12685   0.384   2.108   5.241
 3929SOL    HW112686   0.386   2.076   5.146
 3929SOL    HW212687   0.291   2.101   5.277
 3930SOL     OW12688   0.992   4.247   3.704
 3930SOL    HW112689   0.923   4.175   3.710
 3930SOL    HW212690   1.018   4.276   3.796
 3931SOL     OW12691   1.579   2.756   1.489
 3931SOL    HW112692   1.672   2.788   1.507
 3931SOL    HW212693   1.582   2.660   1.461
 3932SOL     OW12694   1.946   5.640   4.067
 3932SOL    HW112695   1.966   5.542   4.069
 3932SOL    HW212696   1.943   5.672   3.972
 3933SOL     OW12697   2.152   4.784   0.792
 3933SOL    HW112698   2.101   4.865   0.763
 3933SOL    HW212699   2.163   4.785   0.891
 3934SOL     OW12700   0.425   1.424   1.155
 3934SOL    HW112701   0.459   1.339   1.116
 3934SOL    HW212702   0.491   1.461   1.220
 3935SOL     OW12703   6.038   3.514   6.743
 3935SOL    HW112704   5.991   3.602   6.754
 3935SOL    HW212705   5.971   3.442   6.726
 3936SOL     OW12706   0.375   5.265   5.247
 3936SOL    HW112707   0.460   5.218   5.221
 3936SOL    HW212708   0.369   5.271   5.346
 3937SOL     OW12709   0.008   0.450   1.915
 3937SOL    HW112710   0.008   0.366   1.860
 3937SOL    HW212711   7.016   0.427   2.011
 3938SOL     OW12712   0.834   4.529   2.825
 3938SOL    HW112713   0.767   4.457   2.840
 3938SOL    HW212714   0.807   4.612   2.873
 3939SOL     OW12715   1.243   0.921   2.208
 3939SOL    HW112716   1.194   0.919   2.295
 3939SOL    HW212717   1.328   0.972   2.218
 3940SOL     OW12718   3.066   5.408   1.422
 3940SOL    HW112719   3.006   5.488   1.418
 3940SOL    HW212720   3.162   5.439   1.418
 3941SOL     OW12721   5.654   6.902   3.685
 3941SOL    HW112722   5.748   6.934   3.699
 3941SOL    HW212723   5.599   6.976   3.649
 3942SOL     OW12724   6.902   5.928   5.881
 3942SOL    HW112725   6.863   5.853   5.828
 3942SOL    HW212726   6.933   5.895   5.969
 3943SOL     OW12727   1.157   2.768   0.042
 3943SOL    HW112728   1.217   2.713   0.100
 3943SOL    HW212729   1.192   2.769   6.974
 3944SOL     OW12730   6.058   1.941   6.966
 3944SOL    HW112731   6.069   1.903   6.874
 3944SOL    HW212732   6.109   2.027   6.972
 3945SOL     OW12733   6.356   0.684   3.576
 3945SOL    HW112734   6.260   0.713   3.580
 3945SOL    HW212735   6.415   0.764   3.580
 3946SOL     OW12736   1.185   2.866   0.804
 3946SOL    HW112737   1.241   2.797   0.851
 3946SOL    HW212738   1.152   2.828   0.718
 3947SOL     OW12739   5.767   4.891   1.339
 3947SOL    HW112740   5.820   4.889   1.424
 3947SOL    HW212741   5.685   4.946   1.353
 3948SOL     OW12742   1.226   2.716   6.110
 3948SOL    HW112743   1.190   2.623   6.113
 3948SOL    HW212744   1.268   2.732   6.020
 3949SOL     OW12745   6.109   6.388   2.662
 3949SOL    HW112746   6.119   6.486   2.645
 3949SOL    HW212747   6.063   6.345   2.584
 3950SOL     OW12748   2.976   4.683   1.301
 3950SOL    HW112749   2.915   4.761   1.303
 3950SOL    HW212750   2.924   4.599   1.315
 3951SOL     OW12751   0.867   2.574   5.737
 3951SOL    HW112752   0.794   2.550   5.800
 3951SOL    HW212753   0.882   2.673   5.740
 3952SOL     OW12754   6.379   3.747   5.353
 3952SOL    HW112755   6.327   3.775   5.272
 3952SOL    HW212756   6.456   3.809   5.366
 3953SOL     OW12757   3.495   4.018   6.332
 3953SOL    HW112758   3.561   3.958   6.376
 3953SOL    HW212759   3.491   3.998   6.234
 3954SOL     OW12760   0.947   3.015   5.333
 3954SOL    HW112761   0.905   2.989   5.246
 3954SOL    HW212762   0.932   2.944   5.401
 3955SOL     OW12763   5.729   4.844   6.852
 3955SOL    HW112764   5.775   4.846   6.940
 3955SOL    HW212765   5.630   4.847   6.865
 3956SOL     OW12766   1.056   2.759   5.520
 3956SOL    HW112767   1.075   2.661   5.515
 3956SOL    HW212768   1.132   2.805   5.566
 3957SOL     OW12769   1.271   0.473   3.263
 3957SOL    HW112770   1.281   0.507   3.170
 3957SOL    HW212771   1.330   0.526   3.324
 3958SOL     OW12772   5.394   6.518   4.832
 3958SOL    HW112773   5.455   6.499   4.909
 3958SOL    HW212774   5.425   6.468   4.751
 3959SOL     OW12775   2.745   4.867   0.652
 3959SOL    HW112776   2.810   4.798   0.619
 3959SOL    HW212777   2.788   4.957   0.650
 3960SOL     OW12778   4.155   3.153   0.291
 3960SOL    HW112779   4.137   3.202   0.206
 3960SOL    HW212780   4.209   3.071   0.270
 3961SOL     OW12781   5.379   0.784   1.794
 3961SOL    HW112782   5.367   0.881   1.773
 3961SOL    HW212783   5.311   0.756   1.862
 3962SOL     OW12784   0.206   0.543   6.376
 3962SOL    HW112785   0.249   0.453   6.368
 3962SOL    HW212786   0.249   0.606   6.310
 3963SOL     OW12787   4.850   5.584   3.134
 3963SOL    HW112788   4.832   5.524   3.211
 3963SOL    HW212789   4.880   5.673   3.167
 3964SOL     OW12790   5.756   6.243   4.838
 3964SOL    HW112791   5.828   6.180   4.813
 3964SOL    HW212792   5.669   6.194   4.843
 3965SOL     OW12793   3.897   3.608   0.420
 3965SOL    HW112794   3.801   3.637   0.416
 3965SOL    HW212795   3.955   3.678   0.378
 3966SOL     OW12796   5.780   3.910   5.005
 3966SOL    HW112797   5.860   3.955   4.965
 3966SOL    HW212798   5.792   3.811   5.000
 3967SOL     OW12799   0.453   5.764   6.131
 3967SOL    HW112800   0.387   5.747   6.058
 3967SOL    HW212801   0.546   5.756   6.094
 3968SOL     OW12802   6.146   0.660   1.826
 3968SOL    HW112803   6.066   0.678   1.882
 3968SOL    HW212804   6.152   0.562   1.806
 3969SOL     OW12805   0.740   5.101   2.382
 3969SOL    HW112806   0.830   5.103   2.424
 3969SOL    HW212807   0.669   5.101   2.453
 3970SOL     OW12808   5.400   4.341   2.903
 3970SOL    HW112809   5.372   4.257   2.857
 3970SOL    HW212810   5.429   4.319   2.997
 3971SOL     OW12811   1.243   6.131   3.119
 3971SOL    HW112812   1.172   6.061   3.113
 3971SOL    HW212813   1.330   6.094   3.086
 3972SOL     OW12814   1.500   6.887   0.057
 3972SOL    HW112815   1.560   6.807   0.048
 3972SOL    HW212816   1.448   6.900   7.000
 3973SOL     OW12817   3.069   3.607   3.983
 3973SOL    HW112818   3.114   3.521   4.009
 3973SOL    HW212819   3.126   3.656   3.917
 3974SOL     OW12820   6.078   1.651   6.820
 3974SOL    HW112821   6.173   1.627   6.802
 3974SOL    HW212822   6.063   1.658   6.918
 3975SOL     OW12823   0.130   0.949   5.548
 3975SOL    HW112824   0.136   0.997   5.460
 3975SOL    HW212825   0.208   0.888   5.557
 3976SOL     OW12826   1.154   3.369   0.363
 3976SOL    HW112827   1.192   3.421   0.286
 3976SOL    HW212828   1.063   3.406   0.385
 3977SOL     OW12829   3.827   5.986   6.299
 3977SOL    HW112830   3.890   6.003   6.374
 3977SOL    HW212831   3.846   5.897   6.258
 3978SOL     OW12832   6.015   3.329   6.122
 3978SOL    HW112833   6.073   3.287   6.191
 3978SOL    HW212834   6.061   3.326   6.033
 3979SOL     OW12835   0.500   6.892   2.660
 3979SOL    HW112836   0.436   6.847   2.723
 3979SOL    HW212837   0.457   6.901   2.570
 3980SOL     OW12838   5.263   3.186   4.406
 3980SOL    HW112839   5.221   3.193   4.496
 3980SOL    HW212840   5.192   3.188   4.336
 3981SOL     OW12841   6.814   2.329   6.861
 3981SOL    HW112842   6.780   2.321   6.955
 3981SOL    HW212843   6.914   2.326   6.861
 3982SOL     OW12844   2.085   1.873   3.823
 3982SOL    HW112845   2.176   1.910   3.807
 3982SOL    HW212846   2.024   1.945   3.856
 3983SOL     OW12847   3.499   6.247   4.100
 3983SOL    HW112848   3.557   6.319   4.137
 3983SOL    HW212849   3.409   6.251   4.143
 3984SOL     OW12850   2.208   6.801   1.348
 3984SOL    HW112851   2.129   6.808   1.409
 3984SOL    HW212852   2.202   6.872   1.277
 3985SOL     OW12853   2.133   2.798   1.493
 3985SOL    HW112854   2.181   2.862   1.554
 3985SOL    HW212855   2.200   2.755   1.433
 3986SOL     OW12856   0.688   2.287   1.559
 3986SOL    HW112857   0.697   2.192   1.589
 3986SOL    HW212858   0.638   2.340   1.627
 3987SOL     OW12859   2.862   4.903   6.597
 3987SOL    HW112860   2.778   4.854   6.618
 3987SOL    HW212861   2.928   4.842   6.554
 3988SOL     OW12862   4.300   2.873   0.751
 3988SOL    HW112863   4.340   2.926   0.676
 3988SOL    HW212864   4.204   2.855   0.732
 3989SOL     OW12865   4.885   6.896   6.555
 3989SOL    HW112866   4.924   6.857   6.638
 3989SOL    HW212867   4.957   6.913   6.488
 3990SOL     OW12868   0.763   3.315   3.044
 3990SOL    HW112869   0.743   3.387   3.111
 3990SOL    HW212870   0.707   3.235   3.063
 3991SOL     OW12871   0.494   2.309   4.324
 3991SOL    HW112872   0.419   2.324   4.388
 3991SOL    HW212873   0.476   2.226   4.270
 3992SOL     OW12874   4.384   3.357   6.462
 3992SOL    HW112875   4.406   3.446   6.502
 3992SOL    HW212876   4.295   3.326   6.496
 3993SOL     OW12877   2.621   2.415   2.735
 3993SOL    HW112878   2.686   2.419   2.811
 3993SOL    HW212879   2.540   2.362   2.764
 3994SOL     OW12880   2.190   3.052   3.654
 3994SOL    HW112881   2.184   3.010   3.563
 3994SOL    HW212882   2.239   2.991   3.716
 3995SOL     OW12883   2.128   3.594   2.650
 3995SOL    HW112884   2.132   3.570   2.747
 3995SOL    HW212885   2.119   3.512   2.595
 3996SOL     OW12886   6.718   0.885   2.955
 3996SOL    HW112887   6.738   0.789   2.937
 3996SOL    HW212888   6.749   0.908   3.047
 3997SOL     OW12889   5.958   4.184   2.714
 3997SOL    HW112890   6.055   4.161   2.727
 3997SOL    HW212891   5.948   4.246   2.637
 3998SOL     OW12892   6.525   1.895   2.883
 3998SOL    HW112893   6.491   1.817   2.935
 3998SOL    HW212894   6.480   1.897   2.793
 3999SOL     OW12895   5.651   2.839   2.670
 3999SOL    HW112896   5.733   2.891   2.645
 3999SOL    HW212897   5.615   2.792   2.590
 4000SOL     OW12898   2.308   5.832   2.495
 4000SOL    HW112899   2.287   5.930   2.499
 4000SOL    HW212900   2.396   5.815   2.539
 4001SOL     OW12901   2.443   4.106   5.332
 4001SOL    HW112902   2.365   4.150   5.376
 4001SOL    HW212903   2.411   4.047   5.258
 4002SOL     OW12904   3.297   3.302   4.461
 4002SOL    HW112905   3.223   3.335   4.402
 4002SOL    HW212906   3.284   3.336   4.554
 4003SOL     OW12907   2.327   1.037   5.268
 4003SOL    HW112908   2.311   1.122   5.318
 4003SOL    HW212909   2.241   0.987   5.259
 4004SOL     OW12910   0.908   4.052   3.300
 4004SOL    HW112911   1.006   4.035   3.301
 4004SOL    HW212912   0.890   4.142   3.258
 4005SOL     OW12913   4.367   3.560   1.656
 4005SOL    HW112914   4.385   3.496   1.581
 4005SOL    HW212915   4.448   3.569   1.713
 4006SOL     OW12916   4.781   5.465   3.391
 4006SOL    HW112917   4.740   5.375   3.409
 4006SOL    HW212918   4.757   5.528   3.464
 4007SOL     OW12919   0.311   1.709   2.987
 4007SOL    HW112920   0.352   1.637   2.931
 4007SOL    HW212921   0.229   1.674   3.032
 4008SOL     OW12922   2.736   6.894   0.351
 4008SOL    HW112923   2.833   6.913   0.367
 4008SOL    HW212924   2.725   6.850   0.262
 4009SOL     OW12925   4.440   1.912   0.908
 4009SOL    HW112926   4.403   1.995   0.868
 4009SOL    HW212927   4.386   1.833   0.878
 4010SOL     OW12928   2.782   4.744   1.572
 4010SOL    HW112929   2.781   4.802   1.491
 4010SOL    HW212930   2.867   4.760   1.623
 4011SOL     OW12931   6.344   6.032   0.429
 4011SOL    HW112932   6.366   6.128   0.415
 4011SOL    HW212933   6.385   5.999   0.513
 4012SOL     OW12934   3.842   6.327   2.042
 4012SOL    HW112935   3.813   6.378   1.961
 4012SOL    HW212936   3.891   6.389   2.104
 4013SOL     OW12937   1.398   0.992   1.414
 4013SOL    HW112938   1.393   1.087   1.383
 4013SOL    HW212939   1.340   0.980   1.495
 4014SOL     OW12940   2.194   5.629   3.736
 4014SOL    HW112941   2.267   5.594   3.795
 4014SOL    HW212942   2.218   5.613   3.640
 4015SOL     OW12943   4.386   4.996   6.301
 4015SOL    HW112944   4.484   4.984   6.317
 4015SOL    HW212945   4.370   5.022   6.206
 4016SOL     OW12946   3.892   5.713   6.188
 4016SOL    HW112947   3.939   5.649   6.248
 4016SOL    HW212948   3.793   5.703   6.199
 4017SOL     OW12949   0.264   5.347   5.507
 4017SOL    HW112950   0.202   5.416   5.469
 4017SOL    HW212951   0.273   5.361   5.605
 4018SOL     OW12952   3.728   6.183   2.254
 4018SOL    HW112953   3.782   6.249   2.202
 4018SOL    HW212954   3.776   6.160   2.339
 4019SOL     OW12955   5.168   3.432   3.095
 4019SOL    HW112956   5.174   3.463   3.190
 4019SOL    HW212957   5.071   3.426   3.069
 4020SOL     OW12958   6.757   4.656   4.356
 4020SOL    HW112959   6.779   4.665   4.454
 4020SOL    HW212960   6.754   4.560   4.331
 4021SOL     OW12961   3.340   3.639   6.007
 4021SOL    HW112962   3.248   3.606   5.986
 4021SOL    HW212963   3.397   3.633   5.925
 4022SOL     OW12964   3.343   7.026   0.450
 4022SOL    HW112965   3.404   6.984   0.383
 4022SOL    HW212966   3.375   7.003   0.542
 4023SOL     OW12967   0.424   2.017   5.851
 4023SOL    HW112968   0.339   2.059   5.819
 4023SOL    HW212969   0.495   2.031   5.781
 4024SOL     OW12970   1.247   5.213   3.963
 4024SOL    HW112971   1.157   5.256   3.958
 4024SOL    HW212972   1.237   5.114   3.958
 4025SOL     OW12973   1.414   6.115   4.191
 4025SOL    HW112974   1.348   6.118   4.265
 4025SOL    HW212975   1.462   6.202   4.185
 4026SOL     OW12976   6.666   6.162   4.314
 4026SOL    HW112977   6.572   6.163   4.348
 4026SOL    HW212978   6.672   6.219   4.232
 4027SOL     OW12979   2.739   2.766   6.644
 4027SOL    HW112980   2.726   2.677   6.689
 4027SOL    HW212981   2.722   2.756   6.546
 4028SOL     OW12982   4.850   1.689   3.435
 4028SOL    HW112983   4.812   1.643   3.355
 4028SOL    HW212984   4.795   1.770   3.457
 4029SOL     OW12985   3.000   4.005   6.750
 4029SOL    HW112986   3.051   3.925   6.718
 4029SOL    HW212987   2.993   4.072   6.676
 4030SOL     OW12988   6.907   1.106   1.995
 4030SOL    HW112989   6.904   1.067   1.903
 4030SOL    HW212990   6.988   1.073   2.043
 4031SOL     OW12991   5.720   0.225   2.106
 4031SOL    HW112992   5.792   0.288   2.078
 4031SOL    HW212993   5.667   0.197   2.027
 4032SOL     OW12994   6.478   6.641   1.424
 4032SOL    HW112995   6.399   6.634   1.484
 4032SOL    HW212996   6.452   6.684   1.338
 4033SOL     OW12997   3.103   2.132   2.706
 4033SOL    HW112998   3.152   2.132   2.793
 4033SOL    HW212999   3.006   2.116   2.724
 4034SOL     OW13000   6.587   2.850   5.076
 4034SOL    HW113001   6.606   2.924   5.140
 4034SOL    HW213002   6.655   2.777   5.088
 4035SOL     OW13003   6.894   2.729   1.197
 4035SOL    HW113004   6.878   2.642   1.244
 4035SOL    HW213005   6.978   2.771   1.232
 4036SOL     OW13006   3.593   4.958   2.869
 4036SOL    HW113007   3.603   5.029   2.799
 4036SOL    HW213008   3.683   4.921   2.892
 4037SOL     OW13009   2.989   0.607   5.972
 4037SOL    HW113010   3.068   0.596   5.913
 4037SOL    HW213011   2.912   0.642   5.919
 4038SOL     OW13012   4.099   3.302   6.866
 4038SOL    HW113013   4.128   3.289   6.961
 4038SOL    HW213014   4.059   3.217   6.831
 4039SOL     OW13015   5.271   5.569   1.860
 4039SOL    HW113016   5.296   5.503   1.789
 4039SOL    HW213017   5.172   5.569   1.873
 4040SOL     OW13018   3.169   5.199   5.152
 4040SOL    HW113019   3.238   5.204   5.224
 4040SOL    HW213020   3.209   5.232   5.066
 4041SOL     OW13021   2.147   6.200   1.395
 4041SOL    HW113022   2.204   6.281   1.379
 4041SOL    HW213023   2.196   6.136   1.455
 4042SOL     OW13024   6.069   6.890   2.999
 4042SOL    HW113025   6.156   6.857   2.960
 4042SOL    HW213026   6.075   6.989   3.014
 4043SOL     OW13027   6.039   2.443   6.974
 4043SOL    HW113028   5.954   2.399   7.002
 4043SOL    HW213029   6.057   2.521   0.007
 4044SOL     OW13030   4.337   4.754   2.966
 4044SOL    HW113031   4.263   4.697   2.930
 4044SOL    HW213032   4.357   4.827   2.900
 4045SOL     OW13033   4.825   6.742   6.327
 4045SOL    HW113034   4.853   6.797   6.405
 4045SOL    HW213035   4.906   6.718   6.273
 4046SOL     OW13036   0.592   1.304   3.087
 4046SOL    HW113037   0.532   1.375   3.124
 4046SOL    HW213038   0.687   1.332   3.099
 4047SOL     OW13039   1.744   2.858   6.770
 4047SOL    HW113040   1.817   2.796   6.741
 4047SOL    HW213041   1.680   2.809   6.828
 4048SOL     OW13042   4.962   1.461   2.044
 4048SOL    HW113043   4.985   1.530   1.976
 4048SOL    HW213044   4.959   1.371   2.000
 4049SOL     OW13045   4.173   5.837   6.768
 4049SOL    HW113046   4.254   5.830   6.825
 4049SOL    HW213047   4.182   5.775   6.690
 4050SOL     OW13048   0.965   5.588   2.031
 4050SOL    HW113049   0.933   5.632   2.115
 4050SOL    HW213050   0.887   5.554   1.979
 4051SOL     OW13051   5.052   1.331   6.162
 4051SOL    HW113052   5.117   1.381   6.220
 4051SOL    HW213053   4.972   1.387   6.145
 4052SOL     OW13054   6.445   2.299   3.112
 4052SOL    HW113055   6.426   2.273   3.017
 4052SOL    HW213056   6.403   2.232   3.174
 4053SOL     OW13057   1.184   6.185   4.784
 4053SOL    HW113058   1.173   6.184   4.884
 4053SOL    HW213059   1.279   6.164   4.761
 4054SOL     OW13060   4.865   4.327   1.506
 4054SOL    HW113061   4.912   4.411   1.532
 4054SOL    HW213062   4.923   4.274   1.444
 4055SOL     OW13063   1.127   4.057   1.919
 4055SOL    HW113064   1.166   4.135   1.969
 4055SOL    HW213065   1.031   4.046   1.946
 4056SOL     OW13066   5.260   3.528   1.145
 4056SOL    HW113067   5.264   3.511   1.243
 4056SOL    HW213068   5.340   3.581   1.117
 4057SOL     OW13069   6.357   3.275   6.723
 4057SOL    HW113070   6.429   3.309   6.663
 4057SOL    HW213071   6.337   3.344   6.793
 4058SOL     OW13072   2.752   6.347   5.095
 4058SOL    HW113073   2.796   6.397   5.170
 4058SOL    HW213074   2.823   6.312   5.032
 4059SOL     OW13075   0.418   3.023   3.782
 4059SOL    HW113076   0.461   2.982   3.862
 4059SOL    HW213077   0.322   2.995   3.778
 4060SOL     OW13078   6.133   5.790   4.843
 4060SOL    HW113079   6.056   5.728   4.828
 4060SOL    HW213080   6.115   5.848   4.922
 4061SOL     OW13081   2.439   4.708   2.006
 4061SOL    HW113082   2.372   4.781   2.017
 4061SOL    HW213083   2.531   4.748   2.002
 4062SOL     OW13084   3.076   1.214   1.465
 4062SOL    HW113085   3.136   1.144   1.425
 4062SOL    HW213086   2.981   1.193   1.443
 4063SOL     OW13087   5.775   6.720   0.827
 4063SOL    HW113088   5.858   6.666   0.844
 4063SOL    HW213089   5.709   6.665   0.776
 4064SOL     OW13090   2.502   1.785   4.805
 4064SOL    HW113091   2.528   1.765   4.710
 4064SOL    HW213092   2.415   1.740   4.826
 4065SOL     OW13093   0.797   0.111   0.503
 4065SOL    HW113094   0.792   0.193   0.446
 4065SOL    HW213095   0.705   0.086   0.532
 4066SOL     OW13096   6.320   4.162   2.774
 4066SOL    HW113097   6.405   4.200   2.738
 4066SOL    HW213098   6.339   4.077   2.823
 4067SOL     OW13099   5.955   4.321   3.399
 4067SOL    HW113100   5.935   4.415   3.425
 4067SOL    HW213101   6.033   4.287   3.451
 4068SOL     OW13102   2.209   2.717   4.188
 4068SOL    HW113103   2.267   2.692   4.111
 4068SOL    HW213104   2.113   2.721   4.157
 4069SOL     OW13105   3.076   5.821   6.997
 4069SOL    HW113106   3.033   5.805   6.908
 4069SOL    HW213107   3.061   5.742   0.030
 4070SOL     OW13108   1.116   3.041   2.926
 4070SOL    HW113109   1.093   3.117   2.987
 4070SOL    HW213110   1.200   3.063   2.876
 4071SOL     OW13111   1.721   0.325   4.735
 4071SOL    HW113112   1.734   0.418   4.700
 4071SOL    HW213113   1.793   0.304   4.802
 4072SOL     OW13114   1.308   4.731   4.976
 4072SOL    HW113115   1.316   4.639   4.938
 4072SOL    HW213116   1.374   4.792   4.932
 4073SOL     OW13117   2.623   5.545   6.146
 4073SOL    HW113118   2.551   5.600   6.105
 4073SOL    HW213119   2.584   5.462   6.185
 4074SOL     OW13120   0.959   4.517   1.488
 4074SOL    HW113121   0.939   4.419   1.483
 4074SOL    HW213122   1.042   4.536   1.436
 4075SOL     OW13123   5.209   1.453   1.022
 4075SOL    HW113124   5.129   1.500   0.986
 4075SOL    HW213125   5.191   1.424   1.116
 4076SOL     OW13126   3.492   3.625   5.487
 4076SOL    HW113127   3.523   3.691   5.418
 4076SOL    HW213128   3.507   3.662   5.578
 4077SOL     OW13129   4.815   0.695   1.533
 4077SOL    HW113130   4.718   0.700   1.510
 4077SOL    HW213131   4.827   0.640   1.616
 4078SOL     OW13132   2.633   5.359   2.432
 4078SOL    HW113133   2.599   5.411   2.353
 4078SOL    HW213134   2.712   5.406   2.471
 4079SOL     OW13135   1.791   1.837   3.762
 4079SOL    HW113136   1.765   1.808   3.854
 4079SOL    HW213137   1.845   1.921   3.768
 4080SOL     OW13138   5.063   2.271   5.085
 4080SOL    HW113139   5.046   2.274   4.987
 4080SOL    HW213140   5.130   2.341   5.109
 4081SOL     OW13141   1.903   2.872   4.225
 4081SOL    HW113142   1.895   2.862   4.324
 4081SOL    HW213143   1.893   2.969   4.201
 4082SOL     OW13144   1.354   3.421   0.535
 4082SOL    HW113145   1.284   3.396   0.468
 4082SOL    HW213146   1.349   3.359   0.614
 4083SOL     OW13147   5.958   3.103   3.461
 4083SOL    HW113148   5.989   3.153   3.542
 4083SOL    HW213149   5.971   3.159   3.380
 4084SOL     OW13150   5.957   1.554   4.061
 4084SOL    HW113151   5.860   1.576   4.071
 4084SOL    HW213152   5.975   1.464   4.100
 4085SOL     OW13153   4.015   5.982   0.653
 4085SOL    HW113154   3.963   5.898   0.668
 4085SOL    HW213155   3.974   6.057   0.705
 4086SOL     OW13156   2.283   6.040   1.556
 4086SOL    HW113157   2.267   6.025   1.654
 4086SOL    HW213158   2.290   5.952   1.510
 4087SOL     OW13159   2.609   2.403   3.225
 4087SOL    HW113160   2.520   2.366   3.250
 4087SOL    HW213161   2.596   2.481   3.164
 4088SOL     OW13162   6.646   1.530   0.628
 4088SOL    HW113163   6.698   1.567   0.705
 4088SOL    HW213164   6.585   1.458   0.660
 4089SOL     OW13165   6.864   6.321   3.204
 4089SOL    HW113166   6.963   6.331   3.199
 4089SOL    HW213167   6.838   6.288   3.294
 4090SOL     OW13168   2.650   4.015   5.738
 4090SOL    HW113169   2.740   3.971   5.741
 4090SOL    HW213170   2.579   3.945   5.742
 4091SOL     OW13171   6.231   6.637   0.276
 4091SOL    HW113172   6.141   6.677   0.264
 4091SOL    HW213173   6.300   6.697   0.236
 4092SOL     OW13174   6.816   2.931   5.375
 4092SOL    HW113175   6.863   2.860   5.324
 4092SOL    HW213176   6.738   2.965   5.322
 4093SOL     OW13177   4.673   0.187   3.658
 4093SOL    HW113178   4.650   0.110   3.717
 4093SOL    HW213179   4.644   0.273   3.701
 4094SOL     OW13180   2.467   5.365   4.862
 4094SOL    HW113181   2.397   5.305   4.901
 4094SOL    HW213182   2.522   5.404   4.936
 4095SOL     OW13183   0.892   4.208   6.273
 4095SOL    HW113184   0.828   4.133   6.256
 4095SOL    HW213185   0.928   4.202   6.366
 4096SOL     OW13186   4.359   5.561   1.037
 4096SOL    HW113187   4.370   5.653   1.075
 4096SOL    HW213188   4.261   5.542   1.025
 4097SOL     OW13189   3.781   3.768   6.027
 4097SOL    HW113190   3.789   3.680   6.074
 4097SOL    HW213191   3.806   3.757   5.931
 4098SOL     OW13192   0.229   3.140   2.360
 4098SOL    HW113193   0.144   3.186   2.385
 4098SOL    HW213194   0.297   3.155   2.432
 4099SOL     OW13195   3.072   4.996   1.134
 4099SOL    HW113196   3.006   4.967   1.064
 4099SOL    HW213197   3.029   5.066   1.192
 4100SOL     OW13198   5.671   6.008   4.414
 4100SOL    HW113199   5.715   5.952   4.484
 4100SOL    HW213200   5.573   5.985   4.410
 4101SOL     OW13201   5.859   0.622   6.738
 4101SOL    HW113202   5.931   0.680   6.701
 4101SOL    HW213203   5.835   0.652   6.831
 4102SOL     OW13204   0.018   0.740   1.569
 4102SOL    HW113205   6.995   0.679   1.631
 4102SOL    HW213206   0.115   0.739   1.592
 4103SOL     OW13207   0.671   0.354   1.898
 4103SOL    HW113208   0.716   0.320   1.980
 4103SOL    HW213209   0.707   0.306   1.818
 4104SOL     OW13210   1.467   4.521   2.520
 4104SOL    HW113211   1.453   4.425   2.496
 4104SOL    HW213212   1.406   4.546   2.595
 4105SOL     OW13213   4.164   5.276   0.992
 4105SOL    HW113214   4.174   5.251   1.088
 4105SOL    HW213215   4.091   5.343   0.982
 4106SOL     OW13216   0.475   2.946   5.094
 4106SOL    HW113217   0.516   2.855   5.100
 4106SOL    HW213218   0.546   3.014   5.076
 4107SOL     OW13219   1.029   6.323   0.886
 4107SOL    HW113220   0.951   6.295   0.831
 4107SOL    HW213221   1.091   6.246   0.900
 4108SOL     OW13222   0.357   4.703   6.156
 4108SOL    HW113223   0.318   4.790   6.186
 4108SOL    HW213224   0.445   4.688   6.200
 4109SOL     OW13225   4.672   6.377   4.812
 4109SOL    HW113226   4.667   6.395   4.910
 4109SOL    HW213227   4.697   6.461   4.764
 4110SOL     OW13228   4.302   3.493   6.899
 4110SOL    HW113229   4.362   3.450   6.832
 4110SOL    HW213230   4.210   3.455   6.891
 4111SOL     OW13231   3.532   3.020   0.020
 4111SOL    HW113232   3.629   3.030   0.041
 4111SOL    HW213233   3.497   2.938   0.066
 4112SOL     OW13234   5.214   1.713   5.937
 4112SOL    HW113235   5.267   1.726   5.853
 4112SOL    HW213236   5.117   1.725   5.917
 4113SOL     OW13237   3.885   6.056   4.924
 4113SOL    HW113238   3.927   5.989   4.985
 4113SOL    HW213239   3.847   6.132   4.977
 4114SOL     OW13240   3.870   2.181   3.798
 4114SOL    HW113241   3.919   2.188   3.711
 4114SOL    HW213242   3.772   2.190   3.781
 4115SOL     OW13243   4.937   6.104   2.097
 4115SOL    HW113244   4.870   6.118   2.170
 4115SOL    HW213245   5.004   6.178   2.100
 4116SOL     OW13246   4.228   2.468   1.810
 4116SOL    HW113247   4.172   2.386   1.821
 4116SOL    HW213248   4.286   2.481   1.890
 4117SOL     OW13249   0.445   4.851   1.783
 4117SOL    HW113250   0.354   4.880   1.810
 4117SOL    HW213251   0.440   4.764   1.735
 4118SOL     OW13252   1.601   6.123   0.314
 4118SOL    HW113253   1.535   6.084   0.249
 4118SOL    HW213254   1.590   6.222   0.317
 4119SOL     OW13255   4.111   1.537   3.274
 4119SOL    HW113256   4.123   1.633   3.297
 4119SOL    HW213257   4.199   1.498   3.248
 4120SOL     OW13258   4.933   6.719   1.143
 4120SOL    HW113259   5.019   6.673   1.120
 4120SOL    HW213260   4.856   6.659   1.121
 4121SOL     OW13261   6.235   1.428   4.909
 4121SOL    HW113262   6.323   1.412   4.864
 4121SOL    HW213263   6.234   1.380   4.996
 4122SOL     OW13264   1.063   6.583   5.618
 4122SOL    HW113265   1.040   6.679   5.600
 4122SOL    HW213266   1.051   6.530   5.533
 4123SOL     OW13267   4.686   4.555   5.475
 4123SOL    HW113268   4.682   4.457   5.495
 4123SOL    HW213269   4.772   4.593   5.511
 4124SOL     OW13270   6.039   5.849   5.581
 4124SOL    HW113271   6.048   5.932   5.636
 4124SOL    HW213272   5.957   5.799   5.610
 4125SOL     OW13273   4.790   0.680   1.925
 4125SOL    HW113274   4.796   0.768   1.877
 4125SOL    HW213275   4.802   0.605   1.860
 4126SOL     OW13276   1.193   4.433   4.139
 4126SOL    HW113277   1.262   4.506   4.141
 4126SOL    HW213278   1.157   4.419   4.231
 4127SOL     OW13279   5.347   4.247   4.315
 4127SOL    HW113280   5.402   4.164   4.314
 4127SOL    HW213281   5.250   4.223   4.320
 4128SOL     OW13282   1.934   3.561   2.420
 4128SOL    HW113283   1.936   3.636   2.485
 4128SOL    HW213284   1.977   3.480   2.461
 4129SOL     OW13285   5.904   1.668   6.601
 4129SOL    HW113286   5.807   1.683   6.622
 4129SOL    HW213287   5.953   1.646   6.685
 4130SOL     OW13288   6.888   3.826   5.830
 4130SOL    HW113289   6.900   3.793   5.924
 4130SOL    HW213290   6.914   3.922   5.826
 4131SOL     OW13291   0.843   5.874   3.698
 4131SOL    HW113292   0.881   5.787   3.730
 4131SOL    HW213293   0.882   5.897   3.609
 4132SOL     OW13294   5.837   4.198   3.941
 4132SOL    HW113295   5.739   4.179   3.938
 4132SOL    HW213296   5.856   4.282   3.890
 4133SOL     OW13297   2.916   6.516   1.714
 4133SOL    HW113298   3.012   6.498   1.697
 4133SOL    HW213299   2.860   6.449   1.665
 4134SOL     OW13300   1.574   2.518   0.772
 4134SOL    HW113301   1.634   2.456   0.721
 4134SOL    HW213302   1.624   2.601   0.797
 4135SOL     OW13303   2.009   0.891   2.719
 4135SOL    HW113304   1.964   0.801   2.725
 4135SOL    HW213305   1.947   0.961   2.755
 4136SOL     OW13306   0.533   1.982   3.957
 4136SOL    HW113307   0.478   1.924   3.896
 4136SOL    HW213308   0.549   2.070   3.913
 4137SOL     OW13309   2.356   3.749   1.271
 4137SOL    HW113310   2.357   3.803   1.187
 4137SOL    HW213311   2.429   3.680   1.267
 4138SOL     OW13312   3.903   5.407   3.849
 4138SOL    HW113313   3.889   5.506   3.854
 4138SOL    HW213314   3.822   5.364   3.808
 4139SOL     OW13315   2.339   2.105   6.056
 4139SOL    HW113316   2.438   2.094   6.043
 4139SOL    HW213317   2.294   2.105   5.966
 4140SOL     OW13318   3.447   0.370   5.018
 4140SOL    HW113319   3.510   0.306   5.061
 4140SOL    HW213320   3.364   0.377   5.073
 4141SOL     OW13321   5.034   5.618   0.884
 4141SOL    HW113322   4.936   5.632   0.898
 4141SOL    HW213323   5.053   5.606   0.787
 4142SOL     OW13324   6.478   5.674   0.766
 4142SOL    HW113325   6.531   5.629   0.693
 4142SOL    HW213326   6.537   5.690   0.845
 4143SOL     OW13327   6.915   3.564   0.965
 4143SOL    HW113328   6.957   3.541   0.877
 4143SOL    HW213329   6.823   3.526   0.970
 4144SOL     OW13330   5.784   2.275   0.885
 4144SOL    HW113331   5.830   2.213   0.821
 4144SOL    HW213332   5.687   2.253   0.889
 4145SOL     OW13333   0.074   5.954   1.706
 4145SOL    HW113334   0.108   5.956   1.612
 4145SOL    HW213335   0.133   5.893   1.760
 4146SOL     OW13336   5.904   0.520   5.110
 4146SOL    HW113337   5.975   0.450   5.109
 4146SOL    HW213338   5.900   0.565   5.021
 4147SOL     OW13339   3.586   1.878   5.290
 4147SOL    HW113340   3.663   1.814   5.281
 4147SOL    HW213341   3.500   1.827   5.286
 4148SOL     OW13342   0.695   0.220   3.713
 4148SOL    HW113343   0.727   0.309   3.683
 4148SOL    HW213344   0.765   0.151   3.693
 4149SOL     OW13345   0.732   3.739   0.534
 4149SOL    HW113346   0.823   3.750   0.496
 4149SOL    HW213347   0.665   3.786   0.477
 4150SOL     OW13348   5.901   0.704   6.036
 4150SOL    HW113349   5.941   0.791   6.007
 4150SOL    HW213350   5.836   0.720   6.110
 4151SOL     OW13351   5.226   6.484   6.584
 4151SOL    HW113352   5.210   6.505   6.681
 4151SOL    HW213353   5.252   6.388   6.575
 4152SOL     OW13354   2.906   5.219   1.655
 4152SOL    HW113355   2.962   5.282   1.601
 4152SOL    HW213356   2.860   5.269   1.728
 4153SOL     OW13357   5.200   5.501   6.142
 4153SOL    HW113358   5.272   5.444   6.181
 4153SOL    HW213359   5.176   5.467   6.051
 4154SOL     OW13360   6.603   3.880   5.346
 4154SOL    HW113361   6.629   3.937   5.425
 4154SOL    HW213362   6.618   3.932   5.262
 4155SOL     OW13363   0.275   3.261   3.574
 4155SOL    HW113364   0.184   3.244   3.539
 4155SOL    HW213365   0.334   3.182   3.555
 4156SOL     OW13366   5.818   0.082   5.117
 4156SOL    HW113367   5.742   0.070   5.182
 4156SOL    HW213368   5.842   7.019   5.078
 4157SOL     OW13369   3.786   0.114   3.655
 4157SOL    HW113370   3.784   0.174   3.575
 4157SOL    HW213371   3.706   0.055   3.654
 4158SOL     OW13372   1.442   5.301   4.092
 4158SOL    HW113373   1.361   5.252   4.058
 4158SOL    HW213374   1.413   5.369   4.160
 4159SOL     OW13375   1.618   3.201   4.024
 4159SOL    HW113376   1.661   3.291   4.029
 4159SOL    HW213377   1.520   3.210   4.041
 4160SOL     OW13378   6.377   0.452   0.667
 4160SOL    HW113379   6.402   0.355   0.670
 4160SOL    HW213380   6.457   0.507   0.642
 4161SOL     OW13381   1.752   6.699   6.453
 4161SOL    HW113382   1.798   6.736   6.534
 4161SOL    HW213383   1.709   6.774   6.402
 4162SOL     OW13384   6.348   0.248   4.885
 4162SOL    HW113385   6.278   0.187   4.922
 4162SOL    HW213386   6.316   0.343   4.892
 4163SOL     OW13387   6.098   1.591   3.419
 4163SOL    HW113388   6.038   1.602   3.340
 4163SOL    HW213389   6.048   1.617   3.502
 4164SOL     OW13390   1.689   0.130   6.500
 4164SOL    HW113391   1.668   0.097   6.592
 4164SOL    HW213392   1.606   0.125   6.444
 4165SOL     OW13393   4.842   6.906   0.984
 4165SOL    HW113394   4.897   6.989   0.992
 4165SOL    HW213395   4.883   6.833   1.038
 4166SOL     OW13396   5.042   2.529   1.155
 4166SOL    HW113397   5.110   2.560   1.222
 4166SOL    HW213398   5.086   2.521   1.065
 4167SOL     OW13399   2.702   3.285   1.153
 4167SOL    HW113400   2.774   3.218   1.138
 4167SOL    HW213401   2.616   3.238   1.173
 4168SOL     OW13402   0.257   4.995   0.997
 4168SOL    HW113403   0.191   5.002   0.922
 4168SOL    HW213404   0.338   5.050   0.976
 4169SOL     OW13405   5.395   3.941   4.327
 4169SOL    HW113406   5.340   3.860   4.304
 4169SOL    HW213407   5.408   3.945   4.426
 4170SOL     OW13408   3.639   2.855   4.852
 4170SOL    HW113409   3.677   2.765   4.830
 4170SOL    HW213410   3.542   2.857   4.825
 4171SOL     OW13411   5.340   4.518   1.401
 4171SOL    HW113412   5.368   4.423   1.415
 4171SOL    HW213413   5.375   4.550   1.313
 4172SOL     OW13414   0.189   2.440   6.556
 4172SOL    HW113415   0.146   2.502   6.622
 4172SOL    HW213416   0.185   2.481   6.465
 4173SOL     OW13417   5.774   3.460   5.217
 4173SOL    HW113418   5.744   3.475   5.312
 4173SOL    HW213419   5.697   3.427   5.163
 4174SOL     OW13420   5.082   0.652   3.945
 4174SOL    HW113421   5.177   0.636   3.919
 4174SOL    HW213422   5.075   0.663   4.045
 4175SOL     OW13423   2.953   6.705   4.657
 4175SOL    HW113424   3.032   6.644   4.649
 4175SOL    HW213425   2.976   6.794   4.618
 4176SOL     OW13426   3.621   0.324   2.354
 4176SOL    HW113427   3.571   0.297   2.437
 4176SOL    HW213428   3.562   0.310   2.274
 4177SOL     OW13429   0.571   5.063   5.231
 4177SOL    HW113430   0.548   5.064   5.134
 4177SOL    HW213431   0.534   4.981   5.275
 4178SOL     OW13432   3.806   1.119   5.035
 4178SOL    HW113433   3.837   1.195   5.092
 4178SOL    HW213434   3.870   1.042   5.045
 4179SOL     OW13435   5.470   3.434   4.057
 4179SOL    HW113436   5.460   3.394   4.148
 4179SOL    HW213437   5.384   3.476   4.029
 4180SOL     OW13438   5.450   4.640   2.048
 4180SOL    HW113439   5.454   4.542   2.030
 4180SOL    HW213440   5.390   4.657   2.126
 4181SOL     OW13441   1.737   1.756   6.176
 4181SOL    HW113442   1.736   1.801   6.087
 4181SOL    HW213443   1.816   1.787   6.229
 4182SOL     OW13444   7.012   0.559   2.794
 4182SOL    HW113445   6.930   0.505   2.777
 4182SOL    HW213446   6.993   0.656   2.775
 4183SOL     OW13447   2.918   1.355   1.844
 4183SOL    HW113448   2.841   1.412   1.870
 4183SOL    HW213449   2.890   1.291   1.772
 4184SOL     OW13450   3.974   4.610   1.394
 4184SOL    HW113451   3.969   4.650   1.485
 4184SOL    HW213452   3.983   4.511   1.401
 4185SOL     OW13453   0.543   5.511   3.270
 4185SOL    HW113454   0.517   5.556   3.184
 4185SOL    HW213455   0.472   5.446   3.296
 4186SOL     OW13456   1.990   4.422   0.075
 4186SOL    HW113457   1.951   4.495   0.133
 4186SOL    HW213458   2.082   4.448   0.047
 4187SOL     OW13459   3.718   3.475   5.535
 4187SOL    HW113460   3.629   3.485   5.492
 4187SOL    HW213461   3.728   3.383   5.572
 4188SOL     OW13462   4.656   0.759   4.450
 4188SOL    HW113463   4.700   0.672   4.473
 4188SOL    HW213464   4.603   0.747   4.365
 4189SOL     OW13465   2.901   1.853   4.350
 4189SOL    HW113466   2.884   1.944   4.386
 4189SOL    HW213467   2.828   1.828   4.285
 4190SOL     OW13468   2.831   0.049   6.159
 4190SOL    HW113469   2.783   0.071   6.244
 4190SOL    HW213470   2.831   0.129   6.098
 4191SOL     OW13471   5.497   3.370   2.985
 4191SOL    HW113472   5.453   3.352   3.072
 4191SOL    HW213473   5.596   3.372   2.997
 4192SOL     OW13474   6.681   1.878   3.209
 4192SOL    HW113475   6.585   1.852   3.222
 4192SOL    HW213476   6.708   1.857   3.115
 4193SOL     OW13477   2.101   6.360   1.863
 4193SOL    HW113478   2.104   6.321   1.955
 4193SOL    HW213479   2.185   6.411   1.846
 4194SOL     OW13480   6.820   2.049   4.527
 4194SOL    HW113481   6.797   2.145   4.513
 4194SOL    HW213482   6.797   2.023   4.621
 4195SOL     OW13483   3.992   0.624   1.179
 4195SOL    HW113484   3.993   0.566   1.260
 4195SOL    HW213485   3.907   0.675   1.175
 4196SOL     OW13486   5.772   2.853   4.075
 4196SOL    HW113487   5.853   2.794   4.074
 4196SOL    HW213488   5.691   2.798   4.056
 4197SOL     OW13489   5.338   4.438   3.960
 4197SOL    HW113490   5.360   4.522   4.010
 4197SOL    HW213491   5.239   4.428   3.952
 4198SOL     OW13492   6.320   3.859   6.784
 4198SOL    HW113493   6.320   3.897   6.877
 4198SOL    HW213494   6.404   3.807   6.769
 4199SOL     OW13495   2.803   3.078   5.453
 4199SOL    HW113496   2.711   3.053   5.423
 4199SOL    HW213497   2.871   3.033   5.395
 4200SOL     OW13498   2.724   6.656   6.341
 4200SOL    HW113499   2.738   6.594   6.263
 4200SOL    HW213500   2.682   6.740   6.308
 4201SOL     OW13501   6.410   6.571   3.350
 4201SOL    HW113502   6.331   6.621   3.314
 4201SOL    HW213503   6.482   6.635   3.376
 4202SOL     OW13504   5.071   4.417   5.947
 4202SOL    HW113505   5.071   4.352   5.872
 4202SOL    HW213506   5.070   4.368   6.034
 4203SOL     OW13507   4.500   5.973   3.071
 4203SOL    HW113508   4.508   5.913   3.150
 4203SOL    HW213509   4.450   5.926   2.998
 4204SOL     OW13510   3.169   2.939   2.075
 4204SOL    HW113511   3.208   2.847   2.083
 4204SOL    HW213512   3.204   2.996   2.149
 4205SOL     OW13513   3.832   4.903   3.865
 4205SOL    HW113514   3.855   4.872   3.772
 4205SOL    HW213515   3.912   4.948   3.905
 4206SOL     OW13516   4.989   0.788   6.318
 4206SOL    HW113517   4.903   0.756   6.358
 4206SOL    HW213518   5.066   0.745   6.366
 4207SOL     OW13519   1.944   1.202   1.665
 4207SOL    HW113520   2.041   1.176   1.664
 4207SOL    HW213521   1.920   1.244   1.578
 4208SOL     OW13522   1.495   2.371   1.259
 4208SOL    HW113523   1.433   2.449   1.259
 4208SOL    HW213524   1.553   2.374   1.177
 4209SOL     OW13525   1.796   0.798   5.288
 4209SOL    HW113526   1.736   0.775   5.365
 4209SOL    HW213527   1.857   0.872   5.315
 4210SOL     OW13528   3.536   3.367   1.718
 4210SOL    HW113529   3.540   3.275   1.756
 4210SOL    HW213530   3.442   3.399   1.717
 4211SOL     OW13531   4.851   5.068   5.060
 4211SOL    HW113532   4.869   5.166   5.064
 4211SOL    HW213533   4.765   5.048   5.106
 4212SOL     OW13534   6.912   1.551   2.198
 4212SOL    HW113535   6.874   1.598   2.277
 4212SOL    HW213536   6.889   1.453   2.203
 4213SOL     OW13537   2.437   0.816   2.759
 4213SOL    HW113538   2.347   0.778   2.777
 4213SOL    HW213539   2.467   0.789   2.667
 4214SOL     OW13540   0.611   3.534   6.490
 4214SOL    HW113541   0.690   3.587   6.520
 4214SOL    HW213542   0.559   3.504   6.570
 4215SOL     OW13543   0.439   5.834   4.265
 4215SOL    HW113544   0.528   5.878   4.275
 4215SOL    HW213545   0.382   5.888   4.202
 4216SOL     OW13546   1.521   2.245   4.251
 4216SOL    HW113547   1.450   2.241   4.181
 4216SOL    HW213548   1.585   2.319   4.229
 4217SOL     OW13549   7.025   6.799   2.816
 4217SOL    HW113550   0.032   6.733   2.883
 4217SOL    HW213551   7.023   6.758   2.725
 4218SOL     OW13552   4.999   0.211   1.923
 4218SOL    HW113553   5.011   0.225   1.825
 4218SOL    HW213554   5.063   0.141   1.955
 4219SOL     OW13555   3.431   4.717   5.250
 4219SOL    HW113556   3.438   4.619   5.269
 4219SOL    HW213557   3.390   4.731   5.159
 4220SOL     OW13558   6.637   3.769   3.189
 4220SOL    HW113559   6.637   3.697   3.119
 4220SOL    HW213560   6.589   3.849   3.153
 4221SOL     OW13561   5.424   6.033   6.719
 4221SOL    HW113562   5.354   6.093   6.681
 4221SOL    HW213563   5.481   5.998   6.644
 4222SOL     OW13564   6.131   1.636   2.177
 4222SOL    HW113565   6.143   1.645   2.276
 4222SOL    HW213566   6.035   1.624   2.155
 4223SOL     OW13567   3.689   3.272   2.814
 4223SOL    HW113568   3.669   3.305   2.722
 4223SOL    HW213569   3.642   3.185   2.829
 4224SOL     OW13570   4.917   3.162   4.389
 4224SOL    HW113571   4.923   3.063   4.387
 4224SOL    HW213572   4.821   3.190   4.387
 4225SOL     OW13573   5.342   0.980   4.966
 4225SOL    HW113574   5.324   0.946   5.058
 4225SOL    HW213575   5.356   0.903   4.904
 4226SOL     OW13576   1.637   1.346   3.772
 4226SOL    HW113577   1.717   1.389   3.815
 4226SOL    HW213578   1.648   1.349   3.673
 4227SOL     OW13579   3.915   4.560   6.575
 4227SOL    HW113580   4.006   4.585   6.607
 4227SOL    HW213581   3.904   4.587   6.480
 4228SOL     OW13582   5.765   6.589   3.967
 4228SOL    HW113583   5.856   6.552   3.985
 4228SOL    HW213584   5.714   6.525   3.908
 4229SOL     OW13585   3.695   4.677   5.946
 4229SOL    HW113586   3.720   4.583   5.925
 4229SOL    HW213587   3.597   4.682   5.966
 4230SOL     OW13588   2.611   0.121   5.218
 4230SOL    HW113589   2.616   0.030   5.259
 4230SOL    HW213590   2.678   0.181   5.261
 4231SOL     OW13591   4.889   6.289   5.244
 4231SOL    HW113592   4.900   6.245   5.334
 4231SOL    HW213593   4.973   6.339   5.221
 4232SOL     OW13594   1.174   5.679   1.766
 4232SOL    HW113595   1.099   5.624   1.801
 4232SOL    HW213596   1.221   5.628   1.693
 4233SOL     OW13597   6.614   0.908   6.779
 4233SOL    HW113598   6.711   0.918   6.755
 4233SOL    HW213599   6.590   0.811   6.778
 4234SOL     OW13600   2.169   5.017   6.069
 4234SOL    HW113601   2.179   4.947   6.140
 4234SOL    HW213602   2.148   4.973   5.981
 4235SOL     OW13603   6.457   4.433   5.550
 4235SOL    HW113604   6.439   4.361   5.617
 4235SOL    HW213605   6.457   4.522   5.597
 4236SOL     OW13606   0.206   2.429   3.917
 4236SOL    HW113607   0.291   2.481   3.904
 4236SOL    HW213608   0.135   2.488   3.955
 4237SOL     OW13609   5.946   4.147   4.595
 4237SOL    HW113610   5.850   4.119   4.590
 4237SOL    HW213611   5.994   4.118   4.512
 4238SOL     OW13612   4.419   4.935   3.560
 4238SOL    HW113613   4.398   5.029   3.585
 4238SOL    HW213614   4.506   4.932   3.512
 4239SOL     OW13615   4.418   0.212   4.632
 4239SOL    HW113616   4.413   0.297   4.684
 4239SOL    HW213617   4.472   0.145   4.683
 4240SOL     OW13618   2.860   5.623   6.865
 4240SOL    HW113619   2.909   5.639   6.950
 4240SOL    HW213620   2.823   5.530   6.864
 4241SOL     OW13621   5.075   0.144   1.336
 4241SOL    HW113622   4.977   0.136   1.358
 4241SOL    HW213623   5.098   0.239   1.318
 4242SOL     OW13624   2.174   6.456   2.925
 4242SOL    HW113625   2.193   6.360   2.945
 4242SOL    HW213626   2.260   6.507   2.925
 4243SOL     OW13627   0.452   3.625   2.381
 4243SOL    HW113628   0.447   3.725   2.383
 4243SOL    HW213629   0.540   3.596   2.417
 4244SOL     OW13630   5.061   6.301   0.925
 4244SOL    HW113631   5.143   6.326   0.874
 4244SOL    HW213632   5.042   6.204   0.911
 4245SOL     OW13633   6.375   3.123   0.166
 4245SOL    HW113634   6.372   3.181   0.248
 4245SOL    HW213635   6.285   3.082   0.152
 4246SOL     OW13636   5.337   2.460   3.127
 4246SOL    HW113637   5.315   2.373   3.171
 4246SOL    HW213638   5.256   2.518   3.128
 4247SOL     OW13639   2.273   5.443   4.668
 4247SOL    HW113640   2.252   5.349   4.643
 4247SOL    HW213641   2.351   5.444   4.731
 4248SOL     OW13642   1.650   0.623   3.022
 4248SOL    HW113643   1.628   0.665   3.110
 4248SOL    HW213644   1.699   0.537   3.037
 4249SOL     OW13645   0.153   1.664   4.362
 4249SOL    HW113646   0.156   1.655   4.263
 4249SOL    HW213647   0.084   1.602   4.399
 4250SOL     OW13648   0.693   5.682   4.121
 4250SOL    HW113649   0.704   5.614   4.193
 4250SOL    HW213650   0.719   5.642   4.033
 4251SOL     OW13651   5.876   2.934   6.812
 4251SOL    HW113652   5.812   2.970   6.879
 4251SOL    HW213653   5.945   3.002   6.790
 4252SOL     OW13654   5.953   6.169   5.353
 4252SOL    HW113655   5.885   6.191   5.283
 4252SOL    HW213656   5.910   6.165   5.443
 4253SOL     OW13657   3.732   5.906   2.225
 4253SOL    HW113658   3.821   5.901   2.179
 4253SOL    HW213659   3.702   6.002   2.228
 4254SOL     OW13660   2.278   3.240   0.347
 4254SOL    HW113661   2.243   3.196   0.430
 4254SOL    HW213662   2.347   3.308   0.372
 4255SOL     OW13663   0.853   4.496   3.345
 4255SOL    HW113664   0.942   4.511   3.302
 4255SOL    HW213665   0.864   4.491   3.444
 4256SOL     OW13666   0.413   4.569   1.742
 4256SOL    HW113667   0.494   4.539   1.792
 4256SOL    HW213668   0.331   4.552   1.797
 4257SOL     OW13669   6.123   1.832   5.107
 4257SOL    HW113670   6.031   1.857   5.136
 4257SOL    HW213671   6.119   1.794   5.014
 4258SOL     OW13672   3.016   5.704   0.763
 4258SOL    HW113673   2.994   5.721   0.667
 4258SOL    HW213674   3.115   5.698   0.774
 4259SOL     OW13675   1.670   6.817   1.363
 4259SOL    HW113676   1.735   6.741   1.367
 4259SOL    HW213677   1.650   6.839   1.268
 4260SOL     OW13678   4.658   6.771   4.427
 4260SOL    HW113679   4.700   6.817   4.505
 4260SOL    HW213680   4.672   6.826   4.344
 4261SOL     OW13681   2.318   0.104   4.777
 4261SOL    HW113682   2.235   0.065   4.739
 4261SOL    HW213683   2.360   0.165   4.711
 4262SOL     OW13684   1.129   4.867   6.330
 4262SOL    HW113685   1.150   4.863   6.232
 4262SOL    HW213686   1.113   4.775   6.365
 4263SOL     OW13687   2.756   2.192   3.200
 4263SOL    HW113688   2.681   2.130   3.222
 4263SOL    HW213689   2.726   2.286   3.209
 4264SOL     OW13690   5.403   1.245   4.459
 4264SOL    HW113691   5.488   1.296   4.446
 4264SOL    HW213692   5.347   1.290   4.528
 4265SOL     OW13693   2.952   0.104   1.286
 4265SOL    HW113694   2.948   0.185   1.228
 4265SOL    HW213695   2.931   0.023   1.231
 4266SOL     OW13696   1.295   6.883   0.411
 4266SOL    HW113697   1.318   6.969   0.455
 4266SOL    HW213698   1.228   6.900   0.339
 4267SOL     OW13699   2.034   4.015   3.734
 4267SOL    HW113700   2.068   4.095   3.784
 4267SOL    HW213701   1.943   4.035   3.698
 4268SOL     OW13702   1.215   4.850   6.692
 4268SOL    HW113703   1.139   4.823   6.633
 4268SOL    HW213704   1.179   4.885   6.778
 4269SOL     OW13705   3.140   1.867   4.214
 4269SOL    HW113706   3.106   1.960   4.196
 4269SOL    HW213707   3.082   1.823   4.282
 4270SOL     OW13708   3.439   3.066   1.331
 4270SOL    HW113709   3.431   3.041   1.234
 4270SOL    HW213710   3.403   3.158   1.345
 4271SOL     OW13711   6.382   0.484   0.965
 4271SOL    HW113712   6.442   0.545   1.016
 4271SOL    HW213713   6.395   0.499   0.867
 4272SOL     OW13714   0.006   2.990   5.540
 4272SOL    HW113715   0.045   3.082   5.533
 4272SOL    HW213716   6.966   2.977   5.466
 4273SOL     OW13717   4.503   6.243   4.649
 4273SOL    HW113718   4.481   6.300   4.570
 4273SOL    HW213719   4.556   6.297   4.715
 4274SOL     OW13720   6.857   6.334   1.734
 4274SOL    HW113721   6.796   6.329   1.813
 4274SOL    HW213722   6.840   6.257   1.673
 4275SOL     OW13723   0.909   2.466   3.712
 4275SOL    HW113724   0.984   2.400   3.721
 4275SOL    HW213725   0.882   2.498   3.803
 4276SOL     OW13726   2.856   5.226   4.147
 4276SOL    HW113727   2.874   5.291   4.221
 4276SOL    HW213728   2.812   5.274   4.071
 4277SOL     OW13729   6.529   5.229   3.854
 4277SOL    HW113730   6.551   5.152   3.914
 4277SOL    HW213731   6.470   5.294   3.902
 4278SOL     OW13732   0.054   6.417   2.883
 4278SOL    HW113733   0.087   6.443   2.792
 4278SOL    HW213734   6.992   6.372   2.876
 4279SOL     OW13735   1.272   1.629   2.485
 4279SOL    HW113736   1.229   1.700   2.540
 4279SOL    HW213737   1.258   1.650   2.388
 4280SOL     OW13738   6.483   6.698   6.416
 4280SOL    HW113739   6.493   6.717   6.319
 4280SOL    HW213740   6.458   6.782   6.465
 4281SOL     OW13741   4.481   5.577   3.698
 4281SOL    HW113742   4.437   5.518   3.630
 4281SOL    HW213743   4.413   5.613   3.760
 4282SOL     OW13744   2.862   4.128   1.219
 4282SOL    HW113745   2.930   4.102   1.287
 4282SOL    HW213746   2.902   4.123   1.127
 4283SOL     OW13747   4.891   0.859   3.266
 4283SOL    HW113748   4.814   0.896   3.318
 4283SOL    HW213749   4.921   0.927   3.199
 4284SOL     OW13750   4.808   5.233   0.203
 4284SOL    HW113751   4.867   5.186   0.136
 4284SOL    HW213752   4.762   5.310   0.158
 4285SOL     OW13753   3.326   0.633   6.257
 4285SOL    HW113754   3.296   0.618   6.163
 4285SOL    HW213755   3.402   0.699   6.257
 4286SOL     OW13756   6.672   1.424   0.044
 4286SOL    HW113757   6.606   1.424   6.994
 4286SOL    HW213758   6.659   1.506   0.100
 4287SOL     OW13759   4.257   0.869   0.197
 4287SOL    HW113760   4.244   0.967   0.183
 4287SOL    HW213761   4.309   0.853   0.280
 4288SOL     OW13762   6.234   6.092   1.679
 4288SOL    HW113763   6.282   6.078   1.766
 4288SOL    HW213764   6.180   6.010   1.658
 4289SOL     OW13765   0.646   2.846   5.408
 4289SOL    HW113766   0.717   2.783   5.375
 4289SOL    HW213767   0.635   2.835   5.506
 4290SOL     OW13768   0.248   0.631   2.766
 4290SOL    HW113769   0.251   0.727   2.793
 4290SOL    HW213770   0.161   0.591   2.795
 4291SOL     OW13771   4.968   3.072   5.713
 4291SOL    HW113772   4.871   3.096   5.720
 4291SOL    HW213773   4.977   2.988   5.660
 4292SOL     OW13774   5.143   1.908   0.542
 4292SOL    HW113775   5.091   1.982   0.498
 4292SOL    HW213776   5.089   1.871   0.618
 4293SOL     OW13777   5.096   4.000   6.785
 4293SOL    HW113778   5.127   3.960   6.699
 4293SOL    HW213779   5.141   3.953   6.862
 4294SOL     OW13780   3.081   2.298   6.288
 4294SOL    HW113781   3.159   2.334   6.338
 4294SOL    HW213782   3.093   2.313   6.190
 4295SOL     OW13783   4.364   6.533   1.964
 4295SOL    HW113784   4.342   6.559   1.870
 4295SOL    HW213785   4.442   6.588   1.996
 4296SOL     OW13786   2.956   6.565   1.102
 4296SOL    HW113787   3.001   6.557   1.013
 4296SOL    HW213788   2.921   6.658   1.113
 4297SOL     OW13789   6.477   5.271   0.954
 4297SOL    HW113790   6.435   5.281   1.044
 4297SOL    HW213791   6.577   5.268   0.964
 4298SOL     OW13792   3.338   6.128   1.415
 4298SOL    HW113793   3.249   6.139   1.460
 4298SOL    HW213794   3.343   6.188   1.336
 4299SOL     OW13795   0.471   2.605   0.103
 4299SOL    HW113796   0.460   2.700   0.134
 4299SOL    HW213797   0.474   2.602   0.003
 4300SOL     OW13798   3.635   0.506   1.032
 4300SOL    HW113799   3.596   0.467   0.949
 4300SOL    HW213800   3.712   0.450   1.062
 4301SOL     OW13801   3.116   6.163   1.920
 4301SOL    HW113802   3.204   6.126   1.949
 4301SOL    HW213803   3.056   6.173   1.999
 4302SOL     OW13804   1.375   6.628   6.504
 4302SOL    HW113805   1.300   6.684   6.469
 4302SOL    HW213806   1.403   6.563   6.434
 4303SOL     OW13807   6.535   4.728   4.020
 4303SOL    HW113808   6.518   4.772   4.108
 4303SOL    HW213809   6.633   4.734   3.998
 4304SOL     OW13810   3.307   3.595   1.495
 4304SOL    HW113811   3.379   3.663   1.480
 4304SOL    HW213812   3.218   3.638   1.485
 4305SOL     OW13813   0.075   0.238   5.852
 4305SOL    HW113814   0.048   0.232   5.948
 4305SOL    HW213815   0.063   0.333   5.821
 4306SOL     OW13816   4.802   3.965   4.733
 4306SOL    HW113817   4.812   3.865   4.739
 4306SOL    HW213818   4.807   4.004   4.825
 4307SOL     OW13819   6.364   2.683   5.413
 4307SOL    HW113820   6.378   2.709   5.509
 4307SOL    HW213821   6.376   2.763   5.355
 4308SOL     OW13822   5.353   4.926   1.730
 4308SOL    HW113823   5.368   4.842   1.679
 4308SOL    HW213824   5.421   4.934   1.803
 4309SOL     OW13825   0.871   3.408   0.407
 4309SOL    HW113826   0.855   3.423   0.505
 4309SOL    HW213827   0.866   3.310   0.387
 4310SOL     OW13828   0.278   1.791   2.406
 4310SOL    HW113829   0.241   1.871   2.453
 4310SOL    HW213830   0.271   1.804   2.307
 4311SOL     OW13831   0.726   6.177   2.095
 4311SOL    HW113832   0.813   6.130   2.107
 4311SOL    HW213833   0.672   6.169   2.179
 4312SOL     OW13834   0.901   5.025   2.065
 4312SOL    HW113835   0.896   5.068   1.975
 4312SOL    HW213836   0.809   5.022   2.105
 4313SOL     OW13837   5.549   1.707   0.502
 4313SOL    HW113838   5.550   1.617   0.546
 4313SOL    HW213839   5.595   1.701   0.413
 4314SOL     OW13840   6.431   2.808   5.679
 4314SOL    HW113841   6.333   2.796   5.693
 4314SOL    HW213842   6.461   2.892   5.724
 4315SOL     OW13843   2.300   1.319   3.773
 4315SOL    HW113844   2.323   1.403   3.725
 4315SOL    HW213845   2.221   1.335   3.832
 4316SOL     OW13846   5.335   0.533   2.277
 4316SOL    HW113847   5.377   0.617   2.243
 4316SOL    HW213848   5.404   0.462   2.285
 4317SOL     OW13849   4.431   0.755   5.626
 4317SOL    HW113850   4.460   0.850   5.617
 4317SOL    HW213851   4.346   0.751   5.678
 4318SOL     OW13852   0.590   0.909   3.783
 4318SOL    HW113853   0.665   0.887   3.845
 4318SOL    HW213854   0.506   0.926   3.835
 4319SOL     OW13855   1.526   2.755   1.867
 4319SOL    HW113856   1.509   2.701   1.949
 4319SOL    HW213857   1.491   2.847   1.879
 4320SOL     OW13858   3.626   6.123   0.867
 4320SOL    HW113859   3.567   6.204   0.872
 4320SOL    HW213860   3.593   6.063   0.795
 4321SOL     OW13861   6.856   5.721   2.476
 4321SOL    HW113862   6.765   5.716   2.517
 4321SOL    HW213863   6.915   5.778   2.533
 4322SOL     OW13864   0.628   2.119   5.334
 4322SOL    HW113865   0.670   2.204   5.302
 4322SOL    HW213866   0.532   2.117   5.306
 4323SOL     OW13867   3.958   5.535   0.069
 4323SOL    HW113868   3.942   5.570   0.161
 4323SOL    HW213869   3.948   5.609   0.003
 4324SOL     OW13870   0.026   3.910   5.488
 4324SOL    HW113871   6.979   3.843   5.502
 4324SOL    HW213872   0.070   3.930   5.576
 4325SOL     OW13873   3.094   0.674   3.306
 4325SOL    HW113874   2.999   0.643   3.302
 4325SOL    HW213875   3.104   0.759   3.254
 4326SOL     OW13876   5.378   2.526   2.515
 4326SOL    HW113877   5.303   2.536   2.579
 4326SOL    HW213878   5.399   2.429   2.501
 4327SOL     OW13879   3.322   5.232   4.074
 4327SOL    HW113880   3.369   5.312   4.037
 4327SOL    HW213881   3.370   5.200   4.156
 4328SOL     OW13882   6.172   5.459   5.553
 4328SOL    HW113883   6.122   5.440   5.469
 4328SOL    HW213884   6.160   5.383   5.617
 4329SOL     OW13885   5.708   3.081   5.442
 4329SOL    HW113886   5.621   3.123   5.469
 4329SOL    HW213887   5.697   2.982   5.437
 4330SOL     OW13888   2.444   5.797   5.291
 4330SOL    HW113889   2.391   5.758   5.216
 4330SOL    HW213890   2.424   5.747   5.376
 4331SOL     OW13891   6.507   0.514   1.562
 4331SOL    HW113892   6.453   0.569   1.498
 4331SOL    HW213893   6.593   0.560   1.582
 4332SOL     OW13894   6.476   3.927   2.862
 4332SOL    HW113895   6.418   3.854   2.825
 4332SOL    HW213896   6.525   3.972   2.787
 4333SOL     OW13897   4.242   2.032   4.965
 4333SOL    HW113898   4.170   2.073   5.021
 4333SOL    HW213899   4.248   2.079   4.877
 4334SOL     OW13900   1.239   2.594   3.071
 4334SOL    HW113901   1.192   2.656   3.008
 4334SOL    HW213902   1.173   2.559   3.139
 4335SOL     OW13903   3.403   3.030   1.025
 4335SOL    HW113904   3.428   3.103   0.961
 4335SOL    HW213905   3.480   2.969   1.039
 4336SOL     OW13906   1.842   5.543   6.266
 4336SOL    HW113907   1.824   5.568   6.171
 4336SOL    HW213908   1.892   5.618   6.311
 4337SOL     OW13909   0.884   5.956   2.182
 4337SOL    HW113910   0.799   5.916   2.150
 4337SOL    HW213911   0.959   5.930   2.120
 4338SOL     OW13912   6.192   0.424   5.422
 4338SOL    HW113913   6.171   0.496   5.355
 4338SOL    HW213914   6.114   0.413   5.484
 4339SOL     OW13915   4.001   2.716   6.350
 4339SOL    HW113916   4.018   2.811   6.377
 4339SOL    HW213917   4.003   2.709   6.251
 4340SOL     OW13918   6.433   4.021   0.851
 4340SOL    HW113919   6.469   4.081   0.922
 4340SOL    HW213920   6.508   3.964   0.815
 4341SOL     OW13921   1.135   5.925   1.662
 4341SOL    HW113922   1.211   5.971   1.616
 4341SOL    HW213923   1.169   5.843   1.710
 4342SOL     OW13924   5.151   3.923   2.705
 4342SOL    HW113925   5.143   3.850   2.637
 4342SOL    HW213926   5.169   3.883   2.795
 4343SOL     OW13927   4.573   0.701   5.299
 4343SOL    HW113928   4.582   0.611   5.255
 4343SOL    HW213929   4.598   0.693   5.396
 4344SOL     OW13930   0.553   3.025   4.285
 4344SOL    HW113931   0.549   3.112   4.335
 4344SOL    HW213932   0.512   2.953   4.341
 4345SOL     OW13933   2.883   3.465   2.416
 4345SOL    HW113934   2.799   3.426   2.377
 4345SOL    HW213935   2.899   3.555   2.375
 4346SOL     OW13936   2.417   2.648   2.635
 4346SOL    HW113937   2.473   2.570   2.609
 4346SOL    HW213938   2.445   2.728   2.582
 4347SOL     OW13939   5.851   5.311   1.459
 4347SOL    HW113940   5.754   5.336   1.461
 4347SOL    HW213941   5.870   5.246   1.533
 4348SOL     OW13942   6.669   6.052   3.663
 4348SOL    HW113943   6.703   6.112   3.736
 4348SOL    HW213944   6.570   6.058   3.658
 4349SOL     OW13945   0.281   4.142   3.713
 4349SOL    HW113946   0.336   4.062   3.736
 4349SOL    HW213947   0.259   4.141   3.616
 4350SOL     OW13948   5.570   1.442   4.721
 4350SOL    HW113949   5.608   1.534   4.705
 4350SOL    HW213950   5.470   1.446   4.716
 4351SOL     OW13951   1.136   6.894   1.360
 4351SOL    HW113952   1.075   6.814   1.357
 4351SOL    HW213953   1.170   6.912   1.268
 4352SOL     OW13954   4.761   4.253   0.999
 4352SOL    HW113955   4.854   4.220   1.013
 4352SOL    HW213956   4.704   4.229   1.078
 4353SOL     OW13957   3.115   3.496   6.738
 4353SOL    HW113958   3.156   3.438   6.668
 4353SOL    HW213959   3.169   3.580   6.747
 4354SOL     OW13960   6.797   0.189   3.817
 4354SOL    HW113961   6.782   0.252   3.741
 4354SOL    HW213962   6.770   0.233   3.903
 4355SOL     OW13963   1.154   0.322   3.948
 4355SOL    HW113964   1.200   0.267   4.018
 4355SOL    HW213965   1.188   0.416   3.952
 4356SOL     OW13966   5.009   2.711   5.832
 4356SOL    HW113967   4.911   2.715   5.855
 4356SOL    HW213968   5.030   2.782   5.766
 4357SOL     OW13969   6.300   0.986   2.214
 4357SOL    HW113970   6.213   1.035   2.215
 4357SOL    HW213971   6.375   1.052   2.220
 4358SOL     OW13972   0.869   1.037   0.290
 4358SOL    HW113973   0.821   1.100   0.351
 4358SOL    HW213974   0.803   0.986   0.236
 4359SOL     OW13975   2.499   0.828   6.951
 4359SOL    HW113976   2.404   0.798   6.953
 4359SOL    HW213977   2.504   0.926   6.973
 4360SOL     OW13978   1.452   2.608   3.255
 4360SOL    HW113979   1.431   2.699   3.293
 4360SOL    HW213980   1.389   2.588   3.181
 4361SOL     OW13981   1.152   2.129   1.150
 4361SOL    HW113982   1.133   2.113   1.247
 4361SOL    HW213983   1.160   2.227   1.134
 4362SOL     OW13984   0.784   6.458   4.055
 4362SOL    HW113985   0.856   6.394   4.079
 4362SOL    HW213986   0.777   6.528   4.126
 4363SOL     OW13987   4.239   0.875   3.000
 4363SOL    HW113988   4.281   0.937   2.934
 4363SOL    HW213989   4.175   0.813   2.953
 4364SOL     OW13990   2.939   3.778   2.533
 4364SOL    HW113991   2.910   3.771   2.437
 4364SOL    HW213992   3.028   3.823   2.538
 4365SOL     OW13993   2.956   2.125   1.746
 4365SOL    HW113994   2.975   2.223   1.734
 4365SOL    HW213995   2.989   2.096   1.836
 4366SOL     OW13996   5.001   5.688   5.210
 4366SOL    HW113997   4.914   5.654   5.176
 4366SOL    HW213998   5.010   5.785   5.186
 4367SOL     OW13999   3.191   5.317   3.788
 4367SOL    HW114000   3.159   5.398   3.738
 4367SOL    HW214001   3.207   5.341   3.884
 4368SOL     OW14002   5.237   5.736   2.699
 4368SOL    HW114003   5.256   5.825   2.658
 4368SOL    HW214004   5.287   5.665   2.649
 4369SOL     OW14005   5.102   5.321   2.760
 4369SOL    HW114006   5.105   5.345   2.663
 4369SOL    HW214007   5.100   5.221   2.769
 4370SOL     OW14008   3.554   4.464   1.424
 4370SOL    HW114009   3.611   4.447   1.504
 4370SOL    HW214010   3.468   4.506   1.452
 4371SOL     OW14011   2.297   0.589   1.723
 4371SOL    HW114012   2.211   0.546   1.697
 4371SOL    HW214013   2.368   0.519   1.733
 4372SOL     OW14014   1.679   2.221   4.678
 4372SOL    HW114015   1.671   2.148   4.610
 4372SOL    HW214016   1.652   2.185   4.768
 4373SOL     OW14017   4.582   0.944   5.952
 4373SOL    HW114018   4.621   0.987   6.033
 4373SOL    HW214019   4.561   0.848   5.972
 4374SOL     OW14020   2.510   2.102   1.437
 4374SOL    HW114021   2.593   2.156   1.421
 4374SOL    HW214022   2.493   2.095   1.535
 4375SOL     OW14023   3.501   0.362   3.384
 4375SOL    HW114024   3.440   0.403   3.317
 4375SOL    HW214025   3.509   0.264   3.368
 4376SOL     OW14026   6.401   6.348   1.371
 4376SOL    HW114027   6.376   6.324   1.278
 4376SOL    HW214028   6.418   6.446   1.377
 4377SOL     OW14029   5.652   6.598   0.032
 4377SOL    HW114030   5.747   6.566   0.031
 4377SOL    HW214031   5.617   6.601   6.965
 4378SOL     OW14032   1.996   5.810   2.442
 4378SOL    HW114033   1.955   5.852   2.361
 4378SOL    HW214034   2.092   5.837   2.450
 4379SOL     OW14035   1.086   0.745   1.942
 4379SOL    HW114036   1.066   0.753   1.844
 4379SOL    HW214037   1.183   0.764   1.958
 4380SOL     OW14038   2.003   6.054   5.473
 4380SOL    HW114039   2.042   5.998   5.401
 4380SOL    HW214040   2.001   6.150   5.444
 4381SOL     OW14041   4.207   6.137   4.346
 4381SOL    HW114042   4.125   6.113   4.397
 4381SOL    HW214043   4.205   6.092   4.257
 4382SOL     OW14044   5.128   4.126   4.508
 4382SOL    HW114045   5.086   4.153   4.595
 4382SOL    HW214046   5.208   4.069   4.525
 4383SOL     OW14047   1.450   2.016   5.994
 4383SOL    HW114048   1.451   2.067   6.081
 4383SOL    HW214049   1.543   1.993   5.968
 4384SOL     OW14050   3.831   6.692   1.161
 4384SOL    HW114051   3.925   6.703   1.127
 4384SOL    HW214052   3.832   6.690   1.261
 4385SOL     OW14053   0.227   1.934   3.803
 4385SOL    HW114054   0.137   1.893   3.786
 4385SOL    HW214055   0.298   1.869   3.776
 4386SOL     OW14056   0.726   3.927   6.728
 4386SOL    HW114057   0.774   3.879   6.655
 4386SOL    HW214058   0.735   3.877   6.814
 4387SOL     OW14059   6.451   3.250   1.474
 4387SOL    HW114060   6.456   3.243   1.375
 4387SOL    HW214061   6.369   3.203   1.507
 4388SOL     OW14062   3.818   0.369   6.143
 4388SOL    HW114063   3.763   0.443   6.181
 4388SOL    HW214064   3.757   0.294   6.116
 4389SOL     OW14065   5.829   2.875   1.500
 4389SOL    HW114066   5.765   2.811   1.456
 4389SOL    HW214067   5.923   2.841   1.489
 4390SOL     OW14068   4.905   2.283   1.535
 4390SOL    HW114069   4.959   2.225   1.596
 4390SOL    HW214070   4.938   2.377   1.539
 4391SOL     OW14071   1.123   5.835   0.011
 4391SOL    HW114072   1.153   5.923   0.048
 4391SOL    HW214073   1.177   5.813   6.955
 4392SOL     OW14074   5.096   3.033   4.607
 4392SOL    HW114075   5.065   3.002   4.697
 4392SOL    HW214076   5.072   3.130   4.596
 4393SOL     OW14077   5.400   0.249   3.276
 4393SOL    HW114078   5.349   0.336   3.277
 4393SOL    HW214079   5.343   0.177   3.316
 4394SOL     OW14080   6.229   6.163   2.863
 4394SOL    HW114081   6.208   6.235   2.797
 4394SOL    HW214082   6.151   6.100   2.869
 4395SOL     OW14083   4.272   1.845   2.265
 4395SOL    HW114084   4.288   1.826   2.168
 4395SOL    HW214085   4.235   1.763   2.310
 4396SOL     OW14086   1.361   1.429   4.490
 4396SOL    HW114087   1.395   1.508   4.440
 4396SOL    HW214088   1.402   1.427   4.581
 4397SOL     OW14089   0.110   1.335   4.517
 4397SOL    HW114090   0.197   1.384   4.509
 4397SOL    HW214091   0.103   1.267   4.444
 4398SOL     OW14092   0.855   3.832   4.419
 4398SOL    HW114093   0.785   3.896   4.387
 4398SOL    HW214094   0.914   3.877   4.486
 4399SOL     OW14095   2.270   0.645   0.223
 4399SOL    HW114096   2.348   0.708   0.223
 4399SOL    HW214097   2.280   0.579   0.148
 4400SOL     OW14098   2.479   6.793   4.310
 4400SOL    HW114099   2.475   6.860   4.236
 4400SOL    HW214100   2.532   6.714   4.280
 4401SOL     OW14101   5.527   6.094   4.874
 4401SOL    HW114102   5.454   6.054   4.818
 4401SOL    HW214103   5.602   6.028   4.881
 4402SOL     OW14104   0.929   5.714   2.811
 4402SOL    HW114105   0.857   5.679   2.870
 4402SOL    HW214106   0.986   5.779   2.862
 4403SOL     OW14107   6.756   0.069   3.328
 4403SOL    HW114108   6.817   7.017   3.341
 4403SOL    HW214109   6.808   0.153   3.339
 4404SOL     OW14110   1.263   4.457   3.769
 4404SOL    HW114111   1.327   4.397   3.817
 4404SOL    HW214112   1.175   4.410   3.760
 4405SOL     OW14113   3.115   4.556   6.074
 4405SOL    HW114114   3.063   4.471   6.080
 4405SOL    HW214115   3.058   4.632   6.108
 4406SOL     OW14116   4.999   4.933   1.659
 4406SOL    HW114117   4.967   4.860   1.598
 4406SOL    HW214118   4.954   4.923   1.748
 4407SOL     OW14119   6.875   6.185   0.483
 4407SOL    HW114120   6.900   6.197   0.387
 4407SOL    HW214121   6.931   6.245   0.540
 4408SOL     OW14122   4.403   0.377   0.521
 4408SOL    HW114123   4.375   0.470   0.495
 4408SOL    HW214124   4.499   0.378   0.548
 4409SOL     OW14125   4.277   1.856   1.765
 4409SOL    HW114126   4.218   1.799   1.708
 4409SOL    HW214127   4.268   1.829   1.860
 4410SOL     OW14128   2.501   4.868   0.548
 4410SOL    HW114129   2.592   4.876   0.588
 4410SOL    HW214130   2.447   4.803   0.600
 4411SOL     OW14131   3.599   3.529   2.900
 4411SOL    HW114132   3.615   3.432   2.881
 4411SOL    HW214133   3.636   3.553   2.990
 4412SOL     OW14134   3.848   1.398   5.752
 4412SOL    HW114135   3.875   1.460   5.679
 4412SOL    HW214136   3.918   1.327   5.764
 4413SOL     OW14137   3.866   5.672   3.888
 4413SOL    HW114138   3.828   5.658   3.980
 4413SOL    HW214139   3.954   5.719   3.896
 4414SOL     OW14140   4.235   4.682   2.283
 4414SOL    HW114141   4.324   4.719   2.257
 4414SOL    HW214142   4.176   4.676   2.203
 4415SOL     OW14143   5.678   3.995   5.936
 4415SOL    HW114144   5.696   4.025   6.029
 4415SOL    HW214145   5.699   4.069   5.872
 4416SOL     OW14146   2.918   1.539   4.557
 4416SOL    HW114147   2.914   1.458   4.616
 4416SOL    HW214148   2.910   1.621   4.613
 4417SOL     OW14149   0.163   4.874   1.856
 4417SOL    HW114150   0.116   4.942   1.912
 4417SOL    HW214151   0.119   4.869   1.766
 4418SOL     OW14152   4.367   6.650   3.897
 4418SOL    HW114153   4.312   6.674   3.817
 4418SOL    HW214154   4.347   6.555   3.924
 4419SOL     OW14155   6.145   5.373   0.616
 4419SOL    HW114156   6.174   5.407   0.705
 4419SOL    HW214157   6.045   5.375   0.611
 4420SOL     OW14158   4.449   0.887   0.982
 4420SOL    HW114159   4.488   0.870   0.892
 4420SOL    HW214160   4.523   0.909   1.047
 4421SOL     OW14161   2.151   1.647   2.575
 4421SOL    HW114162   2.106   1.573   2.525
 4421SOL    HW214163   2.208   1.608   2.648
 4422SOL     OW14164   3.106   3.512   5.982
 4422SOL    HW114165   3.110   3.534   5.884
 4422SOL    HW214166   3.108   3.413   5.993
 4423SOL     OW14167   1.141   1.937   6.228
 4423SOL    HW114168   1.184   2.026   6.220
 4423SOL    HW214169   1.042   1.947   6.226
 4424SOL     OW14170   5.260   6.335   3.299
 4424SOL    HW114171   5.250   6.432   3.319
 4424SOL    HW214172   5.316   6.292   3.369
 4425SOL     OW14173   3.646   5.487   5.446
 4425SOL    HW114174   3.587   5.530   5.515
 4425SOL    HW214175   3.629   5.530   5.357
 4426SOL     OW14176   7.020   1.120   5.103
 4426SOL    HW114177   0.063   1.082   5.164
 4426SOL    HW214178   7.009   1.060   5.024
 4427SOL     OW14179   0.364   0.679   3.251
 4427SOL    HW114180   0.419   0.620   3.192
 4427SOL    HW214181   0.359   0.770   3.211
 4428SOL     OW14182   2.828   4.805   4.285
 4428SOL    HW114183   2.926   4.820   4.274
 4428SOL    HW214184   2.811   4.751   4.367
 4429SOL     OW14185   3.126   6.974   3.338
 4429SOL    HW114186   3.065   6.962   3.260
 4429SOL    HW214187   3.165   0.040   3.336
 4430SOL     OW14188   4.083   2.249   2.832
 4430SOL    HW114189   4.156   2.303   2.873
 4430SOL    HW214190   4.038   2.303   2.761
 4431SOL     OW14191   2.930   1.912   3.486
 4431SOL    HW114192   2.996   1.920   3.561
 4431SOL    HW214193   2.952   1.978   3.415
 4432SOL     OW14194   3.580   2.848   3.044
 4432SOL    HW114195   3.657   2.859   3.107
 4432SOL    HW214196   3.599   2.898   2.959
 4433SOL     OW14197   5.866   0.028   3.141
 4433SOL    HW114198   5.832   6.983   3.203
 4433SOL    HW214199   5.964   0.039   3.154
 4434SOL     OW14200   5.103   1.731   4.069
 4434SOL    HW114201   5.044   1.738   3.989
 4434SOL    HW214202   5.157   1.815   4.078
 4435SOL     OW14203   3.620   3.064   1.537
 4435SOL    HW114204   3.592   3.049   1.442
 4435SOL    HW214205   3.719   3.064   1.544
 4436SOL     OW14206   3.198   2.261   0.602
 4436SOL    HW114207   3.138   2.200   0.550
 4436SOL    HW214208   3.150   2.294   0.683
 4437SOL     OW14209   4.123   0.669   4.515
 4437SOL    HW114210   4.137   0.602   4.442
 4437SOL    HW214211   4.177   0.751   4.496
 4438SOL     OW14212   4.228   2.153   0.358
 4438SOL    HW114213   4.226   2.202   0.445
 4438SOL    HW214214   4.272   2.210   0.289
 4439SOL     OW14215   0.784   5.270   1.411
 4439SOL    HW114216   0.881   5.272   1.387
 4439SOL    HW214217   0.770   5.320   1.496
 4440SOL     OW14218   2.233   5.756   0.202
 4440SOL    HW114219   2.135   5.741   0.193
 4440SOL    HW214220   2.262   5.826   0.137
 4441SOL     OW14221   6.347   2.704   2.212
 4441SOL    HW114222   6.430   2.657   2.181
 4441SOL    HW214223   6.286   2.638   2.256
 4442SOL     OW14224   3.762   6.160   3.431
 4442SOL    HW114225   3.836   6.195   3.375
 4442SOL    HW214226   3.799   6.104   3.505
 4443SOL     OW14227   2.249   1.982   6.511
 4443SOL    HW114228   2.217   2.070   6.475
 4443SOL    HW214229   2.262   1.918   6.435
 4444SOL     OW14230   4.797   6.338   0.833
 4444SOL    HW114231   4.879   6.358   0.885
 4444SOL    HW214232   4.738   6.419   0.831
 4445SOL     OW14233   1.496   0.720   6.519
 4445SOL    HW114234   1.439   0.784   6.569
 4445SOL    HW214235   1.499   0.747   6.422
 4446SOL     OW14236   5.715   0.477   1.837
 4446SOL    HW114237   5.681   0.569   1.859
 4446SOL    HW214238   5.642   0.410   1.851
 4447SOL     OW14239   5.475   3.239   5.488
 4447SOL    HW114240   5.413   3.219   5.413
 4447SOL    HW214241   5.423   3.245   5.574
 4448SOL     OW14242   2.900   3.643   0.413
 4448SOL    HW114243   2.992   3.672   0.386
 4448SOL    HW214244   2.884   3.669   0.508
 4449SOL     OW14245   2.912   0.485   5.657
 4449SOL    HW114246   2.875   0.392   5.659
 4449SOL    HW214247   3.011   0.481   5.674
 4450SOL     OW14248   3.016   3.250   2.508
 4450SOL    HW114249   2.946   3.310   2.469
 4450SOL    HW214250   3.105   3.295   2.502
 4451SOL     OW14251   6.389   4.353   2.373
 4451SOL    HW114252   6.345   4.440   2.392
 4451SOL    HW214253   6.339   4.303   2.303
 4452SOL     OW14254   6.018   6.802   5.462
 4452SOL    HW114255   5.927   6.766   5.438
 4452SOL    HW214256   6.010   6.864   5.540
 4453SOL     OW14257   6.230   2.800   1.669
 4453SOL    HW114258   6.231   2.826   1.572
 4453SOL    HW214259   6.210   2.702   1.676
 4454SOL     OW14260   5.395   2.483   1.182
 4454SOL    HW114261   5.425   2.541   1.107
 4454SOL    HW214262   5.359   2.539   1.256
 4455SOL     OW14263   3.328   6.415   1.906
 4455SOL    HW114264   3.408   6.363   1.936
 4455SOL    HW214265   3.353   6.512   1.899
 4456SOL     OW14266   2.170   5.276   2.232
 4456SOL    HW114267   2.172   5.191   2.285
 4456SOL    HW214268   2.114   5.344   2.280
 4457SOL     OW14269   4.445   2.204   6.409
 4457SOL    HW114270   4.421   2.205   6.506
 4457SOL    HW214271   4.396   2.277   6.361
 4458SOL     OW14272   2.597   3.294   6.348
 4458SOL    HW114273   2.682   3.256   6.385
 4458SOL    HW214274   2.574   3.378   6.398
 4459SOL     OW14275   4.811   0.270   4.157
 4459SOL    HW114276   4.809   0.247   4.255
 4459SOL    HW214277   4.737   0.335   4.137
 4460SOL     OW14278   2.314   3.277   6.869
 4460SOL    HW114279   2.378   3.257   6.943
 4460SOL    HW214280   2.242   3.209   6.868
 4461SOL     OW14281   0.922   6.793   2.497
 4461SOL    HW114282   1.004   6.769   2.550
 4461SOL    HW214283   0.841   6.758   2.543
 4462SOL     OW14284   6.005   4.978   0.884
 4462SOL    HW114285   5.974   4.933   0.968
 4462SOL    HW214286   6.093   5.022   0.901
 4463SOL     OW14287   2.050   2.860   6.589
 4463SOL    HW114288   1.997   2.834   6.508
 4463SOL    HW214289   2.026   2.953   6.616
 4464SOL     OW14290   6.112   4.748   6.555
 4464SOL    HW114291   6.092   4.737   6.457
 4464SOL    HW214292   6.094   4.842   6.582
 4465SOL     OW14293   1.967   6.700   2.388
 4465SOL    HW114294   1.981   6.726   2.483
 4465SOL    HW214295   1.878   6.654   2.379
 4466SOL     OW14296   0.966   1.194   2.450
 4466SOL    HW114297   0.888   1.217   2.508
 4466SOL    HW214298   1.039   1.260   2.464
 4467SOL     OW14299   1.525   6.798   3.410
 4467SOL    HW114300   1.495   6.711   3.369
 4467SOL    HW214301   1.579   6.778   3.492
 4468SOL     OW14302   1.006   2.182   0.005
 4468SOL    HW114303   1.071   2.159   6.958
 4468SOL    HW214304   0.958   2.099   0.034
 4469SOL     OW14305   3.295   0.395   1.745
 4469SOL    HW114306   3.385   0.371   1.708
 4469SOL    HW214307   3.296   0.489   1.777
 4470SOL     OW14308   5.227   3.856   1.868
 4470SOL    HW114309   5.151   3.910   1.903
 4470SOL    HW214310   5.302   3.916   1.843
 4471SOL     OW14311   0.694   2.800   0.652
 4471SOL    HW114312   0.599   2.822   0.673
 4471SOL    HW214313   0.707   2.700   0.658
 4472SOL     OW14314   1.840   3.938   2.461
 4472SOL    HW114315   1.859   3.976   2.371
 4472SOL    HW214316   1.926   3.913   2.506
 4473SOL     OW14317   0.148   0.528   4.862
 4473SOL    HW114318   0.073   0.568   4.915
 4473SOL    HW214319   0.234   0.540   4.911
 4474SOL     OW14320   3.454   0.227   2.105
 4474SOL    HW114321   3.519   0.185   2.041
 4474SOL    HW214322   3.375   0.166   2.117
 4475SOL     OW14323   1.391   3.713   1.333
 4475SOL    HW114324   1.359   3.804   1.309
 4475SOL    HW214325   1.447   3.676   1.260
 4476SOL     OW14326   5.444   6.414   2.741
 4476SOL    HW114327   5.422   6.464   2.824
 4476SOL    HW214328   5.364   6.362   2.710
 4477SOL     OW14329   2.025   0.369   6.852
 4477SOL    HW114330   2.025   0.314   6.769
 4477SOL    HW214331   2.109   0.351   6.904
 4478SOL     OW14332   2.435   6.610   2.343
 4478SOL    HW114333   2.495   6.574   2.272
 4478SOL    HW214334   2.422   6.540   2.415
 4479SOL     OW14335   1.065   0.420   6.452
 4479SOL    HW114336   1.081   0.345   6.515
 4479SOL    HW214337   0.977   0.463   6.473
 4480SOL     OW14338   1.612   3.774   4.434
 4480SOL    HW114339   1.566   3.820   4.509
 4480SOL    HW214340   1.696   3.732   4.467
 4481SOL     OW14341   1.722   6.359   4.430
 4481SOL    HW114342   1.822   6.362   4.430
 4481SOL    HW214343   1.688   6.387   4.520
 4482SOL     OW14344   1.009   4.471   4.403
 4482SOL    HW114345   0.963   4.480   4.314
 4482SOL    HW214346   0.941   4.458   4.474
 4483SOL     OW14347   6.874   2.992   1.383
 4483SOL    HW114348   6.852   2.898   1.409
 4483SOL    HW214349   6.827   3.014   1.298
 4484SOL     OW14350   4.005   2.827   5.315
 4484SOL    HW114351   3.954   2.837   5.230
 4484SOL    HW214352   4.020   2.729   5.333
 4485SOL     OW14353   4.924   2.523   6.304
 4485SOL    HW114354   4.991   2.474   6.250
 4485SOL    HW214355   4.839   2.532   6.251
 4486SOL     OW14356   6.959   4.111   5.124
 4486SOL    HW114357   7.010   4.032   5.156
 4486SOL    HW214358   7.019   4.171   5.072
 4487SOL     OW14359   2.667   3.969   6.667
 4487SOL    HW114360   2.728   4.040   6.628
 4487SOL    HW214361   2.572   3.999   6.658
 4488SOL     OW14362   5.949   2.571   5.779
 4488SOL    HW114363   5.996   2.483   5.777
 4488SOL    HW214364   5.926   2.599   5.685
 4489SOL     OW14365   5.522   5.747   4.701
 4489SOL    HW114366   5.469   5.832   4.700
 4489SOL    HW214367   5.545   5.722   4.607
 4490SOL     OW14368   6.128   1.386   1.326
 4490SOL    HW114369   6.074   1.423   1.402
 4490SOL    HW214370   6.224   1.382   1.353
 4491SOL     OW14371   1.177   3.720   2.342
 4491SOL    HW114372   1.179   3.620   2.346
 4491SOL    HW214373   1.265   3.756   2.374
 4492SOL     OW14374   5.106   2.449   7.022
 4492SOL    HW114375   5.149   2.395   6.949
 4492SOL    HW214376   5.013   2.414   0.011
 4493SOL     OW14377   4.481   5.400   4.825
 4493SOL    HW114378   4.471   5.314   4.874
 4493SOL    HW214379   4.503   5.382   4.730
 4494SOL     OW14380   0.017   3.340   5.719
 4494SOL    HW114381   6.996   3.269   5.771
 4494SOL    HW214382   0.051   3.411   5.781
 4495SOL     OW14383   5.398   6.813   2.690
 4495SOL    HW114384   5.312   6.841   2.733
 4495SOL    HW214385   5.471   6.876   2.718
 4496SOL     OW14386   5.215   4.957   6.837
 4496SOL    HW114387   5.140   4.892   6.852
 4496SOL    HW214388   5.245   4.951   6.742
 4497SOL     OW14389   5.240   6.207   6.576
 4497SOL    HW114390   5.243   6.179   6.480
 4497SOL    HW214391   5.144   6.212   6.606
 4498SOL     OW14392   0.096   4.031   6.850
 4498SOL    HW114393   0.059   4.123   6.835
 4498SOL    HW214394   0.122   4.021   6.945
 4499SOL     OW14395   6.746   2.993   4.516
 4499SOL    HW114396   6.805   2.918   4.545
 4499SOL    HW214397   6.799   3.056   4.458
 4500SOL     OW14398   3.323   4.109   3.945
 4500SOL    HW114399   3.322   4.012   3.919
 4500SOL    HW214400   3.370   4.162   3.875
 4501SOL     OW14401   1.214   3.701   5.468
 4501SOL    HW114402   1.125   3.702   5.514
 4501SOL    HW214403   1.265   3.620   5.496
 4502SOL     OW14404   1.974   2.385   6.339
 4502SOL    HW114405   2.032   2.444   6.283
 4502SOL    HW214406   2.015   2.373   6.429
 4503SOL     OW14407   2.430   1.080   3.620
 4503SOL    HW114408   2.379   1.137   3.684
 4503SOL    HW214409   2.487   1.015   3.671
 4504SOL     OW14410   6.412   2.444   5.854
 4504SOL    HW114411   6.340   2.513   5.857
 4504SOL    HW214412   6.427   2.408   5.946
 4505SOL     OW14413   0.626   6.244   4.690
 4505SOL    HW114414   0.564   6.297   4.632
 4505SOL    HW214415   0.656   6.162   4.641
 4506SOL     OW14416   3.620   1.388   4.716
 4506SOL    HW114417   3.614   1.402   4.815
 4506SOL    HW214418   3.573   1.464   4.669
 4507SOL     OW14419   4.787   5.077   1.272
 4507SOL    HW114420   4.724   5.151   1.295
 4507SOL    HW214421   4.844   5.105   1.195
 4508SOL     OW14422   1.685   3.973   0.062
 4508SOL    HW114423   1.749   4.031   0.012
 4508SOL    HW214424   1.733   3.893   0.098
 4509SOL     OW14425   4.243   1.721   4.455
 4509SOL    HW114426   4.231   1.622   4.465
 4509SOL    HW214427   4.206   1.768   4.535
 4510SOL     OW14428   5.741   0.775   4.947
 4510SOL    HW114429   5.775   0.831   5.023
 4510SOL    HW214430   5.661   0.723   4.976
 4511SOL     OW14431   0.285   3.329   0.326
 4511SOL    HW114432   0.251   3.253   0.270
 4511SOL    HW214433   0.349   3.384   0.273
 4512SOL     OW14434   2.794   6.917   6.875
 4512SOL    HW114435   2.821   6.949   6.785
 4512SOL    HW214436   2.699   6.943   6.893
 4513SOL     OW14437   4.405   6.466   1.236
 4513SOL    HW114438   4.450   6.399   1.177
 4513SOL    HW214439   4.362   6.419   1.313
 4514SOL     OW14440   3.952   1.231   4.810
 4514SOL    HW114441   3.892   1.193   4.880
 4514SOL    HW214442   4.047   1.214   4.834
 4515SOL     OW14443   6.584   4.699   6.589
 4515SOL    HW114444   6.497   4.740   6.617
 4515SOL    HW214445   6.572   4.601   6.575
 4516SOL     OW14446   1.174   0.921   5.437
 4516SOL    HW114447   1.119   0.954   5.514
 4516SOL    HW214448   1.175   0.991   5.365
 4517SOL     OW14449   3.071   6.834   6.719
 4517SOL    HW114450   3.112   6.759   6.668
 4517SOL    HW214451   3.053   6.910   6.658
 4518SOL     OW14452   1.019   2.089   3.955
 4518SOL    HW114453   0.992   2.023   3.884
 4518SOL    HW214454   1.113   2.071   3.983
 4519SOL     OW14455   0.451   1.776   3.764
 4519SOL    HW114456   0.437   1.677   3.759
 4519SOL    HW214457   0.526   1.802   3.703
 4520SOL     OW14458   5.978   4.761   2.684
 4520SOL    HW114459   5.959   4.762   2.782
 4520SOL    HW214460   5.994   4.667   2.653
 4521SOL     OW14461   4.812   2.263   5.928
 4521SOL    HW114462   4.871   2.279   6.007
 4521SOL    HW214463   4.749   2.188   5.949
 4522SOL     OW14464   5.437   6.617   4.034
 4522SOL    HW114465   5.466   6.521   4.037
 4522SOL    HW214466   5.516   6.675   4.013
 4523SOL     OW14467   3.082   4.697   6.993
 4523SOL    HW114468   3.074   4.698   6.893
 4523SOL    HW214469   3.078   4.603   7.026
 4524SOL     OW14470   5.372   1.656   5.733
 4524SOL    HW114471   5.427   1.705   5.665
 4524SOL    HW214472   5.427   1.583   5.774
 4525SOL     OW14473   6.564   1.954   4.055
 4525SOL    HW114474   6.619   1.870   4.059
 4525SOL    HW214475   6.548   1.987   4.148
 4526SOL     OW14476   5.270   7.016   1.219
 4526SOL    HW114477   5.335   0.047   1.168
 4526SOL    HW214478   5.197   0.047   1.256
 4527SOL     OW14479   4.167   0.595   3.376
 4527SOL    HW114480   4.120   0.566   3.460
 4527SOL    HW214481   4.210   0.515   3.334
 4528SOL     OW14482   4.894   6.801   6.824
 4528SOL    HW114483   4.815   6.862   6.824
 4528SOL    HW214484   4.978   6.856   6.827
 4529SOL     OW14485   2.792   1.167   3.649
 4529SOL    HW114486   2.859   1.102   3.613
 4529SOL    HW214487   2.740   1.206   3.574
 4530SOL     OW14488   0.286   3.330   5.545
 4530SOL    HW114489   0.341   3.329   5.461
 4530SOL    HW214490   0.192   3.301   5.523
 4531SOL     OW14491   1.433   3.826   2.841
 4531SOL    HW114492   1.351   3.876   2.814
 4531SOL    HW214493   1.472   3.781   2.760
 4532SOL     OW14494   6.661   0.930   1.111
 4532SOL    HW114495   6.641   0.932   1.209
 4532SOL    HW214496   6.610   1.002   1.065
 4533SOL     OW14497   1.406   0.027   3.767
 4533SOL    HW114498   1.436   0.122   3.768
 4533SOL    HW214499   1.478   6.996   3.728
 4534SOL     OW14500   6.232   3.819   5.095
 4534SOL    HW114501   6.288   3.773   5.025
 4534SOL    HW214502   6.141   3.777   5.096
 4535SOL     OW14503   4.693   2.637   2.209
 4535SOL    HW114504   4.717   2.616   2.114
 4535SOL    HW214505   4.741   2.720   2.238
 4536SOL     OW14506   4.667   0.919   4.689
 4536SOL    HW114507   4.719   1.003   4.677
 4536SOL    HW214508   4.678   0.860   4.609
 4537SOL     OW14509   3.753   3.277   6.651
 4537SOL    HW114510   3.720   3.274   6.745
 4537SOL    HW214511   3.785   3.185   6.624
 4538SOL     OW14512   3.475   1.863   3.785
 4538SOL    HW114513   3.498   1.766   3.793
 4538SOL    HW214514   3.421   1.891   3.864
 4539SOL     OW14515   2.885   2.137   3.847
 4539SOL    HW114516   2.826   2.126   3.767
 4539SOL    HW214517   2.980   2.137   3.819
 4540SOL     OW14518   3.420   3.870   3.859
 4540SOL    HW114519   3.357   3.800   3.825
 4540SOL    HW214520   3.504   3.827   3.890
 4541SOL     OW14521   5.239   0.537   0.091
 4541SOL    HW114522   5.315   0.586   0.135
 4541SOL    HW214523   5.168   0.602   0.066
 4542SOL     OW14524   5.994   5.977   1.622
 4542SOL    HW114525   5.896   5.996   1.623
 4542SOL    HW214526   6.010   5.886   1.582
 4543SOL     OW14527   4.758   1.723   0.406
 4543SOL    HW114528   4.726   1.666   0.482
 4543SOL    HW214529   4.742   1.819   0.428
 4544SOL     OW14530   2.354   6.212   0.090
 4544SOL    HW114531   2.387   6.247   0.002
 4544SOL    HW214532   2.265   6.252   0.111
 4545SOL     OW14533   4.211   2.232   5.270
 4545SOL    HW114534   4.136   2.286   5.308
 4545SOL    HW214535   4.238   2.161   5.335
 4546SOL     OW14536   0.701   0.187   5.927
 4546SOL    HW114537   0.763   0.201   5.850
 4546SOL    HW214538   0.656   0.098   5.918
 4547SOL     OW14539   5.460   2.489   1.499
 4547SOL    HW114540   5.488   2.394   1.489
 4547SOL    HW214541   5.369   2.494   1.539
 4548SOL     OW14542   0.872   4.926   4.327
 4548SOL    HW114543   0.898   4.972   4.242
 4548SOL    HW214544   0.796   4.975   4.370
 4549SOL     OW14545   7.001   3.430   3.751
 4549SOL    HW114546   0.005   3.475   3.666
 4549SOL    HW214547   6.970   3.337   3.730
 4550SOL     OW14548   0.829   6.531   3.767
 4550SOL    HW114549   0.776   6.540   3.852
 4550SOL    HW214550   0.855   6.435   3.755
 4551SOL     OW14551   0.522   2.536   5.366
 4551SOL    HW114552   0.613   2.537   5.408
 4551SOL    HW214553   0.519   2.468   5.293
 4552SOL     OW14554   0.539   3.161   5.736
 4552SOL    HW114555   0.500   3.250   5.712
 4552SOL    HW214556   0.612   3.174   5.803
 4553SOL     OW14557   4.238   4.551   6.904
 4553SOL    HW114558   4.201   4.619   6.969
 4553SOL    HW214559   4.281   4.477   6.955
 4554SOL     OW14560   4.090   0.586   2.361
 4554SOL    HW114561   4.174   0.531   2.361
 4554SOL    HW214562   4.013   0.529   2.331
 4555SOL     OW14563   4.358   2.261   6.664
 4555SOL    HW114564   4.315   2.175   6.694
 4555SOL    HW214565   4.291   2.335   6.670
 4556SOL     OW14566   3.950   0.980   3.464
 4556SOL    HW114567   3.986   0.957   3.374
 4556SOL    HW214568   3.858   0.942   3.474
 4557SOL     OW14569   5.022   0.260   4.848
 4557SOL    HW114570   5.074   0.175   4.857
 4557SOL    HW214571   5.060   0.328   4.911
 4558SOL     OW14572   6.374   3.944   6.157
 4558SOL    HW114573   6.344   4.015   6.220
 4558SOL    HW214574   6.337   3.962   6.066
 4559SOL     OW14575   1.535   6.526   0.974
 4559SOL    HW114576   1.549   6.511   1.072
 4559SOL    HW214577   1.564   6.444   0.923
 4560SOL     OW14578   4.941   3.685   3.314
 4560SOL    HW114579   4.906   3.679   3.220
 4560SOL    HW214580   4.981   3.597   3.340
 4561SOL     OW14581   2.843   1.341   0.347
 4561SOL    HW114582   2.908   1.398   0.297
 4561SOL    HW214583   2.846   1.365   0.444
 4562SOL     OW14584   3.084   5.752   5.681
 4562SOL    HW114585   3.053   5.729   5.773
 4562SOL    HW214586   3.025   5.825   5.644
 4563SOL     OW14587   5.825   2.562   0.444
 4563SOL    HW114588   5.731   2.566   0.412
 4563SOL    HW214589   5.856   2.467   0.448
 4564SOL     OW14590   0.634   5.410   0.457
 4564SOL    HW114591   0.685   5.492   0.430
 4564SOL    HW214592   0.616   5.414   0.555
 4565SOL     OW14593   0.278   1.789   5.373
 4565SOL    HW114594   0.327   1.810   5.288
 4565SOL    HW214595   0.223   1.706   5.361
 4566SOL     OW14596   6.915   0.188   6.812
 4566SOL    HW114597   6.833   0.220   6.859
 4566SOL    HW214598   6.904   0.197   6.713
 4567SOL     OW14599   0.344   0.390   0.944
 4567SOL    HW114600   0.398   0.327   0.887
 4567SOL    HW214601   0.258   0.347   0.970
 4568SOL     OW14602   2.399   4.647   5.329
 4568SOL    HW114603   2.428   4.594   5.250
 4568SOL    HW214604   2.334   4.717   5.300
 4569SOL     OW14605   1.108   2.323   4.312
 4569SOL    HW114606   1.059   2.361   4.234
 4569SOL    HW214607   1.199   2.366   4.318
 4570SOL     OW14608   7.021   5.876   3.325
 4570SOL    HW114609   0.061   5.927   3.380
 4570SOL    HW214610   0.037   5.851   3.237
 4571SOL     OW14611   2.880   3.706   4.681
 4571SOL    HW114612   2.789   3.745   4.695
 4571SOL    HW214613   2.901   3.642   4.755
 4572SOL     OW14614   0.166   6.566   0.581
 4572SOL    HW114615   0.239   6.497   0.579
 4572SOL    HW214616   0.162   6.608   0.671
 4573SOL     OW14617   5.576   6.091   1.403
 4573SOL    HW114618   5.611   6.012   1.352
 4573SOL    HW214619   5.476   6.087   1.405
 4574SOL     OW14620   7.009   4.866   1.331
 4574SOL    HW114621   6.970   4.939   1.275
 4574SOL    HW214622   0.044   4.810   1.275
 4575SOL     OW14623   6.518   2.195   0.543
 4575SOL    HW114624   6.496   2.150   0.630
 4575SOL    HW214625   6.442   2.254   0.516
 4576SOL     OW14626   2.936   5.836   6.708
 4576SOL    HW114627   2.892   5.749   6.731
 4576SOL    HW214628   2.957   5.838   6.610
 4577SOL     OW14629   1.006   3.635   2.976
 4577SOL    HW114630   0.970   3.718   3.019
 4577SOL    HW214631   1.064   3.587   3.041
 4578SOL     OW14632   0.688   3.481   3.295
 4578SOL    HW114633   0.677   3.383   3.312
 4578SOL    HW214634   0.598   3.524   3.294
 4579SOL     OW14635   4.818   1.560   2.799
 4579SOL    HW114636   4.824   1.585   2.896
 4579SOL    HW214637   4.735   1.598   2.759
 4580SOL     OW14638   6.037   5.035   0.429
 4580SOL    HW114639   6.014   4.992   0.342
 4580SOL    HW214640   6.107   4.980   0.475
 4581SOL     OW14641   3.190   4.896   3.354
 4581SOL    HW114642   3.289   4.902   3.365
 4581SOL    HW214643   3.168   4.871   3.260
 4582SOL     OW14644   5.874   6.884   4.204
 4582SOL    HW114645   5.783   6.863   4.242
 4582SOL    HW214646   5.903   6.974   4.237
 4583SOL     OW14647   2.925   1.923   5.224
 4583SOL    HW114648   2.909   1.997   5.289
 4583SOL    HW214649   3.007   1.943   5.170
 4584SOL     OW14650   0.062   6.095   5.755
 4584SOL    HW114651   6.993   6.076   5.731
 4584SOL    HW214652   0.081   6.060   5.847
 4585SOL     OW14653   3.174   6.469   2.592
 4585SOL    HW114654   3.128   6.513   2.514
 4585SOL    HW214655   3.215   6.539   2.650
 4586SOL     OW14656   3.306   4.866   1.207
 4586SOL    HW114657   3.320   4.776   1.168
 4586SOL    HW214658   3.232   4.913   1.158
 4587SOL     OW14659   4.098   3.632   1.972
 4587SOL    HW114660   4.067   3.626   2.067
 4587SOL    HW214661   4.137   3.544   1.944
 4588SOL     OW14662   3.978   3.990   4.804
 4588SOL    HW114663   3.892   4.035   4.778
 4588SOL    HW214664   4.053   4.054   4.792
 4589SOL     OW14665   6.059   2.296   2.388
 4589SOL    HW114666   6.043   2.209   2.435
 4589SOL    HW214667   5.973   2.345   2.377
 4590SOL     OW14668   4.618   6.189   2.723
 4590SOL    HW114669   4.655   6.276   2.758
 4590SOL    HW214670   4.685   6.117   2.737
 4591SOL     OW14671   6.413   5.849   5.717
 4591SOL    HW114672   6.356   5.789   5.661
 4591SOL    HW214673   6.510   5.830   5.698
 4592SOL     OW14674   4.323   3.077   0.973
 4592SOL    HW114675   4.298   3.010   0.903
 4592SOL    HW214676   4.262   3.069   1.051
 4593SOL     OW14677   4.382   5.657   3.120
 4593SOL    HW114678   4.305   5.698   3.073
 4593SOL    HW214679   4.357   5.566   3.153
 4594SOL     OW14680   3.601   1.956   2.502
 4594SOL    HW114681   3.570   1.897   2.428
 4594SOL    HW214682   3.532   2.027   2.519
 4595SOL     OW14683   3.643   2.820   6.836
 4595SOL    HW114684   3.716   2.808   6.769
 4595SOL    HW214685   3.591   2.735   6.844
 4596SOL     OW14686   6.208   6.252   2.138
 4596SOL    HW114687   6.211   6.193   2.219
 4596SOL    HW214688   6.146   6.329   2.155
 4597SOL     OW14689   5.239   5.572   6.415
 4597SOL    HW114690   5.257   5.490   6.470
 4597SOL    HW214691   5.181   5.547   6.337
 4598SOL     OW14692   1.542   4.843   6.213
 4598SOL    HW114693   1.478   4.782   6.166
 4598SOL    HW214694   1.494   4.896   6.282
 4599SOL     OW14695   1.330   3.963   1.218
 4599SOL    HW114696   1.289   4.034   1.161
 4599SOL    HW214697   1.364   3.889   1.161
 4600SOL     OW14698   2.545   5.277   6.231
 4600SOL    HW114699   2.540   5.225   6.146
 4600SOL    HW214700   2.475   5.244   6.295
 4601SOL     OW14701   1.676   0.772   5.543
 4601SOL    HW114702   1.578   0.753   5.551
 4601SOL    HW214703   1.727   0.688   5.562
 4602SOL     OW14704   1.310   6.636   1.179
 4602SOL    HW114705   1.386   6.700   1.175
 4602SOL    HW214706   1.334   6.559   1.239
 4603SOL     OW14707   3.609   6.333   1.636
 4603SOL    HW114708   3.618   6.251   1.579
 4603SOL    HW214709   3.534   6.389   1.602
 4604SOL     OW14710   4.138   0.373   1.590
 4604SOL    HW114711   4.049   0.413   1.609
 4604SOL    HW214712   4.206   0.445   1.576
 4605SOL     OW14713   4.812   0.701   3.905
 4605SOL    HW114714   4.902   0.669   3.877
 4605SOL    HW214715   4.766   0.629   3.957
 4606SOL     OW14716   0.354   6.643   3.589
 4606SOL    HW114717   0.427   6.577   3.571
 4606SOL    HW214718   0.333   6.694   3.505
 4607SOL     OW14719   2.838   2.511   1.427
 4607SOL    HW114720   2.897   2.562   1.490
 4607SOL    HW214721   2.752   2.489   1.473
 4608SOL     OW14722   1.580   5.097   5.188
 4608SOL    HW114723   1.492   5.055   5.168
 4608SOL    HW214724   1.566   5.177   5.245
 4609SOL     OW14725   4.159   5.777   6.252
 4609SOL    HW114726   4.083   5.752   6.192
 4609SOL    HW214727   4.150   5.873   6.279
 4610SOL     OW14728   6.804   2.482   0.520
 4610SOL    HW114729   6.710   2.510   0.500
 4610SOL    HW214730   6.817   2.387   0.492
 4611SOL     OW14731   6.076   4.067   0.059
 4611SOL    HW114732   6.039   3.995   0.117
 4611SOL    HW214733   6.005   4.099   7.022
 4612SOL     OW14734   1.961   6.020   6.472
 4612SOL    HW114735   1.894   6.046   6.403
 4612SOL    HW214736   2.033   6.090   6.476
 4613SOL     OW14737   2.252   5.426   3.053
 4613SOL    HW114738   2.249   5.524   3.035
 4613SOL    HW214739   2.340   5.402   3.093
 4614SOL     OW14740   1.637   5.141   6.656
 4614SOL    HW114741   1.559   5.170   6.602
 4614SOL    HW214742   1.666   5.050   6.626
 4615SOL     OW14743   1.535   1.411   0.881
 4615SOL    HW114744   1.481   1.433   0.800
 4615SOL    HW214745   1.573   1.319   0.871
 4616SOL     OW14746   6.457   0.647   6.807
 4616SOL    HW114747   6.394   0.637   6.730
 4616SOL    HW214748   6.408   0.628   6.893
 4617SOL     OW14749   0.824   2.506   2.760
 4617SOL    HW114750   0.749   2.505   2.694
 4617SOL    HW214751   0.907   2.472   2.718
 4618SOL     OW14752   1.423   2.063   5.532
 4618SOL    HW114753   1.416   2.148   5.481
 4618SOL    HW214754   1.508   2.062   5.585
 4619SOL     OW14755   4.170   0.325   3.635
 4619SOL    HW114756   4.203   0.285   3.720
 4619SOL    HW214757   4.213   0.414   3.621
 4620SOL     OW14758   3.966   4.211   0.030
 4620SOL    HW114759   3.990   4.275   6.983
 4620SOL    HW214760   4.003   4.245   0.116
 4621SOL     OW14761   6.433   1.724   4.979
 4621SOL    HW114762   6.370   1.649   4.959
 4621SOL    HW214763   6.487   1.702   5.060
 4622SOL     OW14764   1.426   2.791   0.999
 4622SOL    HW114765   1.400   2.694   1.004
 4622SOL    HW214766   1.500   2.809   1.063
 4623SOL     OW14767   0.099   5.280   1.131
 4623SOL    HW114768   0.181   5.284   1.189
 4623SOL    HW214769   0.035   5.213   1.168
 4624SOL     OW14770   4.602   0.854   3.837
 4624SOL    HW114771   4.688   0.809   3.861
 4624SOL    HW214772   4.569   0.820   3.749
 4625SOL     OW14773   1.444   4.483   6.731
 4625SOL    HW114774   1.385   4.440   6.663
 4625SOL    HW214775   1.531   4.509   6.689
 4626SOL     OW14776   6.544   4.575   1.494
 4626SOL    HW114777   6.616   4.506   1.483
 4626SOL    HW214778   6.499   4.562   1.583
 4627SOL     OW14779   3.867   5.941   5.942
 4627SOL    HW114780   3.820   5.854   5.925
 4627SOL    HW214781   3.816   5.993   6.011
 4628SOL     OW14782   6.355   4.588   2.104
 4628SOL    HW114783   6.278   4.612   2.045
 4628SOL    HW214784   6.335   4.615   2.198
 4629SOL     OW14785   1.887   4.607   6.052
 4629SOL    HW114786   1.805   4.664   6.044
 4629SOL    HW214787   1.864   4.512   6.036
 4630SOL     OW14788   2.607   6.032   4.170
 4630SOL    HW114789   2.511   6.019   4.143
 4630SOL    HW214790   2.623   5.984   4.256
 4631SOL     OW14791   2.441   6.594   3.522
 4631SOL    HW114792   2.412   6.534   3.448
 4631SOL    HW214793   2.512   6.549   3.576
 4632SOL     OW14794   4.308   5.212   3.920
 4632SOL    HW114795   4.405   5.190   3.908
 4632SOL    HW214796   4.293   5.310   3.908
 4633SOL     OW14797   6.975   2.322   5.161
 4633SOL    HW114798   0.031   2.331   5.105
 4633SOL    HW214799   6.912   2.256   5.119
 4634SOL     OW14800   2.606   4.353   0.318
 4634SOL    HW114801   2.538   4.281   0.334
 4634SOL    HW214802   2.698   4.315   0.329
 4635SOL     OW14803   5.598   3.463   2.452
 4635SOL    HW114804   5.691   3.494   2.471
 4635SOL    HW214805   5.596   3.416   2.363
 4636SOL     OW14806   2.855   5.320   6.836
 4636SOL    HW114807   2.841   5.319   6.737
 4636SOL    HW214808   2.837   5.229   6.874
 4637SOL     OW14809   1.361   0.610   0.064
 4637SOL    HW114810   1.373   0.689   0.004
 4637SOL    HW214811   1.315   0.536   0.014
 4638SOL     OW14812   3.735   2.912   5.923
 4638SOL    HW114813   3.705   2.845   5.991
 4638SOL    HW214814   3.656   2.951   5.876
 4639SOL     OW14815   1.079   3.857   5.904
 4639SOL    HW114816   1.022   3.777   5.925
 4639SOL    HW214817   1.032   3.940   5.933
 4640SOL     OW14818   5.048   4.649   4.090
 4640SOL    HW114819   5.042   4.572   4.026
 4640SOL    HW214820   4.967   4.650   4.149
 4641SOL     OW14821   2.539   4.907   4.236
 4641SOL    HW114822   2.572   4.817   4.267
 4641SOL    HW214823   2.597   4.978   4.276
 4642SOL     OW14824   6.346   5.211   5.047
 4642SOL    HW114825   6.415   5.189   5.116
 4642SOL    HW214826   6.379   5.182   4.957
 4643SOL     OW14827   4.761   2.473   0.621
 4643SOL    HW114828   4.702   2.506   0.547
 4643SOL    HW214829   4.709   2.411   0.679
 4644SOL     OW14830   1.268   5.442   4.941
 4644SOL    HW114831   1.264   5.526   4.996
 4644SOL    HW214832   1.189   5.385   4.962
 4645SOL     OW14833   2.267   6.178   4.735
 4645SOL    HW114834   2.277   6.258   4.794
 4645SOL    HW214835   2.186   6.188   4.677
 4646SOL     OW14836   2.594   0.278   2.290
 4646SOL    HW114837   2.632   0.260   2.200
 4646SOL    HW214838   2.655   0.339   2.340
 4647SOL     OW14839   0.945   6.791   3.263
 4647SOL    HW114840   0.994   6.878   3.272
 4647SOL    HW214841   0.877   6.783   3.336
 4648SOL     OW14842   3.429   6.662   1.995
 4648SOL    HW114843   3.427   6.675   2.094
 4648SOL    HW214844   3.464   6.744   1.951
 4649SOL     OW14845   4.949   1.015   5.812
 4649SOL    HW114846   4.994   0.943   5.865
 4649SOL    HW214847   4.937   1.096   5.870
 4650SOL     OW14848   3.689   6.233   2.964
 4650SOL    HW114849   3.678   6.157   3.028
 4650SOL    HW214850   3.618   6.227   2.894
 4651SOL     OW14851   0.605   2.468   1.753
 4651SOL    HW114852   0.536   2.397   1.744
 4651SOL    HW214853   0.584   2.543   1.690
 4652SOL     OW14854   0.797   0.031   3.413
 4652SOL    HW114855   0.862   0.050   3.339
 4652SOL    HW214856   0.708   0.072   3.391
 4653SOL     OW14857   6.783   6.062   0.110
 4653SOL    HW114858   6.880   6.055   0.134
 4653SOL    HW214859   6.774   6.065   0.010
 4654SOL     OW14860   0.824   0.033   0.003
 4654SOL    HW114861   0.858   0.003   0.092
 4654SOL    HW214862   0.803   0.131   0.006
 4655SOL     OW14863   0.911   5.094   2.780
 4655SOL    HW114864   0.933   5.143   2.696
 4655SOL    HW214865   0.894   4.997   2.759
 4656SOL     OW14866   1.092   0.005   3.297
 4656SOL    HW114867   1.106   0.008   3.396
 4656SOL    HW214868   1.114   0.094   3.258
 4657SOL     OW14869   5.026   0.248   1.627
 4657SOL    HW114870   5.078   0.333   1.629
 4657SOL    HW214871   5.090   0.170   1.625
 4658SOL     OW14872   3.981   6.914   2.616
 4658SOL    HW114873   4.015   6.905   2.522
 4658SOL    HW214874   3.927   6.997   2.624
 4659SOL     OW14875   1.665   3.005   5.036
 4659SOL    HW114876   1.581   3.043   5.075
 4659SOL    HW214877   1.737   3.006   5.105
 4660SOL     OW14878   1.306   1.911   5.087
 4660SOL    HW114879   1.321   1.878   5.181
 4660SOL    HW214880   1.266   2.003   5.090
 4661SOL     OW14881   3.460   3.702   4.623
 4661SOL    HW114882   3.378   3.662   4.663
 4661SOL    HW214883   3.438   3.791   4.582
 4662SOL     OW14884   4.936   0.531   5.336
 4662SOL    HW114885   5.017   0.473   5.334
 4662SOL    HW214886   4.921   0.570   5.245
 4663SOL     OW14887   0.175   2.135   2.079
 4663SOL    HW114888   0.110   2.162   2.008
 4663SOL    HW214889   0.239   2.209   2.096
 4664SOL     OW14890   2.442   2.597   6.682
 4664SOL    HW114891   2.443   2.612   6.781
 4664SOL    HW214892   2.425   2.683   6.635
 4665SOL     OW14893   4.612   0.188   6.743
 4665SOL    HW114894   4.610   0.262   6.676
 4665SOL    HW214895   4.699   0.189   6.792
 4666SOL     OW14896   2.435   1.654   0.310
 4666SOL    HW114897   2.387   1.580   0.356
 4666SOL    HW214898   2.481   1.712   0.377
 4667SOL     OW14899   6.974   4.971   6.259
 4667SOL    HW114900   0.033   4.922   6.274
 4667SOL    HW214901   6.963   4.989   6.161
 4668SOL     OW14902   0.078   1.948   4.600
 4668SOL    HW114903   0.017   1.911   4.670
 4668SOL    HW214904   0.048   1.918   4.510
 4669SOL     OW14905   2.220   5.992   0.427
 4669SOL    HW114906   2.161   5.973   0.348
 4669SOL    HW214907   2.163   6.000   0.509
 4670SOL     OW14908   3.023   0.980   4.682
 4670SOL    HW114909   3.115   1.015   4.696
 4670SOL    HW214910   3.010   0.957   4.586
 4671SOL     OW14911   6.131   2.948   1.868
 4671SOL    HW114912   6.170   2.884   1.802
 4671SOL    HW214913   6.106   2.899   1.951
 4672SOL     OW14914   2.290   4.213   5.932
 4672SOL    HW114915   2.274   4.147   5.859
 4672SOL    HW214916   2.244   4.299   5.911
 4673SOL     OW14917   3.497   0.092   1.451
 4673SOL    HW114918   3.411   0.046   1.472
 4673SOL    HW214919   3.573   0.041   1.491
 4674SOL     OW14920   5.301   6.108   5.587
 4674SOL    HW114921   5.392   6.067   5.578
 4674SOL    HW214922   5.245   6.052   5.649
 4675SOL     OW14923   1.466   3.875   0.951
 4675SOL    HW114924   1.484   3.885   0.854
 4675SOL    HW214925   1.538   3.819   0.993
 4676SOL     OW14926   0.984   5.905   3.451
 4676SOL    HW114927   1.052   5.832   3.450
 4676SOL    HW214928   1.030   5.993   3.464
 4677SOL     OW14929   1.689   1.621   0.954
 4677SOL    HW114930   1.622   1.547   0.946
 4677SOL    HW214931   1.643   1.709   0.939
 4678SOL     OW14932   2.044   3.844   2.613
 4678SOL    HW114933   2.003   3.891   2.691
 4678SOL    HW214934   2.103   3.770   2.646
 4679SOL     OW14935   5.126   6.437   1.880
 4679SOL    HW114936   5.138   6.527   1.839
 4679SOL    HW214937   5.211   6.410   1.926
 4680SOL     OW14938   3.804   0.829   1.177
 4680SOL    HW114939   3.785   0.890   1.254
 4680SOL    HW214940   3.881   0.865   1.124
 4681SOL     OW14941   4.848   4.465   6.975
 4681SOL    HW114942   4.779   4.537   6.976
 4681SOL    HW214943   4.875   4.446   6.881
 4682SOL     OW14944   5.101   3.598   6.448
 4682SOL    HW114945   5.117   3.562   6.540
 4682SOL    HW214946   5.003   3.602   6.430
 4683SOL     OW14947   5.800   4.516   2.754
 4683SOL    HW114948   5.838   4.465   2.831
 4683SOL    HW214949   5.850   4.492   2.670
 4684SOL     OW14950   4.335   6.084   6.789
 4684SOL    HW114951   4.315   6.020   6.864
 4684SOL    HW214952   4.250   6.123   6.755
 4685SOL     OW14953   1.789   3.677   6.248
 4685SOL    HW114954   1.737   3.594   6.227
 4685SOL    HW214955   1.736   3.757   6.221
 4686SOL     OW14956   3.546   6.078   0.425
 4686SOL    HW114957   3.464   6.072   0.483
 4686SOL    HW214958   3.596   6.161   0.447
 4687SOL     OW14959   3.447   1.643   3.300
 4687SOL    HW114960   3.538   1.684   3.301
 4687SOL    HW214961   3.453   1.548   3.269
 4688SOL     OW14962   5.758   2.789   5.888
 4688SOL    HW114963   5.673   2.785   5.836
 4688SOL    HW214964   5.807   2.702   5.879
 4689SOL     OW14965   5.729   0.071   1.491
 4689SOL    HW114966   5.649   0.066   1.551
 4689SOL    HW214967   5.729   0.159   1.443
 4690SOL     OW14968   1.705   1.102   1.334
 4690SOL    HW114969   1.643   1.048   1.278
 4690SOL    HW214970   1.790   1.052   1.347
 4691SOL     OW14971   4.719   4.141   0.709
 4691SOL    HW114972   4.695   4.073   0.779
 4691SOL    HW214973   4.636   4.188   0.680
 4692SOL     OW14974   6.507   4.354   2.662
 4692SOL    HW114975   6.503   4.438   2.716
 4692SOL    HW214976   6.530   4.376   2.567
 4693SOL     OW14977   1.666   1.197   4.203
 4693SOL    HW114978   1.730   1.190   4.279
 4693SOL    HW214979   1.609   1.279   4.215
 4694SOL     OW14980   1.866   1.944   0.610
 4694SOL    HW114981   1.879   1.867   0.548
 4694SOL    HW214982   1.952   1.963   0.658
 4695SOL     OW14983   1.654   5.447   0.714
 4695SOL    HW114984   1.666   5.347   0.714
 4695SOL    HW214985   1.601   5.474   0.794
 4696SOL     OW14986   0.797   5.020   5.878
 4696SOL    HW114987   0.813   4.980   5.968
 4696SOL    HW214988   0.717   5.080   5.881
 4697SOL     OW14989   1.276   3.812   2.040
 4697SOL    HW114990   1.188   3.788   2.082
 4697SOL    HW214991   1.269   3.900   1.995
 4698SOL     OW14992   4.459   0.428   3.089
 4698SOL    HW114993   4.399   0.422   3.168
 4698SOL    HW214994   4.514   0.345   3.082
 4699SOL     OW14995   0.405   0.289   1.908
 4699SOL    HW114996   0.357   0.353   1.969
 4699SOL    HW214997   0.502   0.314   1.903
 4700SOL     OW14998   6.642   1.973   2.502
 4700SOL    HW114999   6.619   1.896   2.443
 4700SOL    HW215000   6.558   2.011   2.542
 4701SOL     OW15001   3.355   2.003   2.305
 4701SOL    HW115002   3.278   2.058   2.338
 4701SOL    HW215003   3.368   2.020   2.208
 4702SOL     OW15004   4.701   4.772   0.061
 4702SOL    HW115005   4.698   4.730   6.997
 4702SOL    HW215006   4.771   4.844   0.062
 4703SOL     OW15007   1.294   5.637   2.456
 4703SOL    HW115008   1.220   5.686   2.502
 4703SOL    HW215009   1.313   5.680   2.368
 4704SOL     OW15010   0.323   6.594   5.711
 4704SOL    HW115011   0.392   6.576   5.782
 4704SOL    HW215012   0.304   6.510   5.661
 4705SOL     OW15013   3.170   2.886   0.959
 4705SOL    HW115014   3.252   2.937   0.985
 4705SOL    HW215015   3.152   2.816   1.028
 4706SOL     OW15016   1.258   6.977   1.110
 4706SOL    HW115017   1.225   0.021   1.173
 4706SOL    HW215018   1.357   6.968   1.120
 4707SOL     OW15019   1.519   6.338   1.233
 4707SOL    HW115020   1.611   6.358   1.201
 4707SOL    HW215021   1.478   6.267   1.175
 4708SOL     OW15022   1.461   1.724   4.911
 4708SOL    HW115023   1.414   1.742   4.825
 4708SOL    HW215024   1.432   1.789   4.980
 4709SOL     OW15025   4.936   5.378   5.041
 4709SOL    HW115026   5.026   5.351   5.076
 4709SOL    HW215027   4.930   5.356   4.944
 4710SOL     OW15028   6.091   6.721   4.075
 4710SOL    HW115029   6.076   6.626   4.103
 4710SOL    HW215030   6.005   6.772   4.084
 4711SOL     OW15031   6.443   3.022   3.383
 4711SOL    HW115032   6.512   3.004   3.313
 4711SOL    HW215033   6.432   3.121   3.395
 4712SOL     OW15034   4.585   4.219   6.097
 4712SOL    HW115035   4.632   4.258   6.018
 4712SOL    HW215036   4.507   4.276   6.122
 4713SOL     OW15037   5.187   5.443   1.056
 4713SOL    HW115038   5.236   5.500   1.122
 4713SOL    HW215039   5.123   5.500   1.004
 4714SOL     OW15040   6.763   1.928   6.742
 4714SOL    HW115041   6.694   1.970   6.801
 4714SOL    HW215042   6.720   1.865   6.678
 4715SOL     OW15043   6.484   1.822   1.520
 4715SOL    HW115044   6.464   1.753   1.452
 4715SOL    HW215045   6.409   1.828   1.586
 4716SOL     OW15046   4.366   5.560   5.426
 4716SOL    HW115047   4.319   5.595   5.346
 4716SOL    HW215048   4.440   5.499   5.397
 4717SOL     OW15049   2.123   5.764   5.967
 4717SOL    HW115050   2.122   5.711   5.883
 4717SOL    HW215051   2.215   5.761   6.007
 4718SOL     OW15052   5.248   2.798   1.043
 4718SOL    HW115053   5.287   2.730   0.980
 4718SOL    HW215054   5.191   2.751   1.110
 4719SOL     OW15055   5.777   3.599   3.407
 4719SOL    HW115056   5.695   3.591   3.351
 4719SOL    HW215057   5.855   3.558   3.359
 4720SOL     OW15058   3.158   4.773   6.714
 4720SOL    HW115059   3.166   4.862   6.671
 4720SOL    HW215060   3.238   4.755   6.771
 4721SOL     OW15061   6.186   3.118   1.448
 4721SOL    HW115062   6.104   3.108   1.390
 4721SOL    HW215063   6.241   3.035   1.441
 4722SOL     OW15064   0.882   4.949   0.222
 4722SOL    HW115065   0.862   4.939   0.319
 4722SOL    HW215066   0.814   4.899   0.168
 4723SOL     OW15067   3.383   4.237   5.475
 4723SOL    HW115068   3.383   4.156   5.416
 4723SOL    HW215069   3.348   4.213   5.565
 4724SOL     OW15070   6.935   6.371   4.053
 4724SOL    HW115071   0.001   6.358   4.016
 4724SOL    HW215072   6.932   6.454   4.107
 4725SOL     OW15073   5.726   4.831   0.420
 4725SOL    HW115074   5.794   4.814   0.349
 4725SOL    HW215075   5.767   4.885   0.493
 4726SOL     OW15076   1.973   2.700   5.720
 4726SOL    HW115077   2.058   2.742   5.688
 4726SOL    HW215078   1.986   2.661   5.810
 4727SOL     OW15079   0.987   5.699   0.218
 4727SOL    HW115080   1.045   5.764   0.169
 4727SOL    HW215081   1.003   5.606   0.185
 4728SOL     OW15082   6.180   1.445   2.717
 4728SOL    HW115083   6.229   1.361   2.738
 4728SOL    HW215084   6.180   1.460   2.618
 4729SOL     OW15085   4.836   0.269   6.890
 4729SOL    HW115086   4.914   0.332   6.890
 4729SOL    HW215087   4.861   0.185   6.938
 4730SOL     OW15088   3.781   6.866   4.912
 4730SOL    HW115089   3.849   6.824   4.851
 4730SOL    HW215090   3.820   6.948   4.953
 4731SOL     OW15091   2.996   0.564   0.822
 4731SOL    HW115092   3.039   0.639   0.773
 4731SOL    HW215093   2.990   0.484   0.762
 4732SOL     OW15094   1.036   3.329   5.154
 4732SOL    HW115095   1.098   3.354   5.229
 4732SOL    HW215096   0.944   3.313   5.190
 4733SOL     OW15097   1.916   4.277   3.109
 4733SOL    HW115098   1.905   4.321   3.020
 4733SOL    HW215099   2.013   4.269   3.130
 4734SOL     OW15100   5.151   3.414   6.644
 4734SOL    HW115101   5.087   3.382   6.714
 4734SOL    HW215102   5.241   3.373   6.660
 4735SOL     OW15103   6.994   6.229   3.620
 4735SOL    HW115104   0.022   6.215   3.702
 4735SOL    HW215105   0.006   6.176   3.544
 4736SOL     OW15106   6.044   2.289   4.045
 4736SOL    HW115107   6.085   2.212   4.093
 4736SOL    HW215108   5.965   2.323   4.098
 4737SOL     OW15109   2.241   4.407   0.766
 4737SOL    HW115110   2.319   4.370   0.717
 4737SOL    HW215111   2.173   4.335   0.780
 4738SOL     OW15112   3.466   6.750   3.670
 4738SOL    HW115113   3.397   6.750   3.598
 4738SOL    HW215114   3.433   6.695   3.747
 4739SOL     OW15115   6.418   2.511   4.307
 4739SOL    HW115116   6.426   2.414   4.285
 4739SOL    HW215117   6.435   2.525   4.405
 4740SOL     OW15118   0.521   0.716   1.294
 4740SOL    HW115119   0.613   0.739   1.326
 4740SOL    HW215120   0.476   0.799   1.261
 4741SOL     OW15121   4.568   4.736   1.243
 4741SOL    HW115122   4.582   4.720   1.145
 4741SOL    HW215123   4.604   4.658   1.295
 4742SOL     OW15124   2.618   5.334   1.520
 4742SOL    HW115125   2.581   5.245   1.546
 4742SOL    HW215126   2.561   5.407   1.557
 4743SOL     OW15127   2.535   1.195   5.867
 4743SOL    HW115128   2.596   1.177   5.944
 4743SOL    HW215129   2.552   1.287   5.832
 4744SOL     OW15130   2.239   2.451   5.301
 4744SOL    HW115131   2.301   2.529   5.310
 4744SOL    HW215132   2.194   2.453   5.212
 4745SOL     OW15133   3.054   4.957   5.962
 4745SOL    HW115134   3.005   4.895   6.023
 4745SOL    HW215135   3.152   4.934   5.962
 4746SOL     OW15136   5.759   5.704   0.675
 4746SOL    HW115137   5.729   5.616   0.640
 4746SOL    HW215138   5.685   5.770   0.669
 4747SOL     OW15139   0.246   2.914   6.808
 4747SOL    HW115140   0.269   2.883   6.716
 4747SOL    HW215141   0.147   2.930   6.815
 4748SOL     OW15142   1.064   0.469   1.913
 4748SOL    HW115143   1.091   0.562   1.940
 4748SOL    HW215144   1.127   0.435   1.843
 4749SOL     OW15145   2.802   6.655   6.783
 4749SOL    HW115146   2.804   6.753   6.805
 4749SOL    HW215147   2.738   6.639   6.708
 4750SOL     OW15148   6.851   1.728   4.353
 4750SOL    HW115149   6.934   1.769   4.316
 4750SOL    HW215150   6.771   1.778   4.320
 4751SOL     OW15151   2.097   3.724   7.001
 4751SOL    HW115152   2.192   3.736   6.974
 4751SOL    HW215153   2.091   3.720   0.075
 4752SOL     OW15154   2.639   5.972   1.030
 4752SOL    HW115155   2.575   6.041   0.996
 4752SOL    HW215156   2.717   5.966   0.969
 4753SOL     OW15157   5.742   0.231   4.802
 4753SOL    HW115158   5.838   0.213   4.823
 4753SOL    HW215159   5.709   0.162   4.737
 4754SOL     OW15160   6.332   1.060   6.150
 4754SOL    HW115161   6.414   1.032   6.100
 4754SOL    HW215162   6.252   1.022   6.106
 4755SOL     OW15163   2.628   0.529   6.064
 4755SOL    HW115164   2.626   0.500   5.968
 4755SOL    HW215165   2.691   0.471   6.116
 4756SOL     OW15166   5.730   2.327   2.074
 4756SOL    HW115167   5.722   2.356   1.978
 4756SOL    HW215168   5.724   2.228   2.079
 4757SOL     OW15169   2.289   2.259   2.286
 4757SOL    HW115170   2.336   2.207   2.215
 4757SOL    HW215171   2.280   2.355   2.258
 4758SOL     OW15172   4.056   6.099   5.253
 4758SOL    HW115173   4.139   6.123   5.202
 4758SOL    HW215174   3.983   6.075   5.189
 4759SOL     OW15175   5.170   5.598   5.000
 4759SOL    HW115176   5.121   5.650   5.070
 4759SOL    HW215177   5.167   5.500   5.023
 4760SOL     OW15178   2.497   1.661   1.278
 4760SOL    HW115179   2.460   1.603   1.351
 4760SOL    HW215180   2.575   1.713   1.312
 4761SOL     OW15181   6.488   0.382   6.186
 4761SOL    HW115182   6.518   0.441   6.261
 4761SOL    HW215183   6.554   0.386   6.111
 4762SOL     OW15184   2.095   4.496   2.562
 4762SOL    HW115185   2.069   4.430   2.491
 4762SOL    HW215186   2.184   4.536   2.539
 4763SOL     OW15187   6.091   5.736   3.180
 4763SOL    HW115188   6.172   5.794   3.183
 4763SOL    HW215189   6.118   5.642   3.159
 4764SOL     OW15190   4.577   4.021   5.473
 4764SOL    HW115191   4.583   3.934   5.522
 4764SOL    HW215192   4.669   4.052   5.449
 4765SOL     OW15193   4.669   6.874   4.683
 4765SOL    HW115194   4.719   6.808   4.739
 4765SOL    HW215195   4.655   6.958   4.736
 4766SOL     OW15196   3.257   0.782   3.495
 4766SOL    HW115197   3.183   0.741   3.441
 4766SOL    HW215198   3.256   0.742   3.587
 4767SOL     OW15199   4.149   6.489   1.132
 4767SOL    HW115200   4.244   6.475   1.159
 4767SOL    HW215201   4.144   6.505   1.033
 4768SOL     OW15202   5.306   1.778   4.950
 4768SOL    HW115203   5.246   1.826   5.014
 4768SOL    HW215204   5.385   1.742   5.000
 4769SOL     OW15205   4.070   5.543   1.214
 4769SOL    HW115206   4.115   5.482   1.279
 4769SOL    HW215207   4.021   5.488   1.146
 4770SOL     OW15208   2.113   0.099   3.011
 4770SOL    HW115209   2.181   0.172   2.997
 4770SOL    HW215210   2.024   0.140   3.028
 4771SOL     OW15211   3.466   4.608   5.573
 4771SOL    HW115212   3.499   4.548   5.646
 4771SOL    HW215213   3.529   4.685   5.561
 4772SOL     OW15214   2.658   6.692   1.118
 4772SOL    HW115215   2.677   6.622   1.049
 4772SOL    HW215216   2.586   6.752   1.085
 4773SOL     OW15217   0.314   5.584   4.311
 4773SOL    HW115218   0.350   5.677   4.301
 4773SOL    HW215219   0.380   5.518   4.273
 4774SOL     OW15220   0.859   3.153   2.268
 4774SOL    HW115221   0.944   3.113   2.304
 4774SOL    HW215222   0.808   3.196   2.343
 4775SOL     OW15223   5.635   0.452   3.111
 4775SOL    HW115224   5.635   0.353   3.103
 4775SOL    HW215225   5.664   0.492   3.024
 4776SOL     OW15226   2.586   6.494   2.921
 4776SOL    HW115227   2.624   6.483   2.829
 4776SOL    HW215228   2.533   6.578   2.926
 4777SOL     OW15229   2.399   4.266   1.316
 4777SOL    HW115230   2.339   4.346   1.307
 4777SOL    HW215231   2.487   4.296   1.354
 4778SOL     OW15232   5.372   2.441   1.948
 4778SOL    HW115233   5.315   2.384   1.890
 4778SOL    HW215234   5.466   2.441   1.915
 4779SOL     OW15235   6.380   0.187   2.550
 4779SOL    HW115236   6.470   0.145   2.561
 4779SOL    HW215237   6.353   0.185   2.454
 4780SOL     OW15238   0.330   0.669   6.114
 4780SOL    HW115239   0.295   0.575   6.107
 4780SOL    HW215240   0.420   0.673   6.070
 4781SOL     OW15241   2.609   5.750   1.460
 4781SOL    HW115242   2.617   5.845   1.490
 4781SOL    HW215243   2.605   5.746   1.360
 4782SOL     OW15244   4.659   6.915   6.944
 4782SOL    HW115245   4.568   6.914   6.902
 4782SOL    HW215246   4.664   6.986   7.014
 4783SOL     OW15247   4.464   4.590   0.451
 4783SOL    HW115248   4.538   4.617   0.390
 4783SOL    HW215249   4.500   4.525   0.519
 4784SOL     OW15250   6.174   5.400   5.958
 4784SOL    HW115251   6.083   5.370   5.989
 4784SOL    HW215252   6.244   5.352   6.010
 4785SOL     OW15253   6.592   6.172   0.916
 4785SOL    HW115254   6.662   6.194   0.984
 4785SOL    HW215255   6.629   6.108   0.849
 4786SOL     OW15256   1.633   2.340   2.432
 4786SOL    HW115257   1.706   2.276   2.406
 4786SOL    HW215258   1.606   2.322   2.527
 4787SOL     OW15259   3.629   2.101   3.696
 4787SOL    HW115260   3.694   2.025   3.702
 4787SOL    HW215261   3.538   2.070   3.724
 4788SOL     OW15262   1.504   5.502   5.877
 4788SOL    HW115263   1.425   5.447   5.847
 4788SOL    HW215264   1.499   5.593   5.835
 4789SOL     OW15265   5.055   0.704   0.008
 4789SOL    HW115266   5.039   0.624   6.977
 4789SOL    HW215267   5.013   0.784   6.991
 4790SOL     OW15268   5.857   3.356   7.019
 4790SOL    HW115269   5.937   3.300   7.000
 4790SOL    HW215270   5.802   3.365   6.936
 4791SOL     OW15271   5.897   1.331   1.961
 4791SOL    HW115272   5.852   1.335   1.872
 4791SOL    HW215273   5.950   1.246   1.968
 4792SOL     OW15274   1.974   2.561   2.544
 4792SOL    HW115275   2.044   2.490   2.558
 4792SOL    HW215276   1.923   2.542   2.460
 4793SOL     OW15277   1.347   1.357   5.848
 4793SOL    HW115278   1.346   1.366   5.947
 4793SOL    HW215279   1.410   1.284   5.822
 4794SOL     OW15280   3.649   0.449   2.824
 4794SOL    HW115281   3.573   0.385   2.827
 4794SOL    HW215282   3.729   0.408   2.867
 4795SOL     OW15283   6.669   2.625   3.993
 4795SOL    HW115284   6.762   2.663   3.988
 4795SOL    HW215285   6.671   2.529   3.966
 4796SOL     OW15286   5.348   2.120   0.044
 4796SOL    HW115287   5.361   2.181   6.993
 4796SOL    HW215288   5.264   2.144   0.093
 4797SOL     OW15289   1.813   6.174   5.219
 4797SOL    HW115290   1.905   6.200   5.248
 4797SOL    HW215291   1.805   6.074   5.219
 4798SOL     OW15292   0.421   4.107   5.369
 4798SOL    HW115293   0.414   4.110   5.269
 4798SOL    HW215294   0.370   4.028   5.403
 4799SOL     OW15295   5.131   1.551   5.546
 4799SOL    HW115296   5.059   1.493   5.584
 4799SOL    HW215297   5.190   1.583   5.620
 4800SOL     OW15298   3.425   3.382   5.707
 4800SOL    HW115299   3.405   3.479   5.696
 4800SOL    HW215300   3.514   3.370   5.749
 4801SOL     OW15301   2.619   2.192   0.359
 4801SOL    HW115302   2.560   2.272   0.350
 4801SOL    HW215303   2.713   2.217   0.335
 4802SOL     OW15304   1.058   6.250   2.220
 4802SOL    HW115305   0.978   6.238   2.280
 4802SOL    HW215306   1.027   6.260   2.126
 4803SOL     OW15307   0.919   6.541   0.992
 4803SOL    HW115308   0.822   6.532   1.015
 4803SOL    HW215309   0.958   6.451   0.972
 4804SOL     OW15310   4.127   5.159   6.576
 4804SOL    HW115311   4.045   5.117   6.539
 4804SOL    HW215312   4.190   5.088   6.608
 4805SOL     OW15313   6.665   7.012   0.466
 4805SOL    HW115314   6.572   7.005   0.502
 4805SOL    HW215315   6.682   6.936   0.403
 4806SOL     OW15316   6.719   3.761   3.934
 4806SOL    HW115317   6.815   3.734   3.942
 4806SOL    HW215318   6.687   3.741   3.841
 4807SOL     OW15319   1.130   5.618   1.096
 4807SOL    HW115320   1.165   5.589   1.007
 4807SOL    HW215321   1.195   5.682   1.138
 4808SOL     OW15322   5.884   3.683   0.796
 4808SOL    HW115323   5.975   3.671   0.756
 4808SOL    HW215324   5.829   3.601   0.779
 4809SOL     OW15325   3.544   4.090   6.879
 4809SOL    HW115326   3.541   4.150   6.799
 4809SOL    HW215327   3.585   4.139   6.956
 4810SOL     OW15328   1.499   4.895   1.186
 4810SOL    HW115329   1.589   4.850   1.184
 4810SOL    HW215330   1.427   4.825   1.181
 4811SOL     OW15331   2.571   4.849   2.371
 4811SOL    HW115332   2.523   4.891   2.294
 4811SOL    HW215333   2.605   4.920   2.432
 4812SOL     OW15334   6.591   4.759   5.433
 4812SOL    HW115335   6.595   4.743   5.335
 4812SOL    HW215336   6.626   4.679   5.482
 4813SOL     OW15337   4.502   1.216   2.424
 4813SOL    HW115338   4.432   1.146   2.408
 4813SOL    HW215339   4.589   1.186   2.384
 4814SOL     OW15340   6.006   4.862   0.176
 4814SOL    HW115341   5.944   4.903   0.109
 4814SOL    HW215342   6.095   4.846   0.134
 4815SOL     OW15343   5.082   5.387   2.477
 4815SOL    HW115344   4.985   5.368   2.461
 4815SOL    HW215345   5.136   5.350   2.402
 4816SOL     OW15346   5.568   5.410   3.534
 4816SOL    HW115347   5.567   5.414   3.434
 4816SOL    HW215348   5.481   5.444   3.570
 4817SOL     OW15349   0.646   2.121   6.481
 4817SOL    HW115350   0.609   2.033   6.451
 4817SOL    HW215351   0.654   2.122   6.580
 4818SOL     OW15352   0.962   0.071   3.938
 4818SOL    HW115353   0.864   0.082   3.955
 4818SOL    HW215354   0.979   0.062   3.840
 4819SOL     OW15355   1.422   3.076   0.148
 4819SOL    HW115356   1.334   3.080   0.196
 4819SOL    HW215357   1.409   3.109   0.054
 4820SOL     OW15358   6.940   2.969   2.058
 4820SOL    HW115359   6.940   3.007   1.965
 4820SOL    HW215360   6.854   2.921   2.075
 4821SOL     OW15361   0.632   5.881   2.026
 4821SOL    HW115362   0.542   5.903   1.988
 4821SOL    HW215363   0.696   5.864   1.951
 4822SOL     OW15364   1.573   4.027   4.172
 4822SOL    HW115365   1.537   3.934   4.162
 4822SOL    HW215366   1.671   4.027   4.149
 4823SOL     OW15367   1.196   1.917   2.569
 4823SOL    HW115368   1.154   1.951   2.653
 4823SOL    HW215369   1.295   1.935   2.572
 4824SOL     OW15370   4.990   1.851   5.458
 4824SOL    HW115371   4.929   1.907   5.402
 4824SOL    HW215372   5.008   1.764   5.412
 4825SOL     OW15373   1.049   1.080   4.362
 4825SOL    HW115374   1.056   1.042   4.454
 4825SOL    HW215375   0.954   1.108   4.345
 4826SOL     OW15376   5.032   0.546   0.886
 4826SOL    HW115377   4.981   0.620   0.841
 4826SOL    HW215378   4.968   0.477   0.919
 4827SOL     OW15379   6.563   1.497   0.283
 4827SOL    HW115380   6.592   1.453   0.368
 4827SOL    HW215381   6.495   1.567   0.304
 4828SOL     OW15382   4.288   0.047   1.804
 4828SOL    HW115383   4.368   0.062   1.746
 4828SOL    HW215384   4.205   0.075   1.755
 4829SOL     OW15385   3.716   6.908   6.443
 4829SOL    HW115386   3.702   6.901   6.344
 4829SOL    HW215387   3.751   6.821   6.478
 4830SOL     OW15388   3.869   5.625   3.624
 4830SOL    HW115389   3.870   5.655   3.719
 4830SOL    HW215390   3.808   5.547   3.614
 4831SOL     OW15391   3.038   5.731   5.944
 4831SOL    HW115392   2.986   5.668   6.003
 4831SOL    HW215393   3.106   5.780   5.999
 4832SOL     OW15394   3.515   3.550   4.376
 4832SOL    HW115395   3.476   3.585   4.461
 4832SOL    HW215396   3.448   3.494   4.328
 4833SOL     OW15397   5.680   2.014   3.757
 4833SOL    HW115398   5.766   2.031   3.804
 4833SOL    HW215399   5.651   1.919   3.771
 4834SOL     OW15400   2.556   5.625   2.865
 4834SOL    HW115401   2.542   5.551   2.800
 4834SOL    HW215402   2.638   5.606   2.919
 4835SOL     OW15403   6.277   4.000   5.896
 4835SOL    HW115404   6.302   3.921   5.839
 4835SOL    HW215405   6.184   4.029   5.873
 4836SOL     OW15406   4.553   1.444   5.511
 4836SOL    HW115407   4.598   1.357   5.532
 4836SOL    HW215408   4.613   1.519   5.539
 4837SOL     OW15409   6.726   3.045   3.521
 4837SOL    HW115410   6.700   2.948   3.529
 4837SOL    HW215411   6.655   3.102   3.563
 4838SOL     OW15412   1.285   5.202   6.040
 4838SOL    HW115413   1.381   5.202   6.069
 4838SOL    HW215414   1.270   5.128   5.974
 4839SOL     OW15415   1.507   2.669   6.751
 4839SOL    HW115416   1.414   2.704   6.758
 4839SOL    HW215417   1.539   2.674   6.656
 4840SOL     OW15418   5.392   4.019   5.350
 4840SOL    HW115419   5.478   4.010   5.300
 4840SOL    HW215420   5.324   3.957   5.311
 4841SOL     OW15421   3.158   5.346   3.420
 4841SOL    HW115422   3.248   5.305   3.408
 4841SOL    HW215423   3.088   5.275   3.413
 4842SOL     OW15424   2.332   5.182   3.707
 4842SOL    HW115425   2.327   5.206   3.610
 4842SOL    HW215426   2.373   5.091   3.717
 4843SOL     OW15427   0.159   3.003   2.136
 4843SOL    HW115428   0.063   2.977   2.142
 4843SOL    HW215429   0.186   3.052   2.218
 4844SOL     OW15430   1.114   4.410   5.286
 4844SOL    HW115431   1.019   4.380   5.300
 4844SOL    HW215432   1.175   4.347   5.334
 4845SOL     OW15433   4.509   4.708   5.121
 4845SOL    HW115434   4.605   4.682   5.131
 4845SOL    HW215435   4.461   4.639   5.066
 4846SOL     OW15436   0.621   2.253   3.916
 4846SOL    HW115437   0.600   2.337   3.866
 4846SOL    HW215438   0.707   2.264   3.965
 4847SOL     OW15439   2.713   0.027   5.574
 4847SOL    HW115440   2.660   7.007   5.646
 4847SOL    HW215441   2.693   7.011   5.486
 4848SOL     OW15442   1.938   1.196   3.851
 4848SOL    HW115443   1.931   1.140   3.768
 4848SOL    HW215444   2.022   1.174   3.900
 4849SOL     OW15445   1.639   0.306   0.456
 4849SOL    HW115446   1.630   0.357   0.542
 4849SOL    HW215447   1.599   0.359   0.382
 4850SOL     OW15448   4.565   0.552   1.260
 4850SOL    HW115449   4.476   0.526   1.224
 4850SOL    HW215450   4.628   0.571   1.184
 4851SOL     OW15451   3.523   5.549   0.418
 4851SOL    HW115452   3.607   5.545   0.365
 4851SOL    HW215453   3.448   5.580   0.359
 4852SOL     OW15454   3.499   5.901   4.986
 4852SOL    HW115455   3.491   5.951   5.072
 4852SOL    HW215456   3.570   5.944   4.929
 4853SOL     OW15457   3.335   0.675   2.836
 4853SOL    HW115458   3.280   0.758   2.831
 4853SOL    HW215459   3.413   0.683   2.774
 4854SOL     OW15460   5.458   6.678   1.912
 4854SOL    HW115461   5.548   6.682   1.957
 4854SOL    HW215462   5.408   6.598   1.943
 4855SOL     OW15463   0.212   3.916   4.872
 4855SOL    HW115464   0.256   3.846   4.815
 4855SOL    HW215465   0.175   3.874   4.955
 4856SOL     OW15466   0.324   3.524   2.834
 4856SOL    HW115467   0.328   3.452   2.902
 4856SOL    HW215468   0.333   3.484   2.742
 4857SOL     OW15469   3.187   2.163   4.133
 4857SOL    HW115470   3.242   2.161   4.217
 4857SOL    HW215471   3.090   2.163   4.157
 4858SOL     OW15472   0.414   0.247   4.977
 4858SOL    HW115473   0.325   0.217   4.943
 4858SOL    HW215474   0.421   0.225   5.075
 4859SOL     OW15475   0.870   5.697   2.280
 4859SOL    HW115476   0.771   5.697   2.266
 4859SOL    HW215477   0.900   5.788   2.311
 4860SOL     OW15478   4.434   5.421   0.339
 4860SOL    HW115479   4.462   5.498   0.280
 4860SOL    HW215480   4.513   5.387   0.390
 4861SOL     OW15481   6.413   4.694   5.642
 4861SOL    HW115482   6.411   4.724   5.738
 4861SOL    HW215483   6.491   4.736   5.596
 4862SOL     OW15484   2.562   4.786   5.071
 4862SOL    HW115485   2.630   4.725   5.031
 4862SOL    HW215486   2.474   4.773   5.025
 4863SOL     OW15487   4.908   3.171   2.953
 4863SOL    HW115488   4.973   3.176   2.877
 4863SOL    HW215489   4.898   3.261   2.995
 4864SOL     OW15490   3.301   1.762   2.008
 4864SOL    HW115491   3.236   1.794   1.940
 4864SOL    HW215492   3.368   1.835   2.027
 4865SOL     OW15493   3.302   5.238   5.772
 4865SOL    HW115494   3.274   5.143   5.759
 4865SOL    HW215495   3.234   5.285   5.827
 4866SOL     OW15496   6.318   4.794   1.819
 4866SOL    HW115497   6.240   4.739   1.849
 4866SOL    HW215498   6.337   4.865   1.887
 4867SOL     OW15499   5.145   5.194   3.095
 4867SOL    HW115500   5.101   5.278   3.062
 4867SOL    HW215501   5.120   5.117   3.036
 4868SOL     OW15502   0.820   5.815   1.247
 4868SOL    HW115503   0.848   5.771   1.161
 4868SOL    HW215504   0.752   5.757   1.292
 4869SOL     OW15505   0.093   1.881   0.289
 4869SOL    HW115506   0.124   1.971   0.258
 4869SOL    HW215507   0.144   1.854   0.370
 4870SOL     OW15508   4.077   6.169   2.220
 4870SOL    HW115509   4.063   6.078   2.182
 4870SOL    HW215510   4.140   6.221   2.162
 4871SOL     OW15511   1.354   1.762   3.252
 4871SOL    HW115512   1.310   1.673   3.264
 4871SOL    HW215513   1.449   1.756   3.282
 4872SOL     OW15514   0.768   0.235   2.833
 4872SOL    HW115515   0.712   0.286   2.898
 4872SOL    HW215516   0.740   0.259   2.740
 4873SOL     OW15517   0.386   5.278   4.622
 4873SOL    HW115518   0.292   5.313   4.625
 4873SOL    HW215519   0.384   5.179   4.639
 4874SOL     OW15520   4.884   3.700   3.031
 4874SOL    HW115521   4.882   3.696   2.931
 4874SOL    HW215522   4.872   3.794   3.062
 4875SOL     OW15523   5.926   1.210   1.233
 4875SOL    HW115524   5.837   1.195   1.277
 4875SOL    HW215525   5.989   1.253   1.297
 4876SOL     OW15526   5.730   0.716   6.251
 4876SOL    HW115527   5.715   0.770   6.334
 4876SOL    HW215528   5.727   0.619   6.274
 4877SOL     OW15529   6.283   2.120   0.727
 4877SOL    HW115530   6.246   2.204   0.688
 4877SOL    HW215531   6.248   2.041   0.675
 4878SOL     OW15532   0.445   1.445   1.899
 4878SOL    HW115533   0.391   1.505   1.958
 4878SOL    HW215534   0.492   1.377   1.954
 4879SOL     OW15535   4.340   4.609   3.452
 4879SOL    HW115536   4.357   4.649   3.362
 4879SOL    HW215537   4.427   4.593   3.499
 4880SOL     OW15538   5.747   0.809   0.173
 4880SOL    HW115539   5.766   0.804   0.271
 4880SOL    HW215540   5.770   0.899   0.138
 4881SOL     OW15541   2.817   6.113   6.224
 4881SOL    HW115542   2.835   6.114   6.125
 4881SOL    HW215543   2.894   6.155   6.272
 4882SOL     OW15544   6.244   1.651   5.288
 4882SOL    HW115545   6.200   1.725   5.238
 4882SOL    HW215546   6.188   1.568   5.281
 4883SOL     OW15547   6.227   4.192   2.209
 4883SOL    HW115548   6.268   4.134   2.138
 4883SOL    HW215549   6.138   4.225   2.178
 4884SOL     OW15550   4.018   6.633   1.690
 4884SOL    HW115551   4.116   6.640   1.669
 4884SOL    HW215552   3.990   6.712   1.744
 4885SOL     OW15553   2.108   6.610   1.094
 4885SOL    HW115554   2.201   6.642   1.077
 4885SOL    HW215555   2.111   6.520   1.138
 4886SOL     OW15556   6.489   6.970   6.968
 4886SOL    HW115557   6.587   6.966   6.949
 4886SOL    HW215558   6.465   0.035   7.001
 4887SOL     OW15559   6.672   2.225   3.607
 4887SOL    HW115560   6.682   2.136   3.563
 4887SOL    HW215561   6.650   2.213   3.704
 4888SOL     OW15562   1.674   6.270   3.159
 4888SOL    HW115563   1.771   6.288   3.177
 4888SOL    HW215564   1.627   6.252   3.245
 4889SOL     OW15565   1.319   2.210   0.068
 4889SOL    HW115566   1.409   2.193   0.108
 4889SOL    HW215567   1.250   2.202   0.139
 4890SOL     OW15568   0.534   1.072   4.128
 4890SOL    HW115569   0.548   1.170   4.136
 4890SOL    HW215570   0.615   1.029   4.088
 4891SOL     OW15571   0.984   4.914   0.555
 4891SOL    HW115572   1.059   4.981   0.560
 4891SOL    HW215573   0.896   4.962   0.560
 4892SOL     OW15574   1.609   6.037   1.649
 4892SOL    HW115575   1.542   6.111   1.646
 4892SOL    HW215576   1.608   5.988   1.562
 4893SOL     OW15577   6.530   4.196   6.541
 4893SOL    HW115578   6.557   4.100   6.549
 4893SOL    HW215579   6.452   4.205   6.479
 4894SOL     OW15580   1.580   0.327   3.415
 4894SOL    HW115581   1.537   0.411   3.383
 4894SOL    HW215582   1.598   0.267   3.337
 4895SOL     OW15583   1.169   3.566   0.726
 4895SOL    HW115584   1.223   3.533   0.649
 4895SOL    HW215585   1.188   3.662   0.743
 4896SOL     OW15586   3.456   5.132   4.282
 4896SOL    HW115587   3.518   5.056   4.267
 4896SOL    HW215588   3.455   5.155   4.380
 4897SOL     OW15589   3.577   5.571   6.842
 4897SOL    HW115590   3.569   5.564   6.942
 4897SOL    HW215591   3.487   5.559   6.800
 4898SOL     OW15592   5.721   2.248   5.349
 4898SOL    HW115593   5.814   2.226   5.316
 4898SOL    HW215594   5.724   2.269   5.446
 4899SOL     OW15595   6.294   4.761   3.216
 4899SOL    HW115596   6.237   4.839   3.239
 4899SOL    HW215597   6.300   4.700   3.295
 4900SOL     OW15598   0.467   6.790   5.384
 4900SOL    HW115599   0.527   6.734   5.440
 4900SOL    HW215600   0.495   6.886   5.390
 4901SOL     OW15601   1.308   0.232   4.156
 4901SOL    HW115602   1.369   0.183   4.219
 4901SOL    HW215603   1.286   0.322   4.194
 4902SOL     OW15604   2.209   4.460   1.752
 4902SOL    HW115605   2.133   4.495   1.806
 4902SOL    HW215606   2.179   4.378   1.702
 4903SOL     OW15607   3.819   6.615   6.676
 4903SOL    HW115608   3.890   6.594   6.609
 4903SOL    HW215609   3.858   6.668   6.751
 4904SOL     OW15610   1.682   5.662   4.662
 4904SOL    HW115611   1.606   5.598   4.676
 4904SOL    HW215612   1.688   5.724   4.740
 4905SOL     OW15613   4.959   2.627   2.467
 4905SOL    HW115614   5.059   2.626   2.472
 4905SOL    HW215615   4.928   2.718   2.441
 4906SOL     OW15616   4.638   0.048   0.395
 4906SOL    HW115617   4.597   7.000   0.448
 4906SOL    HW215618   4.664   0.122   0.456
 4907SOL     OW15619   4.140   6.827   3.902
 4907SOL    HW115620   4.160   6.733   3.927
 4907SOL    HW215621   4.226   6.878   3.891
 4908SOL     OW15622   3.823   5.631   6.715
 4908SOL    HW115623   3.860   5.687   6.790
 4908SOL    HW215624   3.732   5.599   6.740
 4909SOL     OW15625   6.170   6.838   5.234
 4909SOL    HW115626   6.219   6.767   5.183
 4909SOL    HW215627   6.120   6.797   5.309
 4910SOL     OW15628   5.434   0.762   5.457
 4910SOL    HW115629   5.519   0.814   5.472
 4910SOL    HW215630   5.384   0.754   5.544
 4911SOL     OW15631   0.246   2.237   5.978
 4911SOL    HW115632   0.250   2.300   6.056
 4911SOL    HW215633   0.225   2.288   5.895
 4912SOL     OW15634   3.907   1.636   2.578
 4912SOL    HW115635   3.876   1.731   2.567
 4912SOL    HW215636   3.908   1.591   2.489
 4913SOL     OW15637   3.427   4.179   3.528
 4913SOL    HW115638   3.338   4.133   3.519
 4913SOL    HW215639   3.437   4.215   3.621
 4914SOL     OW15640   2.793   0.414   4.083
 4914SOL    HW115641   2.879   0.430   4.133
 4914SOL    HW215642   2.721   0.391   4.147
 4915SOL     OW15643   4.411   6.473   4.509
 4915SOL    HW115644   4.442   6.546   4.570
 4915SOL    HW215645   4.339   6.509   4.449
 4916SOL     OW15646   3.005   2.098   3.301
 4916SOL    HW115647   2.923   2.143   3.266
 4916SOL    HW215648   3.080   2.110   3.237
 4917SOL     OW15649   1.743   4.050   0.717
 4917SOL    HW115650   1.821   4.030   0.777
 4917SOL    HW215651   1.717   3.967   0.667
 4918SOL     OW15652   2.738   0.502   2.419
 4918SOL    HW115653   2.757   0.550   2.334
 4918SOL    HW215654   2.707   0.567   2.488
 4919SOL     OW15655   1.738   1.659   2.778
 4919SOL    HW115656   1.728   1.631   2.873
 4919SOL    HW215657   1.651   1.693   2.744
 4920SOL     OW15658   4.624   0.716   0.272
 4920SOL    HW115659   4.706   0.666   0.242
 4920SOL    HW215660   4.562   0.727   0.194
 4921SOL     OW15661   2.387   4.133   1.685
 4921SOL    HW115662   2.363   4.075   1.764
 4921SOL    HW215663   2.303   4.157   1.635
 4922SOL     OW15664   1.720   3.144   5.440
 4922SOL    HW115665   1.790   3.118   5.374
 4922SOL    HW215666   1.762   3.201   5.511
 4923SOL     OW15667   5.288   0.289   2.114
 4923SOL    HW115668   5.299   0.290   2.015
 4923SOL    HW215669   5.311   0.378   2.152
 4924SOL     OW15670   1.518   3.769   4.182
 4924SOL    HW115671   1.583   3.732   4.115
 4924SOL    HW215672   1.564   3.776   4.271
 4925SOL     OW15673   4.601   6.744   0.961
 4925SOL    HW115674   4.541   6.746   1.041
 4925SOL    HW215675   4.672   6.813   0.971
 4926SOL     OW15676   5.719   2.403   1.804
 4926SOL    HW115677   5.744   2.499   1.815
 4926SOL    HW215678   5.747   2.371   1.714
 4927SOL     OW15679   3.692   3.062   2.502
 4927SOL    HW115680   3.781   3.039   2.463
 4927SOL    HW215681   3.620   3.019   2.448
 4928SOL     OW15682   0.743   6.800   6.537
 4928SOL    HW115683   0.716   6.885   6.492
 4928SOL    HW215684   0.674   6.773   6.604
 4929SOL     OW15685   1.340   4.328   5.057
 4929SOL    HW115686   1.264   4.350   5.118
 4929SOL    HW215687   1.339   4.390   4.978
 4930SOL     OW15688   1.093   1.695   0.433
 4930SOL    HW115689   1.047   1.784   0.424
 4930SOL    HW215690   1.032   1.623   0.401
 4931SOL     OW15691   0.694   0.084   6.747
 4931SOL    HW115692   0.733   0.062   6.837
 4931SOL    HW215693   0.597   0.105   6.758
 4932SOL     OW15694   2.799   2.813   1.622
 4932SOL    HW115695   2.855   2.770   1.550
 4932SOL    HW215696   2.779   2.745   1.692
 4933SOL     OW15697   2.444   1.347   4.436
 4933SOL    HW115698   2.370   1.318   4.376
 4933SOL    HW215699   2.454   1.447   4.432
 4934SOL     OW15700   0.635   5.131   4.015
 4934SOL    HW115701   0.678   5.059   4.069
 4934SOL    HW215702   0.629   5.103   3.919
 4935SOL     OW15703   2.168   1.140   6.729
 4935SOL    HW115704   2.196   1.129   6.824
 4935SOL    HW215705   2.164   1.237   6.706
 4936SOL     OW15706   2.853   5.632   1.492
 4936SOL    HW115707   2.899   5.720   1.483
 4936SOL    HW215708   2.755   5.644   1.478
 4937SOL     OW15709   0.475   3.952   6.005
 4937SOL    HW115710   0.402   3.893   5.972
 4937SOL    HW215711   0.495   4.023   5.937
 4938SOL     OW15712   3.208   4.312   1.121
 4938SOL    HW115713   3.247   4.303   1.213
 4938SOL    HW215714   3.117   4.351   1.127
 4939SOL     OW15715   1.894   1.648   1.728
 4939SOL    HW115716   1.944   1.624   1.645
 4939SOL    HW215717   1.800   1.615   1.720
 4940SOL     OW15718   6.792   2.750   4.738
 4940SOL    HW115719   6.808   2.731   4.642
 4940SOL    HW215720   6.836   2.680   4.794
 4941SOL     OW15721   4.018   2.556   5.358
 4941SOL    HW115722   4.024   2.478   5.420
 4941SOL    HW215723   4.080   2.542   5.280
 4942SOL     OW15724   5.685   3.188   3.664
 4942SOL    HW115725   5.712   3.273   3.620
 4942SOL    HW215726   5.652   3.206   3.756
 4943SOL     OW15727   5.770   3.400   6.769
 4943SOL    HW115728   5.718   3.485   6.761
 4943SOL    HW215729   5.769   3.352   6.681
 4944SOL     OW15730   1.365   4.772   0.744
 4944SOL    HW115731   1.387   4.751   0.649
 4944SOL    HW215732   1.436   4.735   0.804
 4945SOL     OW15733   1.835   1.241   5.132
 4945SOL    HW115734   1.918   1.215   5.084
 4945SOL    HW215735   1.833   1.341   5.143
 4946SOL     OW15736   1.225   4.410   6.879
 4946SOL    HW115737   1.151   4.476   6.891
 4946SOL    HW215738   1.306   4.457   6.843
 4947SOL     OW15739   2.306   0.813   2.127
 4947SOL    HW115740   2.390   0.786   2.080
 4947SOL    HW215741   2.266   0.732   2.171
 4948SOL     OW15742   2.104   2.122   1.888
 4948SOL    HW115743   2.043   2.056   1.844
 4948SOL    HW215744   2.161   2.165   1.818
 4949SOL     OW15745   6.672   3.516   5.817
 4949SOL    HW115746   6.573   3.520   5.825
 4949SOL    HW215747   6.705   3.598   5.768
 4950SOL     OW15748   2.546   4.376   5.596
 4950SOL    HW115749   2.581   4.304   5.536
 4950SOL    HW215750   2.452   4.398   5.570
 4951SOL     OW15751   6.149   6.455   3.713
 4951SOL    HW115752   6.199   6.524   3.764
 4951SOL    HW215753   6.106   6.390   3.777
 4952SOL     OW15754   6.760   0.391   6.431
 4952SOL    HW115755   6.805   0.451   6.364
 4952SOL    HW215756   6.669   0.368   6.398
 4953SOL     OW15757   1.029   1.699   4.652
 4953SOL    HW115758   0.986   1.743   4.731
 4953SOL    HW215759   0.958   1.662   4.592
 4954SOL     OW15760   2.564   4.200   5.942
 4954SOL    HW115761   2.465   4.200   5.960
 4954SOL    HW215762   2.580   4.173   5.847
 4955SOL     OW15763   3.056   5.330   0.165
 4955SOL    HW115764   3.028   5.243   0.206
 4955SOL    HW215765   3.091   5.313   0.073
 4956SOL     OW15766   2.778   0.594   5.389
 4956SOL    HW115767   2.829   0.597   5.475
 4956SOL    HW215768   2.680   0.595   5.409
 4957SOL     OW15769   6.275   4.319   6.837
 4957SOL    HW115770   6.234   4.409   6.848
 4957SOL    HW215771   6.205   4.254   6.807
 4958SOL     OW15772   2.309   0.019   5.940
 4958SOL    HW115773   2.285   0.113   5.966
 4958SOL    HW215774   2.339   0.017   5.845
 4959SOL     OW15775   6.923   2.369   1.509
 4959SOL    HW115776   7.005   2.419   1.537
 4959SOL    HW215777   6.857   2.370   1.584
 4960SOL     OW15778   4.314   5.216   3.636
 4960SOL    HW115779   4.328   5.311   3.608
 4960SOL    HW215780   4.281   5.214   3.731
 4961SOL     OW15781   3.013   1.147   6.722
 4961SOL    HW115782   2.987   1.188   6.810
 4961SOL    HW215783   3.022   1.048   6.734
 4962SOL     OW15784   6.653   3.383   0.918
 4962SOL    HW115785   6.668   3.389   0.820
 4962SOL    HW215786   6.719   3.319   0.958
 4963SOL     OW15787   0.800   4.900   0.837
 4963SOL    HW115788   0.778   4.938   0.747
 4963SOL    HW215789   0.719   4.856   0.875
 4964SOL     OW15790   2.783   6.675   4.865
 4964SOL    HW115791   2.841   6.702   4.789
 4964SOL    HW215792   2.745   6.584   4.848
 4965SOL     OW15793   1.483   6.941   2.978
 4965SOL    HW115794   1.434   6.936   3.065
 4965SOL    HW215795   1.576   6.905   2.991
 4966SOL     OW15796   3.026   6.129   4.323
 4966SOL    HW115797   3.093   6.121   4.396
 4966SOL    HW215798   2.981   6.040   4.309
 4967SOL     OW15799   4.056   4.769   5.258
 4967SOL    HW115800   3.996   4.847   5.240
 4967SOL    HW215801   4.004   4.684   5.252
 4968SOL     OW15802   0.443   0.890   4.302
 4968SOL    HW115803   0.498   0.958   4.253
 4968SOL    HW215804   0.489   0.801   4.296
 4969SOL     OW15805   0.423   6.693   2.251
 4969SOL    HW115806   0.421   6.601   2.293
 4969SOL    HW215807   0.402   6.685   2.154
 4970SOL     OW15808   1.554   0.613   1.748
 4970SOL    HW115809   1.632   0.664   1.713
 4970SOL    HW215810   1.489   0.676   1.791
 4971SOL     OW15811   6.470   6.029   2.810
 4971SOL    HW115812   6.371   6.037   2.818
 4971SOL    HW215813   6.512   6.120   2.813
 4972SOL     OW15814   1.125   4.180   1.391
 4972SOL    HW115815   1.131   4.174   1.291
 4972SOL    HW215816   1.153   4.092   1.430
 4973SOL     OW15817   0.177   0.354   1.207
 4973SOL    HW115818   0.142   0.350   1.301
 4973SOL    HW215819   0.110   0.396   1.147
 4974SOL     OW15820   4.336   3.741   6.334
 4974SOL    HW115821   4.417   3.723   6.277
 4974SOL    HW215822   4.351   3.704   6.425
 4975SOL     OW15823   5.526   4.110   0.776
 4975SOL    HW115824   5.528   4.144   0.870
 4975SOL    HW215825   5.618   4.081   0.749
 4976SOL     OW15826   0.524   0.487   4.706
 4976SOL    HW115827   0.455   0.496   4.634
 4976SOL    HW215828   0.492   0.535   4.788
 4977SOL     OW15829   3.340   3.950   6.698
 4977SOL    HW115830   3.418   3.986   6.749
 4977SOL    HW215831   3.277   4.025   6.676
 4978SOL     OW15832   4.984   4.297   5.311
 4978SOL    HW115833   4.950   4.387   5.340
 4978SOL    HW215834   5.062   4.271   5.369
 4979SOL     OW15835   1.167   6.557   6.685
 4979SOL    HW115836   1.196   6.524   6.775
 4979SOL    HW215837   1.247   6.566   6.626
 4980SOL     OW15838   0.125   4.504   2.684
 4980SOL    HW115839   0.074   4.496   2.769
 4980SOL    HW215840   0.077   4.456   2.611
 4981SOL     OW15841   3.367   4.916   1.995
 4981SOL    HW115842   3.324   4.964   2.072
 4981SOL    HW215843   3.458   4.884   2.022
 4982SOL     OW15844   4.354   1.787   6.482
 4982SOL    HW115845   4.428   1.851   6.464
 4982SOL    HW215846   4.359   1.756   6.577
 4983SOL     OW15847   6.189   5.241   4.095
 4983SOL    HW115848   6.127   5.168   4.068
 4983SOL    HW215849   6.196   5.308   4.021
 4984SOL     OW15850   4.687   4.193   3.005
 4984SOL    HW115851   4.648   4.280   2.975
 4984SOL    HW215852   4.755   4.163   2.938
 4985SOL     OW15853   5.356   5.991   2.599
 4985SOL    HW115854   5.380   6.083   2.568
 4985SOL    HW215855   5.438   5.945   2.634
 4986SOL     OW15856   6.851   4.302   1.731
 4986SOL    HW115857   6.893   4.386   1.696
 4986SOL    HW215858   6.915   4.256   1.793
 4987SOL     OW15859   0.669   6.613   2.634
 4987SOL    HW115860   0.604   6.669   2.687
 4987SOL    HW215861   0.753   6.601   2.687
 4988SOL     OW15862   5.904   0.701   3.942
 4988SOL    HW115863   5.854   0.619   3.912
 4988SOL    HW215864   5.999   0.695   3.912
 4989SOL     OW15865   4.893   0.548   1.250
 4989SOL    HW115866   4.892   0.571   1.347
 4989SOL    HW215867   4.859   0.626   1.197
 4990SOL     OW15868   3.894   1.796   7.006
 4990SOL    HW115869   3.862   1.715   6.956
 4990SOL    HW215870   3.854   1.797   0.071
 4991SOL     OW15871   0.252   5.932   4.069
 4991SOL    HW115872   0.190   5.938   3.991
 4991SOL    HW215873   0.202   5.950   4.153
 4992SOL     OW15874   6.800   0.946   3.225
 4992SOL    HW115875   6.820   0.909   3.316
 4992SOL    HW215876   6.854   1.029   3.210
 4993SOL     OW15877   4.640   0.041   4.878
 4993SOL    HW115878   4.669   7.020   4.961
 4993SOL    HW215879   4.696   0.124   4.866
 4994SOL     OW15880   2.253   5.220   5.034
 4994SOL    HW115881   2.226   5.146   5.096
 4994SOL    HW215882   2.184   5.229   4.962
 4995SOL     OW15883   0.691   0.617   4.521
 4995SOL    HW115884   0.605   0.571   4.541
 4995SOL    HW215885   0.680   0.715   4.532
 4996SOL     OW15886   0.170   1.442   4.158
 4996SOL    HW115887   0.256   1.487   4.182
 4996SOL    HW215888   0.187   1.373   4.088
 4997SOL     OW15889   3.696   2.407   1.493
 4997SOL    HW115890   3.764   2.479   1.511
 4997SOL    HW215891   3.718   2.326   1.547
 4998SOL     OW15892   1.835   3.476   3.308
 4998SOL    HW115893   1.846   3.378   3.289
 4998SOL    HW215894   1.744   3.506   3.279
 4999SOL     OW15895   0.696   3.344   5.243
 4999SOL    HW115896   0.664   3.439   5.246
 4999SOL    HW215897   0.694   3.306   5.336
 5000SOL     OW15898   2.881   6.368   3.316
 5000SOL    HW115899   2.910   6.425   3.393
 5000SOL    HW215900   2.888   6.272   3.341
 5001SOL     OW15901   0.082   5.523   2.566
 5001SOL    HW115902   0.084   5.620   2.591
 5001SOL    HW215903   7.014   5.495   2.548
 5002SOL     OW15904   0.951   4.550   2.559
 5002SOL    HW115905   0.898   4.531   2.642
 5002SOL    HW215906   1.005   4.469   2.535
 5003SOL     OW15907   4.032   6.029   2.678
 5003SOL    HW115908   4.084   5.943   2.673
 5003SOL    HW215909   4.016   6.053   2.773
 5004SOL     OW15910   2.776   5.515   5.627
 5004SOL    HW115911   2.735   5.604   5.603
 5004SOL    HW215912   2.875   5.524   5.628
 5005SOL     OW15913   2.115   3.420   6.227
 5005SOL    HW115914   2.146   3.328   6.249
 5005SOL    HW215915   2.183   3.486   6.258
 5006SOL     OW15916   5.270   0.979   2.176
 5006SOL    HW115917   5.183   0.987   2.224
 5006SOL    HW215918   5.299   1.070   2.144
 5007SOL     OW15919   6.773   0.545   0.316
 5007SOL    HW115920   6.860   0.539   0.365
 5007SOL    HW215921   6.726   0.629   0.342
 5008SOL     OW15922   6.585   5.573   1.690
 5008SOL    HW115923   6.667   5.579   1.747
 5008SOL    HW215924   6.607   5.528   1.604
 5009SOL     OW15925   0.851   2.874   0.316
 5009SOL    HW115926   0.854   2.839   0.223
 5009SOL    HW215927   0.916   2.822   0.373
 5010SOL     OW15928   3.825   2.106   0.480
 5010SOL    HW115929   3.860   2.016   0.507
 5010SOL    HW215930   3.804   2.105   0.382
 5011SOL     OW15931   1.754   4.560   0.778
 5011SOL    HW115932   1.717   4.469   0.764
 5011SOL    HW215933   1.852   4.560   0.756
 5012SOL     OW15934   5.887   3.126   5.672
 5012SOL    HW115935   5.842   3.038   5.657
 5012SOL    HW215936   5.838   3.198   5.623
 5013SOL     OW15937   6.150   0.606   5.231
 5013SOL    HW115938   6.214   0.633   5.159
 5013SOL    HW215939   6.056   0.613   5.196
 5014SOL     OW15940   6.832   4.419   0.196
 5014SOL    HW115941   6.818   4.356   0.119
 5014SOL    HW215942   6.749   4.421   0.252
 5015SOL     OW15943   5.082   0.936   4.729
 5015SOL    HW115944   5.117   0.843   4.722
 5015SOL    HW215945   5.127   0.994   4.661
 5016SOL     OW15946   1.062   2.755   5.128
 5016SOL    HW115947   1.088   2.715   5.040
 5016SOL    HW215948   1.030   2.849   5.114
 5017SOL     OW15949   1.121   2.393   1.166
 5017SOL    HW115950   1.179   2.460   1.213
 5017SOL    HW215951   1.026   2.408   1.192
 5018SOL     OW15952   1.174   4.879   2.285
 5018SOL    HW115953   1.164   4.972   2.319
 5018SOL    HW215954   1.214   4.880   2.194
 5019SOL     OW15955   1.698   6.014   5.501
 5019SOL    HW115956   1.796   5.993   5.502
 5019SOL    HW215957   1.669   6.043   5.592
 5020SOL     OW15958   0.126   6.520   5.117
 5020SOL    HW115959   0.095   6.449   5.053
 5020SOL    HW215960   0.127   6.608   5.070
 5021SOL     OW15961   1.153   0.369   1.595
 5021SOL    HW115962   1.202   0.283   1.580
 5021SOL    HW215963   1.067   0.368   1.545
 5022SOL     OW15964   0.437   3.025   1.325
 5022SOL    HW115965   0.366   3.040   1.256
 5022SOL    HW215966   0.507   3.096   1.317
 5023SOL     OW15967   6.947   4.446   1.390
 5023SOL    HW115968   6.908   4.531   1.354
 5023SOL    HW215969   7.024   4.468   1.450
 5024SOL     OW15970   5.461   4.886   0.794
 5024SOL    HW115971   5.419   4.897   0.884
 5024SOL    HW215972   5.538   4.823   0.800
 5025SOL     OW15973   3.669   1.624   3.767
 5025SOL    HW115974   3.635   1.552   3.707
 5025SOL    HW215975   3.737   1.586   3.830
 5026SOL     OW15976   0.042   5.053   4.785
 5026SOL    HW115977   0.129   5.012   4.757
 5026SOL    HW215978   0.051   5.152   4.789
 5027SOL     OW15979   5.890   0.613   0.909
 5027SOL    HW115980   5.858   0.521   0.884
 5027SOL    HW215981   5.929   0.611   1.000
 5028SOL     OW15982   6.735   1.973   3.491
 5028SOL    HW115983   6.722   1.947   3.396
 5028SOL    HW215984   6.832   1.994   3.507
 5029SOL     OW15985   6.727   2.802   2.574
 5029SOL    HW115986   6.776   2.830   2.492
 5029SOL    HW215987   6.637   2.768   2.550
 5030SOL     OW15988   6.978   6.235   6.162
 5030SOL    HW115989   6.894   6.239   6.109
 5030SOL    HW215990   6.970   6.165   6.233
 5031SOL     OW15991   6.845   0.982   5.344
 5031SOL    HW115992   6.912   1.055   5.342
 5031SOL    HW215993   6.881   0.903   5.294
 5032SOL     OW15994   2.617   1.976   6.249
 5032SOL    HW115995   2.593   1.995   6.154
 5032SOL    HW215996   2.715   1.993   6.262
 5033SOL     OW15997   2.177   0.922   0.093
 5033SOL    HW115998   2.088   0.962   0.116
 5033SOL    HW215999   2.248   0.961   0.152
 5034SOL     OW16000   4.990   6.925   3.716
 5034SOL    HW116001   5.072   6.906   3.770
 5034SOL    HW216002   4.984   7.023   3.698
 5035SOL     OW16003   0.933   3.617   5.336
 5035SOL    HW116004   0.844   3.611   5.291
 5035SOL    HW216005   1.006   3.601   5.269
 5036SOL     OW16006   6.195   5.070   6.134
 5036SOL    HW116007   6.112   5.035   6.178
 5036SOL    HW216008   6.200   5.037   6.040
 5037SOL     OW16009   4.664   4.595   1.564
 5037SOL    HW116010   4.603   4.622   1.638
 5037SOL    HW216011   4.671   4.496   1.561
 5038SOL     OW16012   3.958   3.130   4.139
 5038SOL    HW116013   3.905   3.062   4.088
 5038SOL    HW216014   3.914   3.219   4.132
 5039SOL     OW16015   2.395   3.262   5.838
 5039SOL    HW116016   2.389   3.163   5.852
 5039SOL    HW216017   2.463   3.300   5.900
 5040SOL     OW16018   0.778   5.675   5.187
 5040SOL    HW116019   0.700   5.702   5.130
 5040SOL    HW216020   0.745   5.617   5.262
 5041SOL     OW16021   1.229   2.019   2.309
 5041SOL    HW116022   1.223   1.948   2.379
 5041SOL    HW216023   1.323   2.025   2.276
 5042SOL     OW16024   6.802   2.980   0.628
 5042SOL    HW116025   6.785   3.054   0.693
 5042SOL    HW216026   6.818   3.018   0.537
 5043SOL     OW16027   4.258   0.640   0.043
 5043SOL    HW116028   4.241   0.654   6.972
 5043SOL    HW216029   4.285   0.726   0.086
 5044SOL     OW16030   1.064   5.796   1.380
 5044SOL    HW116031   1.089   5.844   1.465
 5044SOL    HW216032   0.977   5.832   1.346
 5045SOL     OW16033   6.437   5.751   5.989
 5045SOL    HW116034   6.477   5.827   6.041
 5045SOL    HW216035   6.430   5.777   5.893
 5046SOL     OW16036   3.634   3.900   3.612
 5046SOL    HW116037   3.640   3.992   3.574
 5046SOL    HW216038   3.600   3.837   3.541
 5047SOL     OW16039   2.146   3.773   2.934
 5047SOL    HW116040   2.149   3.813   3.026
 5047SOL    HW216041   2.125   3.844   2.867
 5048SOL     OW16042   1.337   1.096   4.758
 5048SOL    HW116043   1.278   1.154   4.702
 5048SOL    HW216044   1.419   1.071   4.705
 5049SOL     OW16045   5.248   1.389   6.602
 5049SOL    HW116046   5.201   1.401   6.689
 5049SOL    HW216047   5.320   1.320   6.612
 5050SOL     OW16048   1.970   1.076   6.945
 5050SOL    HW116049   2.029   1.068   6.865
 5050SOL    HW216050   1.917   1.161   6.939
 5051SOL     OW16051   4.735   4.511   1.247
 5051SOL    HW116052   4.831   4.506   1.277
 5051SOL    HW216053   4.697   4.418   1.245
 5052SOL     OW16054   3.562   2.159   6.219
 5052SOL    HW116055   3.526   2.067   6.238
 5052SOL    HW216056   3.661   2.155   6.206
 5053SOL     OW16057   1.082   5.285   3.238
 5053SOL    HW116058   0.989   5.319   3.247
 5053SOL    HW216059   1.115   5.302   3.145
 5054SOL     OW16060   2.981   4.911   5.388
 5054SOL    HW116061   2.895   4.860   5.382
 5054SOL    HW216062   3.054   4.851   5.420
 5055SOL     OW16063   1.091   2.492   5.602
 5055SOL    HW116064   1.102   2.402   5.560
 5055SOL    HW216065   1.013   2.490   5.666
 5056SOL     OW16066   5.008   3.722   5.507
 5056SOL    HW116067   4.930   3.702   5.448
 5056SOL    HW216068   5.026   3.645   5.567
 5057SOL     OW16069   0.238   6.908   2.791
 5057SOL    HW116070   0.174   6.849   2.841
 5057SOL    HW216071   0.193   6.947   2.711
 5058SOL     OW16072   3.382   4.731   6.848
 5058SOL    HW116073   3.400   4.641   6.886
 5058SOL    HW216074   3.387   4.800   6.921
 5059SOL     OW16075   6.945   0.821   3.428
 5059SOL    HW116076   6.948   0.750   3.358
 5059SOL    HW216077   0.009   0.832   3.469
 5060SOL     OW16078   6.590   2.479   6.588
 5060SOL    HW116079   6.677   2.500   6.633
 5060SOL    HW216080   6.520   2.459   6.657
 5061SOL     OW16081   4.783   2.441   0.224
 5061SOL    HW116082   4.807   2.538   0.221
 5061SOL    HW216083   4.846   2.393   0.285
 5062SOL     OW16084   6.644   0.138   2.120
 5062SOL    HW116085   6.688   0.213   2.070
 5062SOL    HW216086   6.592   0.081   2.056
 5063SOL     OW16087   0.119   6.371   1.706
 5063SOL    HW116088   0.116   6.456   1.654
 5063SOL    HW216089   0.026   6.342   1.727
 5064SOL     OW16090   4.863   2.870   0.710
 5064SOL    HW116091   4.915   2.954   0.726
 5064SOL    HW216092   4.832   2.867   0.614
 5065SOL     OW16093   3.262   0.465   5.194
 5065SOL    HW116094   3.177   0.457   5.142
 5065SOL    HW216095   3.276   0.382   5.248
 5066SOL     OW16096   4.976   4.260   2.306
 5066SOL    HW116097   4.878   4.266   2.290
 5066SOL    HW216098   5.004   4.333   2.369
 5067SOL     OW16099   5.386   1.296   0.876
 5067SOL    HW116100   5.328   1.295   0.794
 5067SOL    HW216101   5.334   1.335   0.952
 5068SOL     OW16102   2.255   4.498   1.294
 5068SOL    HW116103   2.311   4.532   1.218
 5068SOL    HW216104   2.269   4.556   1.374
 5069SOL     OW16105   1.430   3.841   2.397
 5069SOL    HW116106   1.470   3.817   2.486
 5069SOL    HW216107   1.466   3.928   2.366
 5070SOL     OW16108   4.881   3.518   3.797
 5070SOL    HW116109   4.976   3.498   3.772
 5070SOL    HW216110   4.832   3.432   3.815
 5071SOL     OW16111   4.325   2.377   4.748
 5071SOL    HW116112   4.301   2.285   4.718
 5071SOL    HW216113   4.276   2.397   4.833
 5072SOL     OW16114   0.681   5.736   0.281
 5072SOL    HW116115   0.774   5.700   0.274
 5072SOL    HW216116   0.669   5.780   0.370
 5073SOL     OW16117   6.850   6.279   2.841
 5073SOL    HW116118   6.753   6.298   2.821
 5073SOL    HW216119   6.869   6.183   2.823
 5074SOL     OW16120   3.751   3.865   6.910
 5074SOL    HW116121   3.684   3.917   6.962
 5074SOL    HW216122   3.707   3.823   6.831
 5075SOL     OW16123   0.163   1.072   5.933
 5075SOL    HW116124   0.170   0.979   5.897
 5075SOL    HW216125   0.113   1.129   5.868
 5076SOL     OW16126   4.346   0.915   1.413
 5076SOL    HW116127   4.295   0.880   1.334
 5076SOL    HW216128   4.283   0.927   1.490
 5077SOL     OW16129   1.266   2.056   3.678
 5077SOL    HW116130   1.287   2.036   3.583
 5077SOL    HW216131   1.330   2.008   3.738
 5078SOL     OW16132   0.989   1.801   3.221
 5078SOL    HW116133   1.041   1.718   3.200
 5078SOL    HW216134   0.954   1.840   3.136
 5079SOL     OW16135   2.636   4.590   6.113
 5079SOL    HW116136   2.664   4.555   6.024
 5079SOL    HW216137   2.692   4.669   6.137
 5080SOL     OW16138   5.627   6.763   4.847
 5080SOL    HW116139   5.698   6.812   4.797
 5080SOL    HW216140   5.639   6.664   4.833
 5081SOL     OW16141   3.565   3.923   3.118
 5081SOL    HW116142   3.550   4.019   3.096
 5081SOL    HW216143   3.488   3.869   3.085
 5082SOL     OW16144   5.682   6.500   4.815
 5082SOL    HW116145   5.717   6.412   4.849
 5082SOL    HW216146   5.668   6.494   4.716
 5083SOL     OW16147   1.640   6.453   2.208
 5083SOL    HW116148   1.587   6.512   2.268
 5083SOL    HW216149   1.652   6.498   2.119
 5084SOL     OW16150   1.445   4.351   4.330
 5084SOL    HW116151   1.418   4.255   4.334
 5084SOL    HW216152   1.522   4.361   4.266
 5085SOL     OW16153   5.041   2.202   6.680
 5085SOL    HW116154   5.029   2.150   6.595
 5085SOL    HW216155   5.082   2.291   6.659
 5086SOL     OW16156   6.421   4.891   3.830
 5086SOL    HW116157   6.449   4.822   3.897
 5086SOL    HW216158   6.437   4.982   3.868
 5087SOL     OW16159   6.700   6.250   4.025
 5087SOL    HW116160   6.658   6.261   3.935
 5087SOL    HW216161   6.790   6.294   4.025
 5088SOL     OW16162   5.963   1.326   5.989
 5088SOL    HW116163   6.047   1.272   5.984
 5088SOL    HW216164   5.978   1.416   5.949
 5089SOL     OW16165   6.567   3.764   3.468
 5089SOL    HW116166   6.522   3.849   3.495
 5089SOL    HW216167   6.583   3.765   3.369
 5090SOL     OW16168   2.045   3.934   1.425
 5090SOL    HW116169   2.102   4.013   1.403
 5090SOL    HW216170   1.960   3.965   1.467
 5091SOL     OW16171   1.113   6.369   2.745
 5091SOL    HW116172   1.171   6.380   2.826
 5091SOL    HW216173   1.161   6.313   2.677
 5092SOL     OW16174   3.926   2.581   1.567
 5092SOL    HW116175   3.987   2.512   1.606
 5092SOL    HW216176   3.871   2.622   1.640
 5093SOL     OW16177   0.992   2.046   1.821
 5093SOL    HW116178   0.952   1.966   1.778
 5093SOL    HW216179   1.083   2.062   1.784
 5094SOL     OW16180   0.698   0.445   5.611
 5094SOL    HW116181   0.717   0.483   5.701
 5094SOL    HW216182   0.779   0.455   5.553
 5095SOL     OW16183   1.236   0.560   4.505
 5095SOL    HW116184   1.295   0.536   4.582
 5095SOL    HW216185   1.144   0.525   4.523
 5096SOL     OW16186   4.417   3.694   0.736
 5096SOL    HW116187   4.390   3.722   0.829
 5096SOL    HW216188   4.395   3.767   0.672
 5097SOL     OW16189   1.534   0.393   6.187
 5097SOL    HW116190   1.553   0.316   6.127
 5097SOL    HW216191   1.508   0.473   6.133
 5098SOL     OW16192   0.506   0.550   1.695
 5098SOL    HW116193   0.526   0.469   1.749
 5098SOL    HW216194   0.548   0.541   1.604
 5099SOL     OW16195   0.798   0.586   5.839
 5099SOL    HW116196   0.832   0.671   5.799
 5099SOL    HW216197   0.873   0.522   5.852
 5100SOL     OW16198   4.792   0.015   6.196
 5100SOL    HW116199   4.726   0.002   6.123
 5100SOL    HW216200   4.885   0.005   6.159
 5101SOL     OW16201   5.122   6.595   6.870
 5101SOL    HW116202   5.030   6.613   6.837
 5101SOL    HW216203   5.118   6.533   6.948
 5102SOL     OW16204   5.867   0.889   5.163
 5102SOL    HW116205   5.935   0.899   5.236
 5102SOL    HW216206   5.782   0.933   5.190
 5103SOL     OW16207   6.695   1.094   4.494
 5103SOL    HW116208   6.627   1.147   4.443
 5103SOL    HW216209   6.743   1.155   4.557
 5104SOL     OW16210   1.896   6.859   1.039
 5104SOL    HW116211   1.906   6.871   0.941
 5104SOL    HW216212   1.951   6.781   1.069
 5105SOL     OW16213   4.718   3.688   6.672
 5105SOL    HW116214   4.732   3.786   6.684
 5105SOL    HW216215   4.698   3.669   6.576
 5106SOL     OW16216   3.542   0.070   2.620
 5106SOL    HW116217   3.560   0.051   2.524
 5106SOL    HW216218   3.443   0.069   2.636
 5107SOL     OW16219   2.673   0.693   0.418
 5107SOL    HW116220   2.673   0.665   0.514
 5107SOL    HW216221   2.748   0.757   0.403
 5108SOL     OW16222   3.101   3.902   3.654
 5108SOL    HW116223   3.168   3.837   3.691
 5108SOL    HW216224   3.140   3.949   3.575
 5109SOL     OW16225   0.933   1.988   0.887
 5109SOL    HW116226   0.951   2.053   0.960
 5109SOL    HW216227   0.850   1.936   0.908
 5110SOL     OW16228   1.655   6.913   5.974
 5110SOL    HW116229   1.706   6.957   6.048
 5110SOL    HW216230   1.597   6.841   6.013
 5111SOL     OW16231   0.385   1.332   5.920
 5111SOL    HW116232   0.460   1.286   5.872
 5111SOL    HW216233   0.326   1.263   5.962
 5112SOL     OW16234   0.222   6.626   3.813
 5112SOL    HW116235   0.270   6.637   3.726
 5112SOL    HW216236   0.141   6.686   3.815
 5113SOL     OW16237   0.505   0.570   1.077
 5113SOL    HW116238   0.494   0.600   1.172
 5113SOL    HW216239   0.423   0.520   1.048
 5114SOL     OW16240   3.370   3.868   0.196
 5114SOL    HW116241   3.344   3.954   0.153
 5114SOL    HW216242   3.442   3.885   0.264
 5115SOL     OW16243   1.671   4.220   5.813
 5115SOL    HW116244   1.683   4.309   5.769
 5115SOL    HW216245   1.588   4.177   5.778
 5116SOL     OW16246   5.069   5.433   5.914
 5116SOL    HW116247   5.018   5.518   5.908
 5116SOL    HW216248   5.005   5.356   5.918
 5117SOL     OW16249   2.064   4.625   3.911
 5117SOL    HW116250   2.151   4.659   3.949
 5117SOL    HW216251   2.083   4.565   3.833
 5118SOL     OW16252   4.720   6.351   0.559
 5118SOL    HW116253   4.632   6.398   0.560
 5118SOL    HW216254   4.748   6.330   0.652
 5119SOL     OW16255   5.322   0.358   1.846
 5119SOL    HW116256   5.300   0.455   1.861
 5119SOL    HW216257   5.302   0.335   1.750
 5120SOL     OW16258   6.232   1.564   2.998
 5120SOL    HW116259   6.172   1.619   3.056
 5120SOL    HW216260   6.185   1.545   2.911
 5121SOL     OW16261   0.707   3.211   6.367
 5121SOL    HW116262   0.800   3.181   6.388
 5121SOL    HW216263   0.657   3.228   6.452
 5122SOL     OW16264   2.690   0.788   3.483
 5122SOL    HW116265   2.710   0.708   3.426
 5122SOL    HW216266   2.664   0.865   3.425
 5123SOL     OW16267   5.450   3.670   3.703
 5123SOL    HW116268   5.465   3.757   3.749
 5123SOL    HW216269   5.537   3.620   3.697
 5124SOL     OW16270   2.577   6.050   6.749
 5124SOL    HW116271   2.608   5.998   6.829
 5124SOL    HW216272   2.608   6.004   6.666
 5125SOL     OW16273   0.551   3.920   4.409
 5125SOL    HW116274   0.541   3.825   4.380
 5125SOL    HW216275   0.568   3.923   4.507
 5126SOL     OW16276   6.398   5.283   6.163
 5126SOL    HW116277   6.438   5.275   6.254
 5126SOL    HW216278   6.334   5.208   6.147
 5127SOL     OW16279   5.506   4.007   0.076
 5127SOL    HW116280   5.440   3.974   0.144
 5127SOL    HW216281   5.598   4.007   0.116
 5128SOL     OW16282   1.301   0.545   6.702
 5128SOL    HW116283   1.401   0.556   6.707
 5128SOL    HW216284   1.273   0.538   6.606
 5129SOL     OW16285   5.672   0.198   3.010
 5129SOL    HW116286   5.707   0.242   2.927
 5129SOL    HW216287   5.747   0.151   3.057
 5130SOL     OW16288   0.922   5.301   4.592
 5130SOL    HW116289   0.909   5.330   4.497
 5130SOL    HW216290   1.019   5.283   4.608
 5131SOL     OW16291   3.126   4.883   3.608
 5131SOL    HW116292   3.135   4.873   3.509
 5131SOL    HW216293   3.153   4.798   3.653
 5132SOL     OW16294   3.144   1.603   6.250
 5132SOL    HW116295   3.223   1.581   6.308
 5132SOL    HW216296   3.158   1.692   6.206
 5133SOL     OW16297   3.487   5.672   6.335
 5133SOL    HW116298   3.559   5.613   6.370
 5133SOL    HW216299   3.525   5.737   6.269
 5134SOL     OW16300   6.443   7.017   1.341
 5134SOL    HW116301   6.537   0.005   1.309
 5134SOL    HW216302   6.435   0.027   1.434
 5135SOL     OW16303   6.311   3.329   2.860
 5135SOL    HW116304   6.346   3.316   2.767
 5135SOL    HW216305   6.359   3.268   2.923
 5136SOL     OW16306   0.621   0.984   6.116
 5136SOL    HW116307   0.646   0.923   6.191
 5136SOL    HW216308   0.526   0.967   6.088
 5137SOL     OW16309   5.016   2.853   5.256
 5137SOL    HW116310   5.090   2.859   5.324
 5137SOL    HW216311   4.928   2.842   5.303
 5138SOL     OW16312   3.993   3.963   4.198
 5138SOL    HW116313   3.995   3.927   4.105
 5138SOL    HW216314   4.084   3.958   4.238
 5139SOL     OW16315   1.633   0.693   4.849
 5139SOL    HW116316   1.546   0.652   4.822
 5139SOL    HW216317   1.628   0.721   4.945
 5140SOL     OW16318   4.089   2.011   5.842
 5140SOL    HW116319   4.174   1.965   5.816
 5140SOL    HW216320   4.037   1.952   5.903
 5141SOL     OW16321   6.435   2.940   1.903
 5141SOL    HW116322   6.465   2.914   1.811
 5141SOL    HW216323   6.347   2.987   1.897
 5142SOL     OW16324   6.328   0.005   3.588
 5142SOL    HW116325   6.354   6.958   3.651
 5142SOL    HW216326   6.406   0.064   3.570
 5143SOL     OW16327   0.802   4.419   4.610
 5143SOL    HW116328   0.825   4.509   4.648
 5143SOL    HW216329   0.704   4.415   4.591
 5144SOL     OW16330   1.938   3.567   6.808
 5144SOL    HW116331   1.942   3.539   6.904
 5144SOL    HW216332   1.988   3.653   6.796
 5145SOL     OW16333   3.307   6.104   6.269
 5145SOL    HW116334   3.324   6.045   6.190
 5145SOL    HW216335   3.392   6.146   6.299
 5146SOL     OW16336   4.226   4.572   5.642
 5146SOL    HW116337   4.190   4.665   5.650
 5146SOL    HW216338   4.151   4.507   5.630
 5147SOL     OW16339   4.830   3.776   3.711
 5147SOL    HW116340   4.824   3.676   3.723
 5147SOL    HW216341   4.865   3.796   3.620
 5148SOL     OW16342   0.384   0.254   1.637
 5148SOL    HW116343   0.479   0.243   1.607
 5148SOL    HW216344   0.383   0.271   1.736
 5149SOL     OW16345   5.576   4.482   3.850
 5149SOL    HW116346   5.479   4.473   3.874
 5149SOL    HW216347   5.633   4.454   3.927
 5150SOL     OW16348   1.748   5.513   3.485
 5150SOL    HW116349   1.705   5.467   3.562
 5150SOL    HW216350   1.679   5.536   3.417
 5151SOL     OW16351   5.976   4.842   1.140
 5151SOL    HW116352   5.898   4.834   1.201
 5151SOL    HW216353   6.044   4.772   1.163
 5152SOL     OW16354   1.992   6.948   6.622
 5152SOL    HW116355   1.973   6.965   6.719
 5152SOL    HW216356   2.019   6.852   6.610
 5153SOL     OW16357   1.774   0.935   0.883
 5153SOL    HW116358   1.775   0.879   0.967
 5153SOL    HW216359   1.767   0.875   0.804
 5154SOL     OW16360   1.228   2.760   6.785
 5154SOL    HW116361   1.260   2.796   6.698
 5154SOL    HW216362   1.140   2.715   6.772
 5155SOL     OW16363   2.373   1.837   0.750
 5155SOL    HW116364   2.355   1.771   0.677
 5155SOL    HW216365   2.297   1.902   0.756
 5156SOL     OW16366   5.069   5.259   5.386
 5156SOL    HW116367   5.011   5.195   5.437
 5156SOL    HW216368   5.064   5.349   5.428
 5157SOL     OW16369   4.302   1.681   2.007
 5157SOL    HW116370   4.345   1.605   2.056
 5157SOL    HW216371   4.203   1.665   2.000
 5158SOL     OW16372   3.838   1.480   1.850
 5158SOL    HW116373   3.858   1.568   1.892
 5158SOL    HW216374   3.907   1.413   1.878
 5159SOL     OW16375   5.697   3.878   6.580
 5159SOL    HW116376   5.650   3.958   6.544
 5159SOL    HW216377   5.751   3.835   6.507
 5160SOL     OW16378   6.526   6.835   3.086
 5160SOL    HW116379   6.473   6.751   3.075
 5160SOL    HW216380   6.620   6.820   3.055
 5161SOL     OW16381   0.744   3.482   6.955
 5161SOL    HW116382   0.738   3.495   0.028
 5161SOL    HW216383   0.801   3.402   6.935
 5162SOL     OW16384   0.146   5.674   2.804
 5162SOL    HW116385   0.073   5.646   2.867
 5162SOL    HW216386   0.223   5.711   2.855
 5163SOL     OW16387   3.167   5.685   1.884
 5163SOL    HW116388   3.236   5.701   1.955
 5163SOL    HW216389   3.181   5.750   1.809
 5164SOL     OW16390   2.918   3.171   0.800
 5164SOL    HW116391   2.837   3.151   0.855
 5164SOL    HW216392   2.973   3.241   0.846
 5165SOL     OW16393   1.517   4.768   6.843
 5165SOL    HW116394   1.458   4.793   6.766
 5165SOL    HW216395   1.463   4.722   6.913
 5166SOL     OW16396   2.031   5.771   1.652
 5166SOL    HW116397   2.013   5.727   1.740
 5166SOL    HW216398   2.032   5.870   1.664
 5167SOL     OW16399   5.670   3.805   5.524
 5167SOL    HW116400   5.649   3.844   5.614
 5167SOL    HW216401   5.585   3.795   5.472
 5168SOL     OW16402   4.823   2.429   2.338
 5168SOL    HW116403   4.875   2.482   2.404
 5168SOL    HW216404   4.757   2.489   2.292
 5169SOL     OW16405   4.155   0.966   4.162
 5169SOL    HW116406   4.196   0.938   4.249
 5169SOL    HW216407   4.225   1.006   4.103
 5170SOL     OW16408   1.401   3.824   6.519
 5170SOL    HW116409   1.476   3.889   6.535
 5170SOL    HW216410   1.434   3.748   6.463
 5171SOL     OW16411   1.979   5.335   5.856
 5171SOL    HW116412   1.914   5.265   5.885
 5171SOL    HW216413   2.032   5.366   5.934
 5172SOL     OW16414   1.000   4.623   4.037
 5172SOL    HW116415   1.055   4.685   4.094
 5172SOL    HW216416   1.059   4.549   4.003
 5173SOL     OW16417   4.792   3.585   6.130
 5173SOL    HW116418   4.728   3.657   6.155
 5173SOL    HW216419   4.849   3.616   6.054
 5174SOL     OW16420   1.600   6.839   3.699
 5174SOL    HW116421   1.612   6.899   3.779
 5174SOL    HW216422   1.517   6.784   3.711
 5175SOL     OW16423   3.021   4.425   6.998
 5175SOL    HW116424   2.953   4.453   6.931
 5175SOL    HW216425   2.982   4.357   0.033
 5176SOL     OW16426   5.470   5.644   6.553
 5176SOL    HW116427   5.542   5.585   6.515
 5176SOL    HW216428   5.392   5.645   6.490
 5177SOL     OW16429   4.891   0.343   1.037
 5177SOL    HW116430   4.894   0.243   1.049
 5177SOL    HW216431   4.891   0.387   1.126
 5178SOL     OW16432   0.668   3.957   1.498
 5178SOL    HW116433   0.696   3.943   1.403
 5178SOL    HW216434   0.573   3.990   1.499
 5179SOL     OW16435   5.601   4.396   2.294
 5179SOL    HW116436   5.526   4.373   2.231
 5179SOL    HW216437   5.672   4.326   2.286
 5180SOL     OW16438   2.538   6.534   1.306
 5180SOL    HW116439   2.530   6.588   1.222
 5180SOL    HW216440   2.618   6.475   1.300
 5181SOL     OW16441   0.273   1.263   6.611
 5181SOL    HW116442   0.193   1.227   6.563
 5181SOL    HW216443   0.266   1.241   6.708
 5182SOL     OW16444   4.427   4.714   3.219
 5182SOL    HW116445   4.405   4.731   3.123
 5182SOL    HW216446   4.506   4.653   3.224
 5183SOL     OW16447   4.113   1.820   3.321
 5183SOL    HW116448   4.042   1.813   3.391
 5183SOL    HW216449   4.076   1.865   3.240
 5184SOL     OW16450   2.072   2.308   3.876
 5184SOL    HW116451   2.059   2.378   3.805
 5184SOL    HW216452   2.164   2.316   3.914
 5185SOL     OW16453   4.939   0.605   2.162
 5185SOL    HW116454   4.970   0.596   2.067
 5185SOL    HW216455   4.938   0.514   2.205
 5186SOL     OW16456   6.625   3.281   5.914
 5186SOL    HW116457   6.644   3.369   5.869
 5186SOL    HW216458   6.614   3.296   6.012
 5187SOL     OW16459   2.301   5.097   4.708
 5187SOL    HW116460   2.278   5.034   4.783
 5187SOL    HW216461   2.400   5.109   4.703
 5188SOL     OW16462   6.409   6.584   1.821
 5188SOL    HW116463   6.388   6.555   1.914
 5188SOL    HW216464   6.390   6.509   1.757
 5189SOL     OW16465   5.709   0.147   6.222
 5189SOL    HW116466   5.678   0.071   6.164
 5189SOL    HW216467   5.735   0.112   6.312
 5190SOL     OW16468   1.889   2.934   1.818
 5190SOL    HW116469   1.842   2.860   1.770
 5190SOL    HW216470   1.884   3.017   1.763
 5191SOL     OW16471   2.868   5.448   2.554
 5191SOL    HW116472   2.954   5.397   2.562
 5191SOL    HW216473   2.886   5.545   2.569
 5192SOL     OW16474   1.776   5.938   1.440
 5192SOL    HW116475   1.817   5.858   1.396
 5192SOL    HW216476   1.820   5.953   1.529
 5193SOL     OW16477   5.470   0.582   6.767
 5193SOL    HW116478   5.479   0.517   6.843
 5193SOL    HW216479   5.452   0.532   6.682
 5194SOL     OW16480   3.791   1.945   6.569
 5194SOL    HW116481   3.737   1.871   6.528
 5194SOL    HW216482   3.741   1.982   6.648
 5195SOL     OW16483   0.307   0.587   3.494
 5195SOL    HW116484   0.398   0.595   3.532
 5195SOL    HW216485   0.309   0.607   3.396
 5196SOL     OW16486   4.676   6.767   2.900
 5196SOL    HW116487   4.585   6.805   2.887
 5196SOL    HW216488   4.696   6.760   2.997
 5197SOL     OW16489   1.675   3.607   5.922
 5197SOL    HW116490   1.714   3.573   6.008
 5197SOL    HW216491   1.747   3.651   5.868
 5198SOL     OW16492   4.837   5.874   3.196
 5198SOL    HW116493   4.747   5.839   3.222
 5198SOL    HW216494   4.843   5.971   3.218
 5199SOL     OW16495   6.757   5.369   0.898
 5199SOL    HW116496   6.754   5.442   0.829
 5199SOL    HW216497   6.813   5.294   0.864
 5200SOL     OW16498   0.272   3.877   5.338
 5200SOL    HW116499   0.256   3.834   5.249
 5200SOL    HW216500   0.190   3.868   5.394
 5201SOL     OW16501   0.940   6.290   3.766
 5201SOL    HW116502   0.938   6.201   3.811
 5201SOL    HW216503   0.995   6.353   3.820
 5202SOL     OW16504   6.856   3.014   0.141
 5202SOL    HW116505   6.862   3.006   0.042
 5202SOL    HW216506   6.822   2.929   0.180
 5203SOL     OW16507   0.714   2.986   6.977
 5203SOL    HW116508   0.705   3.065   0.011
 5203SOL    HW216509   0.761   2.912   7.025
 5204SOL     OW16510   4.172   4.962   0.589
 5204SOL    HW116511   4.209   5.014   0.666
 5204SOL    HW216512   4.244   4.909   0.546
 5205SOL     OW16513   1.887   0.372   1.178
 5205SOL    HW116514   1.848   0.430   1.108
 5205SOL    HW216515   1.874   0.276   1.153
 5206SOL     OW16516   6.999   4.577   6.752
 5206SOL    HW116517   0.013   4.642   6.815
 5206SOL    HW216518   6.900   4.575   6.765
 5207SOL     OW16519   1.210   5.473   4.494
 5207SOL    HW116520   1.194   5.374   4.501
 5207SOL    HW216521   1.124   5.522   4.508
 5208SOL     OW16522   3.875   1.024   0.306
 5208SOL    HW116523   3.904   1.029   0.211
 5208SOL    HW216524   3.784   0.982   0.311
 5209SOL     OW16525   5.938   5.738   3.425
 5209SOL    HW116526   5.997   5.732   3.344
 5209SOL    HW216527   5.993   5.764   3.504
 5210SOL     OW16528   5.202   3.673   4.466
 5210SOL    HW116529   5.196   3.683   4.565
 5210SOL    HW216530   5.137   3.604   4.435
 5211SOL     OW16531   3.307   3.446   4.199
 5211SOL    HW116532   3.329   3.411   4.108
 5211SOL    HW216533   3.212   3.425   4.221
 5212SOL     OW16534   0.145   2.412   0.377
 5212SOL    HW116535   0.171   2.325   0.418
 5212SOL    HW216536   0.169   2.487   0.438
 5213SOL     OW16537   5.098   2.535   6.043
 5213SOL    HW116538   5.053   2.574   5.963
 5213SOL    HW216539   5.178   2.590   6.066
 5214SOL     OW16540   5.490   1.883   5.512
 5214SOL    HW116541   5.508   1.915   5.605
 5214SOL    HW216542   5.496   1.961   5.448
 5215SOL     OW16543   5.336   4.376   3.322
 5215SOL    HW116544   5.294   4.460   3.288
 5215SOL    HW216545   5.431   4.394   3.346
 5216SOL     OW16546   5.183   5.454   1.487
 5216SOL    HW116547   5.250   5.520   1.454
 5216SOL    HW216548   5.225   5.395   1.556
 5217SOL     OW16549   2.894   4.916   3.983
 5217SOL    HW116550   2.872   4.906   4.080
 5217SOL    HW216551   2.980   4.966   3.973
 5218SOL     OW16552   1.860   0.015   4.086
 5218SOL    HW116553   1.824   0.107   4.097
 5218SOL    HW216554   1.927   7.023   4.158
 5219SOL     OW16555   3.708   0.093   6.629
 5219SOL    HW116556   3.686   0.181   6.587
 5219SOL    HW216557   3.706   0.022   6.559
 5220SOL     OW16558   1.229   5.485   2.072
 5220SOL    HW116559   1.133   5.509   2.060
 5220SOL    HW216560   1.237   5.388   2.096
 5221SOL     OW16561   5.489   1.719   4.748
 5221SOL    HW116562   5.410   1.741   4.804
 5221SOL    HW216563   5.566   1.779   4.772
 5222SOL     OW16564   2.308   0.120   3.789
 5222SOL    HW116565   2.360   0.198   3.823
 5222SOL    HW216566   2.281   0.061   3.865
 5223SOL     OW16567   4.775   0.100   1.329
 5223SOL    HW116568   4.803   0.023   1.386
 5223SOL    HW216569   4.740   0.066   1.241
 5224SOL     OW16570   6.949   2.687   2.754
 5224SOL    HW116571   6.926   2.659   2.847
 5224SOL    HW216572   6.866   2.685   2.697
 5225SOL     OW16573   6.934   0.613   3.239
 5225SOL    HW116574   6.848   0.575   3.207
 5225SOL    HW216575   6.976   0.666   3.165
 5226SOL     OW16576   0.585   6.531   4.864
 5226SOL    HW116577   0.583   6.448   4.919
 5226SOL    HW216578   0.655   6.523   4.793
 5227SOL     OW16579   6.900   5.130   3.220
 5227SOL    HW116580   6.900   5.040   3.175
 5227SOL    HW216581   6.983   5.180   3.195
 5228SOL     OW16582   6.318   2.453   0.412
 5228SOL    HW116583   6.332   2.482   0.317
 5228SOL    HW216584   6.292   2.356   0.413
 5229SOL     OW16585   1.281   4.187   6.381
 5229SOL    HW116586   1.352   4.159   6.446
 5229SOL    HW216587   1.291   4.137   6.296
 5230SOL     OW16588   0.248   0.015   0.765
 5230SOL    HW116589   0.328   6.984   0.783
 5230SOL    HW216590   0.166   6.995   0.800
 5231SOL     OW16591   3.164   3.100   4.546
 5231SOL    HW116592   3.096   3.140   4.607
 5231SOL    HW216593   3.212   3.173   4.497
 5232SOL     OW16594   3.610   2.428   6.277
 5232SOL    HW116595   3.592   2.331   6.267
 5232SOL    HW216596   3.548   2.480   6.218
 5233SOL     OW16597   6.678   6.265   1.220
 5233SOL    HW116598   6.600   6.326   1.207
 5233SOL    HW216599   6.761   6.319   1.233
 5234SOL     OW16600   3.148   0.585   0.242
 5234SOL    HW116601   3.194   0.657   0.294
 5234SOL    HW216602   3.199   0.500   0.251
 5235SOL     OW16603   1.443   3.027   0.851
 5235SOL    HW116604   1.452   2.959   0.924
 5235SOL    HW216605   1.451   2.982   0.762
 5236SOL     OW16606   5.509   2.721   1.716
 5236SOL    HW116607   5.504   2.625   1.688
 5236SOL    HW216608   5.597   2.759   1.687
 5237SOL     OW16609   2.649   1.975   5.257
 5237SOL    HW116610   2.590   1.964   5.177
 5237SOL    HW216611   2.744   1.955   5.231
 5238SOL     OW16612   1.086   5.113   0.296
 5238SOL    HW116613   0.998   5.075   0.265
 5238SOL    HW216614   1.159   5.082   0.235
 5239SOL     OW16615   3.388   3.932   4.480
 5239SOL    HW116616   3.304   3.983   4.501
 5239SOL    HW216617   3.427   3.967   4.395
 5240SOL     OW16618   2.988   1.630   5.168
 5240SOL    HW116619   2.971   1.728   5.177
 5240SOL    HW216620   2.967   1.601   5.074
 5241SOL     OW16621   0.758   6.009   6.385
 5241SOL    HW116622   0.662   6.029   6.365
 5241SOL    HW216623   0.791   6.070   6.456
 5242SOL     OW16624   6.097   1.374   5.631
 5242SOL    HW116625   6.050   1.452   5.673
 5242SOL    HW216626   6.095   1.384   5.531
 5243SOL     OW16627   0.697   6.019   0.874
 5243SOL    HW116628   0.627   5.948   0.876
 5243SOL    HW216629   0.770   5.993   0.812
 5244SOL     OW16630   4.064   3.891   5.783
 5244SOL    HW116631   4.163   3.907   5.779
 5244SOL    HW216632   4.047   3.797   5.813
 5245SOL     OW16633   4.492   3.846   5.903
 5245SOL    HW116634   4.573   3.892   5.865
 5245SOL    HW216635   4.431   3.819   5.829
 5246SOL     OW16636   0.213   4.217   2.405
 5246SOL    HW116637   0.181   4.130   2.367
 5246SOL    HW216638   0.255   4.272   2.333
 5247SOL     OW16639   0.869   5.945   6.755
 5247SOL    HW116640   0.771   5.961   6.759
 5247SOL    HW216641   0.918   6.020   6.800
 5248SOL     OW16642   5.927   0.750   5.562
 5248SOL    HW116643   6.024   0.739   5.538
 5248SOL    HW216644   5.899   0.674   5.621
 5249SOL     OW16645   1.049   4.875   4.640
 5249SOL    HW116646   0.986   4.951   4.654
 5249SOL    HW216647   1.040   4.810   4.716
 5250SOL     OW16648   0.472   1.545   6.086
 5250SOL    HW116649   0.389   1.558   6.139
 5250SOL    HW216650   0.462   1.463   6.029
 5251SOL     OW16651   0.225   3.015   1.151
 5251SOL    HW116652   0.136   2.988   1.189
 5251SOL    HW216653   0.212   3.044   1.056
 5252SOL     OW16654   1.695   5.273   1.055
 5252SOL    HW116655   1.657   5.209   0.988
 5252SOL    HW216656   1.687   5.233   1.146
 5253SOL     OW16657   5.890   3.327   4.604
 5253SOL    HW116658   5.856   3.320   4.510
 5253SOL    HW216659   5.934   3.242   4.630
 5254SOL     OW16660   5.061   1.129   3.367
 5254SOL    HW116661   5.095   1.090   3.281
 5254SOL    HW216662   5.021   1.057   3.423
 5255SOL     OW16663   4.190   0.497   4.313
 5255SOL    HW116664   4.274   0.506   4.261
 5255SOL    HW216665   4.111   0.516   4.254
 5256SOL     OW16666   4.829   1.295   2.913
 5256SOL    HW116667   4.859   1.380   2.869
 5256SOL    HW216668   4.809   1.313   3.009
 5257SOL     OW16669   4.292   0.117   2.071
 5257SOL    HW116670   4.303   0.103   1.972
 5257SOL    HW216671   4.318   0.034   2.120
 5258SOL     OW16672   5.136   4.280   2.101
 5258SOL    HW116673   5.136   4.186   2.066
 5258SOL    HW216674   5.075   4.286   2.180
 5259SOL     OW16675   4.536   6.018   2.009
 5259SOL    HW116676   4.601   5.949   2.042
 5259SOL    HW216677   4.554   6.105   2.055
 5260SOL     OW16678   4.638   3.594   0.632
 5260SOL    HW116679   4.558   3.648   0.657
 5260SOL    HW216680   4.654   3.524   0.702
 5261SOL     OW16681   1.154   2.223   5.437
 5261SOL    HW116682   1.205   2.137   5.426
 5261SOL    HW216683   1.093   2.236   5.359
 5262SOL     OW16684   2.623   0.002   2.328
 5262SOL    HW116685   2.620   7.023   2.228
 5262SOL    HW216686   2.629   0.097   2.356
 5263SOL     OW16687   1.232   0.176   6.100
 5263SOL    HW116688   1.303   0.184   6.031
 5263SOL    HW216689   1.224   0.081   6.129
 5264SOL     OW16690   6.397   1.353   1.065
 5264SOL    HW116691   6.417   1.411   1.144
 5264SOL    HW216692   6.298   1.349   1.051
 5265SOL     OW16693   5.660   3.976   2.269
 5265SOL    HW116694   5.734   3.973   2.336
 5265SOL    HW216695   5.599   3.898   2.282
 5266SOL     OW16696   2.778   6.282   1.636
 5266SOL    HW116697   2.820   6.192   1.643
 5266SOL    HW216698   2.682   6.276   1.663
 5267SOL     OW16699   4.438   4.885   5.700
 5267SOL    HW116700   4.467   4.835   5.618
 5267SOL    HW216701   4.434   4.983   5.680
 5268SOL     OW16702   6.288   5.726   5.284
 5268SOL    HW116703   6.358   5.797   5.284
 5268SOL    HW216704   6.267   5.699   5.378
 5269SOL     OW16705   2.079   6.274   4.010
 5269SOL    HW116706   2.068   6.175   4.014
 5269SOL    HW216707   1.989   6.318   4.011
 5270SOL     OW16708   4.734   2.024   1.423
 5270SOL    HW116709   4.802   2.098   1.428
 5270SOL    HW216710   4.679   2.024   1.506
 5271SOL     OW16711   4.217   5.114   4.628
 5271SOL    HW116712   4.175   5.023   4.631
 5271SOL    HW216713   4.241   5.136   4.534
 5272SOL     OW16714   0.674   6.140   4.062
 5272SOL    HW116715   0.642   6.099   3.977
 5272SOL    HW216716   0.748   6.204   4.043
 5273SOL     OW16717   1.280   2.830   3.614
 5273SOL    HW116718   1.357   2.879   3.656
 5273SOL    HW216719   1.233   2.777   3.685
 5274SOL     OW16720   6.129   4.982   3.208
 5274SOL    HW116721   6.075   5.046   3.153
 5274SOL    HW216722   6.147   5.022   3.298
 5275SOL     OW16723   3.000   0.433   6.328
 5275SOL    HW116724   3.092   0.439   6.366
 5275SOL    HW216725   2.986   0.509   6.264
 5276SOL     OW16726   6.991   6.355   0.268
 5276SOL    HW116727   0.046   6.307   0.303
 5276SOL    HW216728   7.020   6.437   0.219
 5277SOL     OW16729   2.131   1.571   3.212
 5277SOL    HW116730   2.156   1.500   3.278
 5277SOL    HW216731   2.149   1.538   3.120
 5278SOL     OW16732   5.456   6.670   5.776
 5278SOL    HW116733   5.414   6.627   5.696
 5278SOL    HW216734   5.546   6.629   5.792
 5279SOL     OW16735   1.258   5.962   6.740
 5279SOL    HW116736   1.282   5.962   6.643
 5279SOL    HW216737   1.249   5.867   6.771
 5280SOL     OW16738   3.933   5.735   5.333
 5280SOL    HW116739   3.838   5.761   5.317
 5280SOL    HW216740   3.977   5.804   5.391
 5281SOL     OW16741   0.815   0.825   4.279
 5281SOL    HW116742   0.764   0.739   4.277
 5281SOL    HW216743   0.884   0.821   4.351
 5282SOL     OW16744   1.702   0.288   2.666
 5282SOL    HW116745   1.666   0.219   2.728
 5282SOL    HW216746   1.674   0.379   2.697
 5283SOL     OW16747   1.610   0.745   3.664
 5283SOL    HW116748   1.685   0.734   3.730
 5283SOL    HW216749   1.620   0.832   3.616
 5284SOL     OW16750   4.743   2.127   2.835
 5284SOL    HW116751   4.771   2.164   2.924
 5284SOL    HW216752   4.770   2.191   2.763
 5285SOL     OW16753   1.156   4.087   4.058
 5285SOL    HW116754   1.139   4.082   3.960
 5285SOL    HW216755   1.075   4.125   4.104
 5286SOL     OW16756   6.294   3.013   1.139
 5286SOL    HW116757   6.195   3.020   1.122
 5286SOL    HW216758   6.335   2.949   1.075
 5287SOL     OW16759   2.995   5.040   2.062
 5287SOL    HW116760   2.897   5.034   2.077
 5287SOL    HW216761   3.036   4.949   2.071
 5288SOL     OW16762   4.805   0.458   2.964
 5288SOL    HW116763   4.804   0.558   2.963
 5288SOL    HW216764   4.791   0.425   3.057
 5289SOL     OW16765   2.392   5.327   6.669
 5289SOL    HW116766   2.357   5.393   6.735
 5289SOL    HW216767   2.478   5.289   6.702
 5290SOL     OW16768   1.548   3.730   5.390
 5290SOL    HW116769   1.507   3.661   5.450
 5290SOL    HW216770   1.545   3.698   5.295
 5291SOL     OW16771   3.023   4.302   6.016
 5291SOL    HW116772   3.115   4.267   5.995
 5291SOL    HW216773   2.982   4.340   5.934
 5292SOL     OW16774   5.636   4.756   6.461
 5292SOL    HW116775   5.684   4.829   6.511
 5292SOL    HW216776   5.547   4.742   6.503
 5293SOL     OW16777   2.270   5.940   4.838
 5293SOL    HW116778   2.206   5.875   4.799
 5293SOL    HW216779   2.272   6.023   4.782
 5294SOL     OW16780   4.564   1.775   5.227
 5294SOL    HW116781   4.508   1.778   5.143
 5294SOL    HW216782   4.528   1.704   5.287
 5295SOL     OW16783   3.693   0.563   3.258
 5295SOL    HW116784   3.761   0.637   3.253
 5295SOL    HW216785   3.631   0.570   3.180
 5296SOL     OW16786   3.958   3.743   0.009
 5296SOL    HW116787   4.008   3.810   0.064
 5296SOL    HW216788   3.890   3.790   6.979
 5297SOL     OW16789   1.868   3.566   0.283
 5297SOL    HW116790   1.919   3.560   0.368
 5297SOL    HW216791   1.889   3.488   0.225
 5298SOL     OW16792   1.847   6.184   6.265
 5298SOL    HW116793   1.905   6.116   6.220
 5298SOL    HW216794   1.890   6.274   6.258
 5299SOL     OW16795   2.826   2.744   1.011
 5299SOL    HW116796   2.924   2.763   1.013
 5299SOL    HW216797   2.791   2.735   1.104
 5300SOL     OW16798   0.954   5.112   0.831
 5300SOL    HW116799   0.895   5.033   0.814
 5300SOL    HW216800   0.983   5.111   0.927
 5301SOL     OW16801   3.893   1.093   6.670
 5301SOL    HW116802   3.950   1.019   6.636
 5301SOL    HW216803   3.798   1.062   6.676
 5302SOL     OW16804   5.773   5.980   3.352
 5302SOL    HW116805   5.863   6.018   3.376
 5302SOL    HW216806   5.760   5.894   3.400
 5303SOL     OW16807   0.269   5.087   5.011
 5303SOL    HW116808   0.276   5.143   5.093
 5303SOL    HW216809   0.190   5.025   5.019
 5304SOL     OW16810   5.881   0.874   0.434
 5304SOL    HW116811   5.811   0.916   0.491
 5304SOL    HW216812   5.965   0.927   0.440
 5305SOL     OW16813   0.777   5.365   2.883
 5305SOL    HW116814   0.820   5.275   2.871
 5305SOL    HW216815   0.744   5.398   2.794
 5306SOL     OW16816   0.909   4.549   5.436
 5306SOL    HW116817   0.895   4.479   5.506
 5306SOL    HW216818   0.997   4.595   5.452
 5307SOL     OW16819   3.786   1.807   0.223
 5307SOL    HW116820   3.840   1.852   0.294
 5307SOL    HW216821   3.746   1.723   0.260
 5308SOL     OW16822   1.499   4.729   2.294
 5308SOL    HW116823   1.508   4.710   2.196
 5308SOL    HW216824   1.552   4.661   2.345
 5309SOL     OW16825   3.785   4.926   2.207
 5309SOL    HW116826   3.731   4.889   2.131
 5309SOL    HW216827   3.882   4.917   2.185
 5310SOL     OW16828   6.336   3.457   1.913
 5310SOL    HW116829   6.416   3.506   1.877
 5310SOL    HW216830   6.253   3.502   1.880
 5311SOL     OW16831   5.873   6.885   7.022
 5311SOL    HW116832   5.858   6.845   6.932
 5311SOL    HW216833   5.949   6.950   7.018
 5312SOL     OW16834   0.742   5.418   1.657
 5312SOL    HW116835   0.735   5.511   1.693
 5312SOL    HW216836   0.780   5.358   1.727
 5313SOL     OW16837   1.305   3.387   6.291
 5313SOL    HW116838   1.253   3.473   6.284
 5313SOL    HW216839   1.359   3.374   6.207
 5314SOL     OW16840   4.035   6.738   0.541
 5314SOL    HW116841   3.954   6.719   0.597
 5314SOL    HW216842   4.026   6.828   0.499
 5315SOL     OW16843   5.102   3.225   2.738
 5315SOL    HW116844   5.180   3.191   2.791
 5315SOL    HW216845   5.111   3.324   2.725
 5316SOL     OW16846   1.252   3.232   5.013
 5316SOL    HW116847   1.164   3.272   5.038
 5316SOL    HW216848   1.274   3.157   5.075
 5317SOL     OW16849   6.443   1.888   5.569
 5317SOL    HW116850   6.449   1.803   5.621
 5317SOL    HW216851   6.467   1.871   5.474
 5318SOL     OW16852   0.591   2.684   0.428
 5318SOL    HW116853   0.615   2.724   0.517
 5318SOL    HW216854   0.631   2.740   0.355
 5319SOL     OW16855   4.526   6.234   1.148
 5319SOL    HW116856   4.505   6.222   1.051
 5319SOL    HW216857   4.624   6.221   1.163
 5320SOL     OW16858   4.319   5.141   0.768
 5320SOL    HW116859   4.258   5.180   0.838
 5320SOL    HW216860   4.399   5.201   0.758
 5321SOL     OW16861   1.844   4.309   5.085
 5321SOL    HW116862   1.910   4.238   5.060
 5321SOL    HW216863   1.771   4.268   5.140
 5322SOL     OW16864   5.426   6.116   0.363
 5322SOL    HW116865   5.489   6.191   0.341
 5322SOL    HW216866   5.336   6.154   0.384
 5323SOL     OW16867   3.387   1.434   5.939
 5323SOL    HW116868   3.352   1.528   5.936
 5323SOL    HW216869   3.335   1.377   5.875
 5324SOL     OW16870   3.556   2.078   0.902
 5324SOL    HW116871   3.474   2.041   0.858
 5324SOL    HW216872   3.588   2.158   0.851
 5325SOL     OW16873   4.494   0.773   4.229
 5325SOL    HW116874   4.446   0.735   4.151
 5325SOL    HW216875   4.539   0.859   4.203
 5326SOL     OW16876   6.726   5.489   3.169
 5326SOL    HW116877   6.807   5.516   3.220
 5326SOL    HW216878   6.686   5.407   3.210
 5327SOL     OW16879   6.325   2.962   5.317
 5327SOL    HW116880   6.279   2.940   5.231
 5327SOL    HW216881   6.257   2.973   5.389
 5328SOL     OW16882   3.325   3.798   6.247
 5328SOL    HW116883   3.382   3.878   6.268
 5328SOL    HW216884   3.354   3.758   6.161
 5329SOL     OW16885   0.530   5.356   6.446
 5329SOL    HW116886   0.583   5.281   6.485
 5329SOL    HW216887   0.562   5.374   6.353
 5330SOL     OW16888   4.508   3.855   0.055
 5330SOL    HW116889   4.470   3.798   7.010
 5330SOL    HW216890   4.499   3.809   0.144
 5331SOL     OW16891   6.270   1.780   6.070
 5331SOL    HW116892   6.198   1.819   6.129
 5331SOL    HW216893   6.296   1.848   6.002
 5332SOL     OW16894   1.078   3.220   1.691
 5332SOL    HW116895   1.149   3.264   1.746
 5332SOL    HW216896   0.990   3.260   1.713
 5333SOL     OW16897   0.851   0.980   2.934
 5333SOL    HW116898   0.897   0.904   2.889
 5333SOL    HW216899   0.832   1.052   2.868
 5334SOL     OW16900   3.324   0.214   4.393
 5334SOL    HW116901   3.311   0.256   4.303
 5334SOL    HW216902   3.254   0.145   4.409
 5335SOL     OW16903   0.108   5.940   0.493
 5335SOL    HW116904   0.010   5.919   0.493
 5335SOL    HW216905   0.151   5.892   0.416
 5336SOL     OW16906   2.133   3.174   2.723
 5336SOL    HW116907   2.148   3.077   2.704
 5336SOL    HW216908   2.112   3.187   2.820
 5337SOL     OW16909   5.050   4.941   0.600
 5337SOL    HW116910   5.043   5.017   0.535
 5337SOL    HW216911   5.063   4.855   0.549
 5338SOL     OW16912   5.762   1.266   0.448
 5338SOL    HW116913   5.757   1.228   0.356
 5338SOL    HW216914   5.802   1.358   0.445
 5339SOL     OW16915   6.688   1.678   4.093
 5339SOL    HW116916   6.614   1.630   4.139
 5339SOL    HW216917   6.686   1.658   3.995
 5340SOL     OW16918   5.158   4.637   0.932
 5340SOL    HW116919   5.058   4.636   0.938
 5340SOL    HW216920   5.186   4.622   0.837
 5341SOL     OW16921   3.813   2.754   6.626
 5341SOL    HW116922   3.895   2.730   6.678
 5341SOL    HW216923   3.783   2.675   6.572
 5342SOL     OW16924   3.580   0.087   4.447
 5342SOL    HW116925   3.486   0.122   4.451
 5342SOL    HW216926   3.643   0.164   4.442
 5343SOL     OW16927   3.284   3.791   4.211
 5343SOL    HW116928   3.242   3.880   4.197
 5343SOL    HW216929   3.340   3.793   4.294
 5344SOL     OW16930   1.865   2.230   2.333
 5344SOL    HW116931   1.931   2.161   2.365
 5344SOL    HW216932   1.909   2.287   2.264
 5345SOL     OW16933   4.131   5.893   1.767
 5345SOL    HW116934   4.044   5.943   1.769
 5345SOL    HW216935   4.130   5.820   1.835
 5346SOL     OW16936   3.382   5.984   4.096
 5346SOL    HW116937   3.406   6.073   4.134
 5346SOL    HW216938   3.345   5.997   4.003
 5347SOL     OW16939   0.479   2.446   2.061
 5347SOL    HW116940   0.422   2.528   2.054
 5347SOL    HW216941   0.556   2.454   1.998
 5348SOL     OW16942   0.159   1.473   0.996
 5348SOL    HW116943   0.169   1.478   1.095
 5348SOL    HW216944   0.136   1.379   0.970
 5349SOL     OW16945   1.044   2.453   0.054
 5349SOL    HW116946   1.134   2.490   0.033
 5349SOL    HW216947   1.037   2.360   0.019
 5350SOL     OW16948   1.410   0.283   5.928
 5350SOL    HW116949   1.496   0.236   5.911
 5350SOL    HW216950   1.392   0.348   5.854
 5351SOL     OW16951   5.800   5.394   1.782
 5351SOL    HW116952   5.792   5.481   1.733
 5351SOL    HW216953   5.860   5.333   1.730
 5352SOL     OW16954   1.875   5.439   4.675
 5352SOL    HW116955   1.831   5.527   4.658
 5352SOL    HW216956   1.892   5.393   4.589
 5353SOL     OW16957   3.468   5.986   4.475
 5353SOL    HW116958   3.471   5.962   4.572
 5353SOL    HW216959   3.551   5.954   4.430
 5354SOL     OW16960   1.882   5.340   1.851
 5354SOL    HW116961   1.888   5.244   1.824
 5354SOL    HW216962   1.907   5.398   1.773
 5355SOL     OW16963   4.836   2.486   4.012
 5355SOL    HW116964   4.748   2.531   3.998
 5355SOL    HW216965   4.827   2.414   4.080
 5356SOL     OW16966   5.899   3.958   1.307
 5356SOL    HW116967   5.995   3.983   1.293
 5356SOL    HW216968   5.893   3.885   1.374
 5357SOL     OW16969   3.666   6.708   0.493
 5357SOL    HW116970   3.637   6.799   0.463
 5357SOL    HW216971   3.593   6.642   0.474
 5358SOL     OW16972   4.546   1.488   0.807
 5358SOL    HW116973   4.500   1.418   0.754
 5358SOL    HW216974   4.639   1.459   0.827
 5359SOL     OW16975   2.071   2.031   0.272
 5359SOL    HW116976   2.150   2.034   0.210
 5359SOL    HW216977   2.039   2.124   0.290
 5360SOL     OW16978   4.319   6.261   5.381
 5360SOL    HW116979   4.321   6.245   5.283
 5360SOL    HW216980   4.237   6.312   5.405
 5361SOL     OW16981   2.271   6.755   4.722
 5361SOL    HW116982   2.365   6.782   4.702
 5361SOL    HW216983   2.260   6.657   4.705
 5362SOL     OW16984   5.083   4.459   3.514
 5362SOL    HW116985   5.056   4.494   3.424
 5362SOL    HW216986   5.153   4.518   3.554
 5363SOL     OW16987   0.858   6.724   6.274
 5363SOL    HW116988   0.871   6.812   6.228
 5363SOL    HW216989   0.821   6.739   6.365
 5364SOL     OW16990   6.930   5.769   1.555
 5364SOL    HW116991   6.948   5.673   1.577
 5364SOL    HW216992   6.984   5.827   1.616
 5365SOL     OW16993   3.619   3.264   6.879
 5365SOL    HW116994   3.566   3.335   6.926
 5365SOL    HW216995   3.710   3.257   6.919
 5366SOL     OW16996   4.978   5.656   1.776
 5366SOL    HW116997   4.893   5.661   1.829
 5366SOL    HW216998   4.961   5.611   1.689
 5367SOL     OW16999   0.176   5.257   0.470
 5367SOL    HW117000   0.212   5.256   0.564
 5367SOL    HW217001   0.248   5.288   0.408
 5368SOL     OW17002   4.894   0.753   2.885
 5368SOL    HW117003   4.963   0.706   2.830
 5368SOL    HW217004   4.935   0.835   2.925
 5369SOL     OW17005   3.552   6.793   2.907
 5369SOL    HW117006   3.627   6.824   2.849
 5369SOL    HW217007   3.576   6.707   2.951
 5370SOL     OW17008   4.481   2.948   1.330
 5370SOL    HW117009   4.526   2.882   1.390
 5370SOL    HW217010   4.549   3.014   1.296
 5371SOL     OW17011   1.800   3.523   4.253
 5371SOL    HW117012   1.773   3.477   4.168
 5371SOL    HW217013   1.850   3.458   4.311
 5372SOL     OW17014   2.362   5.941   4.009
 5372SOL    HW117015   2.385   6.003   3.934
 5372SOL    HW217016   2.386   5.847   3.983
 5373SOL     OW17017   3.208   5.404   4.324
 5373SOL    HW117018   3.276   5.333   4.339
 5373SOL    HW217019   3.207   5.467   4.401
 5374SOL     OW17020   0.872   4.096   0.256
 5374SOL    HW117021   0.860   4.031   0.180
 5374SOL    HW217022   0.799   4.164   0.253
 5375SOL     OW17023   1.605   4.210   4.724
 5375SOL    HW117024   1.584   4.279   4.655
 5375SOL    HW217025   1.701   4.218   4.752
 5376SOL     OW17026   1.790   3.010   0.668
 5376SOL    HW117027   1.815   3.030   0.573
 5376SOL    HW217028   1.704   2.959   0.669
 5377SOL     OW17029   0.052   6.899   1.567
 5377SOL    HW117030   0.017   6.977   1.516
 5377SOL    HW217031   7.003   6.836   1.586
 5378SOL     OW17032   6.890   0.653   1.784
 5378SOL    HW117033   6.797   0.617   1.775
 5378SOL    HW217034   6.948   0.584   1.828
 5379SOL     OW17035   1.020   5.338   5.092
 5379SOL    HW117036   1.023   5.346   5.192
 5379SOL    HW217037   0.924   5.340   5.062
 5380SOL     OW17038   1.702   0.978   3.577
 5380SOL    HW117039   1.787   0.994   3.627
 5380SOL    HW217040   1.650   1.063   3.571
 5381SOL     OW17041   6.236   4.491   0.836
 5381SOL    HW117042   6.256   4.437   0.755
 5381SOL    HW217043   6.277   4.582   0.826
 5382SOL     OW17044   3.263   0.723   1.886
 5382SOL    HW117045   3.188   0.674   1.931
 5382SOL    HW217046   3.270   0.815   1.924
 5383SOL     OW17047   2.635   2.705   5.349
 5383SOL    HW117048   2.600   2.630   5.404
 5383SOL    HW217049   2.618   2.792   5.397
 5384SOL     OW17050   6.226   0.140   4.203
 5384SOL    HW117051   6.273   0.100   4.282
 5384SOL    HW217052   6.252   0.237   4.195
 5385SOL     OW17053   2.950   3.507   3.714
 5385SOL    HW117054   2.928   3.602   3.734
 5385SOL    HW217055   2.923   3.449   3.791
 5386SOL     OW17056   4.466   0.438   4.242
 5386SOL    HW117057   4.526   0.462   4.318
 5386SOL    HW217058   4.465   0.338   4.230
 5387SOL     OW17059   2.690   6.007   3.905
 5387SOL    HW117060   2.652   6.020   3.997
 5387SOL    HW217061   2.744   6.088   3.881
 5388SOL     OW17062   5.997   0.657   3.472
 5388SOL    HW117063   5.911   0.614   3.444
 5388SOL    HW217064   6.071   0.590   3.464
 5389SOL     OW17065   5.511   0.435   1.454
 5389SOL    HW117066   5.461   0.456   1.370
 5389SOL    HW217067   5.505   0.513   1.516
 5390SOL     OW17068   4.684   4.466   3.654
 5390SOL    HW117069   4.676   4.498   3.559
 5390SOL    HW217070   4.606   4.498   3.707
 5391SOL     OW17071   1.779   2.595   1.227
 5391SOL    HW117072   1.709   2.591   1.298
 5391SOL    HW217073   1.866   2.562   1.264
 5392SOL     OW17074   6.175   3.372   0.761
 5392SOL    HW117075   6.222   3.285   0.749
 5392SOL    HW217076   6.174   3.397   0.858
 5393SOL     OW17077   5.413   0.084   6.328
 5393SOL    HW117078   5.420   0.022   6.406
 5393SOL    HW217079   5.505   0.107   6.296
 5394SOL     OW17080   6.546   4.311   6.793
 5394SOL    HW117081   6.449   4.304   6.817
 5394SOL    HW217082   6.558   4.291   6.696
 5395SOL     OW17083   4.951   1.232   1.898
 5395SOL    HW117084   4.895   1.150   1.901
 5395SOL    HW217085   4.989   1.243   1.806
 5396SOL     OW17086   4.956   4.328   2.848
 5396SOL    HW117087   5.022   4.333   2.923
 5396SOL    HW217088   4.920   4.235   2.842
 5397SOL     OW17089   6.653   2.942   2.085
 5397SOL    HW117090   6.578   2.934   2.020
 5397SOL    HW217091   6.628   3.008   2.157
 5398SOL     OW17092   3.334   1.834   2.619
 5398SOL    HW117093   3.356   1.784   2.536
 5398SOL    HW217094   3.350   1.932   2.604
 5399SOL     OW17095   2.329   5.943   0.031
 5399SOL    HW117096   2.341   6.035   0.070
 5399SOL    HW217097   2.319   5.950   6.958
 5400SOL     OW17098   2.769   3.946   0.918
 5400SOL    HW117099   2.854   3.982   0.955
 5400SOL    HW217100   2.712   3.911   0.993
 5401SOL     OW17101   5.819   3.771   1.797
 5401SOL    HW117102   5.738   3.720   1.823
 5401SOL    HW217103   5.798   3.830   1.719
 5402SOL     OW17104   2.511   4.762   1.697
 5402SOL    HW117105   2.504   4.807   1.786
 5402SOL    HW217106   2.605   4.731   1.682
 5403SOL     OW17107   6.285   2.918   6.286
 5403SOL    HW117108   6.246   2.975   6.213
 5403SOL    HW217109   6.336   2.842   6.245
 5404SOL     OW17110   0.884   1.569   2.884
 5404SOL    HW117111   0.963   1.536   2.832
 5404SOL    HW217112   0.854   1.656   2.847
 5405SOL     OW17113   6.192   5.543   6.932
 5405SOL    HW117114   6.104   5.566   6.889
 5405SOL    HW217115   6.184   5.556   0.005
 5406SOL     OW17116   2.291   1.211   6.966
 5406SOL    HW117117   2.270   1.279   0.010
 5406SOL    HW217118   2.367   1.153   6.997
 5407SOL     OW17119   4.779   2.952   0.963
 5407SOL    HW117120   4.847   2.925   0.895
 5407SOL    HW217121   4.691   2.907   0.943
 5408SOL     OW17122   3.187   1.472   6.582
 5408SOL    HW117123   3.273   1.498   6.627
 5408SOL    HW217124   3.110   1.511   6.633
 5409SOL     OW17125   5.359   0.829   3.754
 5409SOL    HW117126   5.457   0.825   3.733
 5409SOL    HW217127   5.312   0.754   3.707
 5410SOL     OW17128   3.088   2.443   1.228
 5410SOL    HW117129   3.090   2.382   1.307
 5410SOL    HW217130   3.114   2.393   1.146
 5411SOL     OW17131   6.429   5.399   5.443
 5411SOL    HW117132   6.341   5.440   5.466
 5411SOL    HW217133   6.477   5.373   5.527
 5412SOL     OW17134   4.624   1.427   6.945
 5412SOL    HW117135   4.638   1.509   6.891
 5412SOL    HW217136   4.678   1.433   0.003
 5413SOL     OW17137   2.374   1.892   1.276
 5413SOL    HW117138   2.416   1.801   1.279
 5413SOL    HW217139   2.435   1.957   1.322
 5414SOL     OW17140   4.647   2.142   4.967
 5414SOL    HW117141   4.723   2.190   5.011
 5414SOL    HW217142   4.596   2.207   4.909
 5415SOL     OW17143   1.570   5.822   0.821
 5415SOL    HW117144   1.475   5.852   0.818
 5415SOL    HW217145   1.586   5.766   0.902
 5416SOL     OW17146   4.442   5.158   5.674
 5416SOL    HW117147   4.518   5.218   5.700
 5416SOL    HW217148   4.360   5.185   5.725
 5417SOL     OW17149   4.102   6.418   5.436
 5417SOL    HW117150   4.143   6.491   5.491
 5417SOL    HW217151   4.036   6.368   5.492
 5418SOL     OW17152   3.755   6.705   3.580
 5418SOL    HW117153   3.827   6.750   3.632
 5418SOL    HW217154   3.666   6.738   3.611
 5419SOL     OW17155   3.419   5.239   0.388
 5419SOL    HW117156   3.411   5.280   0.479
 5419SOL    HW217157   3.514   5.212   0.372
 5420SOL     OW17158   1.376   2.525   2.432
 5420SOL    HW117159   1.310   2.600   2.425
 5420SOL    HW217160   1.328   2.437   2.431
 5421SOL     OW17161   2.490   2.423   2.434
 5421SOL    HW117162   2.491   2.327   2.405
 5421SOL    HW217163   2.466   2.481   2.356
 5422SOL     OW17164   0.367   5.432   0.351
 5422SOL    HW117165   0.460   5.408   0.378
 5422SOL    HW217166   0.370   5.507   0.284
 5423SOL     OW17167   6.268   2.756   6.973
 5423SOL    HW117168   6.349   2.751   6.915
 5423SOL    HW217169   6.186   2.747   6.916
 5424SOL     OW17170   5.595   3.233   3.922
 5424SOL    HW117171   5.607   3.165   3.995
 5424SOL    HW217172   5.551   3.315   3.960
 5425SOL     OW17173   3.986   1.184   4.261
 5425SOL    HW117174   3.994   1.109   4.195
 5425SOL    HW217175   3.989   1.148   4.354
 5426SOL     OW17176   6.489   5.484   4.115
 5426SOL    HW117177   6.471   5.396   4.159
 5426SOL    HW217178   6.586   5.507   4.124
 5427SOL     OW17179   4.677   4.625   6.853
 5427SOL    HW117180   4.620   4.547   6.825
 5427SOL    HW217181   4.702   4.679   6.772
 5428SOL     OW17182   6.843   6.664   1.316
 5428SOL    HW117183   6.818   6.589   1.377
 5428SOL    HW217184   6.870   6.743   1.370
 5429SOL     OW17185   2.124   2.220   6.877
 5429SOL    HW117186   2.099   2.212   6.780
 5429SOL    HW217187   2.213   2.178   6.892
 5430SOL     OW17188   0.195   3.069   6.024
 5430SOL    HW117189   0.161   3.132   6.094
 5430SOL    HW217190   0.294   3.064   6.028
 5431SOL     OW17191   3.110   6.059   0.265
 5431SOL    HW117192   3.165   6.114   0.203
 5431SOL    HW217193   3.022   6.037   0.222
 5432SOL     OW17194   5.360   6.720   6.851
 5432SOL    HW117195   5.276   6.667   6.857
 5432SOL    HW217196   5.439   6.658   6.857
 5433SOL     OW17197   0.344   1.720   4.516
 5433SOL    HW117198   0.309   1.788   4.580
 5433SOL    HW217199   0.275   1.702   4.445
 5434SOL     OW17200   4.009   0.804   5.298
 5434SOL    HW117201   4.044   0.715   5.269
 5434SOL    HW217202   3.930   0.791   5.358
 5435SOL     OW17203   5.506   0.665   1.600
 5435SOL    HW117204   5.446   0.707   1.668
 5435SOL    HW217205   5.601   0.691   1.618
 5436SOL     OW17206   5.164   4.072   3.832
 5436SOL    HW117207   5.087   4.114   3.880
 5436SOL    HW217208   5.202   3.998   3.888
 5437SOL     OW17209   3.040   4.546   6.579
 5437SOL    HW117210   3.112   4.479   6.594
 5437SOL    HW217211   3.066   4.633   6.619
 5438SOL     OW17212   6.560   3.459   2.527
 5438SOL    HW117213   6.560   3.359   2.538
 5438SOL    HW217214   6.466   3.493   2.529
 5439SOL     OW17215   0.830   2.262   0.335
 5439SOL    HW117216   0.768   2.319   0.282
 5439SOL    HW217217   0.923   2.298   0.328
 5440SOL     OW17218   0.723   1.060   1.562
 5440SOL    HW117219   0.794   1.062   1.632
 5440SOL    HW217220   0.736   1.136   1.499
 5441SOL     OW17221   4.831   2.483   3.184
 5441SOL    HW117222   4.870   2.495   3.276
 5441SOL    HW217223   4.736   2.513   3.183
 5442SOL     OW17224   3.163   5.768   3.817
 5442SOL    HW117225   3.088   5.786   3.882
 5442SOL    HW217226   3.224   5.847   3.814
 5443SOL     OW17227   2.831   0.742   3.971
 5443SOL    HW117228   2.917   0.793   3.971
 5443SOL    HW217229   2.771   0.778   3.899
 5444SOL     OW17230   1.787   0.592   4.644
 5444SOL    HW117231   1.844   0.665   4.607
 5444SOL    HW217232   1.751   0.619   4.734
 5445SOL     OW17233   5.973   3.968   3.668
 5445SOL    HW117234   6.055   3.972   3.726
 5445SOL    HW217235   5.891   3.969   3.726
 5446SOL     OW17236   6.895   4.866   4.827
 5446SOL    HW117237   6.806   4.910   4.843
 5446SOL    HW217238   6.965   4.936   4.814
 5447SOL     OW17239   2.714   1.817   6.726
 5447SOL    HW117240   2.669   1.799   6.639
 5447SOL    HW217241   2.740   1.730   6.769
 5448SOL     OW17242   4.591   2.776   5.126
 5448SOL    HW117243   4.644   2.798   5.208
 5448SOL    HW217244   4.498   2.750   5.153
 5449SOL     OW17245   1.866   2.851   6.355
 5449SOL    HW117246   1.847   2.937   6.308
 5449SOL    HW217247   1.786   2.792   6.350
 5450SOL     OW17248   1.603   0.067   1.996
 5450SOL    HW117249   1.510   0.030   1.996
 5450SOL    HW217250   1.608   0.145   1.934
 5451SOL     OW17251   1.539   6.357   3.742
 5451SOL    HW117252   1.590   6.278   3.708
 5451SOL    HW217253   1.463   6.325   3.799
 5452SOL     OW17254   2.258   4.520   6.738
 5452SOL    HW117255   2.167   4.488   6.711
 5452SOL    HW217256   2.287   4.593   6.676
 5453SOL     OW17257   5.722   4.599   1.422
 5453SOL    HW117258   5.660   4.619   1.498
 5453SOL    HW217259   5.748   4.684   1.377
 5454SOL     OW17260   7.003   4.294   6.814
 5454SOL    HW117261   7.014   4.393   6.804
 5454SOL    HW217262   6.961   4.256   6.731
 5455SOL     OW17263   6.301   3.346   0.359
 5455SOL    HW117264   6.326   3.339   0.456
 5455SOL    HW217265   6.202   3.339   0.350
 5456SOL     OW17266   3.656   0.190   7.012
 5456SOL    HW117267   3.712   0.220   0.062
 5456SOL    HW217268   3.666   0.091   7.000
 5457SOL     OW17269   5.884   2.288   0.449
 5457SOL    HW117270   5.962   2.331   0.494
 5457SOL    HW217271   5.836   2.229   0.514
 5458SOL     OW17272   0.534   4.972   6.936
 5458SOL    HW117273   0.437   4.963   6.958
 5458SOL    HW217274   0.588   4.916   6.999
 5459SOL     OW17275   2.619   4.737   6.651
 5459SOL    HW117276   2.589   4.755   6.745
 5459SOL    HW217277   2.543   4.699   6.599
 5460SOL     OW17278   3.089   6.775   2.478
 5460SOL    HW117279   3.043   6.862   2.459
 5460SOL    HW217280   3.186   6.792   2.495
 5461SOL     OW17281   5.940   6.839   5.058
 5461SOL    HW117282   5.855   6.823   5.109
 5461SOL    HW217283   6.018   6.828   5.119
 5462SOL     OW17284   1.275   0.878   6.638
 5462SOL    HW117285   1.245   0.972   6.619
 5462SOL    HW217286   1.198   0.824   6.671
 5463SOL     OW17287   6.447   2.054   0.185
 5463SOL    HW117288   6.499   2.011   0.259
 5463SOL    HW217289   6.361   2.006   0.172
 5464SOL     OW17290   1.333   1.394   4.115
 5464SOL    HW117291   1.358   1.334   4.040
 5464SOL    HW217292   1.326   1.341   4.200
 5465SOL     OW17293   3.952   6.201   3.250
 5465SOL    HW117294   4.042   6.207   3.292
 5465SOL    HW217295   3.947   6.261   3.170
 5466SOL     OW17296   5.645   4.249   5.457
 5466SOL    HW117297   5.631   4.340   5.497
 5466SOL    HW217298   5.601   4.245   5.367
 5467SOL     OW17299   5.295   3.022   3.100
 5467SOL    HW117300   5.383   2.980   3.122
 5467SOL    HW217301   5.295   3.051   3.004
 5468SOL     OW17302   5.265   2.212   4.508
 5468SOL    HW117303   5.247   2.169   4.596
 5468SOL    HW217304   5.330   2.287   4.520
 5469SOL     OW17305   3.603   4.638   6.506
 5469SOL    HW117306   3.683   4.608   6.453
 5469SOL    HW217307   3.523   4.641   6.446
 5470SOL     OW17308   3.154   5.806   2.598
 5470SOL    HW117309   3.222   5.733   2.600
 5470SOL    HW217310   3.161   5.857   2.512
 5471SOL     OW17311   4.919   0.011   2.455
 5471SOL    HW117312   4.884   0.053   2.372
 5471SOL    HW217313   4.975   0.077   2.505
 5472SOL     OW17314   3.819   3.664   5.776
 5472SOL    HW117315   3.898   3.605   5.758
 5472SOL    HW217316   3.825   3.746   5.721
 5473SOL     OW17317   0.625   3.269   3.421
 5473SOL    HW117318   0.593   3.303   3.510
 5473SOL    HW217319   0.586   3.179   3.404
 5474SOL     OW17320   1.240   4.228   4.683
 5474SOL    HW117321   1.258   4.304   4.619
 5474SOL    HW217322   1.165   4.253   4.744
 5475SOL     OW17323   2.336   2.262   1.295
 5475SOL    HW117324   2.395   2.203   1.350
 5475SOL    HW217325   2.391   2.316   1.232
 5476SOL     OW17326   1.913   4.296   5.643
 5476SOL    HW117327   1.995   4.304   5.586
 5476SOL    HW217328   1.919   4.212   5.698
 5477SOL     OW17329   1.912   4.058   3.293
 5477SOL    HW117330   1.813   4.075   3.298
 5477SOL    HW217331   1.955   4.132   3.242
 5478SOL     OW17332   4.367   4.876   5.340
 5478SOL    HW117333   4.378   4.803   5.407
 5478SOL    HW217334   4.402   4.962   5.379
 5479SOL     OW17335   4.882   1.175   6.020
 5479SOL    HW117336   4.824   1.125   6.083
 5479SOL    HW217337   4.949   1.230   6.071
 5480SOL     OW17338   0.515   3.733   3.567
 5480SOL    HW117339   0.460   3.650   3.556
 5480SOL    HW217340   0.473   3.808   3.515
 5481SOL     OW17341   3.950   1.024   3.868
 5481SOL    HW117342   3.943   1.094   3.797
 5481SOL    HW217343   4.045   1.013   3.896
 5482SOL     OW17344   3.702   4.496   1.688
 5482SOL    HW117345   3.782   4.546   1.653
 5482SOL    HW217346   3.647   4.558   1.743
 5483SOL     OW17347   0.191   2.378   5.731
 5483SOL    HW117348   0.221   2.314   5.661
 5483SOL    HW217349   0.149   2.458   5.687
 5484SOL     OW17350   4.777   0.870   5.242
 5484SOL    HW117351   4.823   0.868   5.154
 5484SOL    HW217352   4.692   0.817   5.237
 5485SOL     OW17353   4.396   0.266   5.478
 5485SOL    HW117354   4.354   0.313   5.400
 5485SOL    HW217355   4.352   0.295   5.563
 5486SOL     OW17356   2.641   5.896   5.595
 5486SOL    HW117357   2.541   5.894   5.601
 5486SOL    HW217358   2.671   5.843   5.516
 5487SOL     OW17359   3.337   3.435   6.503
 5487SOL    HW117360   3.317   3.532   6.513
 5487SOL    HW217361   3.368   3.416   6.410
 5488SOL     OW17362   6.623   0.673   0.825
 5488SOL    HW117363   6.683   0.744   0.787
 5488SOL    HW217364   6.620   0.682   0.924
 5489SOL     OW17365   6.353   3.556   1.433
 5489SOL    HW117366   6.381   3.650   1.417
 5489SOL    HW217367   6.254   3.552   1.447
 5490SOL     OW17368   1.983   0.015   2.531
 5490SOL    HW117369   1.959   0.107   2.498
 5490SOL    HW217370   2.050   7.000   2.468
 5491SOL     OW17371   0.487   3.068   0.424
 5491SOL    HW117372   0.574   3.041   0.467
 5491SOL    HW217373   0.476   3.167   0.431
 5492SOL     OW17374   1.097   2.994   5.783
 5492SOL    HW117375   1.149   2.952   5.708
 5492SOL    HW217376   1.090   3.093   5.767
 5493SOL     OW17377   4.028   3.648   2.496
 5493SOL    HW117378   4.036   3.732   2.550
 5493SOL    HW217379   3.941   3.603   2.519
 5494SOL     OW17380   6.731   4.004   5.143
 5494SOL    HW117381   6.829   4.023   5.138
 5494SOL    HW217382   6.699   3.971   5.055
 5495SOL     OW17383   5.664   0.840   1.037
 5495SOL    HW117384   5.741   0.856   0.975
 5495SOL    HW217385   5.646   0.742   1.043
 5496SOL     OW17386   4.339   0.542   3.706
 5496SOL    HW117387   4.277   0.497   3.770
 5496SOL    HW217388   4.425   0.492   3.702
 5497SOL     OW17389   0.324   1.425   5.443
 5497SOL    HW117390   0.279   1.380   5.366
 5497SOL    HW217391   0.283   1.392   5.529
 5498SOL     OW17392   0.380   5.296   1.790
 5498SOL    HW117393   0.392   5.307   1.691
 5498SOL    HW217394   0.470   5.278   1.832
 5499SOL     OW17395   0.545   0.651   3.608
 5499SOL    HW117396   0.523   0.708   3.686
 5499SOL    HW217397   0.620   0.589   3.632
 5500SOL     OW17398   1.542   0.487   0.277
 5500SOL    HW117399   1.598   0.506   0.196
 5500SOL    HW217400   1.445   0.495   0.253
 5501SOL     OW17401   3.929   1.813   0.491
 5501SOL    HW117402   3.911   1.715   0.492
 5501SOL    HW217403   4.018   1.830   0.449
 5502SOL     OW17404   5.440   3.772   6.381
 5502SOL    HW117405   5.488   3.703   6.435
 5502SOL    HW217406   5.470   3.767   6.286
 5503SOL     OW17407   0.298   4.379   1.259
 5503SOL    HW117408   0.326   4.423   1.174
 5503SOL    HW217409   0.338   4.428   1.337
 5504SOL     OW17410   4.369   1.535   5.790
 5504SOL    HW117411   4.304   1.572   5.723
 5504SOL    HW217412   4.402   1.446   5.758
 5505SOL     OW17413   2.275   4.584   3.584
 5505SOL    HW117414   2.346   4.543   3.527
 5505SOL    HW217415   2.204   4.623   3.525
 5506SOL     OW17416   6.837   3.526   0.045
 5506SOL    HW117417   6.895   3.451   0.076
 5506SOL    HW217418   6.787   3.497   6.990
 5507SOL     OW17419   3.692   0.711   6.030
 5507SOL    HW117420   3.665   0.654   6.107
 5507SOL    HW217421   3.612   0.763   5.998
 5508SOL     OW17422   1.096   0.309   0.168
 5508SOL    HW117423   1.087   0.268   0.259
 5508SOL    HW217424   1.180   0.276   0.124
 5509SOL     OW17425   0.534   5.721   0.656
 5509SOL    HW117426   0.561   5.795   0.594
 5509SOL    HW217427   0.493   5.760   0.738
 5510SOL     OW17428   4.928   5.287   6.324
 5510SOL    HW117429   4.998   5.260   6.391
 5510SOL    HW217430   4.952   5.375   6.284
 5511SOL     OW17431   1.067   1.019   5.037
 5511SOL    HW117432   1.129   1.049   5.109
 5511SOL    HW217433   1.055   1.092   4.970
 5512SOL     OW17434   3.415   1.216   1.073
 5512SOL    HW117435   3.466   1.189   1.154
 5512SOL    HW217436   3.346   1.285   1.097
 5513SOL     OW17437   2.965   4.785   5.703
 5513SOL    HW117438   3.003   4.800   5.794
 5513SOL    HW217439   2.866   4.797   5.706
 5514SOL     OW17440   3.786   0.048   5.289
 5514SOL    HW117441   3.768   6.976   5.300
 5514SOL    HW217442   3.872   0.061   5.241
 5515SOL     OW17443   1.762   5.946   1.837
 5515SOL    HW117444   1.753   5.847   1.852
 5515SOL    HW217445   1.692   5.976   1.772
 5516SOL     OW17446   2.379   2.736   5.219
 5516SOL    HW117447   2.395   2.800   5.143
 5516SOL    HW217448   2.464   2.722   5.269
 5517SOL     OW17449   1.749   3.692   2.022
 5517SOL    HW117450   1.667   3.638   2.041
 5517SOL    HW217451   1.830   3.639   2.046
 5518SOL     OW17452   6.190   4.860   5.927
 5518SOL    HW117453   6.127   4.838   5.853
 5518SOL    HW217454   6.280   4.880   5.889
 5519SOL     OW17455   5.227   3.091   3.575
 5519SOL    HW117456   5.181   3.015   3.528
 5519SOL    HW217457   5.326   3.083   3.562
 5520SOL     OW17458   5.512   6.237   2.534
 5520SOL    HW117459   5.603   6.197   2.534
 5520SOL    HW217460   5.502   6.300   2.611
 5521SOL     OW17461   5.317   6.117   1.405
 5521SOL    HW117462   5.269   6.176   1.468
 5521SOL    HW217463   5.251   6.065   1.351
 5522SOL     OW17464   6.636   5.474   1.454
 5522SOL    HW117465   6.654   5.519   1.366
 5522SOL    HW217466   6.537   5.458   1.464
 5523SOL     OW17467   4.649   0.826   2.767
 5523SOL    HW117468   4.689   0.910   2.732
 5523SOL    HW217469   4.722   0.766   2.802
 5524SOL     OW17470   3.805   6.777   5.365
 5524SOL    HW117471   3.796   6.818   5.456
 5524SOL    HW217472   3.902   6.763   5.344
 5525SOL     OW17473   0.120   2.915   0.268
 5525SOL    HW117474   0.200   2.885   0.320
 5525SOL    HW217475   0.110   2.858   0.186
 5526SOL     OW17476   4.553   4.445   2.737
 5526SOL    HW117477   4.494   4.470   2.814
 5526SOL    HW217478   4.519   4.488   2.653
 5527SOL     OW17479   4.876   3.720   4.008
 5527SOL    HW117480   4.884   3.678   3.918
 5527SOL    HW217481   4.779   3.736   4.028
 5528SOL     OW17482   0.959   1.515   1.702
 5528SOL    HW117483   1.053   1.516   1.736
 5528SOL    HW217484   0.952   1.573   1.621
 5529SOL     OW17485   2.762   6.710   3.598
 5529SOL    HW117486   2.732   6.747   3.511
 5529SOL    HW217487   2.741   6.612   3.602
 5530SOL     OW17488   6.739   2.650   2.064
 5530SOL    HW117489   6.670   2.717   2.094
 5530SOL    HW217490   6.695   2.560   2.054
 5531SOL     OW17491   4.158   3.780   1.544
 5531SOL    HW117492   4.074   3.782   1.598
 5531SOL    HW217493   4.237   3.776   1.606
 5532SOL     OW17494   1.912   2.715   0.522
 5532SOL    HW117495   1.844   2.774   0.565
 5532SOL    HW217496   1.972   2.676   0.592
 5533SOL     OW17497   4.863   1.365   4.342
 5533SOL    HW117498   4.902   1.457   4.337
 5533SOL    HW217499   4.921   1.301   4.292
 5534SOL     OW17500   1.063   1.317   5.824
 5534SOL    HW117501   1.159   1.333   5.843
 5534SOL    HW217502   1.009   1.338   5.906
 5535SOL     OW17503   0.936   1.594   2.497
 5535SOL    HW117504   0.911   1.626   2.406
 5535SOL    HW217505   0.853   1.569   2.547
 5536SOL     OW17506   3.613   0.661   4.585
 5536SOL    HW117507   3.578   0.664   4.491
 5536SOL    HW217508   3.589   0.746   4.633
 5537SOL     OW17509   3.891   1.582   2.302
 5537SOL    HW117510   3.810   1.640   2.289
 5537SOL    HW217511   3.877   1.494   2.257
 5538SOL     OW17512   4.317   5.966   4.629
 5538SOL    HW117513   4.253   6.016   4.687
 5538SOL    HW217514   4.268   5.915   4.559
 5539SOL     OW17515   2.124   3.618   1.009
 5539SOL    HW117516   2.200   3.553   1.014
 5539SOL    HW217517   2.114   3.664   1.097
 5540SOL     OW17518   4.788   4.770   3.825
 5540SOL    HW117519   4.816   4.746   3.731
 5540SOL    HW217520   4.790   4.687   3.881
 5541SOL     OW17521   4.160   1.499   6.438
 5541SOL    HW117522   4.166   1.537   6.346
 5541SOL    HW217523   4.216   1.553   6.501
 5542SOL     OW17524   3.999   3.374   6.178
 5542SOL    HW117525   3.974   3.299   6.117
 5542SOL    HW217526   4.098   3.371   6.195
 5543SOL     OW17527   5.886   3.758   6.766
 5543SOL    HW117528   5.814   3.756   6.696
 5543SOL    HW217529   5.847   3.785   6.853
 5544SOL     OW17530   5.374   0.937   6.142
 5544SOL    HW117531   5.344   0.842   6.149
 5544SOL    HW217532   5.467   0.939   6.105
 5545SOL     OW17533   4.231   2.030   2.508
 5545SOL    HW117534   4.186   1.987   2.429
 5545SOL    HW217535   4.261   2.122   2.482
 5546SOL     OW17536   1.676   5.242   5.579
 5546SOL    HW117537   1.653   5.202   5.668
 5546SOL    HW217538   1.644   5.337   5.577
 5547SOL     OW17539   3.269   5.757   4.956
 5547SOL    HW117540   3.360   5.800   4.956
 5547SOL    HW217541   3.249   5.723   4.864
 5548SOL     OW17542   6.425   3.540   5.553
 5548SOL    HW117543   6.442   3.596   5.471
 5548SOL    HW217544   6.481   3.458   5.549
 5549SOL     OW17545   3.567   5.059   6.603
 5549SOL    HW117546   3.612   4.980   6.646
 5549SOL    HW217547   3.604   5.143   6.642
 5550SOL     OW17548   2.263   5.784   1.461
 5550SOL    HW117549   2.183   5.742   1.503
 5550SOL    HW217550   2.285   5.737   1.376
 5551SOL     OW17551   1.532   0.607   3.377
 5551SOL    HW117552   1.526   0.671   3.301
 5551SOL    HW217553   1.571   0.654   3.457
 5552SOL     OW17554   0.171   1.883   0.772
 5552SOL    HW117555   0.081   1.840   0.777
 5552SOL    HW217556   0.207   1.898   0.864
 5553SOL     OW17557   4.211   6.485   6.866
 5553SOL    HW117558   4.296   6.463   6.914
 5553SOL    HW217559   4.231   6.537   6.783
 5554SOL     OW17560   2.884   2.238   5.142
 5554SOL    HW117561   2.874   2.257   5.239
 5554SOL    HW217562   2.979   2.256   5.114
 5555SOL     OW17563   0.476   5.605   3.765
 5555SOL    HW117564   0.486   5.639   3.672
 5555SOL    HW217565   0.490   5.681   3.829
 5556SOL     OW17566   0.802   1.898   5.250
 5556SOL    HW117567   0.727   1.950   5.290
 5556SOL    HW217568   0.791   1.801   5.272
 5557SOL     OW17569   2.020   6.064   3.725
 5557SOL    HW117570   2.108   6.047   3.680
 5557SOL    HW217571   2.002   5.989   3.790
 5558SOL     OW17572   5.402   2.780   4.957
 5558SOL    HW117573   5.337   2.848   4.923
 5558SOL    HW217574   5.492   2.796   4.916
 5559SOL     OW17575   2.581   0.245   1.048
 5559SOL    HW117576   2.514   0.307   1.007
 5559SOL    HW217577   2.656   0.229   0.984
 5560SOL     OW17578   0.442   1.230   3.357
 5560SOL    HW117579   0.527   1.236   3.408
 5560SOL    HW217580   0.455   1.266   3.265
 5561SOL     OW17581   1.647   3.185   3.367
 5561SOL    HW117582   1.725   3.217   3.315
 5561SOL    HW217583   1.567   3.241   3.344
 5562SOL     OW17584   2.284   3.104   6.095
 5562SOL    HW117585   2.310   3.008   6.082
 5562SOL    HW217586   2.359   3.154   6.138
 5563SOL     OW17587   4.511   6.137   2.431
 5563SOL    HW117588   4.534   6.172   2.522
 5563SOL    HW217589   4.412   6.138   2.418
 5564SOL     OW17590   5.211   4.386   1.780
 5564SOL    HW117591   5.134   4.354   1.836
 5564SOL    HW217592   5.176   4.442   1.705
 5565SOL     OW17593   3.938   2.190   5.661
 5565SOL    HW117594   3.850   2.239   5.665
 5565SOL    HW217595   3.962   2.159   5.753
 5566SOL     OW17596   2.024   5.050   0.886
 5566SOL    HW117597   1.946   4.988   0.890
 5566SOL    HW217598   1.992   5.144   0.898
 5567SOL     OW17599   1.649   5.491   1.340
 5567SOL    HW117600   1.667   5.480   1.438
 5567SOL    HW217601   1.723   5.448   1.288
 5568SOL     OW17602   4.436   1.155   1.330
 5568SOL    HW117603   4.354   1.211   1.323
 5568SOL    HW217604   4.414   1.067   1.372
 5569SOL     OW17605   4.119   1.533   1.000
 5569SOL    HW117606   4.186   1.460   1.014
 5569SOL    HW217607   4.033   1.509   1.047
 5570SOL     OW17608   6.570   4.445   5.298
 5570SOL    HW117609   6.641   4.375   5.290
 5570SOL    HW217610   6.537   4.449   5.392
 5571SOL     OW17611   7.019   5.647   0.522
 5571SOL    HW117612   0.064   5.678   0.586
 5571SOL    HW217613   6.986   5.725   0.469
 5572SOL     OW17614   4.267   2.349   6.260
 5572SOL    HW117615   4.192   2.381   6.318
 5572SOL    HW217616   4.288   2.419   6.192
 5573SOL     OW17617   1.209   3.851   0.886
 5573SOL    HW117618   1.151   3.819   0.961
 5573SOL    HW217619   1.300   3.873   0.921
 5574SOL     OW17620   0.597   6.218   4.970
 5574SOL    HW117621   0.592   6.227   4.871
 5574SOL    HW217622   0.607   6.122   4.995
 5575SOL     OW17623   1.284   0.914   0.716
 5575SOL    HW117624   1.228   0.831   0.723
 5575SOL    HW217625   1.234   0.983   0.664
 5576SOL     OW17626   5.426   5.860   0.307
 5576SOL    HW117627   5.393   5.866   0.212
 5576SOL    HW217628   5.418   5.950   0.350
 5577SOL     OW17629   2.101   3.881   5.390
 5577SOL    HW117630   2.117   3.876   5.291
 5577SOL    HW217631   2.170   3.825   5.437
 5578SOL     OW17632   4.211   2.862   0.345
 5578SOL    HW117633   4.134   2.809   0.379
 5578SOL    HW217634   4.277   2.800   0.301
 5579SOL     OW17635   5.455   3.526   6.911
 5579SOL    HW117636   5.504   3.529   6.998
 5579SOL    HW217637   5.359   3.552   6.926
 5580SOL     OW17638   5.230   0.837   0.512
 5580SOL    HW117639   5.294   0.872   0.580
 5580SOL    HW217640   5.278   0.816   0.427
 5581SOL     OW17641   2.158   0.970   6.500
 5581SOL    HW117642   2.172   1.038   6.572
 5581SOL    HW217643   2.146   0.880   6.541
 5582SOL     OW17644   3.385   3.266   3.603
 5582SOL    HW117645   3.462   3.321   3.572
 5582SOL    HW217646   3.300   3.317   3.591
 5583SOL     OW17647   3.551   0.332   1.659
 5583SOL    HW117648   3.563   0.405   1.592
 5583SOL    HW217649   3.557   0.243   1.612
 5584SOL     OW17650   6.852   3.916   2.921
 5584SOL    HW117651   6.830   3.836   2.977
 5584SOL    HW217652   6.814   3.998   2.964
 5585SOL     OW17653   6.209   0.697   4.183
 5585SOL    HW117654   6.252   0.785   4.207
 5585SOL    HW217655   6.217   0.683   4.084
 5586SOL     OW17656   2.312   1.036   5.741
 5586SOL    HW117657   2.352   1.106   5.801
 5586SOL    HW217658   2.283   1.079   5.655
 5587SOL     OW17659   3.949   0.573   3.587
 5587SOL    HW117660   3.885   0.501   3.613
 5587SOL    HW217661   3.916   0.661   3.620
 5588SOL     OW17662   2.354   0.135   5.657
 5588SOL    HW117663   2.359   0.186   5.571
 5588SOL    HW217664   2.447   0.113   5.688
 5589SOL     OW17665   4.651   2.907   6.052
 5589SOL    HW117666   4.585   2.840   6.087
 5589SOL    HW217667   4.608   2.997   6.045
 5590SOL     OW17668   0.416   5.990   4.521
 5590SOL    HW117669   0.377   5.912   4.473
 5590SOL    HW217670   0.389   5.986   4.618
 5591SOL     OW17671   5.333   0.283   7.024
 5591SOL    HW117672   5.310   0.213   0.066
 5591SOL    HW217673   5.299   0.372   0.029
 5592SOL     OW17674   1.701   3.345   2.576
 5592SOL    HW117675   1.790   3.389   2.587
 5592SOL    HW217676   1.695   3.266   2.638
 5593SOL     OW17677   2.049   2.314   5.988
 5593SOL    HW117678   2.115   2.239   6.000
 5593SOL    HW217679   1.956   2.277   5.989
 5594SOL     OW17680   2.245   0.339   0.600
 5594SOL    HW117681   2.300   0.267   0.559
 5594SOL    HW217682   2.281   0.429   0.573
 5595SOL     OW17683   6.906   2.130   6.140
 5595SOL    HW117684   6.846   2.060   6.178
 5595SOL    HW217685   6.997   2.122   6.183
 5596SOL     OW17686   5.307   0.481   2.819
 5596SOL    HW117687   5.333   0.473   2.915
 5596SOL    HW217688   5.341   0.402   2.768
 5597SOL     OW17689   6.620   0.987   6.436
 5597SOL    HW117690   6.597   0.983   6.534
 5597SOL    HW217691   6.695   0.924   6.417
 5598SOL     OW17692   6.229   1.881   3.538
 5598SOL    HW117693   6.276   1.796   3.561
 5598SOL    HW217694   6.271   1.957   3.587
 5599SOL     OW17695   4.916   3.962   2.333
 5599SOL    HW117696   4.854   3.994   2.262
 5599SOL    HW217697   4.990   4.029   2.346
 5600SOL     OW17698   2.409   1.253   2.685
 5600SOL    HW117699   2.437   1.244   2.590
 5600SOL    HW217700   2.439   1.342   2.720
 5601SOL     OW17701   5.231   2.978   5.800
 5601SOL    HW117702   5.131   2.972   5.791
 5601SOL    HW217703   5.262   3.068   5.771
 5602SOL     OW17704   0.406   2.545   3.171
 5602SOL    HW117705   0.332   2.503   3.223
 5602SOL    HW217706   0.494   2.515   3.207
 5603SOL     OW17707   3.990   2.170   4.516
 5603SOL    HW117708   3.974   2.234   4.441
 5603SOL    HW217709   4.056   2.100   4.487
 5604SOL     OW17710   0.495   0.034   3.678
 5604SOL    HW117711   0.548   6.977   3.660
 5604SOL    HW217712   0.557   0.110   3.694
 5605SOL     OW17713   2.904   5.880   4.565
 5605SOL    HW117714   2.842   5.842   4.496
 5605SOL    HW217715   2.918   5.813   4.638
 5606SOL     OW17716   4.776   2.018   0.493
 5606SOL    HW117717   4.689   2.066   0.483
 5606SOL    HW217718   4.847   2.082   0.521
 5607SOL     OW17719   5.962   2.583   2.037
 5607SOL    HW117720   5.925   2.604   1.946
 5607SOL    HW217721   5.935   2.491   2.063
 5608SOL     OW17722   4.620   1.208   3.445
 5608SOL    HW117723   4.540   1.251   3.488
 5608SOL    HW217724   4.701   1.263   3.464
 5609SOL     OW17725   6.472   6.665   0.769
 5609SOL    HW117726   6.556   6.712   0.793
 5609SOL    HW217727   6.493   6.571   0.740
 5610SOL     OW17728   5.231   4.414   0.084
 5610SOL    HW117729   5.195   4.383   7.022
 5610SOL    HW217730   5.325   4.380   0.094
 5611SOL     OW17731   7.022   5.123   1.706
 5611SOL    HW117732   7.009   5.132   1.805
 5611SOL    HW217733   6.950   5.172   1.658
 5612SOL     OW17734   2.730   0.807   0.912
 5612SOL    HW117735   2.819   0.761   0.906
 5612SOL    HW217736   2.681   0.771   0.992
 5613SOL     OW17737   6.562   5.249   5.237
 5613SOL    HW117738   6.581   5.176   5.303
 5613SOL    HW217739   6.495   5.312   5.275
 5614SOL     OW17740   6.013   2.056   4.241
 5614SOL    HW117741   5.929   2.004   4.229
 5614SOL    HW217742   6.091   1.998   4.220
 5615SOL     OW17743   0.132   3.105   3.008
 5615SOL    HW117744   0.208   3.060   3.055
 5615SOL    HW217745   0.135   3.203   3.025
 5616SOL     OW17746   1.689   3.090   3.068
 5616SOL    HW117747   1.781   3.055   3.051
 5616SOL    HW217748   1.625   3.014   3.078
 5617SOL     OW17749   1.963   5.166   6.532
 5617SOL    HW117750   2.015   5.091   6.491
 5617SOL    HW217751   1.871   5.135   6.555
 5618SOL     OW17752   6.460   5.859   3.821
 5618SOL    HW117753   6.409   5.780   3.855
 5618SOL    HW217754   6.530   5.885   3.888
 5619SOL     OW17755   3.521   3.140   4.414
 5619SOL    HW117756   3.448   3.207   4.411
 5619SOL    HW217757   3.496   3.061   4.357
 5620SOL     OW17758   4.984   4.346   5.702
 5620SOL    HW117759   4.890   4.343   5.670
 5620SOL    HW217760   5.044   4.373   5.626
 5621SOL     OW17761   1.843   2.363   5.172
 5621SOL    HW117762   1.823   2.296   5.244
 5621SOL    HW217763   1.763   2.421   5.159
 5622SOL     OW17764   4.959   5.575   4.795
 5622SOL    HW117765   5.022   5.588   4.871
 5622SOL    HW217766   4.888   5.646   4.798
 5623SOL     OW17767   5.251   6.283   4.121
 5623SOL    HW117768   5.176   6.319   4.176
 5623SOL    HW217769   5.254   6.184   4.130
 5624SOL     OW17770   6.791   4.990   4.505
 5624SOL    HW117771   6.888   4.963   4.510
 5624SOL    HW217772   6.737   4.934   4.567
 5625SOL     OW17773   0.987   5.963   4.824
 5625SOL    HW117774   1.008   6.059   4.803
 5625SOL    HW217775   1.059   5.904   4.788
 5626SOL     OW17776   1.813   3.897   4.746
 5626SOL    HW117777   1.801   3.879   4.843
 5626SOL    HW217778   1.851   3.989   4.733
 5627SOL     OW17779   1.076   5.341   6.972
 5627SOL    HW117780   0.984   5.303   6.981
 5627SOL    HW217781   1.144   5.269   6.984
 5628SOL     OW17782   2.478   2.897   1.070
 5628SOL    HW117783   2.503   2.968   1.135
 5628SOL    HW217784   2.538   2.818   1.082
 5629SOL     OW17785   5.114   4.076   1.508
 5629SOL    HW117786   5.096   3.992   1.560
 5629SOL    HW217787   5.189   4.127   1.551
 5630SOL     OW17788   2.391   4.060   6.638
 5630SOL    HW117789   2.294   4.038   6.650
 5630SOL    HW217790   2.403   4.159   6.633
 5631SOL     OW17791   4.522   0.716   2.044
 5631SOL    HW117792   4.614   0.697   2.008
 5631SOL    HW217793   4.464   0.636   2.032
 5632SOL     OW17794   5.823   0.013   5.843
 5632SOL    HW117795   5.772   0.070   5.779
 5632SOL    HW217796   5.869   0.071   5.911
 5633SOL     OW17797   0.496   5.090   5.590
 5633SOL    HW117798   0.428   5.018   5.601
 5633SOL    HW217799   0.519   5.127   5.681
 5634SOL     OW17800   3.049   6.556   6.888
 5634SOL    HW117801   2.984   6.571   6.814
 5634SOL    HW217802   3.038   6.463   6.924
 5635SOL     OW17803   2.362   0.136   6.828
 5635SOL    HW117804   2.423   0.193   6.882
 5635SOL    HW217805   2.326   0.189   6.751
 5636SOL     OW17806   6.856   1.311   5.638
 5636SOL    HW117807   6.802   1.396   5.636
 5636SOL    HW217808   6.945   1.330   5.681
 5637SOL     OW17809   5.088   6.858   4.408
 5637SOL    HW117810   5.162   6.924   4.402
 5637SOL    HW217811   5.060   6.847   4.503
 5638SOL     OW17812   5.122   5.287   0.788
 5638SOL    HW117813   5.180   5.352   0.739
 5638SOL    HW217814   5.169   5.256   0.870
 5639SOL     OW17815   0.651   0.297   1.323
 5639SOL    HW117816   0.697   0.376   1.284
 5639SOL    HW217817   0.569   0.276   1.270
 5640SOL     OW17818   3.161   5.777   3.492
 5640SOL    HW117819   3.131   5.820   3.577
 5640SOL    HW217820   3.208   5.844   3.434
 5641SOL     OW17821   0.770   4.883   4.034
 5641SOL    HW117822   0.794   4.786   4.035
 5641SOL    HW217823   0.851   4.937   4.012
 5642SOL     OW17824   1.539   4.462   0.123
 5642SOL    HW117825   1.613   4.507   0.174
 5642SOL    HW217826   1.522   4.372   0.162
 5643SOL     OW17827   4.279   2.023   4.451
 5643SOL    HW117828   4.363   2.030   4.398
 5643SOL    HW217829   4.207   1.982   4.395
 5644SOL     OW17830   4.788   1.927   5.256
 5644SOL    HW117831   4.692   1.899   5.250
 5644SOL    HW217832   4.837   1.897   5.174
 5645SOL     OW17833   6.126   5.774   3.663
 5645SOL    HW117834   6.143   5.857   3.715
 5645SOL    HW217835   6.107   5.699   3.726
 5646SOL     OW17836   0.526   6.412   3.579
 5646SOL    HW117837   0.544   6.359   3.661
 5646SOL    HW217838   0.612   6.432   3.532
 5647SOL     OW17839   5.886   5.632   6.794
 5647SOL    HW117840   5.877   5.666   6.701
 5647SOL    HW217841   5.810   5.666   6.850
 5648SOL     OW17842   1.761   1.596   3.641
 5648SOL    HW117843   1.844   1.542   3.635
 5648SOL    HW217844   1.783   1.687   3.677
 5649SOL     OW17845   0.988   0.481   4.587
 5649SOL    HW117846   0.916   0.511   4.651
 5649SOL    HW217847   1.041   0.408   4.630
 5650SOL     OW17848   6.717   4.825   6.796
 5650SOL    HW117849   6.657   4.844   6.874
 5650SOL    HW217850   6.661   4.804   6.716
 5651SOL     OW17851   0.159   1.469   1.798
 5651SOL    HW117852   0.249   1.462   1.840
 5651SOL    HW217853   0.092   1.500   1.866
 5652SOL     OW17854   4.728   5.788   2.040
 5652SOL    HW117855   4.726   5.767   2.138
 5652SOL    HW217856   4.697   5.707   1.989
 5653SOL     OW17857   0.111   5.406   5.242
 5653SOL    HW117858   0.178   5.333   5.222
 5653SOL    HW217859   0.019   5.373   5.221
 5654SOL     OW17860   6.873   0.524   5.352
 5654SOL    HW117861   6.950   0.460   5.350
 5654SOL    HW217862   6.840   0.534   5.446
 5655SOL     OW17863   0.763   3.466   3.778
 5655SOL    HW117864   0.828   3.460   3.854
 5655SOL    HW217865   0.747   3.374   3.741
 5656SOL     OW17866   3.475   3.292   0.876
 5656SOL    HW117867   3.394   3.331   0.832
 5656SOL    HW217868   3.554   3.352   0.860
 5657SOL     OW17869   4.118   0.296   2.154
 5657SOL    HW117870   4.035   0.272   2.203
 5657SOL    HW217871   4.164   0.212   2.124
 5658SOL     OW17872   3.763   6.834   5.650
 5658SOL    HW117873   3.700   6.759   5.674
 5658SOL    HW217874   3.753   6.907   5.717
 5659SOL     OW17875   2.971   3.324   2.835
 5659SOL    HW117876   2.994   3.390   2.763
 5659SOL    HW217877   2.875   3.298   2.827
 5660SOL     OW17878   4.665   0.570   6.793
 5660SOL    HW117879   4.645   0.503   6.721
 5660SOL    HW217880   4.673   0.523   6.881
 5661SOL     OW17881   0.294   5.934   4.812
 5661SOL    HW117882   0.265   5.839   4.823
 5661SOL    HW217883   0.238   5.993   4.870
 5662SOL     OW17884   2.314   4.309   4.145
 5662SOL    HW117885   2.349   4.359   4.065
 5662SOL    HW217886   2.315   4.370   4.225
 5663SOL     OW17887   1.041   4.026   0.765
 5663SOL    HW117888   1.112   3.963   0.798
 5663SOL    HW217889   1.071   4.120   0.779
 5664SOL     OW17890   0.224   4.794   2.416
 5664SOL    HW117891   0.143   4.853   2.406
 5664SOL    HW217892   0.297   4.827   2.357
 5665SOL     OW17893   2.334   2.815   6.518
 5665SOL    HW117894   2.342   2.872   6.437
 5665SOL    HW217895   2.241   2.823   6.556
 5666SOL     OW17896   4.695   5.701   0.463
 5666SOL    HW117897   4.674   5.794   0.435
 5666SOL    HW217898   4.668   5.688   0.558
 5667SOL     OW17899   6.676   4.789   2.945
 5667SOL    HW117900   6.758   4.814   2.998
 5667SOL    HW217901   6.693   4.804   2.848
 5668SOL     OW17902   4.636   2.026   5.971
 5668SOL    HW117903   4.629   1.933   5.935
 5668SOL    HW217904   4.554   2.048   6.023
 5669SOL     OW17905   0.758   4.935   6.152
 5669SOL    HW117906   0.815   4.980   6.220
 5669SOL    HW217907   0.713   4.856   6.193
 5670SOL     OW17908   0.576   3.293   4.360
 5670SOL    HW117909   0.598   3.369   4.299
 5670SOL    HW217910   0.588   3.323   4.455
 5671SOL     OW17911   2.101   0.171   6.662
 5671SOL    HW117912   2.049   0.196   6.580
 5671SOL    HW217913   2.138   0.079   6.650
 5672SOL     OW17914   5.544   3.822   5.814
 5672SOL    HW117915   5.466   3.857   5.763
 5672SOL    HW217916   5.592   3.897   5.859
 5673SOL     OW17917   0.215   0.278   2.167
 5673SOL    HW117918   0.138   0.242   2.220
 5673SOL    HW217919   0.230   0.374   2.190
 5674SOL     OW17920   6.900   3.472   1.607
 5674SOL    HW117921   6.827   3.408   1.580
 5674SOL    HW217922   6.876   3.514   1.695
 5675SOL     OW17923   4.442   2.477   5.378
 5675SOL    HW117924   4.416   2.572   5.359
 5675SOL    HW217925   4.533   2.476   5.421
 5676SOL     OW17926   2.145   0.155   1.322
 5676SOL    HW117927   2.065   0.145   1.382
 5676SOL    HW217928   2.227   0.125   1.370
 5677SOL     OW17929   6.515   0.952   3.580
 5677SOL    HW117930   6.615   0.955   3.575
 5677SOL    HW217931   6.476   1.018   3.516
 5678SOL     OW17932   3.854   6.806   2.833
 5678SOL    HW117933   3.851   6.707   2.828
 5678SOL    HW217934   3.904   6.843   2.755
 5679SOL     OW17935   1.657   6.631   4.949
 5679SOL    HW117936   1.712   6.566   5.003
 5679SOL    HW217937   1.700   6.645   4.860
 5680SOL     OW17938   1.298   5.507   6.377
 5680SOL    HW117939   1.260   5.491   6.286
 5680SOL    HW217940   1.397   5.523   6.370
 5681SOL     OW17941   1.279   2.189   6.453
 5681SOL    HW117942   1.288   2.154   6.546
 5681SOL    HW217943   1.183   2.212   6.436
 5682SOL     OW17944   1.790   2.260   5.930
 5682SOL    HW117945   1.810   2.223   5.840
 5682SOL    HW217946   1.693   2.286   5.936
 5683SOL     OW17947   3.464   3.057   6.457
 5683SOL    HW117948   3.468   2.959   6.435
 5683SOL    HW217949   3.467   3.068   6.556
 5684SOL     OW17950   3.455   3.511   3.811
 5684SOL    HW117951   3.500   3.543   3.895
 5684SOL    HW217952   3.514   3.531   3.732
 5685SOL     OW17953   0.651   4.872   2.773
 5685SOL    HW117954   0.749   4.849   2.779
 5685SOL    HW217955   0.614   4.885   2.865
 5686SOL     OW17956   4.098   0.263   0.915
 5686SOL    HW117957   4.191   0.280   0.885
 5686SOL    HW217958   4.097   0.186   0.979
 5687SOL     OW17959   5.936   4.590   5.213
 5687SOL    HW117960   6.006   4.524   5.240
 5687SOL    HW217961   5.968   4.644   5.136
 5688SOL     OW17962   5.550   2.246   1.531
 5688SOL    HW117963   5.582   2.256   1.625
 5688SOL    HW217964   5.585   2.161   1.492
 5689SOL     OW17965   4.999   1.300   0.786
 5689SOL    HW117966   4.976   1.396   0.806
 5689SOL    HW217967   4.915   1.249   0.769
 5690SOL     OW17968   4.473   6.072   0.608
 5690SOL    HW117969   4.473   5.985   0.558
 5690SOL    HW217970   4.521   6.142   0.555
 5691SOL     OW17971   2.730   6.682   2.384
 5691SOL    HW117972   2.685   6.594   2.366
 5691SOL    HW217973   2.680   6.730   2.457
 5692SOL     OW17974   6.855   2.134   5.873
 5692SOL    HW117975   6.899   2.132   5.963
 5692SOL    HW217976   6.926   2.129   5.802
 5693SOL     OW17977   4.736   2.600   2.890
 5693SOL    HW117978   4.833   2.576   2.890
 5693SOL    HW217979   4.712   2.642   2.802
 5694SOL     OW17980   0.242   1.322   3.547
 5694SOL    HW117981   0.309   1.388   3.581
 5694SOL    HW217982   0.281   1.271   3.470
 5695SOL     OW17983   1.113   2.268   3.739
 5695SOL    HW117984   1.189   2.206   3.718
 5695SOL    HW217985   1.071   2.241   3.826
 5696SOL     OW17986   2.516   1.658   5.096
 5696SOL    HW117987   2.547   1.624   5.008
 5696SOL    HW217988   2.445   1.727   5.082
 5697SOL     OW17989   0.007   2.313   1.058
 5697SOL    HW117990   0.061   2.379   1.005
 5697SOL    HW217991   6.966   2.269   0.999
 5698SOL     OW17992   1.151   2.921   2.123
 5698SOL    HW117993   1.146   3.013   2.087
 5698SOL    HW217994   1.099   2.858   2.065
 5699SOL     OW17995   6.219   0.799   4.627
 5699SOL    HW117996   6.154   0.842   4.564
 5699SOL    HW217997   6.293   0.758   4.575
 5700SOL     OW17998   1.586   6.222   5.092
 5700SOL    HW117999   1.670   6.184   5.130
 5700SOL    HW218000   1.520   6.237   5.166
 5701SOL     OW18001   0.459   6.446   2.334
 5701SOL    HW118002   0.406   6.369   2.298
 5701SOL    HW218003   0.549   6.414   2.362
 5702SOL     OW18004   1.662   6.811   5.721
 5702SOL    HW118005   1.658   6.862   5.807
 5702SOL    HW218006   1.756   6.809   5.687
 5703SOL     OW18007   4.216   4.808   6.988
 5703SOL    HW118008   4.289   4.816   6.920
 5703SOL    HW218009   4.231   4.876   0.035
 5704SOL     OW18010   4.851   5.235   3.048
 5704SOL    HW118011   4.909   5.316   3.055
 5704SOL    HW218012   4.766   5.251   3.099
 5705SOL     OW18013   5.769   0.358   0.841
 5705SOL    HW118014   5.768   0.321   0.934
 5705SOL    HW218015   5.740   0.287   0.777
 5706SOL     OW18016   1.861   1.615   0.748
 5706SOL    HW118017   1.882   1.713   0.758
 5706SOL    HW218018   1.791   1.589   0.815
 5707SOL     OW18019   1.753   0.585   6.390
 5707SOL    HW118020   1.772   0.673   6.434
 5707SOL    HW218021   1.735   0.516   6.460
 5708SOL     OW18022   5.237   6.639   2.513
 5708SOL    HW118023   5.319   6.667   2.563
 5708SOL    HW218024   5.156   6.671   2.561
 5709SOL     OW18025   0.767   6.851   3.572
 5709SOL    HW118026   0.787   6.924   3.507
 5709SOL    HW218027   0.691   6.795   3.539
 5710SOL     OW18028   2.892   3.172   5.994
 5710SOL    HW118029   2.989   3.193   6.008
 5710SOL    HW218030   2.868   3.188   5.898
 5711SOL     OW18031   5.032   1.190   3.812
 5711SOL    HW118032   5.081   1.135   3.744
 5711SOL    HW218033   4.984   1.129   3.876
 5712SOL     OW18034   6.600   0.128   5.597
 5712SOL    HW118035   6.696   0.106   5.582
 5712SOL    HW218036   6.582   0.222   5.568
 5713SOL     OW18037   0.334   2.668   1.922
 5713SOL    HW118038   0.248   2.688   1.875
 5713SOL    HW218039   0.364   2.749   1.971
 5714SOL     OW18040   1.450   0.227   6.851
 5714SOL    HW118041   1.378   0.241   6.782
 5714SOL    HW218042   1.502   0.145   6.829
 5715SOL     OW18043   1.450   6.441   2.857
 5715SOL    HW118044   1.411   6.458   2.766
 5715SOL    HW218045   1.376   6.425   2.923
 5716SOL     OW18046   1.830   3.315   5.995
 5716SOL    HW118047   1.864   3.406   5.971
 5716SOL    HW218048   1.760   3.287   5.929
 5717SOL     OW18049   0.762   4.244   1.096
 5717SOL    HW118050   0.687   4.206   1.149
 5717SOL    HW218051   0.830   4.173   1.077
 5718SOL     OW18052   1.465   4.850   6.553
 5718SOL    HW118053   1.469   4.772   6.491
 5718SOL    HW218054   1.373   4.860   6.590
 5719SOL     OW18055   3.114   0.719   6.422
 5719SOL    HW118056   3.067   0.776   6.355
 5719SOL    HW218057   3.200   0.686   6.383
 5720SOL     OW18058   0.755   5.417   4.753
 5720SOL    HW118059   0.813   5.381   4.681
 5720SOL    HW218060   0.707   5.499   4.719
 5721SOL     OW18061   0.845   3.139   0.375
 5721SOL    HW118062   0.862   3.138   0.474
 5721SOL    HW218063   0.859   3.048   0.338
 5722SOL     OW18064   5.364   0.908   5.231
 5722SOL    HW118065   5.445   0.967   5.226
 5722SOL    HW218066   5.366   0.856   5.316
 5723SOL     OW18067   3.767   5.413   0.313
 5723SOL    HW118068   3.861   5.379   0.318
 5723SOL    HW218069   3.704   5.341   0.344
 5724SOL     OW18070   5.012   2.285   6.108
 5724SOL    HW118071   5.072   2.205   6.099
 5724SOL    HW218072   5.065   2.368   6.094
 5725SOL     OW18073   5.107   5.405   4.160
 5725SOL    HW118074   5.141   5.355   4.240
 5725SOL    HW218075   5.173   5.396   4.085
 5726SOL     OW18076   6.058   3.635   5.462
 5726SOL    HW118077   6.067   3.637   5.562
 5726SOL    HW218078   6.042   3.728   5.429
 5727SOL     OW18079   6.081   2.222   3.134
 5727SOL    HW118080   6.130   2.263   3.211
 5727SOL    HW218081   5.989   2.196   3.164
 5728SOL     OW18082   6.417   1.026   5.661
 5728SOL    HW118083   6.479   1.081   5.606
 5728SOL    HW218084   6.460   0.938   5.682
 5729SOL     OW18085   6.919   2.117   6.597
 5729SOL    HW118086   6.856   2.060   6.648
 5729SOL    HW218087   6.984   2.161   6.660
 5730SOL     OW18088   3.806   6.243   5.115
 5730SOL    HW118089   3.810   6.331   5.069
 5730SOL    HW218090   3.769   6.255   5.207
 5731SOL     OW18091   1.847   6.857   4.473
 5731SOL    HW118092   1.808   6.806   4.549
 5731SOL    HW218093   1.787   6.846   4.393
 5732SOL     OW18094   5.971   5.081   4.463
 5732SOL    HW118095   5.995   5.176   4.442
 5732SOL    HW218096   6.022   5.020   4.401
 5733SOL     OW18097   3.384   0.930   0.199
 5733SOL    HW118098   3.328   1.011   0.181
 5733SOL    HW218099   3.391   0.915   0.297
 5734SOL     OW18100   1.560   6.804   5.368
 5734SOL    HW118101   1.650   6.833   5.336
 5734SOL    HW218102   1.526   6.869   5.435
 5735SOL     OW18103   3.791   0.816   2.739
 5735SOL    HW118104   3.815   0.912   2.744
 5735SOL    HW218105   3.812   0.772   2.826
 5736SOL     OW18106   4.938   4.578   6.424
 5736SOL    HW118107   4.842   4.603   6.440
 5736SOL    HW218108   4.955   4.577   6.325
 5737SOL     OW18109   5.348   6.204   1.136
 5737SOL    HW118110   5.297   6.289   1.153
 5737SOL    HW218111   5.349   6.149   1.220
 5738SOL     OW18112   3.505   1.400   6.576
 5738SOL    HW118113   3.538   1.430   6.666
 5738SOL    HW218114   3.573   1.340   6.534
 5739SOL     OW18115   1.970   0.301   5.847
 5739SOL    HW118116   1.943   0.359   5.924
 5739SOL    HW218117   1.892   0.287   5.787
 5740SOL     OW18118   4.889   3.578   0.861
 5740SOL    HW118119   4.964   3.530   0.815
 5740SOL    HW218120   4.802   3.540   0.832
 5741SOL     OW18121   0.704   3.979   4.164
 5741SOL    HW118122   0.758   3.912   4.112
 5741SOL    HW218123   0.644   3.930   4.227
 5742SOL     OW18124   3.939   6.874   3.712
 5742SOL    HW118125   3.912   6.969   3.695
 5742SOL    HW218126   4.034   6.871   3.744
 5743SOL     OW18127   3.854   4.579   5.663
 5743SOL    HW118128   3.827   4.523   5.584
 5743SOL    HW218129   3.797   4.661   5.667
 5744SOL     OW18130   5.990   0.366   3.007
 5744SOL    HW118131   6.080   0.407   2.990
 5744SOL    HW218132   5.922   0.407   2.946
 5745SOL     OW18133   2.495   2.557   3.931
 5745SOL    HW118134   2.469   2.630   3.867
 5745SOL    HW218135   2.522   2.476   3.878
 5746SOL     OW18136   3.761   0.287   3.450
 5746SOL    HW118137   3.803   0.370   3.415
 5746SOL    HW218138   3.667   0.279   3.417
 5747SOL     OW18139   1.213   6.212   1.818
 5747SOL    HW118140   1.232   6.118   1.847
 5747SOL    HW218141   1.162   6.259   1.890
 5748SOL     OW18142   0.175   6.201   0.354
 5748SOL    HW118143   0.171   6.121   0.414
 5748SOL    HW218144   0.233   6.271   0.396
 5749SOL     OW18145   1.935   6.832   5.075
 5749SOL    HW118146   2.026   6.834   5.035
 5749SOL    HW218147   1.892   6.744   5.058
 5750SOL     OW18148   6.780   4.404   4.251
 5750SOL    HW118149   6.690   4.364   4.271
 5750SOL    HW218150   6.852   4.341   4.282
 5751SOL     OW18151   1.937   3.786   4.529
 5751SOL    HW118152   1.966   3.699   4.568
 5751SOL    HW218153   1.879   3.834   4.595
 5752SOL     OW18154   5.506   0.024   0.866
 5752SOL    HW118155   5.556   7.000   0.937
 5752SOL    HW218156   5.445   6.988   0.817
 5753SOL     OW18157   2.881   3.982   5.394
 5753SOL    HW118158   2.958   4.040   5.367
 5753SOL    HW218159   2.808   4.039   5.432
 5754SOL     OW18160   1.422   6.467   1.469
 5754SOL    HW118161   1.333   6.430   1.498
 5754SOL    HW218162   1.443   6.433   1.377
 5755SOL     OW18163   2.175   2.395   0.055
 5755SOL    HW118164   2.175   2.351   0.145
 5755SOL    HW218165   2.164   2.325   7.011
 5756SOL     OW18166   6.563   6.897   1.585
 5756SOL    HW118167   6.571   6.820   1.522
 5756SOL    HW218168   6.587   6.867   1.677
 5757SOL     OW18169   6.624   5.879   4.027
 5757SOL    HW118170   6.543   5.897   4.082
 5757SOL    HW218171   6.653   5.784   4.041
 5758SOL     OW18172   1.891   6.580   3.250
 5758SOL    HW118173   1.897   6.638   3.168
 5758SOL    HW218174   1.800   6.588   3.289
 5759SOL     OW18175   4.593   6.805   1.472
 5759SOL    HW118176   4.679   6.850   1.449
 5759SOL    HW218177   4.579   6.727   1.412
 5760SOL     OW18178   6.791   3.292   2.122
 5760SOL    HW118179   6.743   3.375   2.095
 5760SOL    HW218180   6.769   3.218   2.058
 5761SOL     OW18181   5.086   5.830   4.660
 5761SOL    HW118182   5.117   5.738   4.685
 5761SOL    HW218183   5.064   5.832   4.563
 5762SOL     OW18184   5.327   4.552   0.725
 5762SOL    HW118185   5.320   4.454   0.704
 5762SOL    HW218186   5.403   4.567   0.788
 5763SOL     OW18187   4.974   0.025   0.484
 5763SOL    HW118188   4.985   6.979   0.415
 5763SOL    HW218189   5.036   0.007   0.561
 5764SOL     OW18190   4.350   5.451   3.498
 5764SOL    HW118191   4.262   5.440   3.451
 5764SOL    HW218192   4.422   5.406   3.445
 5765SOL     OW18193   6.215   4.871   0.536
 5765SOL    HW118194   6.189   4.776   0.552
 5765SOL    HW218195   6.300   4.875   0.484
 5766SOL     OW18196   1.358   1.773   4.669
 5766SOL    HW118197   1.270   1.728   4.652
 5766SOL    HW218198   1.361   1.860   4.619
 5767SOL     OW18199   2.034   0.316   0.394
 5767SOL    HW118200   2.107   0.315   0.463
 5767SOL    HW218201   1.965   0.248   0.418
 5768SOL     OW18202   6.885   6.827   3.400
 5768SOL    HW118203   6.891   6.880   3.484
 5768SOL    HW218204   6.963   6.848   3.341
 5769SOL     OW18205   2.269   5.442   6.334
 5769SOL    HW118206   2.285   5.359   6.388
 5769SOL    HW218207   2.257   5.418   6.238
 5770SOL     OW18208   1.154   6.098   0.079
 5770SOL    HW118209   1.104   6.117   7.021
 5770SOL    HW218210   1.152   6.179   0.138
 5771SOL     OW18211   2.290   6.515   4.067
 5771SOL    HW118212   2.262   6.594   4.121
 5771SOL    HW218213   2.220   6.444   4.071
 5772SOL     OW18214   4.809   0.999   1.950
 5772SOL    HW118215   4.888   0.953   1.991
 5772SOL    HW218216   4.737   1.011   2.019
 5773SOL     OW18217   4.806   2.012   2.350
 5773SOL    HW118218   4.772   2.089   2.404
 5773SOL    HW218219   4.745   1.996   2.272
 5774SOL     OW18220   1.967   0.240   5.122
 5774SOL    HW118221   1.984   0.215   5.026
 5774SOL    HW218222   1.869   0.240   5.139
 5775SOL     OW18223   0.672   5.943   2.660
 5775SOL    HW118224   0.708   5.953   2.753
 5775SOL    HW218225   0.639   6.032   2.628
 5776SOL     OW18226   1.267   0.201   3.192
 5776SOL    HW118227   1.271   0.296   3.225
 5776SOL    HW218228   1.207   0.196   3.112
 5777SOL     OW18229   1.455   0.320   3.665
 5777SOL    HW118230   1.533   0.295   3.608
 5777SOL    HW218231   1.440   0.419   3.659
 5778SOL     OW18232   1.121   1.081   0.564
 5778SOL    HW118233   1.080   1.142   0.496
 5778SOL    HW218234   1.048   1.033   0.614
 5779SOL     OW18235   4.819   2.747   6.751
 5779SOL    HW118236   4.885   2.811   6.711
 5779SOL    HW218237   4.829   2.658   6.707
 5780SOL     OW18238   5.785   5.653   4.793
 5780SOL    HW118239   5.691   5.683   4.777
 5780SOL    HW218240   5.814   5.684   4.884
 5781SOL     OW18241   6.187   4.962   5.179
 5781SOL    HW118242   6.133   4.956   5.095
 5781SOL    HW218243   6.167   5.048   5.225
 5782SOL     OW18244   0.810   1.318   0.724
 5782SOL    HW118245   0.782   1.406   0.686
 5782SOL    HW218246   0.739   1.250   0.707
 5783SOL     OW18247   1.466   1.095   2.276
 5783SOL    HW118248   1.521   1.043   2.342
 5783SOL    HW218249   1.524   1.166   2.234
 5784SOL     OW18250   0.359   5.764   6.543
 5784SOL    HW118251   0.431   5.731   6.604
 5784SOL    HW218252   0.315   5.844   6.583
 5785SOL     OW18253   2.572   1.781   0.524
 5785SOL    HW118254   2.502   1.852   0.531
 5785SOL    HW218255   2.559   1.713   0.596
 5786SOL     OW18256   6.490   4.218   0.303
 5786SOL    HW118257   6.495   4.177   0.394
 5786SOL    HW218258   6.395   4.242   0.282
 5787SOL     OW18259   2.034   1.596   6.009
 5787SOL    HW118260   2.058   1.611   5.913
 5787SOL    HW218261   2.115   1.607   6.066
 5788SOL     OW18262   2.709   1.168   3.007
 5788SOL    HW118263   2.668   1.113   2.934
 5788SOL    HW218264   2.644   1.178   3.082
 5789SOL     OW18265   3.433   5.287   6.161
 5789SOL    HW118266   3.512   5.337   6.127
 5789SOL    HW218267   3.459   5.236   6.243
 5790SOL     OW18268   0.798   3.596   4.548
 5790SOL    HW118269   0.890   3.574   4.580
 5790SOL    HW218270   0.802   3.678   4.490
 5791SOL     OW18271   3.606   0.063   1.947
 5791SOL    HW118272   3.672   0.085   1.876
 5791SOL    HW218273   3.514   0.057   1.907
 5792SOL     OW18274   0.428   2.397   2.873
 5792SOL    HW118275   0.515   2.444   2.886
 5792SOL    HW218276   0.377   2.398   2.959
 5793SOL     OW18277   5.586   1.480   3.311
 5793SOL    HW118278   5.570   1.407   3.378
 5793SOL    HW218279   5.499   1.503   3.267
 5794SOL     OW18280   3.718   2.114   0.217
 5794SOL    HW118281   3.753   2.038   0.162
 5794SOL    HW218282   3.673   2.180   0.157
 5795SOL     OW18283   5.778   5.729   5.710
 5795SOL    HW118284   5.858   5.682   5.748
 5795SOL    HW218285   5.695   5.682   5.739
 5796SOL     OW18286   3.688   1.230   0.229
 5796SOL    HW118287   3.769   1.207   0.283
 5796SOL    HW218288   3.608   1.236   0.290
 5797SOL     OW18289   3.906   1.771   4.705
 5797SOL    HW118290   4.002   1.796   4.715
 5797SOL    HW218291   3.878   1.785   4.610
 5798SOL     OW18292   0.858   4.276   5.518
 5798SOL    HW118293   0.900   4.306   5.604
 5798SOL    HW218294   0.874   4.177   5.507
 5799SOL     OW18295   5.372   1.301   3.808
 5799SOL    HW118296   5.400   1.325   3.715
 5799SOL    HW218297   5.283   1.343   3.827
 5800SOL     OW18298   5.555   6.220   0.625
 5800SOL    HW118299   5.620   6.199   0.699
 5800SOL    HW218300   5.597   6.197   0.537
 5801SOL     OW18301   1.082   2.412   4.719
 5801SOL    HW118302   1.137   2.329   4.731
 5801SOL    HW218303   1.136   2.482   4.673
 5802SOL     OW18304   0.986   4.501   0.351
 5802SOL    HW118305   0.887   4.489   0.343
 5802SOL    HW218306   1.033   4.425   0.306
 5803SOL     OW18307   1.526   4.640   2.034
 5803SOL    HW118308   1.512   4.545   2.007
 5803SOL    HW218309   1.469   4.700   1.978
 5804SOL     OW18310   6.325   4.202   3.750
 5804SOL    HW118311   6.410   4.190   3.802
 5804SOL    HW218312   6.261   4.129   3.774
 5805SOL     OW18313   3.842   4.565   7.014
 5805SOL    HW118314   3.906   4.625   6.967
 5805SOL    HW218315   3.877   4.545   0.079
 5806SOL     OW18316   0.354   6.434   6.693
 5806SOL    HW118317   0.380   6.483   6.610
 5806SOL    HW218318   0.426   6.369   6.717
 5807SOL     OW18319   1.650   3.944   1.727
 5807SOL    HW118320   1.679   3.997   1.807
 5807SOL    HW218321   1.710   3.865   1.716
 5808SOL     OW18322   5.869   4.267   3.136
 5808SOL    HW118323   5.885   4.279   3.234
 5808SOL    HW218324   5.848   4.171   3.117
 5809SOL     OW18325   0.480   2.349   5.150
 5809SOL    HW118326   0.549   2.324   5.082
 5809SOL    HW218327   0.436   2.267   5.184
 5810SOL     OW18328   2.825   0.498   3.618
 5810SOL    HW118329   2.883   0.575   3.592
 5810SOL    HW218330   2.759   0.479   3.546
 5811SOL     OW18331   2.817   0.025   4.850
 5811SOL    HW118332   2.873   7.018   4.774
 5811SOL    HW218333   2.751   6.981   4.876
 5812SOL     OW18334   5.201   0.281   4.299
 5812SOL    HW118335   5.294   0.316   4.308
 5812SOL    HW218336   5.147   0.346   4.245
 5813SOL     OW18337   1.543   1.369   0.225
 5813SOL    HW118338   1.591   1.306   0.286
 5813SOL    HW218339   1.595   1.381   0.141
 5814SOL     OW18340   5.990   4.561   0.936
 5814SOL    HW118341   5.972   4.633   0.869
 5814SOL    HW218342   6.074   4.513   0.912
 5815SOL     OW18343   4.436   2.252   4.029
 5815SOL    HW118344   4.437   2.272   4.127
 5815SOL    HW218345   4.504   2.182   4.008
 5816SOL     OW18346   4.991   6.001   0.307
 5816SOL    HW118347   4.940   6.084   0.330
 5816SOL    HW218348   5.067   6.025   0.246
 5817SOL     OW18349   5.277   3.129   5.318
 5817SOL    HW118350   5.231   3.154   5.233
 5817SOL    HW218351   5.336   3.050   5.302
 5818SOL     OW18352   6.693   6.251   4.859
 5818SOL    HW118353   6.791   6.230   4.858
 5818SOL    HW218354   6.646   6.194   4.791
 5819SOL     OW18355   4.334   0.375   0.053
 5819SOL    HW118356   4.419   0.370   7.026
 5819SOL    HW218357   4.301   0.470   0.054
 5820SOL     OW18358   4.347   6.972   3.828
 5820SOL    HW118359   4.372   6.950   3.734
 5820SOL    HW218360   4.429   6.967   3.886
 5821SOL     OW18361   0.931   0.034   2.551
 5821SOL    HW118362   0.914   6.979   2.496
 5821SOL    HW218363   0.844   0.068   2.588
 5822SOL     OW18364   0.265   1.890   2.166
 5822SOL    HW118365   0.354   1.909   2.124
 5822SOL    HW218366   0.211   1.974   2.168
 5823SOL     OW18367   0.933   1.340   6.061
 5823SOL    HW118368   0.878   1.424   6.057
 5823SOL    HW218369   0.939   1.309   6.156
 5824SOL     OW18370   6.685   5.990   2.646
 5824SOL    HW118371   6.754   5.921   2.668
 5824SOL    HW218372   6.603   5.975   2.702
 5825SOL     OW18373   2.314   1.839   5.489
 5825SOL    HW118374   2.233   1.897   5.484
 5825SOL    HW218375   2.314   1.776   5.411
 5826SOL     OW18376   6.884   5.277   5.238
 5826SOL    HW118377   6.798   5.307   5.279
 5826SOL    HW218378   6.865   5.234   5.150
 5827SOL     OW18379   1.932   5.001   4.833
 5827SOL    HW118380   1.928   5.001   4.933
 5827SOL    HW218381   1.888   4.918   4.799
 5828SOL     OW18382   6.965   3.221   1.846
 5828SOL    HW118383   6.872   3.219   1.883
 5828SOL    HW218384   6.961   3.225   1.747
 5829SOL     OW18385   2.742   1.389   2.863
 5829SOL    HW118386   2.742   1.311   2.926
 5829SOL    HW218387   2.784   1.468   2.908
 5830SOL     OW18388   4.205   0.370   5.665
 5830SOL    HW118389   4.190   0.377   5.763
 5830SOL    HW218390   4.121   0.339   5.620
 5831SOL     OW18391   6.886   0.517   3.992
 5831SOL    HW118392   6.865   0.452   4.065
 5831SOL    HW218393   6.800   0.546   3.949
 5832SOL     OW18394   3.749   4.133   5.435
 5832SOL    HW118395   3.692   4.129   5.353
 5832SOL    HW218396   3.792   4.043   5.450
 5833SOL     OW18397   3.908   3.119   4.586
 5833SOL    HW118398   3.892   3.040   4.528
 5833SOL    HW218399   3.953   3.191   4.534
 5834SOL     OW18400   6.089   2.438   0.572
 5834SOL    HW118401   6.075   2.515   0.634
 5834SOL    HW218402   6.161   2.460   0.507
 5835SOL     OW18403   4.827   2.942   2.750
 5835SOL    HW118404   4.878   2.970   2.668
 5835SOL    HW218405   4.848   3.005   2.825
 5836SOL     OW18406   2.698   6.520   3.198
 5836SOL    HW118407   2.671   6.483   3.109
 5836SOL    HW218408   2.763   6.457   3.242
 5837SOL     OW18409   4.517   4.836   5.982
 5837SOL    HW118410   4.425   4.826   6.022
 5837SOL    HW218411   4.508   4.861   5.885
 5838SOL     OW18412   2.226   1.634   6.195
 5838SOL    HW118413   2.314   1.595   6.224
 5838SOL    HW218414   2.152   1.584   6.239
 5839SOL     OW18415   0.515   2.946   2.672
 5839SOL    HW118416   0.576   2.910   2.602
 5839SOL    HW218417   0.439   2.881   2.686
 5840SOL     OW18418   1.510   5.059   6.911
 5840SOL    HW118419   1.574   5.095   6.843
 5840SOL    HW218420   1.526   4.961   6.923
 5841SOL     OW18421   5.842   2.444   2.275
 5841SOL    HW118422   5.782   2.426   2.196
 5841SOL    HW218423   5.790   2.430   2.359
 5842SOL     OW18424   4.184   3.412   1.803
 5842SOL    HW118425   4.091   3.391   1.773
 5842SOL    HW218426   4.234   3.455   1.728
 5843SOL     OW18427   2.258   4.116   2.270
 5843SOL    HW118428   2.258   4.017   2.277
 5843SOL    HW218429   2.262   4.143   2.174
 5844SOL     OW18430   0.429   0.153   5.999
 5844SOL    HW118431   0.523   0.183   6.013
 5844SOL    HW218432   0.401   0.094   6.074
 5845SOL     OW18433   1.143   0.414   2.930
 5845SOL    HW118434   1.121   0.319   2.951
 5845SOL    HW218435   1.242   0.424   2.920
 5846SOL     OW18436   6.209   2.846   4.171
 5846SOL    HW118437   6.299   2.805   4.155
 5846SOL    HW218438   6.179   2.895   4.089
 5847SOL     OW18439   2.057   1.910   2.115
 5847SOL    HW118440   2.023   1.977   2.049
 5847SOL    HW218441   2.020   1.820   2.093
 5848SOL     OW18442   2.337   5.029   2.988
 5848SOL    HW118443   2.326   4.999   2.893
 5848SOL    HW218444   2.250   5.017   3.037
 5849SOL     OW18445   6.760   0.707   6.157
 5849SOL    HW118446   6.703   0.692   6.077
 5849SOL    HW218447   6.855   0.720   6.129
 5850SOL     OW18448   0.705   3.298   2.453
 5850SOL    HW118449   0.643   3.266   2.525
 5850SOL    HW218450   0.734   3.391   2.473
 5851SOL     OW18451   4.906   3.427   3.070
 5851SOL    HW118452   4.869   3.415   3.162
 5851SOL    HW218453   4.896   3.523   3.042
 5852SOL     OW18454   4.966   6.324   3.056
 5852SOL    HW118455   4.872   6.293   3.048
 5852SOL    HW218456   5.027   6.259   3.010
 5853SOL     OW18457   2.936   5.922   5.545
 5853SOL    HW118458   2.945   6.021   5.530
 5853SOL    HW218459   2.870   5.884   5.481
 5854SOL     OW18460   6.361   3.474   5.825
 5854SOL    HW118461   6.273   3.520   5.820
 5854SOL    HW218462   6.406   3.477   5.735
 5855SOL     OW18463   0.703   0.278   4.474
 5855SOL    HW118464   0.729   0.367   4.437
 5855SOL    HW218465   0.734   0.206   4.413
 5856SOL     OW18466   2.242   5.960   3.613
 5856SOL    HW118467   2.270   5.883   3.672
 5856SOL    HW218468   2.317   5.984   3.552
 5857SOL     OW18469   6.025   2.645   5.490
 5857SOL    HW118470   6.028   2.712   5.416
 5857SOL    HW218471   6.089   2.571   5.471
 5858SOL     OW18472   2.664   2.321   2.200
 5858SOL    HW118473   2.675   2.352   2.294
 5858SOL    HW218474   2.753   2.319   2.155
 5859SOL     OW18475   5.251   6.805   1.049
 5859SOL    HW118476   5.275   6.875   1.116
 5859SOL    HW218477   5.226   6.721   1.096
 5860SOL     OW18478   2.127   3.784   1.986
 5860SOL    HW118479   2.078   3.782   2.073
 5860SOL    HW218480   2.178   3.699   1.974
 5861SOL     OW18481   5.060   1.517   4.225
 5861SOL    HW118482   5.135   1.466   4.267
 5861SOL    HW218483   5.098   1.592   4.171
 5862SOL     OW18484   4.834   4.769   3.351
 5862SOL    HW118485   4.870   4.834   3.284
 5862SOL    HW218486   4.895   4.766   3.431
 5863SOL     OW18487   3.337   0.820   4.787
 5863SOL    HW118488   3.321   0.871   4.871
 5863SOL    HW218489   3.365   0.727   4.809
 5864SOL     OW18490   4.263   3.777   1.795
 5864SOL    HW118491   4.191   3.755   1.861
 5864SOL    HW218492   4.291   3.694   1.747
 5865SOL     OW18493   5.449   0.163   3.899
 5865SOL    HW118494   5.429   0.162   3.801
 5865SOL    HW218495   5.390   0.230   3.944
 5866SOL     OW18496   3.600   6.117   6.489
 5866SOL    HW118497   3.544   6.052   6.540
 5866SOL    HW218498   3.654   6.067   6.421
 5867SOL     OW18499   0.525   3.246   1.075
 5867SOL    HW118500   0.473   3.278   1.154
 5867SOL    HW218501   0.475   3.172   1.030
 5868SOL     OW18502   6.981   0.680   5.015
 5868SOL    HW118503   6.959   0.777   5.025
 5868SOL    HW218504   6.899   0.625   5.033
 5869SOL     OW18505   2.013   5.467   3.393
 5869SOL    HW118506   1.953   5.476   3.473
 5869SOL    HW218507   1.999   5.377   3.352
 5870SOL     OW18508   4.747   5.738   4.812
 5870SOL    HW118509   4.707   5.798   4.743
 5870SOL    HW218510   4.678   5.717   4.881
 5871SOL     OW18511   4.413   3.381   0.091
 5871SOL    HW118512   4.457   3.447   0.152
 5871SOL    HW218513   4.382   3.428   0.008
 5872SOL     OW18514   4.010   4.701   6.834
 5872SOL    HW118515   4.079   4.749   6.889
 5872SOL    HW218516   3.944   4.767   6.799
 5873SOL     OW18517   2.158   2.906   0.754
 5873SOL    HW118518   2.242   2.956   0.774
 5873SOL    HW218519   2.083   2.942   0.810
 5874SOL     OW18520   3.141   2.702   1.170
 5874SOL    HW118521   3.097   2.615   1.192
 5874SOL    HW218522   3.173   2.746   1.254
 5875SOL     OW18523   3.778   1.585   0.760
 5875SOL    HW118524   3.817   1.634   0.837
 5875SOL    HW218525   3.708   1.521   0.793
 5876SOL     OW18526   3.153   2.861   6.896
 5876SOL    HW118527   3.214   2.852   6.975
 5876SOL    HW218528   3.079   2.794   6.903
 5877SOL     OW18529   6.095   6.831   0.708
 5877SOL    HW118530   6.049   6.919   0.695
 5877SOL    HW218531   6.071   6.769   0.633
 5878SOL     OW18532   5.196   5.647   3.185
 5878SOL    HW118533   5.174   5.690   3.098
 5878SOL    HW218534   5.133   5.571   3.202
 5879SOL     OW18535   3.035   2.789   6.021
 5879SOL    HW118536   3.080   2.871   5.986
 5879SOL    HW218537   3.039   2.788   6.121
 5880SOL     OW18538   4.309   4.062   6.056
 5880SOL    HW118539   4.360   4.020   5.981
 5880SOL    HW218540   4.373   4.111   6.116
 5881SOL     OW18541   0.870   6.485   2.825
 5881SOL    HW118542   0.892   6.551   2.897
 5881SOL    HW218543   0.952   6.464   2.772
 5882SOL     OW18544   0.627   6.927   5.933
 5882SOL    HW118545   0.594   6.893   6.022
 5882SOL    HW218546   0.554   6.916   5.865
 5883SOL     OW18547   0.367   2.024   0.335
 5883SOL    HW118548   0.362   1.944   0.396
 5883SOL    HW218549   0.451   2.075   0.354
 5884SOL     OW18550   6.585   0.914   4.828
 5884SOL    HW118551   6.615   0.925   4.923
 5884SOL    HW218552   6.658   0.872   4.775
 5885SOL     OW18553   0.709   5.465   0.727
 5885SOL    HW118554   0.699   5.564   0.722
 5885SOL    HW218555   0.659   5.430   0.805
 5886SOL     OW18556   1.396   3.303   3.332
 5886SOL    HW118557   1.332   3.380   3.325
 5886SOL    HW218558   1.345   3.218   3.320
 5887SOL     OW18559   2.802   1.898   1.961
 5887SOL    HW118560   2.860   1.918   2.040
 5887SOL    HW218561   2.717   1.950   1.969
 5888SOL     OW18562   3.124   6.849   0.975
 5888SOL    HW118563   3.037   6.868   1.021
 5888SOL    HW218564   3.188   6.809   1.041
 5889SOL     OW18565   6.752   1.411   1.009
 5889SOL    HW118566   6.733   1.344   0.937
 5889SOL    HW218567   6.682   1.405   1.079
 5890SOL     OW18568   1.486   6.623   2.362
 5890SOL    HW118569   1.389   6.641   2.349
 5890SOL    HW218570   1.539   6.694   2.316
 5891SOL     OW18571   2.660   3.609   0.281
 5891SOL    HW118572   2.655   3.681   0.211
 5891SOL    HW218573   2.744   3.620   0.334
 5892SOL     OW18574   0.524   5.127   1.186
 5892SOL    HW118575   0.615   5.165   1.171
 5892SOL    HW218576   0.531   5.028   1.200
 5893SOL     OW18577   1.286   4.772   1.286
 5893SOL    HW118578   1.228   4.703   1.329
 5893SOL    HW218579   1.325   4.832   1.356
 5894SOL     OW18580   0.456   5.616   5.556
 5894SOL    HW118581   0.400   5.651   5.481
 5894SOL    HW218582   0.546   5.588   5.520
 5895SOL     OW18583   6.317   3.315   4.198
 5895SOL    HW118584   6.305   3.324   4.099
 5895SOL    HW218585   6.396   3.369   4.227
 5896SOL     OW18586   5.037   1.171   1.637
 5896SOL    HW118587   4.976   1.236   1.592
 5896SOL    HW218588   5.094   1.126   1.568
 5897SOL     OW18589   4.247   1.265   1.770
 5897SOL    HW118590   4.178   1.300   1.833
 5897SOL    HW218591   4.251   1.324   1.690
 5898SOL     OW18592   2.539   1.645   5.597
 5898SOL    HW118593   2.578   1.660   5.506
 5898SOL    HW218594   2.448   1.686   5.602
 5899SOL     OW18595   0.039   5.123   5.719
 5899SOL    HW118596   0.120   5.081   5.677
 5899SOL    HW218597   6.985   5.104   5.662
 5900SOL     OW18598   0.054   5.222   2.896
 5900SOL    HW118599   0.044   5.208   2.994
 5900SOL    HW218600   0.123   5.292   2.879
 5901SOL     OW18601   1.193   0.615   0.662
 5901SOL    HW118602   1.109   0.578   0.623
 5901SOL    HW218603   1.261   0.629   0.590
 5902SOL     OW18604   5.467   3.531   4.805
 5902SOL    HW118605   5.519   3.550   4.723
 5902SOL    HW218606   5.383   3.586   4.805
 5903SOL     OW18607   5.489   2.919   6.936
 5903SOL    HW118608   5.393   2.914   6.964
 5903SOL    HW218609   5.544   2.861   6.997
 5904SOL     OW18610   1.522   4.445   1.071
 5904SOL    HW118611   1.472   4.416   1.153
 5904SOL    HW218612   1.582   4.371   1.042
 5905SOL     OW18613   5.176   0.853   3.422
 5905SOL    HW118614   5.201   0.773   3.477
 5905SOL    HW218615   5.089   0.836   3.376
 5906SOL     OW18616   5.524   1.629   5.360
 5906SOL    HW118617   5.621   1.610   5.374
 5906SOL    HW218618   5.504   1.722   5.389
 5907SOL     OW18619   1.703   6.929   0.551
 5907SOL    HW118620   1.645   6.917   0.631
 5907SOL    HW218621   1.668   6.874   0.475
 5908SOL     OW18622   5.042   3.622   0.339
 5908SOL    HW118623   5.104   3.682   0.290
 5908SOL    HW218624   4.991   3.674   0.408
 5909SOL     OW18625   0.623   3.996   5.588
 5909SOL    HW118626   0.574   4.083   5.584
 5909SOL    HW218627   0.609   3.946   5.503
 5910SOL     OW18628   1.094   4.552   0.969
 5910SOL    HW118629   1.108   4.650   0.958
 5910SOL    HW218630   0.999   4.535   0.995
 5911SOL     OW18631   0.350   6.226   5.764
 5911SOL    HW118632   0.262   6.190   5.797
 5911SOL    HW218633   0.348   6.232   5.665
 5912SOL     OW18634   6.005   3.477   6.445
 5912SOL    HW118635   5.941   3.527   6.503
 5912SOL    HW218636   5.968   3.470   6.353
 5913SOL     OW18637   2.417   2.876   6.002
 5913SOL    HW118638   2.482   2.898   5.929
 5913SOL    HW218639   2.326   2.862   5.962
 5914SOL     OW18640   2.548   5.438   0.415
 5914SOL    HW118641   2.613   5.470   0.484
 5914SOL    HW218642   2.510   5.517   0.367
 5915SOL     OW18643   5.429   3.026   2.290
 5915SOL    HW118644   5.447   2.958   2.219
 5915SOL    HW218645   5.330   3.043   2.295
 5916SOL     OW18646   4.919   0.558   5.735
 5916SOL    HW118647   4.835   0.503   5.739
 5916SOL    HW218648   4.906   0.634   5.672
 5917SOL     OW18649   3.677   2.855   3.675
 5917SOL    HW118650   3.653   2.758   3.675
 5917SOL    HW218651   3.595   2.911   3.664
 5918SOL     OW18652   1.909   3.543   4.644
 5918SOL    HW118653   1.823   3.493   4.648
 5918SOL    HW218654   1.983   3.482   4.616
 5919SOL     OW18655   2.903   1.975   0.646
 5919SOL    HW118656   2.969   1.972   0.720
 5919SOL    HW218657   2.905   1.889   0.596
 5920SOL     OW18658   3.934   0.003   6.740
 5920SOL    HW118659   3.997   0.078   6.762
 5920SOL    HW218660   3.843   0.039   6.723
 5921SOL     OW18661   3.628   5.319   5.082
 5921SOL    HW118662   3.597   5.266   5.003
 5921SOL    HW218663   3.576   5.292   5.163
 5922SOL     OW18664   6.205   5.039   3.484
 5922SOL    HW118665   6.273   4.987   3.536
 5922SOL    HW218666   6.205   5.134   3.515
 5923SOL     OW18667   6.793   1.013   3.548
 5923SOL    HW118668   6.865   1.081   3.559
 5923SOL    HW218669   6.834   0.923   3.535
 5924SOL     OW18670   5.594   2.460   5.256
 5924SOL    HW118671   5.537   2.463   5.173
 5924SOL    HW218672   5.618   2.365   5.276
 5925SOL     OW18673   4.693   6.182   3.070
 5925SOL    HW118674   4.711   6.166   3.167
 5925SOL    HW218675   4.621   6.120   3.039
 5926SOL     OW18676   3.259   5.047   1.557
 5926SOL    HW118677   3.299   4.974   1.612
 5926SOL    HW218678   3.256   5.132   1.609
 5927SOL     OW18679   2.300   4.652   1.568
 5927SOL    HW118680   2.385   4.698   1.593
 5927SOL    HW218681   2.272   4.592   1.643
 5928SOL     OW18682   2.393   0.467   2.394
 5928SOL    HW118683   2.433   0.379   2.370
 5928SOL    HW218684   2.326   0.493   2.325
 5929SOL     OW18685   0.945   6.374   5.921
 5929SOL    HW118686   0.908   6.452   5.870
 5929SOL    HW218687   1.003   6.319   5.860
 5930SOL     OW18688   5.701   1.278   4.123
 5930SOL    HW118689   5.750   1.261   4.037
 5930SOL    HW218690   5.605   1.296   4.102
 5931SOL     OW18691   6.109   4.820   2.274
 5931SOL    HW118692   6.191   4.875   2.262
 5931SOL    HW218693   6.050   4.862   2.343
 5932SOL     OW18694   2.411   6.746   0.970
 5932SOL    HW118695   2.321   6.782   0.944
 5932SOL    HW218696   2.478   6.820   0.970
 5933SOL     OW18697   0.042   4.177   1.949
 5933SOL    HW118698   0.095   4.148   2.028
 5933SOL    HW218699   0.102   4.223   1.883
 5934SOL     OW18700   3.880   3.744   3.683
 5934SOL    HW118701   3.812   3.817   3.680
 5934SOL    HW218702   3.928   3.739   3.595
 5935SOL     OW18703   4.087   3.763   4.465
 5935SOL    HW118704   4.132   3.690   4.515
 5935SOL    HW218705   4.038   3.725   4.387
 5936SOL     OW18706   4.064   3.668   6.546
 5936SOL    HW118707   4.025   3.587   6.590
 5936SOL    HW218708   4.021   3.682   6.457
 5937SOL     OW18709   0.796   3.647   1.866
 5937SOL    HW118710   0.808   3.618   1.771
 5937SOL    HW218711   0.882   3.635   1.916
 5938SOL     OW18712   1.524   5.107   3.826
 5938SOL    HW118713   1.430   5.137   3.812
 5938SOL    HW218714   1.560   5.147   3.910
 5939SOL     OW18715   3.298   0.488   3.214
 5939SOL    HW118716   3.225   0.553   3.238
 5939SOL    HW218717   3.370   0.536   3.165
 5940SOL     OW18718   4.003   6.528   2.154
 5940SOL    HW118719   4.090   6.511   2.107
 5940SOL    HW218720   4.019   6.586   2.234
 5941SOL     OW18721   6.143   4.574   1.903
 5941SOL    HW118722   6.162   4.485   1.861
 5941SOL    HW218723   6.044   4.589   1.904
 5942SOL     OW18724   4.336   2.977   6.334
 5942SOL    HW118725   4.380   2.954   6.421
 5942SOL    HW218726   4.365   2.912   6.264
 5943SOL     OW18727   2.555   6.397   0.482
 5943SOL    HW118728   2.650   6.378   0.506
 5943SOL    HW218729   2.507   6.311   0.463
 5944SOL     OW18730   5.317   1.562   1.565
 5944SOL    HW118731   5.222   1.546   1.592
 5944SOL    HW218732   5.323   1.567   1.466
 5945SOL     OW18733   6.406   4.851   5.061
 5945SOL    HW118734   6.451   4.779   5.114
 5945SOL    HW218735   6.323   4.880   5.108
 5946SOL     OW18736   3.205   3.998   5.882
 5946SOL    HW118737   3.210   4.068   5.954
 5946SOL    HW218738   3.141   4.029   5.812
 5947SOL     OW18739   3.919   3.168   1.858
 5947SOL    HW118740   3.990   3.195   1.922
 5947SOL    HW218741   3.924   3.225   1.776
 5948SOL     OW18742   4.285   5.381   3.105
 5948SOL    HW118743   4.210   5.327   3.144
 5948SOL    HW218744   4.268   5.395   3.008
 5949SOL     OW18745   3.983   4.350   1.353
 5949SOL    HW118746   3.945   4.261   1.378
 5949SOL    HW218747   3.961   4.370   1.257
 5950SOL     OW18748   5.738   2.386   4.645
 5950SOL    HW118749   5.816   2.424   4.694
 5950SOL    HW218750   5.748   2.287   4.638
 5951SOL     OW18751   0.864   6.260   4.953
 5951SOL    HW118752   0.765   6.256   4.965
 5951SOL    HW218753   0.890   6.352   4.924
 5952SOL     OW18754   6.444   6.424   3.575
 5952SOL    HW118755   6.441   6.485   3.496
 5952SOL    HW218756   6.351   6.401   3.603
 5953SOL     OW18757   7.020   3.172   5.107
 5953SOL    HW118758   0.001   3.173   5.206
 5953SOL    HW218759   0.044   3.250   5.069
 5954SOL     OW18760   6.910   4.388   5.415
 5954SOL    HW118761   6.999   4.365   5.453
 5954SOL    HW218762   6.871   4.307   5.371
 5955SOL     OW18763   6.008   5.849   2.386
 5955SOL    HW118764   6.024   5.946   2.399
 5955SOL    HW218765   6.086   5.807   2.340
 5956SOL     OW18766   3.587   1.828   0.587
 5956SOL    HW118767   3.543   1.813   0.675
 5956SOL    HW218768   3.685   1.810   0.594
 5957SOL     OW18769   4.910   6.947   5.834
 5957SOL    HW118770   4.991   6.921   5.781
 5957SOL    HW218771   4.852   6.867   5.846
 5958SOL     OW18772   6.459   6.475   2.695
 5958SOL    HW118773   6.442   6.571   2.671
 5958SOL    HW218774   6.467   6.421   2.612
 5959SOL     OW18775   3.040   1.849   5.546
 5959SOL    HW118776   2.951   1.895   5.544
 5959SOL    HW218777   3.081   1.851   5.455
 5960SOL     OW18778   3.484   0.175   3.882
 5960SOL    HW118779   3.436   0.194   3.797
 5960SOL    HW218780   3.558   0.241   3.895
 5961SOL     OW18781   4.246   0.973   3.623
 5961SOL    HW118782   4.157   0.965   3.577
 5961SOL    HW218783   4.305   1.034   3.570
 5962SOL     OW18784   5.276   5.250   2.331
 5962SOL    HW118785   5.337   5.171   2.323
 5962SOL    HW218786   5.277   5.301   2.244
 5963SOL     OW18787   3.639   3.281   3.848
 5963SOL    HW118788   3.547   3.316   3.829
 5963SOL    HW218789   3.693   3.352   3.892
 5964SOL     OW18790   6.984   5.412   6.042
 5964SOL    HW118791   0.025   5.340   6.023
 5964SOL    HW218792   6.898   5.390   5.997
 5965SOL     OW18793   1.975   2.167   6.628
 5965SOL    HW118794   1.995   2.264   6.617
 5965SOL    HW218795   1.877   2.151   6.617
 5966SOL     OW18796   2.907   5.667   4.999
 5966SOL    HW118797   2.937   5.672   4.904
 5966SOL    HW218798   2.933   5.579   5.039
 5967SOL     OW18799   3.843   6.158   2.535
 5967SOL    HW118800   3.914   6.112   2.588
 5967SOL    HW218801   3.753   6.125   2.564
 5968SOL     OW18802   6.077   1.805   3.120
 5968SOL    HW118803   6.048   1.837   3.210
 5968SOL    HW218804   6.122   1.880   3.071
 5969SOL     OW18805   6.416   2.146   4.734
 5969SOL    HW118806   6.391   2.061   4.780
 5969SOL    HW218807   6.440   2.215   4.802
 5970SOL     OW18808   0.506   4.125   2.310
 5970SOL    HW118809   0.488   4.222   2.292
 5970SOL    HW218810   0.603   4.105   2.292
 5971SOL     OW18811   1.601   0.082   2.800
 5971SOL    HW118812   1.549   0.047   2.878
 5971SOL    HW218813   1.654   0.008   2.759
 5972SOL     OW18814   4.424   6.423   0.428
 5972SOL    HW118815   4.418   6.512   0.384
 5972SOL    HW218816   4.344   6.408   0.486
 5973SOL     OW18817   1.718   5.202   2.727
 5973SOL    HW118818   1.788   5.162   2.785
 5973SOL    HW218819   1.703   5.143   2.647
 5974SOL     OW18820   6.110   4.242   6.016
 5974SOL    HW118821   6.072   4.166   6.069
 5974SOL    HW218822   6.168   4.299   6.075
 5975SOL     OW18823   4.334   2.468   1.144
 5975SOL    HW118824   4.300   2.436   1.056
 5975SOL    HW218825   4.378   2.557   1.132
 5976SOL     OW18826   2.967   3.222   4.780
 5976SOL    HW118827   3.047   3.197   4.834
 5976SOL    HW218828   2.899   3.149   4.785
 5977SOL     OW18829   1.303   4.597   1.730
 5977SOL    HW118830   1.251   4.618   1.812
 5977SOL    HW218831   1.298   4.498   1.712
 5978SOL     OW18832   5.527   4.579   2.702
 5978SOL    HW118833   5.465   4.513   2.745
 5978SOL    HW218834   5.621   4.551   2.720
 5979SOL     OW18835   6.497   0.481   3.710
 5979SOL    HW118836   6.454   0.558   3.662
 5979SOL    HW218837   6.460   0.395   3.677
 5980SOL     OW18838   3.988   4.391   6.868
 5980SOL    HW118839   3.954   4.472   6.916
 5980SOL    HW218840   4.028   4.418   6.781
 5981SOL     OW18841   6.991   1.864   1.815
 5981SOL    HW118842   0.062   1.881   1.834
 5981SOL    HW218843   6.964   1.916   1.734
 5982SOL     OW18844   6.207   1.509   7.023
 5982SOL    HW118845   6.286   1.571   7.023
 5982SOL    HW218846   6.209   1.453   6.941
 5983SOL     OW18847   2.301   1.564   4.316
 5983SOL    HW118848   2.257   1.619   4.246
 5983SOL    HW218849   2.234   1.541   4.387
 5984SOL     OW18850   0.070   6.996   4.638
 5984SOL    HW118851   0.112   6.905   4.640
 5984SOL    HW218852   0.133   0.035   4.596
 5985SOL     OW18853   5.412   2.419   3.820
 5985SOL    HW118854   5.371   2.353   3.757
 5985SOL    HW218855   5.499   2.451   3.782
 5986SOL     OW18856   2.936   3.266   3.871
 5986SOL    HW118857   2.912   3.274   3.968
 5986SOL    HW218858   3.032   3.294   3.859
 5987SOL     OW18859   4.236   0.862   4.923
 5987SOL    HW118860   4.287   0.914   4.991
 5987SOL    HW218861   4.296   0.837   4.847
 5988SOL     OW18862   3.957   6.809   4.725
 5988SOL    HW118863   3.971   6.740   4.654
 5988SOL    HW218864   4.026   6.799   4.796
 5989SOL     OW18865   2.520   6.276   6.631
 5989SOL    HW118866   2.541   6.267   6.533
 5989SOL    HW218867   2.536   6.189   6.676
 5990SOL     OW18868   3.922   4.170   0.534
 5990SOL    HW118869   3.930   4.270   0.533
 5990SOL    HW218870   3.862   4.143   0.610
 5991SOL     OW18871   4.097   5.275   4.823
 5991SOL    HW118872   4.144   5.231   4.747
 5991SOL    HW218873   4.100   5.375   4.811
 5992SOL     OW18874   3.868   0.753   4.466
 5992SOL    HW118875   3.781   0.712   4.494
 5992SOL    HW218876   3.943   0.693   4.492
 5993SOL     OW18877   3.562   6.665   5.779
 5993SOL    HW118878   3.578   6.569   5.802
 5993SOL    HW218879   3.480   6.698   5.826
 5994SOL     OW18880   6.020   2.111   1.922
 5994SOL    HW118881   5.930   2.121   1.963
 5994SOL    HW218882   6.090   2.135   1.990
 5995SOL     OW18883   0.313   5.212   1.319
 5995SOL    HW118884   0.395   5.179   1.273
 5995SOL    HW218885   0.273   5.139   1.374
 5996SOL     OW18886   0.428   5.933   6.334
 5996SOL    HW118887   0.430   5.873   6.414
 5996SOL    HW218888   0.427   5.878   6.251
 5997SOL     OW18889   0.367   6.916   2.434
 5997SOL    HW118890   0.427   6.990   2.405
 5997SOL    HW218891   0.388   6.834   2.381
 5998SOL     OW18892   5.737   2.400   2.775
 5998SOL    HW118893   5.659   2.452   2.811
 5998SOL    HW218894   5.743   2.312   2.822
 5999SOL     OW18895   0.995   2.161   3.062
 5999SOL    HW118896   0.972   2.070   3.028
 5999SOL    HW218897   1.093   2.165   3.082
 6000SOL     OW18898   3.631   5.626   2.024
 6000SOL    HW118899   3.634   5.555   1.953
 6000SOL    HW218900   3.667   5.589   2.109
 6001SOL     OW18901   0.159   3.972   0.080
 6001SOL    HW118902   0.235   3.924   0.037
 6001SOL    HW218903   0.077   3.915   0.076
 6002SOL     OW18904   6.962   6.432   1.209
 6002SOL    HW118905   0.011   6.395   1.264
 6002SOL    HW218906   6.921   6.509   1.257
 6003SOL     OW18907   5.952   3.693   5.125
 6003SOL    HW118908   5.895   3.618   5.093
 6003SOL    HW218909   5.925   3.719   5.218
 6004SOL     OW18910   0.737   3.984   3.519
 6004SOL    HW118911   0.727   3.886   3.503
 6004SOL    HW218912   0.802   4.022   3.453
 6005SOL     OW18913   4.149   5.017   4.016
 6005SOL    HW118914   4.200   5.082   3.959
 6005SOL    HW218915   4.060   5.056   4.039
 6006SOL     OW18916   3.766   0.374   6.837
 6006SOL    HW118917   3.717   0.314   6.901
 6006SOL    HW218918   3.850   0.329   6.807
 6007SOL     OW18919   5.072   2.927   3.417
 6007SOL    HW118920   5.081   3.008   3.359
 6007SOL    HW218921   4.976   2.911   3.439
 6008SOL     OW18922   3.380   5.577   5.945
 6008SOL    HW118923   3.288   5.541   5.958
 6008SOL    HW218924   3.446   5.518   5.991
 6009SOL     OW18925   2.666   1.512   4.841
 6009SOL    HW118926   2.656   1.520   4.742
 6009SOL    HW218927   2.624   1.426   4.871
 6010SOL     OW18928   2.043   4.466   2.090
 6010SOL    HW118929   2.008   4.522   2.165
 6010SOL    HW218930   2.012   4.504   2.003
 6011SOL     OW18931   5.248   2.277   1.729
 6011SOL    HW118932   5.195   2.206   1.777
 6011SOL    HW218933   5.285   2.239   1.644
 6012SOL     OW18934   6.866   1.950   0.469
 6012SOL    HW118935   6.895   2.033   0.421
 6012SOL    HW218936   6.944   1.887   0.477
 6013SOL     OW18937   6.081   1.952   2.283
 6013SOL    HW118938   6.098   1.991   2.373
 6013SOL    HW218939   6.168   1.922   2.243
 6014SOL     OW18940   5.145   1.950   0.915
 6014SOL    HW118941   5.181   2.036   0.879
 6014SOL    HW218942   5.220   1.883   0.921
 6015SOL     OW18943   6.188   2.591   5.937
 6015SOL    HW118944   6.172   2.681   5.896
 6015SOL    HW218945   6.114   2.571   6.001
 6016SOL     OW18946   0.663   0.896   5.627
 6016SOL    HW118947   0.592   0.867   5.691
 6016SOL    HW218948   0.753   0.880   5.668
 6017SOL     OW18949   5.967   5.541   2.852
 6017SOL    HW118950   5.913   5.464   2.820
 6017SOL    HW218951   5.907   5.611   2.890
 6018SOL     OW18952   3.431   3.098   0.253
 6018SOL    HW118953   3.482   3.140   0.178
 6018SOL    HW218954   3.345   3.146   0.267
 6019SOL     OW18955   4.453   1.604   3.650
 6019SOL    HW118956   4.506   1.681   3.613
 6019SOL    HW218957   4.506   1.560   3.723
 6020SOL     OW18958   2.374   6.517   2.024
 6020SOL    HW118959   2.316   6.535   2.103
 6020SOL    HW218960   2.470   6.511   2.054
 6021SOL     OW18961   4.452   0.138   2.793
 6021SOL    HW118962   4.531   0.116   2.736
 6021SOL    HW218963   4.421   0.230   2.772
 6022SOL     OW18964   4.582   1.144   3.835
 6022SOL    HW118965   4.588   1.045   3.847
 6022SOL    HW218966   4.486   1.172   3.834
 6023SOL     OW18967   6.518   1.474   3.201
 6023SOL    HW118968   6.480   1.385   3.229
 6023SOL    HW218969   6.496   1.542   3.271
 6024SOL     OW18970   0.515   4.782   2.364
 6024SOL    HW118971   0.525   4.763   2.266
 6024SOL    HW218972   0.511   4.696   2.414
 6025SOL     OW18973   4.809   0.465   1.753
 6025SOL    HW118974   4.795   0.431   1.661
 6025SOL    HW218975   4.787   0.394   1.819
 6026SOL     OW18976   0.748   4.691   4.375
 6026SOL    HW118977   0.797   4.775   4.350
 6026SOL    HW218978   0.776   4.617   4.315
 6027SOL     OW18979   1.536   4.057   5.992
 6027SOL    HW118980   1.510   3.991   5.921
 6027SOL    HW218981   1.618   4.106   5.964
 6028SOL     OW18982   1.104   4.038   0.381
 6028SOL    HW118983   1.111   4.121   0.437
 6028SOL    HW218984   1.034   4.051   0.311
 6029SOL     OW18985   2.291   6.549   0.148
 6029SOL    HW118986   2.214   6.596   0.104
 6029SOL    HW218987   2.300   6.581   0.242
 6030SOL     OW18988   2.398   0.628   3.085
 6030SOL    HW118989   2.346   0.604   3.003
 6030SOL    HW218990   2.422   0.725   3.081
 6031SOL     OW18991   4.201   5.223   5.147
 6031SOL    HW118992   4.175   5.169   5.227
 6031SOL    HW218993   4.120   5.246   5.093
 6032SOL     OW18994   1.560   3.316   2.311
 6032SOL    HW118995   1.589   3.339   2.404
 6032SOL    HW218996   1.533   3.399   2.263
 6033SOL     OW18997   1.967   2.372   3.103
 6033SOL    HW118998   1.944   2.327   3.189
 6033SOL    HW218999   1.883   2.405   3.059
 6034SOL     OW19000   2.249   4.669   4.460
 6034SOL    HW119001   2.311   4.622   4.397
 6034SOL    HW219002   2.224   4.758   4.422
 6035SOL     OW19003   5.274   0.352   3.983
 6035SOL    HW119004   5.312   0.445   3.985
 6035SOL    HW219005   5.194   0.347   4.042
 6036SOL     OW19006   0.075   0.237   5.102
 6036SOL    HW119007   7.020   0.283   5.068
 6036SOL    HW219008   0.097   0.160   5.041
 6037SOL     OW19009   4.664   5.203   6.360
 6037SOL    HW119010   4.691   5.120   6.408
 6037SOL    HW219011   4.745   5.260   6.344
 6038SOL     OW19012   0.481   3.132   6.117
 6038SOL    HW119013   0.482   3.231   6.103
 6038SOL    HW219014   0.523   3.111   6.205
 6039SOL     OW19015   3.383   3.751   2.991
 6039SOL    HW119016   3.313   3.691   3.029
 6039SOL    HW219017   3.432   3.704   2.918
 6040SOL     OW19018   0.749   1.542   6.589
 6040SOL    HW119019   0.661   1.502   6.613
 6040SOL    HW219020   0.822   1.491   6.634
 6041SOL     OW19021   1.518   1.509   6.796
 6041SOL    HW119022   1.607   1.544   6.825
 6041SOL    HW219023   1.501   1.536   6.701
 6042SOL     OW19024   5.943   5.292   2.029
 6042SOL    HW119025   6.040   5.273   2.014
 6042SOL    HW219026   5.901   5.317   1.942
 6043SOL     OW19027   1.340   4.756   5.246
 6043SOL    HW119028   1.358   4.718   5.156
 6043SOL    HW219029   1.427   4.764   5.296
 6044SOL     OW19030   6.988   1.853   1.164
 6044SOL    HW119031   6.896   1.877   1.193
 6044SOL    HW219032   6.993   1.754   1.151
 6045SOL     OW19033   5.332   5.842   0.734
 6045SOL    HW119034   5.410   5.861   0.793
 6045SOL    HW219035   5.357   5.773   0.667
 6046SOL     OW19036   3.394   2.395   0.860
 6046SOL    HW119037   3.473   2.333   0.859
 6046SOL    HW219038   3.416   2.476   0.914
 6047SOL     OW19039   6.225   1.198   4.230
 6047SOL    HW119040   6.218   1.225   4.326
 6047SOL    HW219041   6.189   1.271   4.172
 6048SOL     OW19042   4.198   6.967   3.298
 6048SOL    HW119043   4.209   0.012   3.229
 6048SOL    HW219044   4.135   6.999   3.369
 6049SOL     OW19045   4.825   2.833   6.285
 6049SOL    HW119046   4.750   2.770   6.265
 6049SOL    HW219047   4.913   2.786   6.274
 6050SOL     OW19048   3.876   4.243   6.135
 6050SOL    HW119049   3.928   4.243   6.049
 6050SOL    HW219050   3.889   4.156   6.182
 6051SOL     OW19051   2.250   1.988   3.123
 6051SOL    HW119052   2.332   1.995   3.066
 6051SOL    HW219053   2.198   1.907   3.097
 6052SOL     OW19054   6.842   0.161   0.292
 6052SOL    HW119055   6.788   0.108   0.357
 6052SOL    HW219056   6.919   0.105   0.259
 6053SOL     OW19057   3.427   0.353   6.879
 6053SOL    HW119058   3.497   0.288   6.850
 6053SOL    HW219059   3.370   0.312   6.949
 6054SOL     OW19060   2.329   3.920   1.055
 6054SOL    HW119061   2.381   4.005   1.047
 6054SOL    HW219062   2.341   3.865   0.972
 6055SOL     OW19063   5.668   0.892   5.536
 6055SOL    HW119064   5.760   0.856   5.522
 6055SOL    HW219065   5.656   0.917   5.632
 6056SOL     OW19066   3.894   1.782   5.370
 6056SOL    HW119067   3.938   1.697   5.400
 6056SOL    HW219068   3.907   1.794   5.272
 6057SOL     OW19069   4.410   1.518   4.720
 6057SOL    HW119070   4.319   1.479   4.705
 6057SOL    HW219071   4.455   1.469   4.794
 6058SOL     OW19072   5.900   2.910   3.202
 6058SOL    HW119073   5.973   2.842   3.207
 6058SOL    HW219074   5.902   2.966   3.285
 6059SOL     OW19075   4.451   5.755   5.921
 6059SOL    HW119076   4.496   5.674   5.959
 6059SOL    HW219077   4.359   5.764   5.958
 6060SOL     OW19078   3.454   3.913   5.819
 6060SOL    HW119079   3.359   3.930   5.845
 6060SOL    HW219080   3.494   3.997   5.783
 6061SOL     OW19081   3.267   2.739   0.200
 6061SOL    HW119082   3.278   2.654   0.252
 6061SOL    HW219083   3.348   2.796   0.214
 6062SOL     OW19084   2.419   1.151   4.632
 6062SOL    HW119085   2.436   1.182   4.538
 6062SOL    HW219086   2.426   1.052   4.636
 6063SOL     OW19087   3.824   1.213   6.128
 6063SOL    HW119088   3.757   1.192   6.057
 6063SOL    HW219089   3.845   1.311   6.126
 6064SOL     OW19090   2.029   5.434   2.428
 6064SOL    HW119091   2.031   5.383   2.514
 6064SOL    HW219092   1.937   5.427   2.388
 6065SOL     OW19093   6.403   6.582   1.047
 6065SOL    HW119094   6.390   6.607   0.951
 6065SOL    HW219095   6.386   6.662   1.105
 6066SOL     OW19096   4.897   1.176   1.391
 6066SOL    HW119097   4.838   1.233   1.335
 6066SOL    HW219098   4.845   1.096   1.423
 6067SOL     OW19099   6.580   2.191   6.770
 6067SOL    HW119100   6.669   2.236   6.782
 6067SOL    HW219101   6.514   2.257   6.735
 6068SOL     OW19102   5.534   3.412   5.049
 6068SOL    HW119103   5.446   3.425   5.094
 6068SOL    HW219104   5.530   3.445   4.955
 6069SOL     OW19105   6.760   3.852   6.221
 6069SOL    HW119106   6.787   3.775   6.279
 6069SOL    HW219107   6.837   3.914   6.209
 6070SOL     OW19108   3.377   2.386   6.502
 6070SOL    HW119109   3.319   2.424   6.574
 6070SOL    HW219110   3.354   2.428   6.414
 6071SOL     OW19111   4.112   5.843   5.937
 6071SOL    HW119112   4.014   5.862   5.933
 6071SOL    HW219113   4.153   5.856   5.846
 6072SOL     OW19114   1.018   1.262   1.860
 6072SOL    HW119115   0.975   1.349   1.836
 6072SOL    HW219116   1.075   1.274   1.940
 6073SOL     OW19117   6.237   3.010   0.520
 6073SOL    HW119118   6.286   2.957   0.451
 6073SOL    HW219119   6.141   2.982   0.521
 6074SOL     OW19120   0.970   6.739   4.663
 6074SOL    HW119121   0.903   6.666   4.652
 6074SOL    HW219122   1.031   6.742   4.584
 6075SOL     OW19123   6.898   2.611   6.938
 6075SOL    HW119124   6.874   2.522   6.978
 6075SOL    HW219125   6.960   2.659   7.000
 6076SOL     OW19126   2.366   0.206   5.052
 6076SOL    HW119127   2.356   0.187   4.954
 6076SOL    HW219128   2.453   0.169   5.084
 6077SOL     OW19129   4.949   5.931   2.371
 6077SOL    HW119130   4.977   5.835   2.374
 6077SOL    HW219131   5.030   5.989   2.365
 6078SOL     OW19132   3.352   4.859   2.912
 6078SOL    HW119133   3.436   4.913   2.914
 6078SOL    HW219134   3.364   4.776   2.967
 6079SOL     OW19135   2.870   3.624   6.832
 6079SOL    HW119136   2.856   3.680   6.751
 6079SOL    HW219137   2.949   3.564   6.819
 6080SOL     OW19138   6.775   1.699   0.850
 6080SOL    HW119139   6.814   1.789   0.836
 6080SOL    HW219140   6.836   1.644   0.907
 6081SOL     OW19141   6.481   4.001   4.326
 6081SOL    HW119142   6.576   4.006   4.295
 6081SOL    HW219143   6.478   3.978   4.424
 6082SOL     OW19144   3.420   0.287   2.854
 6082SOL    HW119145   3.356   0.327   2.920
 6082SOL    HW219146   3.457   0.202   2.892
 6083SOL     OW19147   1.175   5.450   6.151
 6083SOL    HW119148   1.221   5.375   6.103
 6083SOL    HW219149   1.080   5.424   6.168
 6084SOL     OW19150   6.824   5.411   4.300
 6084SOL    HW119151   6.742   5.402   4.357
 6084SOL    HW219152   6.871   5.496   4.323
 6085SOL     OW19153   6.608   4.048   0.084
 6085SOL    HW119154   6.618   4.038   0.183
 6085SOL    HW219155   6.631   4.142   0.057
 6086SOL     OW19156   3.612   1.167   4.559
 6086SOL    HW119157   3.666   1.105   4.616
 6086SOL    HW219158   3.596   1.252   4.609
 6087SOL     OW19159   5.471   6.968   6.917
 6087SOL    HW119160   5.548   7.014   6.873
 6087SOL    HW219161   5.468   6.872   6.887
 6088SOL     OW19162   0.047   6.250   4.679
 6088SOL    HW119163   7.002   6.281   4.617
 6088SOL    HW219164   0.125   6.217   4.626
 6089SOL     OW19165   0.544   3.610   1.624
 6089SOL    HW119166   0.640   3.631   1.606
 6089SOL    HW219167   0.502   3.685   1.675
 6090SOL     OW19168   0.599   6.062   6.082
 6090SOL    HW119169   0.572   6.048   5.986
 6090SOL    HW219170   0.539   6.009   6.141
 6091SOL     OW19171   0.681   1.128   1.957
 6091SOL    HW119172   0.700   1.194   1.885
 6091SOL    HW219173   0.767   1.095   1.997
 6092SOL     OW19174   2.809   0.704   3.109
 6092SOL    HW119175   2.829   0.787   3.160
 6092SOL    HW219176   2.875   0.695   3.033
 6093SOL     OW19177   2.072   2.757   1.909
 6093SOL    HW119178   2.012   2.825   1.866
 6093SOL    HW219179   2.122   2.799   1.984
 6094SOL     OW19180   2.234   1.443   1.772
 6094SOL    HW119181   2.333   1.443   1.782
 6094SOL    HW219182   2.207   1.369   1.710
 6095SOL     OW19183   5.014   3.091   6.819
 6095SOL    HW119184   4.943   3.058   6.881
 6095SOL    HW219185   5.009   3.043   6.732
 6096SOL     OW19186   5.859   0.663   4.252
 6096SOL    HW119187   5.929   0.705   4.309
 6096SOL    HW219188   5.897   0.640   4.162
 6097SOL     OW19189   1.992   0.616   2.929
 6097SOL    HW119190   2.039   0.556   2.994
 6097SOL    HW219191   1.902   0.580   2.909
 6098SOL     OW19192   1.744   2.011   6.064
 6098SOL    HW119193   1.830   1.973   6.031
 6098SOL    HW219194   1.726   2.099   6.020
 6099SOL     OW19195   5.501   5.909   5.377
 6099SOL    HW119196   5.558   5.829   5.393
 6099SOL    HW219197   5.407   5.890   5.408
 6100SOL     OW19198   6.284   3.673   6.226
 6100SOL    HW119199   6.232   3.759   6.233
 6100SOL    HW219200   6.285   3.643   6.131
 6101SOL     OW19201   6.612   2.194   5.988
 6101SOL    HW119202   6.596   2.281   6.035
 6101SOL    HW219203   6.701   2.195   5.943
 6102SOL     OW19204   3.076   0.745   4.241
 6102SOL    HW119205   3.091   0.779   4.149
 6102SOL    HW219206   3.020   0.662   4.237
 6103SOL     OW19207   0.076   0.642   3.861
 6103SOL    HW119208   0.001   0.600   3.911
 6103SOL    HW219209   0.066   0.742   3.864
 6104SOL     OW19210   6.152   2.327   6.709
 6104SOL    HW119211   6.104   2.375   6.782
 6104SOL    HW219212   6.244   2.365   6.699
 6105SOL     OW19213   3.426   6.533   5.466
 6105SOL    HW119214   3.521   6.511   5.442
 6105SOL    HW219215   3.411   6.631   5.455
 6106SOL     OW19216   2.518   4.976   6.254
 6106SOL    HW119217   2.510   5.009   6.160
 6106SOL    HW219218   2.557   5.048   6.311
 6107SOL     OW19219   2.309   4.698   3.998
 6107SOL    HW119220   2.361   4.701   4.083
 6107SOL    HW219221   2.364   4.654   3.927
 6108SOL     OW19222   0.674   1.805   3.589
 6108SOL    HW119223   0.683   1.827   3.492
 6108SOL    HW219224   0.734   1.728   3.611
 6109SOL     OW19225   5.400   2.725   0.124
 6109SOL    HW119226   5.301   2.723   0.134
 6109SOL    HW219227   5.431   2.639   0.082
 6110SOL     OW19228   2.945   2.508   6.428
 6110SOL    HW119229   2.854   2.481   6.459
 6110SOL    HW219230   2.997   2.428   6.400
 6111SOL     OW19231   1.018   4.814   3.018
 6111SOL    HW119232   1.093   4.785   3.078
 6111SOL    HW219233   0.995   4.909   3.037
 6112SOL     OW19234   2.046   1.819   3.113
 6112SOL    HW119235   2.075   1.733   3.156
 6112SOL    HW219236   2.038   1.806   3.014
 6113SOL     OW19237   0.893   1.013   6.148
 6113SOL    HW119238   0.794   0.998   6.148
 6113SOL    HW219239   0.938   0.938   6.098
 6114SOL     OW19240   5.121   5.327   0.173
 6114SOL    HW119241   5.052   5.392   0.140
 6114SOL    HW219242   5.169   5.286   0.096
 6115SOL     OW19243   4.924   4.997   3.234
 6115SOL    HW119244   4.942   5.072   3.297
 6115SOL    HW219245   4.923   5.032   3.140
 6116SOL     OW19246   2.793   1.509   1.158
 6116SOL    HW119247   2.867   1.576   1.154
 6116SOL    HW219248   2.706   1.557   1.176
 6117SOL     OW19249   6.078   7.026   4.695
 6117SOL    HW119250   6.113   0.093   4.685
 6117SOL    HW219251   6.147   6.961   4.663
 6118SOL     OW19252   6.804   2.000   1.935
 6118SOL    HW119253   6.806   2.015   2.034
 6118SOL    HW219254   6.882   1.944   1.908
 6119SOL     OW19255   0.254   4.549   4.959
 6119SOL    HW119256   0.326   4.530   5.026
 6119SOL    HW219257   0.211   4.637   4.979
 6120SOL     OW19258   3.020   6.585   3.923
 6120SOL    HW119259   2.962   6.624   3.995
 6120SOL    HW219260   2.964   6.565   3.843
 6121SOL     OW19261   6.842   3.047   4.258
 6121SOL    HW119262   6.900   3.122   4.225
 6121SOL    HW219263   6.759   3.043   4.203
 6122SOL     OW19264   3.504   6.165   2.773
 6122SOL    HW119265   3.412   6.173   2.735
 6122SOL    HW219266   3.551   6.088   2.730
 6123SOL     OW19267   7.004   0.689   1.299
 6123SOL    HW119268   0.063   0.662   1.255
 6123SOL    HW219269   7.023   0.730   1.388
 6124SOL     OW19270   3.742   6.513   5.463
 6124SOL    HW119271   3.825   6.476   5.504
 6124SOL    HW219272   3.753   6.611   5.449
 6125SOL     OW19273   2.254   5.358   1.354
 6125SOL    HW119274   2.165   5.351   1.308
 6125SOL    HW219275   2.322   5.306   1.304
 6126SOL     OW19276   5.237   6.022   4.219
 6126SOL    HW119277   5.215   5.948   4.155
 6126SOL    HW219278   5.154   6.048   4.269
 6127SOL     OW19279   2.653   6.891   1.600
 6127SOL    HW119280   2.685   6.967   1.544
 6127SOL    HW219281   2.589   6.835   1.547
 6128SOL     OW19282   0.018   3.591   0.718
 6128SOL    HW119283   0.106   3.598   0.671
 6128SOL    HW219284   6.975   3.558   0.653
 6129SOL     OW19285   6.285   4.141   3.276
 6129SOL    HW119286   6.226   4.079   3.327
 6129SOL    HW219287   6.244   4.161   3.187
 6130SOL     OW19288   6.126   3.107   4.654
 6130SOL    HW119289   6.137   3.139   4.560
 6130SOL    HW219290   6.210   3.064   4.685
 6131SOL     OW19291   6.946   1.328   5.375
 6131SOL    HW119292   6.869   1.291   5.324
 6131SOL    HW219293   6.934   1.308   5.473
 6132SOL     OW19294   3.642   1.456   1.239
 6132SOL    HW119295   3.550   1.468   1.201
 6132SOL    HW219296   3.635   1.418   1.331
 6133SOL     OW19297   0.652   3.032   2.147
 6133SOL    HW119298   0.737   3.067   2.186
 6133SOL    HW219299   0.582   3.103   2.150
 6134SOL     OW19300   3.480   3.071   6.739
 6134SOL    HW119301   3.512   3.152   6.787
 6134SOL    HW219302   3.535   2.992   6.767
 6135SOL     OW19303   0.076   0.220   1.759
 6135SOL    HW119304   7.016   0.170   1.752
 6135SOL    HW219305   0.134   0.199   1.680
 6136SOL     OW19306   0.700   1.306   2.564
 6136SOL    HW119307   0.693   1.241   2.640
 6136SOL    HW219308   0.692   1.399   2.599
 6137SOL     OW19309   3.890   0.907   5.690
 6137SOL    HW119310   3.946   0.842   5.638
 6137SOL    HW219311   3.795   0.901   5.660
 6138SOL     OW19312   3.662   6.424   2.640
 6138SOL    HW119313   3.673   6.409   2.542
 6138SOL    HW219314   3.585   6.368   2.673
 6139SOL     OW19315   2.160   3.113   5.138
 6139SOL    HW119316   2.257   3.091   5.127
 6139SOL    HW219317   2.151   3.205   5.177
 6140SOL     OW19318   0.290   0.054   1.884
 6140SOL    HW119319   0.304   0.152   1.897
 6140SOL    HW219320   0.352   0.002   1.942
 6141SOL     OW19321   6.599   6.054   4.626
 6141SOL    HW119322   6.501   6.045   4.642
 6141SOL    HW219323   6.616   6.129   4.562
 6142SOL     OW19324   6.860   4.563   0.722
 6142SOL    HW119325   6.878   4.465   0.710
 6142SOL    HW219326   6.788   4.592   0.660
 6143SOL     OW19327   5.960   4.956   6.197
 6143SOL    HW119328   5.972   4.868   6.244
 6143SOL    HW219329   5.917   4.940   6.108
 6144SOL     OW19330   0.187   4.206   3.022
 6144SOL    HW119331   0.119   4.151   2.973
 6144SOL    HW219332   0.277   4.192   2.981
 6145SOL     OW19333   4.733   5.639   3.606
 6145SOL    HW119334   4.786   5.709   3.655
 6145SOL    HW219335   4.661   5.604   3.665
 6146SOL     OW19336   4.423   1.375   3.518
 6146SOL    HW119337   4.416   1.389   3.419
 6146SOL    HW219338   4.447   1.461   3.563
 6147SOL     OW19339   2.103   4.990   3.116
 6147SOL    HW119340   2.123   4.961   3.210
 6147SOL    HW219341   2.014   4.954   3.089
 6148SOL     OW19342   6.670   6.472   4.619
 6148SOL    HW119343   6.731   6.405   4.577
 6148SOL    HW219344   6.623   6.525   4.548
 6149SOL     OW19345   3.880   4.857   3.356
 6149SOL    HW119346   3.952   4.825   3.295
 6149SOL    HW219347   3.912   4.852   3.450
 6150SOL     OW19348   4.198   5.344   6.768
 6150SOL    HW119349   4.148   5.318   6.851
 6150SOL    HW219350   4.169   5.287   6.692
 6151SOL     OW19351   5.886   3.227   5.311
 6151SOL    HW119352   5.821   3.177   5.368
 6151SOL    HW219353   5.863   3.324   5.311
 6152SOL     OW19354   5.139   4.899   6.169
 6152SOL    HW119355   5.080   4.819   6.184
 6152SOL    HW219356   5.180   4.894   6.078
 6153SOL     OW19357   4.442   3.898   1.430
 6153SOL    HW119358   4.441   3.951   1.514
 6153SOL    HW219359   4.353   3.854   1.417
 6154SOL     OW19360   5.594   1.474   1.979
 6154SOL    HW119361   5.594   1.557   2.036
 6154SOL    HW219362   5.583   1.500   1.883
 6155SOL     OW19363   0.977   3.189   4.597
 6155SOL    HW119364   0.990   3.277   4.643
 6155SOL    HW219365   1.045   3.178   4.525
 6156SOL     OW19366   5.220   6.188   2.709
 6156SOL    HW119367   5.163   6.161   2.786
 6156SOL    HW219368   5.264   6.107   2.670
 6157SOL     OW19369   1.737   2.706   3.132
 6157SOL    HW119370   1.643   2.738   3.134
 6157SOL    HW219371   1.742   2.619   3.082
 6158SOL     OW19372   4.645   0.813   6.879
 6158SOL    HW119373   4.558   0.847   6.916
 6158SOL    HW219374   4.630   0.723   6.839
 6159SOL     OW19375   5.004   1.476   0.262
 6159SOL    HW119376   5.067   1.403   0.290
 6159SOL    HW219377   5.010   1.552   0.327
 6160SOL     OW19378   5.451   5.681   0.504
 6160SOL    HW119379   5.465   5.744   0.428
 6160SOL    HW219380   5.536   5.633   0.525
 6161SOL     OW19381   6.432   1.658   5.710
 6161SOL    HW119382   6.465   1.579   5.660
 6161SOL    HW219383   6.391   1.628   5.797
 6162SOL     OW19384   1.247   4.722   4.473
 6162SOL    HW119385   1.265   4.630   4.508
 6162SOL    HW219386   1.174   4.764   4.526
 6163SOL     OW19387   5.323   4.855   1.019
 6163SOL    HW119388   5.262   4.911   1.076
 6163SOL    HW219389   5.275   4.772   0.992
 6164SOL     OW19390   1.994   2.185   1.599
 6164SOL    HW119391   1.923   2.254   1.614
 6164SOL    HW219392   2.078   2.212   1.646
 6165SOL     OW19393   4.008   6.071   0.144
 6165SOL    HW119394   3.966   5.985   0.173
 6165SOL    HW219395   3.948   6.117   0.078
 6166SOL     OW19396   2.931   0.935   5.699
 6166SOL    HW119397   2.881   0.854   5.730
 6166SOL    HW219398   2.930   1.004   5.772
 6167SOL     OW19399   1.116   4.769   2.541
 6167SOL    HW119400   1.141   4.804   2.450
 6167SOL    HW219401   1.055   4.691   2.531
 6168SOL     OW19402   0.408   3.621   1.387
 6168SOL    HW119403   0.460   3.682   1.327
 6168SOL    HW219404   0.446   3.625   1.480
 6169SOL     OW19405   2.056   3.570   1.535
 6169SOL    HW119406   1.992   3.580   1.459
 6169SOL    HW219407   2.105   3.656   1.550
 6170SOL     OW19408   0.318   3.540   5.325
 6170SOL    HW119409   0.299   3.450   5.283
 6170SOL    HW219410   0.360   3.600   5.257
 6171SOL     OW19411   0.677   0.449   0.896
 6171SOL    HW119412   0.625   0.484   0.973
 6171SOL    HW219413   0.628   0.373   0.854
 6172SOL     OW19414   1.025   2.443   3.169
 6172SOL    HW119415   0.994   2.365   3.115
 6172SOL    HW219416   1.007   2.426   3.266
 6173SOL     OW19417   6.855   5.778   3.130
 6173SOL    HW119418   6.904   5.810   3.210
 6173SOL    HW219419   6.769   5.828   3.121
 6174SOL     OW19420   5.607   4.801   2.980
 6174SOL    HW119421   5.679   4.761   2.923
 6174SOL    HW219422   5.519   4.762   2.954
 6175SOL     OW19423   3.299   0.535   4.865
 6175SOL    HW119424   3.367   0.504   4.932
 6175SOL    HW219425   3.284   0.462   4.797
 6176SOL     OW19426   4.402   3.609   5.297
 6176SOL    HW119427   4.498   3.611   5.268
 6176SOL    HW219428   4.344   3.589   5.218
 6177SOL     OW19429   6.049   1.613   1.772
 6177SOL    HW119430   6.117   1.582   1.839
 6177SOL    HW219431   5.967   1.645   1.819
 6178SOL     OW19432   4.942   3.680   2.102
 6178SOL    HW119433   4.892   3.719   2.025
 6178SOL    HW219434   4.900   3.592   2.128
 6179SOL     OW19435   6.570   4.645   1.820
 6179SOL    HW119436   6.473   4.664   1.812
 6179SOL    HW219437   6.586   4.546   1.811
 6180SOL     OW19438   3.311   4.970   0.752
 6180SOL    HW119439   3.375   5.047   0.758
 6180SOL    HW219440   3.217   5.005   0.746
 6181SOL     OW19441   4.390   5.086   6.053
 6181SOL    HW119442   4.329   5.112   5.978
 6181SOL    HW219443   4.451   5.013   6.023
 6182SOL     OW19444   3.595   3.206   0.474
 6182SOL    HW119445   3.640   3.188   0.387
 6182SOL    HW219446   3.504   3.164   0.474
 6183SOL     OW19447   1.483   2.321   0.979
 6183SOL    HW119448   1.392   2.322   0.937
 6183SOL    HW219449   1.546   2.375   0.924
 6184SOL     OW19450   2.710   0.962   5.884
 6184SOL    HW119451   2.720   0.882   5.825
 6184SOL    HW219452   2.651   1.030   5.839
 6185SOL     OW19453   3.071   3.088   5.265
 6185SOL    HW119454   3.055   2.993   5.290
 6185SOL    HW219455   3.158   3.096   5.217
 6186SOL     OW19456   6.853   2.054   1.617
 6186SOL    HW119457   6.786   2.109   1.568
 6186SOL    HW219458   6.941   2.102   1.619
 6187SOL     OW19459   4.794   2.429   5.205
 6187SOL    HW119460   4.877   2.378   5.226
 6187SOL    HW219461   4.755   2.466   5.289
 6188SOL     OW19462   2.062   1.597   5.667
 6188SOL    HW119463   2.138   1.653   5.700
 6188SOL    HW219464   1.984   1.607   5.729
 6189SOL     OW19465   3.982   5.532   2.474
 6189SOL    HW119466   3.940   5.616   2.440
 6189SOL    HW219467   4.078   5.528   2.446
 6190SOL     OW19468   6.316   3.374   6.085
 6190SOL    HW119469   6.317   3.278   6.058
 6190SOL    HW219470   6.329   3.432   6.004
 6191SOL     OW19471   2.600   3.338   5.996
 6191SOL    HW119472   2.610   3.353   6.095
 6191SOL    HW219473   2.690   3.343   5.953
 6192SOL     OW19474   2.549   2.034   7.012
 6192SOL    HW119475   2.521   1.941   6.988
 6192SOL    HW219476   2.637   2.054   6.969
 6193SOL     OW19477   5.454   5.120   0.140
 6193SOL    HW119478   5.496   5.078   0.220
 6193SOL    HW219479   5.424   5.213   0.163
 6194SOL     OW19480   6.818   0.607   6.624
 6194SOL    HW119481   6.770   0.602   6.712
 6194SOL    HW219482   6.796   0.525   6.570
 6195SOL     OW19483   5.860   0.538   4.825
 6195SOL    HW119484   5.806   0.512   4.745
 6195SOL    HW219485   5.842   0.633   4.847
 6196SOL     OW19486   5.237   4.490   2.729
 6196SOL    HW119487   5.139   4.473   2.733
 6196SOL    HW219488   5.283   4.435   2.798
 6197SOL     OW19489   2.500   5.261   1.870
 6197SOL    HW119490   2.496   5.188   1.801
 6197SOL    HW219491   2.565   5.236   1.941
 6198SOL     OW19492   5.558   6.277   6.237
 6198SOL    HW119493   5.522   6.337   6.165
 6198SOL    HW219494   5.585   6.332   6.316
 6199SOL     OW19495   0.358   0.321   0.332
 6199SOL    HW119496   0.379   0.224   0.347
 6199SOL    HW219497   0.279   0.328   0.271
 6200SOL     OW19498   1.562   0.856   2.429
 6200SOL    HW119499   1.521   0.843   2.338
 6200SOL    HW219500   1.636   0.790   2.442
 6201SOL     OW19501   6.863   4.362   3.766
 6201SOL    HW119502   6.856   4.411   3.853
 6201SOL    HW219503   6.906   4.274   3.781
 6202SOL     OW19504   6.023   1.942   3.378
 6202SOL    HW119505   6.010   2.038   3.403
 6202SOL    HW219506   6.101   1.905   3.428
 6203SOL     OW19507   6.834   5.591   1.803
 6203SOL    HW119508   6.917   5.572   1.750
 6203SOL    HW219509   6.849   5.672   1.860
 6204SOL     OW19510   1.232   6.322   5.170
 6204SOL    HW119511   1.199   6.233   5.141
 6204SOL    HW219512   1.228   6.386   5.093
 6205SOL     OW19513   4.816   4.596   2.222
 6205SOL    HW119514   4.779   4.615   2.312
 6205SOL    HW219515   4.796   4.501   2.197
 6206SOL     OW19516   5.200   1.544   3.814
 6206SOL    HW119517   5.252   1.598   3.880
 6206SOL    HW219518   5.114   1.514   3.856
 6207SOL     OW19519   1.031   5.832   4.416
 6207SOL    HW119520   0.964   5.891   4.370
 6207SOL    HW219521   1.119   5.838   4.368
 6208SOL     OW19522   3.684   3.186   5.590
 6208SOL    HW119523   3.639   3.122   5.653
 6208SOL    HW219524   3.752   3.137   5.536
 6209SOL     OW19525   3.664   4.318   1.008
 6209SOL    HW119526   3.663   4.414   1.034
 6209SOL    HW219527   3.749   4.276   1.038
 6210SOL     OW19528   4.910   3.417   3.357
 6210SOL    HW119529   5.006   3.390   3.371
 6210SOL    HW219530   4.860   3.408   3.443
 6211SOL     OW19531   4.774   5.592   5.112
 6211SOL    HW119532   4.819   5.518   5.062
 6211SOL    HW219533   4.696   5.625   5.059
 6212SOL     OW19534   2.716   5.161   5.411
 6212SOL    HW119535   2.802   5.139   5.365
 6212SOL    HW219536   2.691   5.255   5.390
 6213SOL     OW19537   4.956   6.471   0.489
 6213SOL    HW119538   5.017   6.393   0.479
 6213SOL    HW219539   4.866   6.439   0.520
 6214SOL     OW19540   5.807   6.234   5.121
 6214SOL    HW119541   5.810   6.248   5.022
 6214SOL    HW219542   5.711   6.235   5.152
 6215SOL     OW19543   5.309   3.323   6.122
 6215SOL    HW119544   5.308   3.289   6.216
 6215SOL    HW219545   5.217   3.318   6.084
 6216SOL     OW19546   5.566   2.782   3.493
 6216SOL    HW119547   5.522   2.869   3.473
 6216SOL    HW219548   5.635   2.763   3.423
 6217SOL     OW19549   1.211   4.980   2.705
 6217SOL    HW119550   1.276   4.956   2.777
 6217SOL    HW219551   1.181   4.896   2.659
 6218SOL     OW19552   4.950   6.150   0.031
 6218SOL    HW119553   4.897   6.220   0.078
 6218SOL    HW219554   5.048   6.164   0.048
 6219SOL     OW19555   0.908   0.791   5.066
 6219SOL    HW119556   0.856   0.769   4.984
 6219SOL    HW219557   0.975   0.863   5.045
 6220SOL     OW19558   3.660   0.774   0.615
 6220SOL    HW119559   3.637   0.862   0.573
 6220SOL    HW219560   3.656   0.782   0.714
 6221SOL     OW19561   6.850   6.249   6.417
 6221SOL    HW119562   6.939   6.244   6.462
 6221SOL    HW219563   6.778   6.254   6.486
 6222SOL     OW19564   6.076   1.137   2.257
 6222SOL    HW119565   6.030   1.209   2.309
 6222SOL    HW219566   6.087   1.167   2.162
 6223SOL     OW19567   0.609   5.048   3.730
 6223SOL    HW119568   0.611   4.948   3.732
 6223SOL    HW219569   0.514   5.079   3.720
 6224SOL     OW19570   4.245   1.643   6.770
 6224SOL    HW119571   4.170   1.698   6.734
 6224SOL    HW219572   4.209   1.558   6.808
 6225SOL     OW19573   3.611   0.850   0.039
 6225SOL    HW119574   3.646   0.778   7.005
 6225SOL    HW219575   3.609   0.816   0.134
 6226SOL     OW19576   1.415   1.657   4.090
 6226SOL    HW119577   1.325   1.693   4.116
 6226SOL    HW219578   1.414   1.557   4.093
 6227SOL     OW19579   2.906   4.381   5.788
 6227SOL    HW119580   2.809   4.405   5.799
 6227SOL    HW219581   2.943   4.430   5.710
 6228SOL     OW19582   2.048   2.498   3.639
 6228SOL    HW119583   2.043   2.598   3.646
 6228SOL    HW219584   2.006   2.469   3.554
 6229SOL     OW19585   0.055   3.491   5.031
 6229SOL    HW119586   7.008   3.477   4.965
 6229SOL    HW219587   0.016   3.507   5.122
 6230SOL     OW19588   0.368   1.564   2.514
 6230SOL    HW119589   0.330   1.635   2.454
 6230SOL    HW219590   0.324   1.571   2.604
 6231SOL     OW19591   5.542   4.516   0.930
 6231SOL    HW119592   5.605   4.584   0.891
 6231SOL    HW219593   5.594   4.436   0.961
 6232SOL     OW19594   5.709   0.498   0.372
 6232SOL    HW119595   5.764   0.467   0.295
 6232SOL    HW219596   5.761   0.487   0.457
 6233SOL     OW19597   0.225   3.474   2.462
 6233SOL    HW119598   0.301   3.521   2.415
 6233SOL    HW219599   0.179   3.413   2.397
 6234SOL     OW19600   6.870   6.986   4.356
 6234SOL    HW119601   6.780   7.025   4.376
 6234SOL    HW219602   6.867   6.887   4.365
 6235SOL     OW19603   6.710   1.011   2.266
 6235SOL    HW119604   6.679   1.000   2.361
 6235SOL    HW219605   6.783   0.945   2.248
 6236SOL     OW19606   0.876   4.767   1.142
 6236SOL    HW119607   0.868   4.676   1.100
 6236SOL    HW219608   0.958   4.812   1.107
 6237SOL     OW19609   3.801   0.250   0.556
 6237SOL    HW119610   3.742   0.245   0.476
 6237SOL    HW219611   3.746   0.238   0.639
 6238SOL     OW19612   2.864   6.656   4.127
 6238SOL    HW119613   2.915   6.650   4.213
 6238SOL    HW219614   2.766   6.649   4.146
 6239SOL     OW19615   4.976   0.353   2.288
 6239SOL    HW119616   4.956   0.329   2.383
 6239SOL    HW219617   5.070   0.328   2.266
 6240SOL     OW19618   3.339   3.378   4.898
 6240SOL    HW119619   3.418   3.321   4.876
 6240SOL    HW219620   3.314   3.434   4.818
 6241SOL     OW19621   3.003   6.381   3.604
 6241SOL    HW119622   3.078   6.315   3.600
 6241SOL    HW219623   2.933   6.347   3.666
 6242SOL     OW19624   2.859   2.044   2.791
 6242SOL    HW119625   2.796   2.008   2.723
 6242SOL    HW219626   2.898   1.968   2.843
 6243SOL     OW19627   6.221   1.370   6.760
 6243SOL    HW119628   6.223   1.374   6.660
 6243SOL    HW219629   6.222   1.274   6.789
 6244SOL     OW19630   4.455   5.000   2.893
 6244SOL    HW119631   4.390   4.983   2.819
 6244SOL    HW219632   4.548   4.996   2.857
 6245SOL     OW19633   1.280   4.570   2.256
 6245SOL    HW119634   1.357   4.633   2.265
 6245SOL    HW219635   1.297   4.490   2.313
 6246SOL     OW19636   1.163   6.865   4.892
 6246SOL    HW119637   1.134   6.867   4.796
 6246SOL    HW219638   1.260   6.842   4.896
 6247SOL     OW19639   0.220   5.613   3.438
 6247SOL    HW119640   0.271   5.529   3.458
 6247SOL    HW219641   0.198   5.659   3.524
 6248SOL     OW19642   4.068   2.770   6.752
 6248SOL    HW119643   4.097   2.846   6.694
 6248SOL    HW219644   4.049   2.803   6.845
 6249SOL     OW19645   0.068   2.843   1.326
 6249SOL    HW119646   0.137   2.863   1.395
 6249SOL    HW219647   7.016   2.904   1.338
 6250SOL     OW19648   6.863   7.017   0.655
 6250SOL    HW119649   6.839   0.055   0.727
 6250SOL    HW219650   6.785   7.007   0.592
 6251SOL     OW19651   3.077   6.984   4.405
 6251SOL    HW119652   3.108   7.007   4.313
 6251SOL    HW219653   2.993   6.930   4.400
 6252SOL     OW19654   2.619   5.697   0.059
 6252SOL    HW119655   2.602   5.606   0.020
 6252SOL    HW219656   2.555   5.715   0.134
 6253SOL     OW19657   2.857   5.032   4.573
 6253SOL    HW119658   2.806   5.085   4.641
 6253SOL    HW219659   2.843   4.935   4.590
 6254SOL     OW19660   0.293   5.256   0.717
 6254SOL    HW119661   0.224   5.291   0.779
 6254SOL    HW219662   0.350   5.332   0.685
 6255SOL     OW19663   1.174   1.787   0.910
 6255SOL    HW119664   1.243   1.852   0.877
 6255SOL    HW219665   1.083   1.826   0.895
 6256SOL     OW19666   4.665   5.658   2.955
 6256SOL    HW119667   4.736   5.628   3.019
 6256SOL    HW219668   4.575   5.643   2.996
 6257SOL     OW19669   4.366   4.139   0.956
 6257SOL    HW119670   4.317   4.176   1.035
 6257SOL    HW219671   4.442   4.082   0.988
 6258SOL     OW19672   4.703   0.397   5.691
 6258SOL    HW119673   4.649   0.331   5.638
 6258SOL    HW219674   4.642   0.461   5.737
 6259SOL     OW19675   2.277   6.518   5.572
 6259SOL    HW119676   2.299   6.591   5.637
 6259SOL    HW219677   2.247   6.558   5.485
 6260SOL     OW19678   1.946   0.565   0.498
 6260SOL    HW119679   1.969   0.473   0.466
 6260SOL    HW219680   1.879   0.606   0.436
 6261SOL     OW19681   4.517   6.707   1.208
 6261SOL    HW119682   4.440   6.766   1.230
 6261SOL    HW219683   4.487   6.611   1.205
 6262SOL     OW19684   6.010   6.310   2.416
 6262SOL    HW119685   6.062   6.232   2.381
 6262SOL    HW219686   5.989   6.373   2.341
 6263SOL     OW19687   0.073   6.532   4.533
 6263SOL    HW119688   0.077   6.439   4.568
 6263SOL    HW219689   0.119   6.594   4.597
 6264SOL     OW19690   0.643   6.746   0.979
 6264SOL    HW119691   0.621   6.667   1.036
 6264SOL    HW219692   0.743   6.752   0.968
 6265SOL     OW19693   4.026   2.367   0.315
 6265SOL    HW119694   4.049   2.274   0.346
 6265SOL    HW219695   4.006   2.424   0.395
 6266SOL     OW19696   3.382   5.211   3.475
 6266SOL    HW119697   3.402   5.130   3.421
 6266SOL    HW219698   3.412   5.197   3.569
 6267SOL     OW19699   1.288   6.625   5.731
 6267SOL    HW119700   1.205   6.607   5.678
 6267SOL    HW219701   1.328   6.712   5.702
 6268SOL     OW19702   3.561   0.696   1.990
 6268SOL    HW119703   3.508   0.777   1.968
 6268SOL    HW219704   3.500   0.618   2.003
 6269SOL     OW19705   5.467   6.639   1.169
 6269SOL    HW119706   5.544   6.609   1.226
 6269SOL    HW219707   5.496   6.715   1.111
 6270SOL     OW19708   1.444   6.354   0.015
 6270SOL    HW119709   1.516   6.420   7.019
 6270SOL    HW219710   1.446   6.278   6.977
 6271SOL     OW19711   6.257   3.462   6.906
 6271SOL    HW119712   6.300   3.533   6.963
 6271SOL    HW219713   6.170   3.497   6.870
 6272SOL     OW19714   5.608   0.292   6.891
 6272SOL    HW119715   5.666   0.298   6.972
 6272SOL    HW219716   5.512   0.297   6.917
 6273SOL     OW19717   6.892   6.706   2.190
 6273SOL    HW119718   6.986   6.738   2.180
 6273SOL    HW219719   6.867   6.708   2.287
 6274SOL     OW19720   2.990   6.285   4.952
 6274SOL    HW119721   3.012   6.188   4.941
 6274SOL    HW219722   3.070   6.340   4.928
 6275SOL     OW19723   2.148   6.044   0.704
 6275SOL    HW119724   2.144   5.990   0.788
 6275SOL    HW219725   2.056   6.056   0.668
 6276SOL     OW19726   1.851   5.102   3.372
 6276SOL    HW119727   1.837   5.141   3.463
 6276SOL    HW219728   1.947   5.076   3.362
 6277SOL     OW19729   5.226   2.646   1.338
 6277SOL    HW119730   5.213   2.595   1.422
 6277SOL    HW219731   5.216   2.744   1.355
 6278SOL     OW19732   3.319   0.178   5.319
 6278SOL    HW119733   3.306   0.166   5.418
 6278SOL    HW219734   3.404   0.134   5.291
 6279SOL     OW19735   3.406   5.861   1.502
 6279SOL    HW119736   3.491   5.819   1.471
 6279SOL    HW219737   3.391   5.946   1.451
 6280SOL     OW19738   6.444   1.711   7.019
 6280SOL    HW119739   6.418   1.699   0.089
 6280SOL    HW219740   6.493   1.799   7.009
 6281SOL     OW19741   6.206   4.516   4.740
 6281SOL    HW119742   6.191   4.609   4.774
 6281SOL    HW219743   6.129   4.458   4.765
 6282SOL     OW19744   0.218   3.453   6.456
 6282SOL    HW119745   0.289   3.506   6.411
 6282SOL    HW219746   0.133   3.458   6.403
 6283SOL     OW19747   1.095   6.015   5.564
 6283SOL    HW119748   1.190   6.013   5.531
 6283SOL    HW219749   1.083   5.941   5.631
 6284SOL     OW19750   2.118   3.987   6.617
 6284SOL    HW119751   2.106   3.889   6.600
 6284SOL    HW219752   2.069   4.012   6.701
 6285SOL     OW19753   1.789   3.107   2.750
 6285SOL    HW119754   1.851   3.033   2.725
 6285SOL    HW219755   1.782   3.113   2.850
 6286SOL     OW19756   0.899   2.959   5.048
 6286SOL    HW119757   0.803   2.989   5.045
 6286SOL    HW219758   0.931   2.940   4.956
 6287SOL     OW19759   4.221   4.855   5.008
 6287SOL    HW119760   4.250   4.828   4.916
 6287SOL    HW219761   4.144   4.918   5.001
 6288SOL     OW19762   3.677   3.220   6.069
 6288SOL    HW119763   3.754   3.157   6.060
 6288SOL    HW219764   3.671   3.252   6.164
 6289SOL     OW19765   2.734   4.784   6.281
 6289SOL    HW119766   2.644   4.825   6.296
 6289SOL    HW219767   2.753   4.718   6.354
 6290SOL     OW19768   5.734   5.416   5.821
 6290SOL    HW119769   5.723   5.444   5.726
 6290SOL    HW219770   5.650   5.435   5.872
 6291SOL     OW19771   3.517   3.131   3.303
 6291SOL    HW119772   3.470   3.097   3.221
 6291SOL    HW219773   3.559   3.054   3.351
 6292SOL     OW19774   2.335   2.847   4.386
 6292SOL    HW119775   2.299   2.789   4.314
 6292SOL    HW219776   2.314   2.943   4.366
 6293SOL     OW19777   5.397   0.851   6.575
 6293SOL    HW119778   5.374   0.928   6.515
 6293SOL    HW219779   5.397   0.881   6.670
 6294SOL     OW19780   2.483   1.181   3.931
 6294SOL    HW119781   2.570   1.226   3.952
 6294SOL    HW219782   2.419   1.248   3.894
 6295SOL     OW19783   5.630   5.064   5.305
 6295SOL    HW119784   5.534   5.044   5.324
 6295SOL    HW219785   5.687   5.029   5.379
 6296SOL     OW19786   7.014   3.231   6.648
 6296SOL    HW119787   7.002   3.216   6.550
 6296SOL    HW219788   6.998   3.327   6.670
 6297SOL     OW19789   6.413   0.350   4.434
 6297SOL    HW119790   6.383   0.324   4.342
 6297SOL    HW219791   6.409   0.270   4.494
 6298SOL     OW19792   5.693   4.578   0.283
 6298SOL    HW119793   5.659   4.484   0.280
 6298SOL    HW219794   5.793   4.577   0.273
 6299SOL     OW19795   4.551   2.423   2.960
 6299SOL    HW119796   4.588   2.338   2.998
 6299SOL    HW219797   4.626   2.483   2.932
 6300SOL     OW19798   3.582   0.919   5.865
 6300SOL    HW119799   3.546   0.999   5.817
 6300SOL    HW219800   3.681   0.927   5.875
 6301SOL     OW19801   3.425   6.770   0.176
 6301SOL    HW119802   3.500   6.724   0.130
 6301SOL    HW219803   3.338   6.736   0.139
 6302SOL     OW19804   2.637   0.333   5.569
 6302SOL    HW119805   2.702   0.257   5.569
 6302SOL    HW219806   2.560   0.311   5.508
 6303SOL     OW19807   1.167   6.275   6.052
 6303SOL    HW119808   1.076   6.289   6.012
 6303SOL    HW219809   1.159   6.261   6.150
 6304SOL     OW19810   4.103   1.180   2.911
 6304SOL    HW119811   4.163   1.251   2.874
 6304SOL    HW219812   4.114   1.176   3.010
 6305SOL     OW19813   0.087   5.680   5.222
 6305SOL    HW119814   0.116   5.584   5.226
 6305SOL    HW219815   7.014   5.683   5.204
 6306SOL     OW19816   6.761   4.850   3.908
 6306SOL    HW119817   6.821   4.832   3.986
 6306SOL    HW219818   6.782   4.785   3.834
 6307SOL     OW19819   4.084   3.785   3.462
 6307SOL    HW119820   4.170   3.750   3.499
 6307SOL    HW219821   4.079   3.764   3.364
 6308SOL     OW19822   0.184   2.609   6.306
 6308SOL    HW119823   0.228   2.697   6.325
 6308SOL    HW219824   0.085   2.623   6.295
 6309SOL     OW19825   1.183   6.482   4.938
 6309SOL    HW119826   1.212   6.540   4.862
 6309SOL    HW219827   1.087   6.499   4.958
 6310SOL     OW19828   1.975   6.733   3.502
 6310SOL    HW119829   1.910   6.807   3.519
 6310SOL    HW219830   1.940   6.674   3.429
 6311SOL     OW19831   5.595   1.500   5.802
 6311SOL    HW119832   5.613   1.402   5.805
 6311SOL    HW219833   5.620   1.541   5.890
 6312SOL     OW19834   3.416   6.675   6.700
 6312SOL    HW119835   3.431   6.766   6.738
 6312SOL    HW219836   3.342   6.678   6.633
 6313SOL     OW19837   4.880   6.332   3.346
 6313SOL    HW119838   4.976   6.321   3.373
 6313SOL    HW219839   4.876   6.378   3.257
 6314SOL     OW19840   2.888   0.253   1.656
 6314SOL    HW119841   2.845   0.213   1.738
 6314SOL    HW219842   2.848   0.212   1.574
 6315SOL     OW19843   2.213   3.076   4.270
 6315SOL    HW119844   2.236   3.021   4.190
 6315SOL    HW219845   2.193   3.170   4.241
 6316SOL     OW19846   5.251   2.215   5.366
 6316SOL    HW119847   5.165   2.262   5.387
 6316SOL    HW219848   5.244   2.173   5.276
 6317SOL     OW19849   5.084   4.540   2.085
 6317SOL    HW119850   5.086   4.441   2.101
 6317SOL    HW219851   5.004   4.580   2.129
 6318SOL     OW19852   6.401   0.840   6.351
 6318SOL    HW119853   6.354   0.890   6.278
 6318SOL    HW219854   6.487   0.887   6.372
 6319SOL     OW19855   5.471   2.411   4.601
 6319SOL    HW119856   5.414   2.479   4.648
 6319SOL    HW219857   5.567   2.427   4.624
 6320SOL     OW19858   0.232   1.245   3.929
 6320SOL    HW119859   0.144   1.258   3.884
 6320SOL    HW219860   0.252   1.147   3.936
 6321SOL     OW19861   5.576   2.098   0.696
 6321SOL    HW119862   5.526   2.042   0.630
 6321SOL    HW219863   5.515   2.123   0.771
 6322SOL     OW19864   1.869   0.840   1.145
 6322SOL    HW119865   1.912   0.926   1.173
 6322SOL    HW219866   1.822   0.799   1.224
 6323SOL     OW19867   2.849   3.056   1.175
 6323SOL    HW119868   2.949   3.061   1.184
 6323SOL    HW219869   2.811   3.005   1.251
 6324SOL     OW19870   4.813   1.118   1.000
 6324SOL    HW119871   4.806   1.077   0.910
 6324SOL    HW219872   4.909   1.139   1.021
 6325SOL     OW19873   1.442   2.243   2.635
 6325SOL    HW119874   1.344   2.253   2.656
 6325SOL    HW219875   1.495   2.298   2.699
 6326SOL     OW19876   4.845   5.132   5.665
 6326SOL    HW119877   4.824   5.056   5.603
 6326SOL    HW219878   4.823   5.219   5.621
 6327SOL     OW19879   0.005   1.847   3.683
 6327SOL    HW119880   6.948   1.839   3.737
 6327SOL    HW219881   7.008   1.881   3.592
 6328SOL     OW19882   4.614   3.372   6.066
 6328SOL    HW119883   4.544   3.443   6.060
 6328SOL    HW219884   4.703   3.413   6.082
 6329SOL     OW19885   1.828   2.523   5.545
 6329SOL    HW119886   1.755   2.564   5.490
 6329SOL    HW219887   1.871   2.595   5.599
 6330SOL     OW19888   6.055   0.853   3.659
 6330SOL    HW119889   6.084   0.809   3.744
 6330SOL    HW219890   6.030   0.784   3.592
 6331SOL     OW19891   6.548   3.162   4.408
 6331SOL    HW119892   6.600   3.083   4.441
 6331SOL    HW219893   6.553   3.166   4.309
 6332SOL     OW19894   1.962   1.692   1.140
 6332SOL    HW119895   1.908   1.773   1.118
 6332SOL    HW219896   1.905   1.610   1.132
 6333SOL     OW19897   4.753   0.336   0.303
 6333SOL    HW119898   4.707   0.352   0.390
 6333SOL    HW219899   4.814   0.257   0.311
 6334SOL     OW19900   3.145   1.682   2.220
 6334SOL    HW119901   3.082   1.759   2.209
 6334SOL    HW219902   3.207   1.679   2.142
 6335SOL     OW19903   5.490   0.688   0.422
 6335SOL    HW119904   5.546   0.614   0.387
 6335SOL    HW219905   5.491   0.687   0.522
 6336SOL     OW19906   0.143   3.745   6.135
 6336SOL    HW119907   0.222   3.769   6.191
 6336SOL    HW219908   0.161   3.660   6.085
 6337SOL     OW19909   4.557   5.624   4.981
 6337SOL    HW119910   4.472   5.670   5.005
 6337SOL    HW219911   4.537   5.540   4.930
 6338SOL     OW19912   3.270   1.926   3.962
 6338SOL    HW119913   3.226   1.920   4.051
 6338SOL    HW219914   3.280   2.022   3.936
 6339SOL     OW19915   1.250   4.192   3.191
 6339SOL    HW119916   1.291   4.255   3.258
 6339SOL    HW219917   1.322   4.157   3.131
 6340SOL     OW19918   2.249   3.807   1.534
 6340SOL    HW119919   2.163   3.851   1.510
 6340SOL    HW219920   2.295   3.775   1.450
 6341SOL     OW19921   1.111   4.776   4.246
 6341SOL    HW119922   1.044   4.847   4.270
 6341SOL    HW219923   1.163   4.751   4.328
 6342SOL     OW19924   2.019   0.924   1.991
 6342SOL    HW119925   1.948   0.865   2.030
 6342SOL    HW219926   2.108   0.900   2.029
 6343SOL     OW19927   2.836   5.910   0.397
 6343SOL    HW119928   2.936   5.897   0.391
 6343SOL    HW219929   2.815   6.007   0.397
 6344SOL     OW19930   5.622   2.578   3.688
 6344SOL    HW119931   5.706   2.578   3.742
 6344SOL    HW219932   5.593   2.673   3.671
 6345SOL     OW19933   5.793   3.415   2.073
 6345SOL    HW119934   5.760   3.392   1.982
 6345SOL    HW219935   5.727   3.384   2.142
 6346SOL     OW19936   0.579   4.453   5.781
 6346SOL    HW119937   0.553   4.536   5.830
 6346SOL    HW219938   0.654   4.474   5.718
 6347SOL     OW19939   2.812   2.321   2.934
 6347SOL    HW119940   2.802   2.302   3.031
 6347SOL    HW219941   2.843   2.238   2.887
 6348SOL     OW19942   0.363   1.597   5.751
 6348SOL    HW119943   0.387   1.648   5.668
 6348SOL    HW219944   0.422   1.518   5.760
 6349SOL     OW19945   0.415   0.543   0.459
 6349SOL    HW119946   0.508   0.522   0.488
 6349SOL    HW219947   0.378   0.467   0.407
 6350SOL     OW19948   0.749   4.108   2.147
 6350SOL    HW119949   0.717   4.171   2.076
 6350SOL    HW219950   0.795   4.030   2.105
 6351SOL     OW19951   6.190   3.686   3.281
 6351SOL    HW119952   6.101   3.641   3.280
 6351SOL    HW219953   6.213   3.715   3.374
 6352SOL     OW19954   2.356   0.431   3.986
 6352SOL    HW119955   2.393   0.521   4.010
 6352SOL    HW219956   2.262   0.441   3.953
 6353SOL     OW19957   2.200   6.182   6.521
 6353SOL    HW119958   2.228   6.274   6.546
 6353SOL    HW219959   2.243   6.156   6.435
 6354SOL     OW19960   5.114   4.458   3.031
 6354SOL    HW119961   5.049   4.534   3.030
 6354SOL    HW219962   5.183   4.474   3.102
 6355SOL     OW19963   2.890   4.629   0.549
 6355SOL    HW119964   2.820   4.570   0.589
 6355SOL    HW219965   2.972   4.628   0.606
 6356SOL     OW19966   4.814   5.003   6.484
 6356SOL    HW119967   4.908   5.023   6.455
 6356SOL    HW219968   4.785   4.915   6.447
 6357SOL     OW19969   6.030   2.009   1.663
 6357SOL    HW119970   6.020   2.076   1.589
 6357SOL    HW219971   6.049   2.057   1.748
 6358SOL     OW19972   1.843   2.102   6.957
 6358SOL    HW119973   1.939   2.126   6.970
 6358SOL    HW219974   1.804   2.071   0.018
 6359SOL     OW19975   5.292   6.362   0.759
 6359SOL    HW119976   5.380   6.364   0.805
 6359SOL    HW219977   5.282   6.276   0.709
 6360SOL     OW19978   0.592   2.488   3.367
 6360SOL    HW119979   0.579   2.435   3.451
 6360SOL    HW219980   0.687   2.518   3.361
 6361SOL     OW19981   0.317   0.558   0.076
 6361SOL    HW119982   0.366   0.623   0.134
 6361SOL    HW219983   0.243   0.515   0.128
 6362SOL     OW19984   0.882   5.492   6.692
 6362SOL    HW119985   0.794   5.504   6.645
 6362SOL    HW219986   0.891   5.562   6.763
 6363SOL     OW19987   2.812   5.246   3.695
 6363SOL    HW119988   2.899   5.201   3.712
 6363SOL    HW219989   2.772   5.212   3.610
 6364SOL     OW19990   2.416   2.211   5.128
 6364SOL    HW119991   2.437   2.125   5.081
 6364SOL    HW219992   2.456   2.209   5.219
 6365SOL     OW19993   5.707   5.963   4.143
 6365SOL    HW119994   5.686   5.972   4.240
 6365SOL    HW219995   5.651   6.028   4.091
 6366SOL     OW19996   5.985   6.443   5.190
 6366SOL    HW119997   5.938   6.498   5.260
 6366SOL    HW219998   5.939   6.354   5.182
 6367SOL     OW19999   3.327   2.154   2.883
 6367SOL    HW120000   3.301   2.091   2.957
 6367SOL    HW220001   3.425   2.144   2.865
 6368SOL     OW20002   5.014   3.851   4.217
 6368SOL    HW120003   4.996   3.796   4.298
 6368SOL    HW220004   4.961   3.816   4.140
 6369SOL     OW20005   3.150   6.241   6.012
 6369SOL    HW120006   3.213   6.176   6.054
 6369SOL    HW220007   3.062   6.196   5.994
 6370SOL     OW20008   5.430   4.164   3.786
 6370SOL    HW120009   5.437   4.247   3.731
 6370SOL    HW220010   5.334   4.144   3.804
 6371SOL     OW20011   5.322   4.183   1.624
 6371SOL    HW120012   5.260   4.249   1.666
 6371SOL    HW220013   5.374   4.136   1.695
 6372SOL     OW20014   0.266   1.401   2.921
 6372SOL    HW120015   0.276   1.326   2.856
 6372SOL    HW220016   0.215   1.476   2.878
 6373SOL     OW20017   5.705   4.165   1.302
 6373SOL    HW120018   5.759   4.244   1.329
 6373SOL    HW220019   5.765   4.086   1.287
 6374SOL     OW20020   4.761   2.875   0.450
 6374SOL    HW120021   4.818   2.820   0.390
 6374SOL    HW220022   4.720   2.950   0.397
 6375SOL     OW20023   6.685   3.019   2.749
 6375SOL    HW120024   6.686   2.932   2.699
 6375SOL    HW220025   6.733   3.008   2.836
 6376SOL     OW20026   3.737   1.009   5.381
 6376SOL    HW120027   3.791   1.070   5.323
 6376SOL    HW220028   3.656   1.057   5.413
 6377SOL     OW20029   0.081   6.911   6.692
 6377SOL    HW120030   0.101   6.958   6.779
 6377SOL    HW220031   0.113   6.968   6.616
 6378SOL     OW20032   5.651   5.779   3.560
 6378SOL    HW120033   5.727   5.749   3.618
 6378SOL    HW220034   5.580   5.709   3.559
 6379SOL     OW20035   2.326   5.822   6.296
 6379SOL    HW120036   2.367   5.769   6.222
 6379SOL    HW220037   2.293   5.760   6.367
 6380SOL     OW20038   1.289   2.986   4.808
 6380SOL    HW120039   1.332   3.023   4.890
 6380SOL    HW220040   1.190   2.991   4.817
 6381SOL     OW20041   4.565   3.581   0.209
 6381SOL    HW120042   4.593   3.523   0.286
 6381SOL    HW220043   4.645   3.623   0.167
 6382SOL     OW20044   2.871   1.960   1.135
 6382SOL    HW120045   2.791   1.929   1.187
 6382SOL    HW220046   2.955   1.934   1.183
 6383SOL     OW20047   1.963   2.130   2.842
 6383SOL    HW120048   1.886   2.082   2.800
 6383SOL    HW220049   1.963   2.113   2.940
 6384SOL     OW20050   6.570   2.442   1.990
 6384SOL    HW120051   6.579   2.366   1.926
 6384SOL    HW220052   6.536   2.523   1.942
 6385SOL     OW20053   0.415   3.367   1.320
 6385SOL    HW120054   0.503   3.344   1.362
 6385SOL    HW220055   0.396   3.464   1.334
 6386SOL     OW20056   2.016   3.274   0.741
 6386SOL    HW120057   1.924   3.304   0.718
 6386SOL    HW220058   2.013   3.179   0.773
 6387SOL     OW20059   6.466   0.850   0.232
 6387SOL    HW120060   6.421   0.788   0.295
 6387SOL    HW220061   6.406   0.928   0.214
 6388SOL     OW20062   6.287   5.252   2.492
 6388SOL    HW120063   6.361   5.229   2.556
 6388SOL    HW220064   6.207   5.196   2.512
 6389SOL     OW20065   1.754   0.240   0.212
 6389SOL    HW120066   1.678   0.174   0.205
 6389SOL    HW220067   1.797   0.231   0.301
 6390SOL     OW20068   6.294   0.935   0.032
 6390SOL    HW120069   6.307   0.995   6.980
 6390SOL    HW220070   6.222   0.972   0.091
 6391SOL     OW20071   1.123   0.612   5.228
 6391SOL    HW120072   1.056   0.682   5.202
 6391SOL    HW220073   1.081   0.522   5.219
 6392SOL     OW20074   3.132   5.534   3.645
 6392SOL    HW120075   3.133   5.634   3.648
 6392SOL    HW220076   3.162   5.503   3.556
 6393SOL     OW20077   5.856   6.347   1.534
 6393SOL    HW120078   5.772   6.343   1.480
 6393SOL    HW220079   5.930   6.301   1.484
 6394SOL     OW20080   0.771   5.227   1.119
 6394SOL    HW120081   0.762   5.242   1.217
 6394SOL    HW220082   0.866   5.203   1.097
 6395SOL     OW20083   1.028   4.268   3.021
 6395SOL    HW120084   0.934   4.271   3.052
 6395SOL    HW220085   1.090   4.255   3.099
 6396SOL     OW20086   6.510   3.545   0.430
 6396SOL    HW120087   6.558   3.578   0.349
 6396SOL    HW220088   6.419   3.512   0.403
 6397SOL     OW20089   5.388   2.162   3.145
 6397SOL    HW120090   5.473   2.110   3.157
 6397SOL    HW220091   5.337   2.124   3.068
 6398SOL     OW20092   0.815   6.484   1.313
 6398SOL    HW120093   0.858   6.438   1.236
 6398SOL    HW220094   0.878   6.549   1.354
 6399SOL     OW20095   2.215   6.883   6.155
 6399SOL    HW120096   2.252   6.941   6.082
 6399SOL    HW220097   2.233   6.925   6.244
 6400SOL     OW20098   1.612   5.671   2.673
 6400SOL    HW120099   1.524   5.717   2.660
 6400SOL    HW220100   1.687   5.735   2.658
 6401SOL     OW20101   4.081   4.978   3.012
 6401SOL    HW120102   4.173   4.969   3.048
 6401SOL    HW220103   4.041   5.064   3.045
 6402SOL     OW20104   1.884   4.744   4.455
 6402SOL    HW120105   1.826   4.693   4.390
 6402SOL    HW220106   1.953   4.683   4.494
 6403SOL     OW20107   5.128   6.628   4.789
 6403SOL    HW120108   5.210   6.586   4.829
 6403SOL    HW220109   5.141   6.727   4.783
 6404SOL     OW20110   3.248   0.755   2.387
 6404SOL    HW120111   3.253   0.659   2.414
 6404SOL    HW220112   3.341   0.790   2.372
 6405SOL     OW20113   5.253   1.374   3.054
 6405SOL    HW120114   5.198   1.402   3.133
 6405SOL    HW220115   5.347   1.409   3.066
 6406SOL     OW20116   1.204   2.694   2.634
 6406SOL    HW120117   1.253   2.759   2.577
 6406SOL    HW220118   1.174   2.739   2.718
 6407SOL     OW20119   2.282   6.274   3.564
 6407SOL    HW120120   2.207   6.318   3.516
 6407SOL    HW220121   2.367   6.288   3.514
 6408SOL     OW20122   6.964   0.565   0.500
 6408SOL    HW120123   6.937   0.479   0.544
 6408SOL    HW220124   0.026   0.553   0.455
 6409SOL     OW20125   6.550   4.953   3.461
 6409SOL    HW120126   6.535   4.968   3.363
 6409SOL    HW220127   6.465   4.923   3.504
 6410SOL     OW20128   2.868   1.539   5.396
 6410SOL    HW120129   2.799   1.605   5.364
 6410SOL    HW220130   2.945   1.537   5.332
 6411SOL     OW20131   0.334   2.500   2.631
 6411SOL    HW120132   0.345   2.427   2.699
 6411SOL    HW220133   0.321   2.587   2.677
 6412SOL     OW20134   3.191   0.695   7.023
 6412SOL    HW120135   3.285   0.666   7.007
 6412SOL    HW220136   3.150   0.640   0.069
 6413SOL     OW20137   4.347   4.938   4.216
 6413SOL    HW120138   4.273   4.958   4.152
 6413SOL    HW220139   4.435   4.949   4.171
 6414SOL     OW20140   1.028   7.017   6.863
 6414SOL    HW120141   0.976   7.025   6.948
 6414SOL    HW220142   0.989   0.051   6.793
 6415SOL     OW20143   1.396   2.895   3.344
 6415SOL    HW120144   1.353   2.877   3.432
 6415SOL    HW220145   1.353   2.974   3.301
 6416SOL     OW20146   2.951   0.232   6.516
 6416SOL    HW120147   2.889   0.269   6.585
 6416SOL    HW220148   2.946   0.288   6.433
 6417SOL     OW20149   4.722   1.666   1.019
 6417SOL    HW120150   4.623   1.649   1.024
 6417SOL    HW220151   4.742   1.759   1.049
 6418SOL     OW20152   4.367   4.828   1.378
 6418SOL    HW120153   4.299   4.833   1.305
 6418SOL    HW220154   4.449   4.783   1.344
 6419SOL     OW20155   0.921   6.574   6.524
 6419SOL    HW120156   0.859   6.648   6.550
 6419SOL    HW220157   1.007   6.583   6.575
 6420SOL     OW20158   1.334   3.238   3.776
 6420SOL    HW120159   1.268   3.280   3.837
 6420SOL    HW220160   1.331   3.283   3.687
 6421SOL     OW20161   5.187   0.020   1.634
 6421SOL    HW120162   5.224   6.993   1.557
 6421SOL    HW220163   5.262   0.071   1.678
 6422SOL     OW20164   0.008   3.011   4.631
 6422SOL    HW120165   6.974   2.992   4.709
 6422SOL    HW220166   0.048   3.102   4.640
 6423SOL     OW20167   2.441   4.525   4.311
 6423SOL    HW120168   2.498   4.551   4.232
 6423SOL    HW220169   2.494   4.536   4.395
 6424SOL     OW20170   0.401   3.516   4.678
 6424SOL    HW120171   0.492   3.484   4.652
 6424SOL    HW220172   0.381   3.490   4.772
 6425SOL     OW20173   0.357   5.924   2.811
 6425SOL    HW120174   0.284   5.939   2.744
 6425SOL    HW220175   0.363   6.002   2.873
 6426SOL     OW20176   4.520   4.493   4.776
 6426SOL    HW120177   4.513   4.568   4.710
 6426SOL    HW220178   4.460   4.512   4.853
 6427SOL     OW20179   3.158   3.443   3.554
 6427SOL    HW120180   3.095   3.458   3.630
 6427SOL    HW220181   3.126   3.368   3.497
 6428SOL     OW20182   4.505   2.513   0.114
 6428SOL    HW120183   4.480   2.607   0.137
 6428SOL    HW220184   4.598   2.495   0.146
 6429SOL     OW20185   2.550   0.758   5.185
 6429SOL    HW120186   2.493   0.676   5.189
 6429SOL    HW220187   2.529   0.816   5.264
 6430SOL     OW20188   6.731   0.576   5.120
 6430SOL    HW120189   6.784   0.524   5.187
 6430SOL    HW220190   6.636   0.584   5.151
 6431SOL     OW20191   4.295   5.297   2.599
 6431SOL    HW120192   4.229   5.346   2.542
 6431SOL    HW220193   4.363   5.252   2.541
 6432SOL     OW20194   3.664   4.381   6.943
 6432SOL    HW120195   3.729   4.447   6.981
 6432SOL    HW220196   3.661   4.391   6.843
 6433SOL     OW20197   2.518   5.547   6.845
 6433SOL    HW120198   2.522   5.579   6.751
 6433SOL    HW220199   2.604   5.501   6.868
 6434SOL     OW20200   2.850   5.925   5.863
 6434SOL    HW120201   2.905   5.841   5.873
 6434SOL    HW220202   2.803   5.924   5.775
 6435SOL     OW20203   5.616   0.200   0.678
 6435SOL    HW120204   5.570   0.144   0.747
 6435SOL    HW220205   5.549   0.254   0.628
 6436SOL     OW20206   0.513   4.273   3.806
 6436SOL    HW120207   0.450   4.196   3.817
 6436SOL    HW220208   0.468   4.346   3.755
 6437SOL     OW20209   0.630   1.167   5.499
 6437SOL    HW120210   0.657   1.073   5.521
 6437SOL    HW220211   0.706   1.229   5.518
 6438SOL     OW20212   0.531   5.716   6.764
 6438SOL    HW120213   0.500   5.664   6.844
 6438SOL    HW220214   0.597   5.662   6.713
 6439SOL     OW20215   5.664   1.063   3.614
 6439SOL    HW120216   5.763   1.056   3.599
 6439SOL    HW220217   5.623   0.972   3.612
 6440SOL     OW20218   2.489   0.756   5.976
 6440SOL    HW120219   2.530   0.688   6.037
 6440SOL    HW220220   2.546   0.838   5.975
 6441SOL     OW20221   0.254   0.884   2.850
 6441SOL    HW120222   0.324   0.868   2.920
 6441SOL    HW220223   0.167   0.904   2.894
 6442SOL     OW20224   2.558   2.472   5.489
 6442SOL    HW120225   2.525   2.408   5.420
 6442SOL    HW220226   2.509   2.458   5.574
 6443SOL     OW20227   4.267   2.103   0.758
 6443SOL    HW120228   4.245   2.197   0.730
 6443SOL    HW220229   4.217   2.081   0.841
 6444SOL     OW20230   0.408   2.737   5.666
 6444SOL    HW120231   0.320   2.778   5.690
 6444SOL    HW220232   0.417   2.648   5.712
 6445SOL     OW20233   3.127   3.331   3.069
 6445SOL    HW120234   3.069   3.398   3.115
 6445SOL    HW220235   3.092   3.313   2.977
 6446SOL     OW20236   1.934   1.424   6.725
 6446SOL    HW120237   1.891   1.514   6.714
 6446SOL    HW220238   1.918   1.370   6.642
 6447SOL     OW20239   6.300   4.443   1.102
 6447SOL    HW120240   6.279   4.419   1.008
 6447SOL    HW220241   6.341   4.364   1.148
 6448SOL     OW20242   4.579   5.620   1.857
 6448SOL    HW120243   4.626   5.538   1.822
 6448SOL    HW220244   4.480   5.601   1.863
 6449SOL     OW20245   2.777   5.386   1.858
 6449SOL    HW120246   2.680   5.388   1.833
 6449SOL    HW220247   2.812   5.479   1.861
 6450SOL     OW20248   0.174   3.960   1.207
 6450SOL    HW120249   0.227   3.983   1.125
 6450SOL    HW220250   0.164   4.042   1.264
 6451SOL     OW20251   3.652   2.323   0.836
 6451SOL    HW120252   3.718   2.340   0.762
 6451SOL    HW220253   3.652   2.400   0.900
 6452SOL     OW20254   5.338   3.627   3.455
 6452SOL    HW120255   5.403   3.613   3.380
 6452SOL    HW220256   5.388   3.642   3.540
 6453SOL     OW20257   3.743   0.097   1.280
 6453SOL    HW120258   3.687   0.015   1.279
 6453SOL    HW220259   3.839   0.071   1.268
 6454SOL     OW20260   6.383   2.788   2.899
 6454SOL    HW120261   6.425   2.712   2.849
 6454SOL    HW220262   6.353   2.858   2.834
 6455SOL     OW20263   6.978   4.235   3.202
 6455SOL    HW120264   6.920   4.266   3.127
 6455SOL    HW220265   0.038   4.202   3.166
 6456SOL     OW20266   0.092   1.617   3.123
 6456SOL    HW120267   0.026   1.678   3.168
 6456SOL    HW220268   0.055   1.524   3.121
 6457SOL     OW20269   4.928   6.969   1.740
 6457SOL    HW120270   4.958   6.997   1.831
 6457SOL    HW220271   4.994   7.003   1.672
 6458SOL     OW20272   1.038   5.060   3.577
 6458SOL    HW120273   1.136   5.076   3.589
 6458SOL    HW220274   1.012   4.976   3.623
 6459SOL     OW20275   6.546   2.767   3.113
 6459SOL    HW120276   6.478   2.775   3.186
 6459SOL    HW220277   6.503   2.782   3.024
 6460SOL     OW20278   0.057   6.272   5.511
 6460SOL    HW120279   0.145   6.278   5.463
 6460SOL    HW220280   0.055   6.188   5.565
 6461SOL     OW20281   2.919   4.376   0.346
 6461SOL    HW120282   2.949   4.471   0.340
 6461SOL    HW220283   2.918   4.335   0.255
 6462SOL     OW20284   1.486   3.724   4.829
 6462SOL    HW120285   1.452   3.645   4.777
 6462SOL    HW220286   1.414   3.793   4.835
 6463SOL     OW20287   4.674   0.933   1.124
 6463SOL    HW120288   4.658   0.944   1.222
 6463SOL    HW220289   4.738   1.004   1.093
 6464SOL     OW20290   0.965   6.277   4.111
 6464SOL    HW120291   1.052   6.320   4.090
 6464SOL    HW220292   0.957   6.191   4.059
 6465SOL     OW20293   5.007   2.609   2.962
 6465SOL    HW120294   5.046   2.697   2.988
 6465SOL    HW220295   4.954   2.571   3.039
 6466SOL     OW20296   6.758   3.866   6.929
 6466SOL    HW120297   6.702   3.915   6.995
 6466SOL    HW220298   6.764   3.920   6.844
 6467SOL     OW20299   3.309   0.752   0.726
 6467SOL    HW120300   3.340   0.843   0.697
 6467SOL    HW220301   3.211   0.743   0.710
 6468SOL     OW20302   3.571   6.957   0.303
 6468SOL    HW120303   3.661   6.948   0.259
 6468SOL    HW220304   3.506   6.897   0.256
 6469SOL     OW20305   3.309   1.596   3.656
 6469SOL    HW120306   3.268   1.685   3.675
 6469SOL    HW220307   3.332   1.551   3.742
 6470SOL     OW20308   6.632   2.840   6.539
 6470SOL    HW120309   6.699   2.789   6.593
 6470SOL    HW220310   6.611   2.789   6.455
 6471SOL     OW20311   0.160   6.105   5.048
 6471SOL    HW120312   0.195   6.039   5.115
 6471SOL    HW220313   0.234   6.167   5.021
 6472SOL     OW20314   0.119   6.072   2.161
 6472SOL    HW120315   0.131   6.109   2.069
 6472SOL    HW220316   0.092   5.976   2.154
 6473SOL     OW20317   1.835   1.431   3.930
 6473SOL    HW120318   1.885   1.345   3.919
 6473SOL    HW220319   1.899   1.508   3.918
 6474SOL     OW20320   3.611   5.384   4.522
 6474SOL    HW120321   3.667   5.335   4.456
 6474SOL    HW220322   3.563   5.459   4.476
 6475SOL     OW20323   5.573   5.131   3.217
 6475SOL    HW120324   5.650   5.178   3.261
 6475SOL    HW220325   5.578   5.143   3.118
 6476SOL     OW20326   4.021   2.025   6.454
 6476SOL    HW120327   4.069   2.028   6.541
 6476SOL    HW220328   3.923   2.013   6.469
 6477SOL     OW20329   0.117   6.184   1.128
 6477SOL    HW120330   0.171   6.109   1.089
 6477SOL    HW220331   0.087   6.159   1.220
 6478SOL     OW20332   2.883   5.656   1.802
 6478SOL    HW120333   2.959   5.655   1.867
 6478SOL    HW220334   2.918   5.653   1.708
 6479SOL     OW20335   3.443   5.631   4.116
 6479SOL    HW120336   3.489   5.720   4.115
 6479SOL    HW220337   3.447   5.593   4.209
 6480SOL     OW20338   2.841   1.325   6.626
 6480SOL    HW120339   2.842   1.328   6.526
 6480SOL    HW220340   2.925   1.281   6.658
 6481SOL     OW20341   3.376   2.449   1.676
 6481SOL    HW120342   3.395   2.524   1.740
 6481SOL    HW220343   3.287   2.409   1.697
 6482SOL     OW20344   6.711   3.245   5.031
 6482SOL    HW120345   6.652   3.171   4.999
 6482SOL    HW220346   6.805   3.229   5.001
 6483SOL     OW20347   1.383   5.564   4.708
 6483SOL    HW120348   1.319   5.554   4.632
 6483SOL    HW220349   1.351   5.510   4.786
 6484SOL     OW20350   2.689   0.855   3.766
 6484SOL    HW120351   2.607   0.874   3.820
 6484SOL    HW220352   2.663   0.822   3.676
 6485SOL     OW20353   1.906   6.513   4.816
 6485SOL    HW120354   1.984   6.526   4.878
 6485SOL    HW220355   1.846   6.442   4.852
 6486SOL     OW20356   1.503   5.210   3.395
 6486SOL    HW120357   1.575   5.239   3.458
 6486SOL    HW220358   1.519   5.115   3.368
 6487SOL     OW20359   0.597   5.363   4.489
 6487SOL    HW120360   0.525   5.324   4.547
 6487SOL    HW220361   0.608   5.460   4.511
 6488SOL     OW20362   4.849   5.679   4.254
 6488SOL    HW120363   4.862   5.601   4.315
 6488SOL    HW220364   4.753   5.708   4.258
 6489SOL     OW20365   4.105   3.294   6.469
 6489SOL    HW120366   4.046   3.337   6.538
 6489SOL    HW220367   4.106   3.349   6.386
 6490SOL     OW20368   1.829   1.328   6.968
 6490SOL    HW120369   1.816   1.401   0.009
 6490SOL    HW220370   1.853   1.368   6.880
 6491SOL     OW20371   1.523   6.957   1.129
 6491SOL    HW120372   1.561   6.896   1.059
 6491SOL    HW220373   1.583   0.009   1.140
 6492SOL     OW20374   3.111   3.860   4.692
 6492SOL    HW120375   3.106   3.927   4.766
 6492SOL    HW220376   3.025   3.808   4.687
 6493SOL     OW20377   1.657   4.507   6.220
 6493SOL    HW120378   1.643   4.577   6.290
 6493SOL    HW220379   1.754   4.502   6.197
 6494SOL     OW20380   5.872   6.466   1.905
 6494SOL    HW120381   5.827   6.383   1.871
 6494SOL    HW220382   5.909   6.518   1.827
 6495SOL     OW20383   0.208   6.992   3.848
 6495SOL    HW120384   0.261   6.931   3.907
 6495SOL    HW220385   0.271   0.024   3.796
 6496SOL     OW20386   4.686   6.940   2.203
 6496SOL    HW120387   4.759   7.008   2.213
 6496SOL    HW220388   4.600   6.980   2.234
 6497SOL     OW20389   0.436   1.515   0.898
 6497SOL    HW120390   0.350   1.517   0.950
 6497SOL    HW220391   0.511   1.491   0.960
 6498SOL     OW20392   0.817   4.491   4.186
 6498SOL    HW120393   0.870   4.541   4.117
 6498SOL    HW220394   0.727   4.469   4.149
 6499SOL     OW20395   6.268   4.120   4.148
 6499SOL    HW120396   6.188   4.086   4.099
 6499SOL    HW220397   6.350   4.073   4.114
 6500SOL     OW20398   0.948   3.493   2.515
 6500SOL    HW120399   1.002   3.526   2.592
 6500SOL    HW220400   1.001   3.424   2.465
 6501SOL     OW20401   6.549   2.183   0.879
 6501SOL    HW120402   6.495   2.241   0.940
 6501SOL    HW220403   6.618   2.135   0.932
 6502SOL     OW20404   5.858   3.733   1.458
 6502SOL    HW120405   5.931   3.695   1.401
 6502SOL    HW220406   5.785   3.665   1.467
 6503SOL     OW20407   6.552   3.064   5.780
 6503SOL    HW120408   6.605   3.066   5.696
 6503SOL    HW220409   6.582   3.138   5.841
 6504SOL     OW20410   4.453   6.754   6.486
 6504SOL    HW120411   4.468   6.826   6.554
 6504SOL    HW220412   4.363   6.766   6.444
 6505SOL     OW20413   5.491   6.301   0.012
 6505SOL    HW120414   5.422   6.295   6.966
 6505SOL    HW220415   5.552   6.378   7.019
 6506SOL     OW20416   0.136   3.001   3.522
 6506SOL    HW120417   0.187   2.949   3.591
 6506SOL    HW220418   0.089   2.937   3.460
 6507SOL     OW20419   3.084   5.531   6.358
 6507SOL    HW120420   3.182   5.544   6.341
 6507SOL    HW220421   3.033   5.560   6.278
 6508SOL     OW20422   1.082   0.047   1.809
 6508SOL    HW120423   1.153   0.004   1.753
 6508SOL    HW220424   1.022   0.102   1.752
 6509SOL     OW20425   3.513   1.439   5.557
 6509SOL    HW120426   3.519   1.501   5.635
 6509SOL    HW220427   3.559   1.480   5.478
 6510SOL     OW20428   4.225   5.864   5.701
 6510SOL    HW120429   4.201   5.791   5.637
 6510SOL    HW220430   4.284   5.930   5.654
 6511SOL     OW20431   3.867   1.551   6.301
 6511SOL    HW120432   3.845   1.641   6.263
 6511SOL    HW220433   3.919   1.562   6.386
 6512SOL     OW20434   2.688   0.963   1.883
 6512SOL    HW120435   2.675   0.987   1.787
 6512SOL    HW220436   2.662   1.040   1.941
 6513SOL     OW20437   2.997   5.691   4.750
 6513SOL    HW120438   3.084   5.719   4.709
 6513SOL    HW220439   2.987   5.592   4.742
 6514SOL     OW20440   5.547   0.631   5.062
 6514SOL    HW120441   5.619   0.562   5.071
 6514SOL    HW220442   5.478   0.618   5.133
 6515SOL     OW20443   2.377   5.002   2.180
 6515SOL    HW120444   2.310   5.015   2.254
 6515SOL    HW220445   2.331   5.012   2.092
 6516SOL     OW20446   0.652   3.283   1.486
 6516SOL    HW120447   0.747   3.270   1.458
 6516SOL    HW220448   0.648   3.300   1.584
 6517SOL     OW20449   6.830   2.684   6.700
 6517SOL    HW120450   6.854   2.608   6.640
 6517SOL    HW220451   6.833   2.653   6.796
 6518SOL     OW20452   0.663   1.215   2.803
 6518SOL    HW120453   0.649   1.254   2.894
 6518SOL    HW220454   0.575   1.186   2.764
 6519SOL     OW20455   0.964   1.099   3.262
 6519SOL    HW120456   0.918   1.060   3.342
 6519SOL    HW220457   0.997   1.191   3.285
 6520SOL     OW20458   0.070   5.734   6.865
 6520SOL    HW120459   0.108   5.824   6.846
 6520SOL    HW220460   0.034   5.694   6.780
 6521SOL     OW20461   1.432   2.957   3.814
 6521SOL    HW120462   1.461   2.910   3.897
 6521SOL    HW220463   1.421   3.055   3.833
 6522SOL     OW20464   2.862   3.731   5.542
 6522SOL    HW120465   2.877   3.770   5.451
 6522SOL    HW220466   2.872   3.803   5.611
 6523SOL     OW20467   6.163   0.574   0.246
 6523SOL    HW120468   6.192   0.505   0.312
 6523SOL    HW220469   6.073   0.550   0.209
 6524SOL     OW20470   2.658   2.156   1.905
 6524SOL    HW120471   2.755   2.140   1.887
 6524SOL    HW220472   2.648   2.238   1.961
 6525SOL     OW20473   1.608   5.384   3.689
 6525SOL    HW120474   1.640   5.413   3.779
 6525SOL    HW220475   1.509   5.372   3.690
 6526SOL     OW20476   0.028   6.914   0.837
 6526SOL    HW120477   6.960   6.912   0.803
 6526SOL    HW220478   0.029   6.899   0.936
 6527SOL     OW20479   0.578   2.444   0.866
 6527SOL    HW120480   0.612   2.496   0.788
 6527SOL    HW220481   0.635   2.465   0.946
 6528SOL     OW20482   6.195   1.216   5.866
 6528SOL    HW120483   6.286   1.229   5.904
 6528SOL    HW220484   6.178   1.282   5.793
 6529SOL     OW20485   0.076   1.409   2.537
 6529SOL    HW120486   7.018   1.447   2.499
 6529SOL    HW220487   0.114   1.342   2.474
 6530SOL     OW20488   0.923   2.634   2.395
 6530SOL    HW120489   0.861   2.587   2.332
 6530SOL    HW220490   0.933   2.580   2.479
 6531SOL     OW20491   3.955   3.237   5.774
 6531SOL    HW120492   4.009   3.303   5.722
 6531SOL    HW220493   3.883   3.200   5.717
 6532SOL     OW20494   1.528   0.880   1.231
 6532SOL    HW120495   1.462   0.907   1.301
 6532SOL    HW220496   1.482   0.868   1.143
 6533SOL     OW20497   4.730   3.989   6.955
 6533SOL    HW120498   4.747   3.966   6.859
 6533SOL    HW220499   4.644   3.948   6.984
 6534SOL     OW20500   5.961   4.752   2.053
 6534SOL    HW120501   5.873   4.725   2.091
 6534SOL    HW220502   6.027   4.765   2.126
 6535SOL     OW20503   5.634   3.631   4.601
 6535SOL    HW120504   5.632   3.603   4.505
 6535SOL    HW220505   5.729   3.639   4.631
 6536SOL     OW20506   0.260   2.319   5.422
 6536SOL    HW120507   0.318   2.264   5.363
 6536SOL    HW220508   0.242   2.407   5.379
 6537SOL     OW20509   6.175   4.483   5.281
 6537SOL    HW120510   6.198   4.580   5.280
 6537SOL    HW220511   6.208   4.439   5.197
 6538SOL     OW20512   2.083   3.878   5.119
 6538SOL    HW120513   2.059   3.806   5.054
 6538SOL    HW220514   2.178   3.907   5.104
 6539SOL     OW20515   6.091   0.729   6.663
 6539SOL    HW120516   6.146   0.810   6.641
 6539SOL    HW220517   6.151   0.650   6.674
 6540SOL     OW20518   3.983   2.700   5.594
 6540SOL    HW120519   3.901   2.757   5.604
 6540SOL    HW220520   3.977   2.650   5.508
 6541SOL     OW20521   5.978   1.708   5.541
 6541SOL    HW120522   6.063   1.741   5.582
 6541SOL    HW220523   5.906   1.706   5.611
 6542SOL     OW20524   1.355   3.328   4.323
 6542SOL    HW120525   1.442   3.304   4.366
 6542SOL    HW220526   1.346   3.428   4.320
 6543SOL     OW20527   3.518   2.061   4.904
 6543SOL    HW120528   3.421   2.053   4.883
 6543SOL    HW220529   3.570   2.076   4.820
 6544SOL     OW20530   0.174   6.848   1.798
 6544SOL    HW120531   0.203   6.929   1.848
 6544SOL    HW220532   0.127   6.875   1.714
 6545SOL     OW20533   4.325   6.909   1.247
 6545SOL    HW120534   4.390   6.984   1.262
 6545SOL    HW220535   4.270   6.896   1.330
 6546SOL     OW20536   5.072   4.752   6.565
 6546SOL    HW120537   5.064   4.717   6.658
 6546SOL    HW220538   5.045   4.680   6.500
 6547SOL     OW20539   5.118   6.646   6.391
 6547SOL    HW120540   5.134   6.581   6.466
 6547SOL    HW220541   5.155   6.608   6.306
 6548SOL     OW20542   0.932   2.770   6.213
 6548SOL    HW120543   1.017   2.750   6.165
 6548SOL    HW220544   0.890   2.852   6.175
 6549SOL     OW20545   5.099   6.996   2.017
 6549SOL    HW120546   5.193   7.007   2.050
 6549SOL    HW220547   5.062   6.910   2.051
 6550SOL     OW20548   6.588   0.086   3.112
 6550SOL    HW120549   6.550   7.022   3.094
 6550SOL    HW220550   6.667   0.079   3.172
 6551SOL     OW20551   3.266   3.446   1.757
 6551SOL    HW120552   3.169   3.421   1.754
 6551SOL    HW220553   3.288   3.502   1.677
 6552SOL     OW20554   1.980   6.607   0.305
 6552SOL    HW120555   1.958   6.705   0.305
 6552SOL    HW220556   2.053   6.589   0.370
 6553SOL     OW20557   0.015   1.481   2.784
 6553SOL    HW120558   7.012   1.577   2.790
 6553SOL    HW220559   0.045   1.461   2.691
 6554SOL     OW20560   2.940   0.878   4.437
 6554SOL    HW120561   2.842   0.889   4.420
 6554SOL    HW220562   2.976   0.804   4.380
 6555SOL     OW20563   6.371   2.227   4.481
 6555SOL    HW120564   6.317   2.308   4.462
 6555SOL    HW220565   6.399   2.227   4.577
 6556SOL     OW20566   5.774   3.355   2.977
 6556SOL    HW120567   5.805   3.425   2.913
 6556SOL    HW220568   5.799   3.265   2.942
 6557SOL     OW20569   1.246   6.753   2.322
 6557SOL    HW120570   1.249   6.817   2.246
 6557SOL    HW220571   1.151   6.736   2.348
 6558SOL     OW20572   5.880   5.209   0.255
 6558SOL    HW120573   5.962   5.206   0.311
 6558SOL    HW220574   5.801   5.232   0.312
 6559SOL     OW20575   0.025   3.783   6.660
 6559SOL    HW120576   0.115   3.819   6.637
 6559SOL    HW220577   6.996   3.855   6.702
 6560SOL     OW20578   4.194   4.960   0.242
 6560SOL    HW120579   4.260   4.931   0.310
 6560SOL    HW220580   4.196   5.060   0.235
 6561SOL     OW20581   3.912   5.061   0.161
 6561SOL    HW120582   3.916   5.144   0.215
 6561SOL    HW220583   4.004   5.037   0.129
 6562SOL     OW20584   5.472   2.215   0.919
 6562SOL    HW120585   5.377   2.199   0.892
 6562SOL    HW220586   5.474   2.257   1.010
 6563SOL     OW20587   5.310   0.226   5.557
 6563SOL    HW120588   5.344   0.154   5.617
 6563SOL    HW220589   5.245   0.283   5.606
 6564SOL     OW20590   6.717   3.641   2.301
 6564SOL    HW120591   6.713   3.599   2.392
 6564SOL    HW220592   6.794   3.600   2.250
 6565SOL     OW20593   6.499   6.892   2.342
 6565SOL    HW120594   6.504   6.843   2.255
 6565SOL    HW220595   6.427   6.961   2.337
 6566SOL     OW20596   3.678   5.515   2.293
 6566SOL    HW120597   3.582   5.515   2.320
 6566SOL    HW220598   3.730   5.455   2.354
 6567SOL     OW20599   4.545   0.710   1.487
 6567SOL    HW120600   4.468   0.774   1.486
 6567SOL    HW220601   4.544   0.655   1.403
 6568SOL     OW20602   4.048   1.284   1.955
 6568SOL    HW120603   4.045   1.185   1.944
 6568SOL    HW220604   4.080   1.307   2.047
 6569SOL     OW20605   0.926   2.996   6.065
 6569SOL    HW120606   0.842   3.051   6.058
 6569SOL    HW220607   0.932   2.935   5.986
 6570SOL     OW20608   3.617   7.007   2.370
 6570SOL    HW120609   3.574   6.987   2.282
 6570SOL    HW220610   3.641   6.921   2.415
 6571SOL     OW20611   2.452   5.017   3.272
 6571SOL    HW120612   2.537   4.967   3.292
 6571SOL    HW220613   2.427   5.003   3.177
 6572SOL     OW20614   0.516   4.725   4.039
 6572SOL    HW120615   0.557   4.791   3.977
 6572SOL    HW220616   0.551   4.739   4.132
 6573SOL     OW20617   1.568   0.816   3.200
 6573SOL    HW120618   1.509   0.891   3.230
 6573SOL    HW220619   1.659   0.825   3.241
 6574SOL     OW20620   2.158   6.534   3.580
 6574SOL    HW120621   2.085   6.599   3.557
 6574SOL    HW220622   2.244   6.566   3.541
 6575SOL     OW20623   0.035   0.218   2.689
 6575SOL    HW120624   0.118   0.267   2.661
 6575SOL    HW220625   0.057   0.123   2.710
 6576SOL     OW20626   3.674   4.962   0.126
 6576SOL    HW120627   3.662   4.874   0.172
 6576SOL    HW220628   3.766   4.997   0.144
 6577SOL     OW20629   2.032   2.763   3.669
 6577SOL    HW120630   2.027   2.833   3.598
 6577SOL    HW220631   1.943   2.753   3.713
 6578SOL     OW20632   1.028   5.133   1.108
 6578SOL    HW120633   1.067   5.047   1.140
 6578SOL    HW220634   1.102   5.199   1.092
 6579SOL     OW20635   6.907   1.472   4.074
 6579SOL    HW120636   6.843   1.535   4.118
 6579SOL    HW220637   6.992   1.467   4.127
 6580SOL     OW20638   1.154   0.173   0.408
 6580SOL    HW120639   1.251   0.151   0.409
 6580SOL    HW220640   1.120   0.178   0.502
 6581SOL     OW20641   1.746   1.264   0.382
 6581SOL    HW120642   1.741   1.164   0.388
 6581SOL    HW220643   1.840   1.293   0.400
 6582SOL     OW20644   6.734   0.625   2.953
 6582SOL    HW120645   6.803   0.558   2.928
 6582SOL    HW220646   6.675   0.588   3.025
 6583SOL     OW20647   4.356   0.060   5.915
 6583SOL    HW120648   4.430   0.118   5.880
 6583SOL    HW220649   4.280   0.117   5.946
 6584SOL     OW20650   4.214   2.430   0.890
 6584SOL    HW120651   4.172   2.521   0.891
 6584SOL    HW220652   4.146   2.362   0.917
 6585SOL     OW20653   6.374   6.981   0.507
 6585SOL    HW120654   6.355   6.884   0.523
 6585SOL    HW220655   6.303   7.020   0.449
 6586SOL     OW20656   6.349   2.198   6.393
 6586SOL    HW120657   6.304   2.283   6.421
 6586SOL    HW220658   6.441   2.195   6.433
 6587SOL     OW20659   1.502   4.095   5.618
 6587SOL    HW120660   1.490   4.189   5.588
 6587SOL    HW220661   1.586   4.058   5.579
 6588SOL     OW20662   0.480   3.333   0.603
 6588SOL    HW120663   0.453   3.266   0.673
 6588SOL    HW220664   0.426   3.416   0.615
 6589SOL     OW20665   6.006   1.090   1.510
 6589SOL    HW120666   6.070   1.049   1.575
 6589SOL    HW220667   6.037   1.073   1.417
 6590SOL     OW20668   0.803   0.498   4.817
 6590SOL    HW120669   0.789   0.475   4.913
 6590SOL    HW220670   0.718   0.480   4.766
 6591SOL     OW20671   5.226   5.681   4.219
 6591SOL    HW120672   5.191   5.757   4.166
 6591SOL    HW220673   5.174   5.598   4.198
 6592SOL     OW20674   4.766   0.184   2.947
 6592SOL    HW120675   4.684   0.153   2.995
 6592SOL    HW220676   4.771   0.283   2.950
 6593SOL     OW20677   2.916   2.163   2.309
 6593SOL    HW120678   2.859   2.214   2.374
 6593SOL    HW220679   2.919   2.212   2.222
 6594SOL     OW20680   3.575   1.802   6.038
 6594SOL    HW120681   3.525   1.840   6.116
 6594SOL    HW220682   3.522   1.816   5.955
 6595SOL     OW20683   1.985   2.547   4.451
 6595SOL    HW120684   2.071   2.596   4.464
 6595SOL    HW220685   1.969   2.488   4.531
 6596SOL     OW20686   4.918   5.891   2.945
 6596SOL    HW120687   4.892   5.854   3.034
 6596SOL    HW220688   4.862   5.850   2.874
 6597SOL     OW20689   1.281   5.306   1.798
 6597SOL    HW120690   1.274   5.318   1.897
 6597SOL    HW220691   1.195   5.268   1.763
 6598SOL     OW20692   1.796   4.570   3.758
 6598SOL    HW120693   1.795   4.627   3.676
 6598SOL    HW220694   1.843   4.484   3.739
 6599SOL     OW20695   5.849   5.728   6.534
 6599SOL    HW120696   5.798   5.800   6.487
 6599SOL    HW220697   5.859   5.650   6.473
 6600SOL     OW20698   4.944   0.600   5.066
 6600SOL    HW120699   5.027   0.638   5.107
 6600SOL    HW220700   4.944   0.618   4.968
 6601SOL     OW20701   0.860   2.894   3.271
 6601SOL    HW120702   0.817   2.975   3.232
 6601SOL    HW220703   0.902   2.916   3.359
 6602SOL     OW20704   2.717   0.092   1.442
 6602SOL    HW120705   2.798   0.083   1.384
 6602SOL    HW220706   2.660   0.167   1.407
 6603SOL     OW20707   0.746   3.356   4.139
 6603SOL    HW120708   0.804   3.307   4.205
 6603SOL    HW220709   0.686   3.291   4.093
 6604SOL     OW20710   2.370   0.207   1.997
 6604SOL    HW120711   2.308   0.154   2.056
 6604SOL    HW220712   2.333   0.300   1.985
 6605SOL     OW20713   5.750   5.609   2.002
 6605SOL    HW120714   5.739   5.526   1.948
 6605SOL    HW220715   5.846   5.636   2.002
 6606SOL     OW20716   1.388   3.532   2.958
 6606SOL    HW120717   1.397   3.624   2.919
 6606SOL    HW220718   1.447   3.468   2.908
 6607SOL     OW20719   5.924   4.955   4.198
 6607SOL    HW120720   5.876   4.993   4.277
 6607SOL    HW220721   5.929   5.024   4.126
 6608SOL     OW20722   6.896   6.934   0.093
 6608SOL    HW120723   6.983   6.932   0.044
 6608SOL    HW220724   6.823   6.902   0.032
 6609SOL     OW20725   4.585   1.787   6.263
 6609SOL    HW120726   4.604   1.825   6.353
 6609SOL    HW220727   4.635   1.839   6.194
 6610SOL     OW20728   2.410   6.097   0.665
 6610SOL    HW120729   2.471   6.044   0.606
 6610SOL    HW220730   2.316   6.062   0.656
 6611SOL     OW20731   4.995   2.422   3.658
 6611SOL    HW120732   5.087   2.445   3.688
 6611SOL    HW220733   4.951   2.363   3.725
 6612SOL     OW20734   6.109   2.000   6.697
 6612SOL    HW120735   6.131   2.097   6.708
 6612SOL    HW220736   6.158   1.964   6.617
 6613SOL     OW20737   5.527   0.515   6.482
 6613SOL    HW120738   5.504   0.593   6.540
 6613SOL    HW220739   5.625   0.496   6.488
 6614SOL     OW20740   4.869   5.987   1.310
 6614SOL    HW120741   4.803   5.990   1.386
 6614SOL    HW220742   4.853   6.065   1.250
 6615SOL     OW20743   3.050   5.612   0.497
 6615SOL    HW120744   3.074   5.706   0.475
 6615SOL    HW220745   3.133   5.557   0.507
 6616SOL     OW20746   4.031   0.441   5.977
 6616SOL    HW120747   4.025   0.535   5.942
 6616SOL    HW220748   3.961   0.428   6.047
 6617SOL     OW20749   4.071   0.094   3.507
 6617SOL    HW120750   4.105   0.177   3.550
 6617SOL    HW220751   3.978   0.075   3.538
 6618SOL     OW20752   0.841   1.414   3.107
 6618SOL    HW120753   0.882   1.485   3.050
 6618SOL    HW220754   0.816   1.453   3.196
 6619SOL     OW20755   4.226   0.120   4.023
 6619SOL    HW120756   4.175   0.067   4.091
 6619SOL    HW220757   4.252   0.061   3.946
 6620SOL     OW20758   1.434   3.822   3.415
 6620SOL    HW120759   1.422   3.726   3.440
 6620SOL    HW220760   1.519   3.856   3.455
 6621SOL     OW20761   3.682   3.274   4.573
 6621SOL    HW120762   3.770   3.226   4.583
 6621SOL    HW220763   3.619   3.216   4.521
 6622SOL     OW20764   6.148   6.040   1.239
 6622SOL    HW120765   6.092   5.958   1.232
 6622SOL    HW220766   6.242   6.014   1.263
 6623SOL     OW20767   3.562   4.193   4.864
 6623SOL    HW120768   3.570   4.249   4.946
 6623SOL    HW220769   3.514   4.108   4.886
 6624SOL     OW20770   1.067   2.639   4.858
 6624SOL    HW120771   1.064   2.540   4.841
 6624SOL    HW220772   1.016   2.687   4.787
 6625SOL     OW20773   6.160   2.778   5.718
 6625SOL    HW120774   6.092   2.721   5.672
 6625SOL    HW220775   6.125   2.871   5.728
 6626SOL     OW20776   2.946   0.284   4.674
 6626SOL    HW120777   2.969   0.187   4.682
 6626SOL    HW220778   2.868   0.305   4.732
 6627SOL     OW20779   1.282   6.128   4.417
 6627SOL    HW120780   1.208   6.187   4.451
 6627SOL    HW220781   1.342   6.103   4.492
 6628SOL     OW20782   5.134   5.864   4.013
 6628SOL    HW120783   5.143   5.937   3.945
 6628SOL    HW220784   5.051   5.811   3.994
 6629SOL     OW20785   4.913   5.374   6.702
 6629SOL    HW120786   4.962   5.314   6.638
 6629SOL    HW220787   4.975   5.402   6.775
 6630SOL     OW20788   3.146   1.147   2.228
 6630SOL    HW120789   3.095   1.187   2.304
 6630SOL    HW220790   3.243   1.170   2.236
 6631SOL     OW20791   1.093   5.456   5.429
 6631SOL    HW120792   1.161   5.404   5.378
 6631SOL    HW220793   1.138   5.510   5.500
 6632SOL     OW20794   1.286   0.666   1.293
 6632SOL    HW120795   1.363   0.626   1.244
 6632SOL    HW220796   1.312   0.680   1.389
 6633SOL     OW20797   2.953   5.227   5.988
 6633SOL    HW120798   2.986   5.133   5.993
 6633SOL    HW220799   2.907   5.242   5.900
 6634SOL     OW20800   5.220   2.072   5.796
 6634SOL    HW120801   5.154   2.146   5.781
 6634SOL    HW220802   5.214   2.006   5.721
 6635SOL     OW20803   4.635   4.289   2.501
 6635SOL    HW120804   4.573   4.316   2.575
 6635SOL    HW220805   4.719   4.253   2.540
 6636SOL     OW20806   2.911   0.583   2.154
 6636SOL    HW120807   2.826   0.625   2.122
 6636SOL    HW220808   2.972   0.567   2.076
 6637SOL     OW20809   2.077   0.730   0.999
 6637SOL    HW120810   2.046   0.663   0.931
 6637SOL    HW220811   1.997   0.774   1.040
 6638SOL     OW20812   2.870   3.658   3.466
 6638SOL    HW120813   2.895   3.571   3.510
 6638SOL    HW220814   2.848   3.726   3.536
 6639SOL     OW20815   3.951   2.720   0.360
 6639SOL    HW120816   3.860   2.712   0.401
 6639SOL    HW220817   3.944   2.709   0.261
 6640SOL     OW20818   0.244   2.595   5.333
 6640SOL    HW120819   0.248   2.612   5.235
 6640SOL    HW220820   0.335   2.603   5.372
 6641SOL     OW20821   4.094   1.984   1.055
 6641SOL    HW120822   4.063   1.910   0.997
 6641SOL    HW220823   4.177   1.956   1.104
 6642SOL     OW20824   2.017   5.052   0.371
 6642SOL    HW120825   2.013   5.043   0.271
 6642SOL    HW220826   2.112   5.052   0.400
 6643SOL     OW20827   5.716   6.808   0.187
 6643SOL    HW120828   5.776   6.844   0.116
 6643SOL    HW220829   5.680   6.719   0.158
 6644SOL     OW20830   1.694   6.383   2.777
 6644SOL    HW120831   1.601   6.389   2.814
 6644SOL    HW220832   1.758   6.361   2.851
 6645SOL     OW20833   6.261   2.571   1.003
 6645SOL    HW120834   6.164   2.595   1.003
 6645SOL    HW220835   6.299   2.582   0.911
 6646SOL     OW20836   3.903   0.942   0.030
 6646SOL    HW120837   3.947   0.859   0.064
 6646SOL    HW220838   3.811   0.920   7.025
 6647SOL     OW20839   4.602   5.224   1.415
 6647SOL    HW120840   4.552   5.265   1.338
 6647SOL    HW220841   4.538   5.172   1.472
 6648SOL     OW20842   3.396   6.240   4.589
 6648SOL    HW120843   3.391   6.235   4.689
 6648SOL    HW220844   3.430   6.153   4.553
 6649SOL     OW20845   5.844   3.005   6.478
 6649SOL    HW120846   5.832   2.912   6.513
 6649SOL    HW220847   5.923   3.007   6.416
 6650SOL     OW20848   4.006   0.953   5.065
 6650SOL    HW120849   3.997   0.924   5.160
 6650SOL    HW220850   4.095   0.926   5.030
 6651SOL     OW20851   1.440   1.647   0.248
 6651SOL    HW120852   1.477   1.558   0.274
 6651SOL    HW220853   1.400   1.691   0.329
 6652SOL     OW20854   1.064   4.595   7.008
 6652SOL    HW120855   0.969   4.623   6.994
 6652SOL    HW220856   1.066   4.514   0.041
 6653SOL     OW20857   5.011   2.997   0.311
 6653SOL    HW120858   4.965   3.022   0.226
 6653SOL    HW220859   5.029   2.898   0.311
 6654SOL     OW20860   0.082   4.940   2.902
 6654SOL    HW120861   0.122   4.891   2.825
 6654SOL    HW220862   0.046   5.029   2.872
 6655SOL     OW20863   0.023   5.786   2.150
 6655SOL    HW120864   0.025   5.713   2.217
 6655SOL    HW220865   6.972   5.773   2.088
 6656SOL     OW20866   4.356   1.673   2.638
 6656SOL    HW120867   4.413   1.644   2.715
 6656SOL    HW220868   4.319   1.764   2.658
 6657SOL     OW20869   5.208   2.125   4.756
 6657SOL    HW120870   5.157   2.201   4.798
 6657SOL    HW220871   5.303   2.128   4.785
 6658SOL     OW20872   6.439   0.476   5.509
 6658SOL    HW120873   6.344   0.443   5.509
 6658SOL    HW220874   6.496   0.411   5.459
 6659SOL     OW20875   1.497   4.808   1.688
 6659SOL    HW120876   1.423   4.741   1.686
 6659SOL    HW220877   1.460   4.897   1.715
 6660SOL     OW20878   1.632   5.367   2.070
 6660SOL    HW120879   1.674   5.381   1.981
 6660SOL    HW220880   1.538   5.400   2.068
 6661SOL     OW20881   2.840   6.867   4.376
 6661SOL    HW120882   2.765   6.869   4.443
 6661SOL    HW220883   2.819   6.929   4.301
 6662SOL     OW20884   1.860   0.118   1.524
 6662SOL    HW120885   1.878   0.055   1.599
 6662SOL    HW220886   1.850   0.211   1.560
 6663SOL     OW20887   1.121   5.976   5.843
 6663SOL    HW120888   1.111   5.891   5.791
 6663SOL    HW220889   1.084   5.963   5.935
 6664SOL     OW20890   2.152   0.310   1.800
 6664SOL    HW120891   2.078   0.339   1.739
 6664SOL    HW220892   2.234   0.290   1.746
 6665SOL     OW20893   2.845   6.724   5.798
 6665SOL    HW120894   2.767   6.784   5.816
 6665SOL    HW220895   2.910   6.729   5.874
 6666SOL     OW20896   6.703   5.649   4.920
 6666SOL    HW120897   6.620   5.673   4.970
 6666SOL    HW220898   6.688   5.563   4.870
 6667SOL     OW20899   0.646   6.743   5.624
 6667SOL    HW120900   0.577   6.806   5.660
 6667SOL    HW220901   0.702   6.708   5.699
 6668SOL     OW20902   6.873   6.132   1.521
 6668SOL    HW120903   6.959   6.093   1.489
 6668SOL    HW220904   6.797   6.088   1.475
 6669SOL     OW20905   3.052   1.619   1.700
 6669SOL    HW120906   3.013   1.593   1.612
 6669SOL    HW220907   3.129   1.559   1.722
 6670SOL     OW20908   2.927   1.513   0.108
 6670SOL    HW120909   3.013   1.485   0.067
 6670SOL    HW220910   2.933   1.609   0.135
 6671SOL     OW20911   4.529   6.463   0.935
 6671SOL    HW120912   4.443   6.469   0.885
 6671SOL    HW220913   4.562   6.555   0.958
 6672SOL     OW20914   1.579   2.390   0.407
 6672SOL    HW120915   1.628   2.471   0.374
 6672SOL    HW220916   1.612   2.366   0.499
 6673SOL     OW20917   5.372   3.663   4.262
 6673SOL    HW120918   5.341   3.645   4.356
 6673SOL    HW220919   5.324   3.603   4.199
 6674SOL     OW20920   0.319   2.766   6.587
 6674SOL    HW120921   0.348   2.680   6.545
 6674SOL    HW220922   0.340   2.841   6.525
 6675SOL     OW20923   4.342   2.277   0.157
 6675SOL    HW120924   4.409   2.351   0.156
 6675SOL    HW220925   4.259   2.307   0.109
 6676SOL     OW20926   1.845   4.241   2.646
 6676SOL    HW120927   1.861   4.203   2.556
 6676SOL    HW220928   1.776   4.187   2.694
 6677SOL     OW20929   0.676   0.915   6.722
 6677SOL    HW120930   0.602   0.982   6.734
 6677SOL    HW220931   0.764   0.961   6.729
 6678SOL     OW20932   1.736   3.725   0.600
 6678SOL    HW120933   1.666   3.666   0.641
 6678SOL    HW220934   1.817   3.671   0.578
 6679SOL     OW20935   2.985   0.800   3.707
 6679SOL    HW120936   2.903   0.849   3.736
 6679SOL    HW220937   3.066   0.847   3.742
 6680SOL     OW20938   4.857   6.502   0.249
 6680SOL    HW120939   4.903   6.499   0.338
 6680SOL    HW220940   4.788   6.575   0.250
 6681SOL     OW20941   4.778   5.396   1.816
 6681SOL    HW120942   4.852   5.414   1.881
 6681SOL    HW220943   4.812   5.411   1.722
 6682SOL     OW20944   2.568   4.730   6.926
 6682SOL    HW120945   2.550   4.642   6.969
 6682SOL    HW220946   2.645   4.775   6.972
 6683SOL     OW20947   6.276   3.598   6.575
 6683SOL    HW120948   6.251   3.677   6.519
 6683SOL    HW220949   6.197   3.567   6.627
 6684SOL     OW20950   3.381   0.023   1.826
 6684SOL    HW120951   3.346   0.090   1.760
 6684SOL    HW220952   3.312   0.006   1.896
 6685SOL     OW20953   4.069   3.024   6.416
 6685SOL    HW120954   4.156   2.983   6.389
 6685SOL    HW220955   4.078   3.124   6.418
 6686SOL     OW20956   6.216   5.333   3.331
 6686SOL    HW120957   6.118   5.349   3.343
 6686SOL    HW220958   6.267   5.396   3.390
 6687SOL     OW20959   6.886   2.440   1.244
 6687SOL    HW120960   6.910   2.430   1.341
 6687SOL    HW220961   6.959   2.399   1.188
 6688SOL     OW20962   4.274   4.301   0.743
 6688SOL    HW120963   4.217   4.373   0.784
 6688SOL    HW220964   4.317   4.248   0.816
 6689SOL     OW20965   4.034   4.211   5.908
 6689SOL    HW120966   4.076   4.121   5.893
 6689SOL    HW220967   4.101   4.283   5.887
 6690SOL     OW20968   1.315   0.297   6.363
 6690SOL    HW120969   1.388   0.358   6.333
 6690SOL    HW220970   1.272   0.255   6.282
 6691SOL     OW20971   1.478   0.497   2.559
 6691SOL    HW120972   1.461   0.400   2.579
 6691SOL    HW220973   1.392   0.544   2.543
 6692SOL     OW20974   4.026   4.236   1.634
 6692SOL    HW120975   4.103   4.210   1.576
 6692SOL    HW220976   3.969   4.155   1.652
 6693SOL     OW20977   4.717   1.760   4.659
 6693SOL    HW120978   4.773   1.679   4.674
 6693SOL    HW220979   4.679   1.758   4.567
 6694SOL     OW20980   3.801   5.383   1.386
 6694SOL    HW120981   3.771   5.367   1.480
 6694SOL    HW220982   3.797   5.481   1.366
 6695SOL     OW20983   2.859   2.275   0.067
 6695SOL    HW120984   2.871   2.253   0.164
 6695SOL    HW220985   2.842   2.191   0.016
 6696SOL     OW20986   3.930   4.025   3.731
 6696SOL    HW120987   3.904   4.032   3.635
 6696SOL    HW220988   3.987   4.103   3.756
 6697SOL     OW20989   5.473   2.474   2.873
 6697SOL    HW120990   5.432   2.451   2.961
 6697SOL    HW220991   5.458   2.399   2.809
 6698SOL     OW20992   3.019   3.344   1.670
 6698SOL    HW120993   2.943   3.287   1.702
 6698SOL    HW220994   2.988   3.401   1.594
 6699SOL     OW20995   1.844   5.683   6.023
 6699SOL    HW120996   1.939   5.690   5.993
 6699SOL    HW220997   1.786   5.738   5.963
 6700SOL     OW20998   5.716   0.545   0.642
 6700SOL    HW120999   5.751   0.487   0.715
 6700SOL    HW221000   5.631   0.590   0.672
 6701SOL     OW21001   6.051   0.291   1.431
 6701SOL    HW121002   6.032   0.358   1.503
 6701SOL    HW221003   6.025   0.200   1.463
 6702SOL     OW21004   2.077   2.233   1.291
 6702SOL    HW121005   2.176   2.246   1.279
 6702SOL    HW221006   2.061   2.179   1.373
 6703SOL     OW21007   1.261   1.156   6.611
 6703SOL    HW121008   1.350   1.184   6.647
 6703SOL    HW221009   1.251   1.188   6.516
 6704SOL     OW21010   3.708   1.214   4.282
 6704SOL    HW121011   3.804   1.193   4.267
 6704SOL    HW221012   3.681   1.182   4.373
 6705SOL     OW21013   6.023   3.128   1.050
 6705SOL    HW121014   5.974   3.101   1.132
 6705SOL    HW221015   6.018   3.227   1.038
 6706SOL     OW21016   1.670   5.973   1.180
 6706SOL    HW121017   1.743   5.950   1.116
 6706SOL    HW221018   1.700   5.954   1.273
 6707SOL     OW21019   5.588   0.398   2.236
 6707SOL    HW121020   5.620   0.337   2.164
 6707SOL    HW221021   5.619   0.363   2.325
 6708SOL     OW21022   6.159   5.008   1.465
 6708SOL    HW121023   6.236   5.058   1.506
 6708SOL    HW221024   6.137   5.047   1.376
 6709SOL     OW21025   1.114   4.072   2.272
 6709SOL    HW121026   1.047   4.146   2.274
 6709SOL    HW221027   1.071   3.987   2.302
 6710SOL     OW21028   4.649   1.419   2.031
 6710SOL    HW121029   4.598   1.406   1.945
 6710SOL    HW221030   4.742   1.383   2.020
 6711SOL     OW21031   5.042   6.659   5.963
 6711SOL    HW121032   4.975   6.680   5.891
 6711SOL    HW221033   5.009   6.582   6.018
 6712SOL     OW21034   6.372   3.692   0.656
 6712SOL    HW121035   6.428   3.655   0.582
 6712SOL    HW221036   6.422   3.686   0.742
 6713SOL     OW21037   1.287   1.040   3.598
 6713SOL    HW121038   1.344   1.016   3.677
 6713SOL    HW221039   1.192   1.013   3.615
 6714SOL     OW21040   5.839   1.484   0.747
 6714SOL    HW121041   5.821   1.423   0.823
 6714SOL    HW221042   5.890   1.564   0.780
 6715SOL     OW21043   1.698   0.846   1.645
 6715SOL    HW121044   1.634   0.902   1.592
 6715SOL    HW221045   1.735   0.900   1.720
 6716SOL     OW21046   6.439   5.606   2.323
 6716SOL    HW121047   6.503   5.529   2.318
 6716SOL    HW221048   6.348   5.572   2.345
 6717SOL     OW21049   2.913   2.228   6.682
 6717SOL    HW121050   2.849   2.264   6.615
 6717SOL    HW221051   2.924   2.130   6.670
 6718SOL     OW21052   4.767   1.494   1.374
 6718SOL    HW121053   4.745   1.409   1.326
 6718SOL    HW221054   4.709   1.568   1.340
 6719SOL     OW21055   1.903   6.897   0.225
 6719SOL    HW121056   1.897   6.994   0.250
 6719SOL    HW221057   1.821   6.871   0.173
 6720SOL     OW21058   2.928   0.791   5.272
 6720SOL    HW121059   2.927   0.798   5.173
 6720SOL    HW221060   2.872   0.714   5.302
 6721SOL     OW21061   0.127   0.120   0.309
 6721SOL    HW121062   0.084   0.083   0.391
 6721SOL    HW221063   0.174   0.046   0.260
 6722SOL     OW21064   0.387   2.349   0.205
 6722SOL    HW121065   0.326   2.351   0.285
 6722SOL    HW221066   0.403   2.443   0.173
 6723SOL     OW21067   2.063   0.739   6.634
 6723SOL    HW121068   2.013   0.711   6.716
 6723SOL    HW221069   2.140   0.677   6.619
 6724SOL     OW21070   2.722   2.330   6.484
 6724SOL    HW121071   2.740   2.335   6.386
 6724SOL    HW221072   2.623   2.327   6.499
 6725SOL     OW21073   5.860   3.056   2.981
 6725SOL    HW121074   5.885   2.992   3.053
 6725SOL    HW221075   5.886   3.018   2.892
 6726SOL     OW21076   0.531   1.566   5.018
 6726SOL    HW121077   0.516   1.507   4.938
 6726SOL    HW221078   0.454   1.556   5.081
 6727SOL     OW21079   1.031   4.033   5.526
 6727SOL    HW121080   1.010   3.993   5.615
 6727SOL    HW221081   1.130   4.028   5.511
 6728SOL     OW21082   4.062   1.971   3.670
 6728SOL    HW121083   4.040   2.041   3.601
 6728SOL    HW221084   4.091   2.016   3.754
 6729SOL     OW21085   6.194   2.185   0.020
 6729SOL    HW121086   6.119   2.248   7.023
 6729SOL    HW221087   6.280   2.235   0.020
 6730SOL     OW21088   1.385   0.815   1.826
 6730SOL    HW121089   1.427   0.896   1.867
 6730SOL    HW221090   1.334   0.843   1.744
 6731SOL     OW21091   1.787   6.408   1.143
 6731SOL    HW121092   1.818   6.454   1.226
 6731SOL    HW221093   1.865   6.389   1.084
 6732SOL     OW21094   5.326   4.487   4.768
 6732SOL    HW121095   5.412   4.515   4.726
 6732SOL    HW221096   5.254   4.487   4.699
 6733SOL     OW21097   3.888   5.366   6.642
 6733SOL    HW121098   3.888   5.320   6.731
 6733SOL    HW221099   3.825   5.444   6.645
 6734SOL     OW21100   5.507   2.087   5.372
 6734SOL    HW121101   5.589   2.145   5.365
 6734SOL    HW221102   5.426   2.143   5.354
 6735SOL     OW21103   6.098   4.071   4.372
 6735SOL    HW121104   6.169   4.085   4.303
 6735SOL    HW221105   6.057   3.981   4.359
 6736SOL     OW21106   2.924   4.230   0.128
 6736SOL    HW121107   2.839   4.193   0.089
 6736SOL    HW221108   2.986   4.155   0.149
 6737SOL     OW21109   0.942   2.764   1.057
 6737SOL    HW121110   0.998   2.846   1.054
 6737SOL    HW221111   0.851   2.787   1.091
 6738SOL     OW21112   1.319   6.099   3.725
 6738SOL    HW121113   1.416   6.075   3.731
 6738SOL    HW221114   1.293   6.105   3.629
 6739SOL     OW21115   6.715   6.193   3.407
 6739SOL    HW121116   6.660   6.183   3.324
 6739SOL    HW221117   6.684   6.129   3.477
 6740SOL     OW21118   6.349   6.510   4.523
 6740SOL    HW121119   6.437   6.547   4.496
 6740SOL    HW221120   6.337   6.522   4.622
 6741SOL     OW21121   4.167   2.227   6.015
 6741SOL    HW121122   4.144   2.148   5.958
 6741SOL    HW221123   4.183   2.198   6.109
 6742SOL     OW21124   5.756   5.398   3.738
 6742SOL    HW121125   5.690   5.354   3.799
 6742SOL    HW221126   5.720   5.398   3.645
 6743SOL     OW21127   3.794   4.184   6.482
 6743SOL    HW121128   3.755   4.096   6.454
 6743SOL    HW221129   3.879   4.168   6.532
 6744SOL     OW21130   0.153   6.366   6.019
 6744SOL    HW121131   0.106   6.386   5.933
 6744SOL    HW221132   0.087   6.328   6.085
 6745SOL     OW21133   0.060   6.480   3.536
 6745SOL    HW121134   0.081   6.504   3.631
 6745SOL    HW221135   7.026   6.400   3.535
 6746SOL     OW21136   1.935   0.823   2.445
 6746SOL    HW121137   1.994   0.862   2.516
 6746SOL    HW221138   1.879   0.750   2.483
 6747SOL     OW21139   6.327   6.474   6.314
 6747SOL    HW121140   6.363   6.462   6.222
 6747SOL    HW221141   6.352   6.565   6.348
 6748SOL     OW21142   2.747   2.112   3.617
 6748SOL    HW121143   2.661   2.113   3.565
 6748SOL    HW221144   2.813   2.054   3.571
 6749SOL     OW21145   3.661   4.129   0.715
 6749SOL    HW121146   3.712   4.159   0.796
 6749SOL    HW221147   3.634   4.033   0.727
 6750SOL     OW21148   2.707   1.826   4.159
 6750SOL    HW121149   2.734   1.800   4.066
 6750SOL    HW221150   2.650   1.754   4.199
 6751SOL     OW21151   4.745   0.399   3.227
 6751SOL    HW121152   4.743   0.305   3.261
 6751SOL    HW221153   4.689   0.457   3.287
 6752SOL     OW21154   1.534   0.236   3.959
 6752SOL    HW121155   1.574   0.326   3.943
 6752SOL    HW221156   1.453   0.245   4.017
 6753SOL     OW21157   3.414   2.187   5.987
 6753SOL    HW121158   3.438   2.178   6.083
 6753SOL    HW221159   3.393   2.097   5.949
 6754SOL     OW21160   6.212   0.918   1.229
 6754SOL    HW121161   6.133   0.874   1.272
 6754SOL    HW221162   6.186   0.957   1.141
 6755SOL     OW21163   3.458   4.493   1.095
 6755SOL    HW121164   3.486   4.495   1.191
 6755SOL    HW221165   3.367   4.534   1.086
 6756SOL     OW21166   3.562   0.622   5.723
 6756SOL    HW121167   3.555   0.721   5.716
 6756SOL    HW221168   3.528   0.579   5.640
 6757SOL     OW21169   4.160   1.426   1.527
 6757SOL    HW121170   4.065   1.439   1.552
 6757SOL    HW221171   4.166   1.376   1.441
 6758SOL     OW21172   5.855   2.667   1.800
 6758SOL    HW121173   5.903   2.612   1.732
 6758SOL    HW221174   5.901   2.755   1.810
 6759SOL     OW21175   6.987   3.177   3.658
 6759SOL    HW121176   6.900   3.164   3.610
 6759SOL    HW221177   0.023   3.102   3.635
 6760SOL     OW21178   6.476   3.825   2.537
 6760SOL    HW121179   6.461   3.748   2.475
 6760SOL    HW221180   6.574   3.844   2.544
 6761SOL     OW21181   5.265   2.594   4.769
 6761SOL    HW121182   5.238   2.625   4.860
 6761SOL    HW221183   5.266   2.672   4.706
 6762SOL     OW21184   0.527   4.484   4.619
 6762SOL    HW121185   0.570   4.568   4.653
 6762SOL    HW221186   0.431   4.482   4.647
 6763SOL     OW21187   5.181   5.301   5.120
 6763SOL    HW121188   5.159   5.302   5.217
 6763SOL    HW221189   5.280   5.309   5.108
 6764SOL     OW21190   1.979   5.589   2.160
 6764SOL    HW121191   1.915   5.527   2.207
 6764SOL    HW221192   2.047   5.622   2.225
 6765SOL     OW21193   6.229   4.304   3.496
 6765SOL    HW121194   6.264   4.267   3.581
 6765SOL    HW221195   6.248   4.240   3.421
 6766SOL     OW21196   4.863   5.918   6.056
 6766SOL    HW121197   4.879   6.014   6.075
 6766SOL    HW221198   4.865   5.866   6.141
 6767SOL     OW21199   3.292   0.343   1.047
 6767SOL    HW121200   3.299   0.398   0.964
 6767SOL    HW221201   3.383   0.330   1.086
 6768SOL     OW21202   2.043   0.558   6.157
 6768SOL    HW121203   2.116   0.543   6.091
 6768SOL    HW221204   1.956   0.527   6.119
 6769SOL     OW21205   3.329   2.058   0.753
 6769SOL    HW121206   3.242   2.058   0.801
 6769SOL    HW221207   3.337   2.142   0.699
 6770SOL     OW21208   6.952   1.004   1.723
 6770SOL    HW121209   7.021   1.059   1.676
 6770SOL    HW221210   6.945   0.915   1.678
 6771SOL     OW21211   4.715   2.716   3.430
 6771SOL    HW121212   4.650   2.663   3.376
 6771SOL    HW221213   4.801   2.665   3.436
 6772SOL     OW21214   3.476   0.938   3.373
 6772SOL    HW121215   3.418   0.866   3.413
 6772SOL    HW221216   3.489   0.920   3.275
 6773SOL     OW21217   6.832   5.331   1.619
 6773SOL    HW121218   6.791   5.357   1.706
 6773SOL    HW221219   6.769   5.352   1.544
 6774SOL     OW21220   0.642   2.869   5.689
 6774SOL    HW121221   0.560   2.812   5.698
 6774SOL    HW221222   0.616   2.965   5.691
 6775SOL     OW21223   2.582   3.205   1.658
 6775SOL    HW121224   2.680   3.197   1.678
 6775SOL    HW221225   2.544   3.283   1.707
 6776SOL     OW21226   4.637   4.258   6.891
 6776SOL    HW121227   4.713   4.323   6.891
 6776SOL    HW221228   4.671   4.168   6.918
 6777SOL     OW21229   4.139   3.868   6.766
 6777SOL    HW121230   4.068   3.932   6.796
 6777SOL    HW221231   4.110   3.823   6.682
 6778SOL     OW21232   6.601   4.741   2.092
 6778SOL    HW121233   6.534   4.676   2.126
 6778SOL    HW221234   6.617   4.725   1.995
 6779SOL     OW21235   6.723   4.567   5.558
 6779SOL    HW121236   6.780   4.507   5.501
 6779SOL    HW221237   6.774   4.650   5.580
 6780SOL     OW21238   1.193   2.282   2.761
 6780SOL    HW121239   1.123   2.211   2.769
 6780SOL    HW221240   1.151   2.365   2.724
 6781SOL     OW21241   5.678   0.384   5.031
 6781SOL    HW121242   5.752   0.425   5.084
 6781SOL    HW221243   5.714   0.310   4.974
 6782SOL     OW21244   6.923   0.281   3.018
 6782SOL    HW121245   6.951   0.190   2.987
 6782SOL    HW221246   6.913   0.341   2.938
 6783SOL     OW21247   6.826   0.810   6.412
 6783SOL    HW121248   6.845   0.763   6.326
 6783SOL    HW221249   6.822   0.743   6.487
 6784SOL     OW21250   3.157   3.708   0.319
 6784SOL    HW121251   3.222   3.642   0.354
 6784SOL    HW221252   3.205   3.774   0.261
 6785SOL     OW21253   5.188   4.817   2.569
 6785SOL    HW121254   5.194   4.767   2.483
 6785SOL    HW221255   5.145   4.906   2.552
 6786SOL     OW21256   1.631   1.802   0.066
 6786SOL    HW121257   1.602   1.742   0.140
 6786SOL    HW221258   1.557   1.813   7.026
 6787SOL     OW21259   1.769   2.711   0.851
 6787SOL    HW121260   1.778   2.768   0.933
 6787SOL    HW221261   1.855   2.712   0.800
 6788SOL     OW21262   2.502   3.515   1.663
 6788SOL    HW121263   2.530   3.611   1.673
 6788SOL    HW221264   2.454   3.486   1.745
 6789SOL     OW21265   0.285   6.444   3.042
 6789SOL    HW121266   0.340   6.518   3.005
 6789SOL    HW221267   0.202   6.434   2.987
 6790SOL     OW21268   1.240   4.138   1.035
 6790SOL    HW121269   1.285   4.105   0.952
 6790SOL    HW221270   1.189   4.221   1.013
 6791SOL     OW21271   4.221   2.651   1.603
 6791SOL    HW121272   4.210   2.584   1.676
 6791SOL    HW221273   4.170   2.734   1.626
 6792SOL     OW21274   6.477   6.238   5.788
 6792SOL    HW121275   6.569   6.219   5.821
 6792SOL    HW221276   6.454   6.174   5.715
 6793SOL     OW21277   0.871   1.972   0.072
 6793SOL    HW121278   0.870   1.945   0.169
 6793SOL    HW221279   0.818   1.906   0.019
 6794SOL     OW21280   4.966   1.723   5.883
 6794SOL    HW121281   4.912   1.802   5.856
 6794SOL    HW221282   4.910   1.640   5.876
 6795SOL     OW21283   2.678   6.445   0.970
 6795SOL    HW121284   2.769   6.409   0.995
 6795SOL    HW221285   2.616   6.368   0.954
 6796SOL     OW21286   6.097   0.683   2.212
 6796SOL    HW121287   6.017   0.708   2.157
 6796SOL    HW221288   6.069   0.618   2.283
 6797SOL     OW21289   5.366   3.347   1.518
 6797SOL    HW121290   5.354   3.370   1.615
 6797SOL    HW221291   5.433   3.274   1.509
 6798SOL     OW21292   5.797   6.231   3.033
 6798SOL    HW121293   5.822   6.271   3.121
 6798SOL    HW221294   5.809   6.299   2.961
 6799SOL     OW21295   6.781   5.784   6.959
 6799SOL    HW121296   6.700   5.732   6.931
 6799SOL    HW221297   6.862   5.746   6.915
 6800SOL     OW21298   2.202   4.088   1.214
 6800SOL    HW121299   2.274   4.147   1.249
 6800SOL    HW221300   2.243   4.015   1.159
 6801SOL     OW21301   1.195   0.940   2.508
 6801SOL    HW121302   1.215   0.903   2.598
 6801SOL    HW221303   1.252   1.021   2.491
 6802SOL     OW21304   3.140   5.869   0.447
 6802SOL    HW121305   3.151   5.961   0.411
 6802SOL    HW221306   3.209   5.809   0.406
 6803SOL     OW21307   5.106   2.879   6.201
 6803SOL    HW121308   5.028   2.928   6.162
 6803SOL    HW221309   5.178   2.870   6.131
 6804SOL     OW21310   2.835   5.503   3.612
 6804SOL    HW121311   2.829   5.415   3.661
 6804SOL    HW221312   2.930   5.531   3.606
 6805SOL     OW21313   5.735   5.731   5.094
 6805SOL    HW121314   5.782   5.732   5.182
 6805SOL    HW221315   5.731   5.638   5.059
 6806SOL     OW21316   5.544   1.178   3.397
 6806SOL    HW121317   5.566   1.110   3.327
 6806SOL    HW221318   5.593   1.156   3.482
 6807SOL     OW21319   3.130   3.017   0.731
 6807SOL    HW121320   3.041   3.058   0.753
 6807SOL    HW221321   3.164   2.967   0.812
 6808SOL     OW21322   0.085   1.918   5.584
 6808SOL    HW121323   7.018   1.936   5.553
 6808SOL    HW221324   0.141   1.889   5.507
 6809SOL     OW21325   1.397   3.442   1.214
 6809SOL    HW121326   1.387   3.417   1.310
 6809SOL    HW221327   1.310   3.476   1.179
 6810SOL     OW21328   1.811   6.996   2.128
 6810SOL    HW121329   1.736   7.025   2.069
 6810SOL    HW221330   1.851   0.050   2.174
 6811SOL     OW21331   5.070   3.950   0.115
 6811SOL    HW121332   4.987   3.935   0.168
 6811SOL    HW221333   5.058   4.028   0.054
 6812SOL     OW21334   3.361   3.580   3.368
 6812SOL    HW121335   3.293   3.544   3.432
 6812SOL    HW221336   3.317   3.600   3.281
 6813SOL     OW21337   5.062   1.937   2.322
 6813SOL    HW121338   4.966   1.949   2.299
 6813SOL    HW221339   5.079   1.842   2.349
 6814SOL     OW21340   3.386   2.594   0.570
 6814SOL    HW121341   3.450   2.550   0.506
 6814SOL    HW221342   3.300   2.543   0.572
 6815SOL     OW21343   3.175   6.886   1.476
 6815SOL    HW121344   3.198   6.976   1.439
 6815SOL    HW221345   3.079   6.885   1.504
 6816SOL     OW21346   0.315   0.016   6.430
 6816SOL    HW121347   0.322   6.964   6.492
 6816SOL    HW221348   0.238   0.074   6.459
 6817SOL     OW21349   0.370   2.084   4.966
 6817SOL    HW121350   0.298   2.090   4.897
 6817SOL    HW221351   0.459   2.072   4.921
 6818SOL     OW21352   3.058   5.244   1.906
 6818SOL    HW121353   3.051   5.155   1.951
 6818SOL    HW221354   2.971   5.293   1.916
 6819SOL     OW21355   4.627   1.318   4.550
 6819SOL    HW121356   4.707   1.284   4.502
 6819SOL    HW221357   4.589   1.396   4.500
 6820SOL     OW21358   0.747   5.592   3.018
 6820SOL    HW121359   0.816   5.620   3.086
 6820SOL    HW221360   0.766   5.499   2.987
 6821SOL     OW21361   3.149   1.242   5.441
 6821SOL    HW121362   3.074   1.235   5.375
 6821SOL    HW221363   3.217   1.171   5.422
 6822SOL     OW21364   6.066   2.465   6.168
 6822SOL    HW121365   6.080   2.367   6.154
 6822SOL    HW221366   6.097   2.490   6.260
 6823SOL     OW21367   3.717   3.500   4.005
 6823SOL    HW121368   3.752   3.451   4.086
 6823SOL    HW221369   3.691   3.592   4.031
 6824SOL     OW21370   0.741   3.369   6.138
 6824SOL    HW121371   0.836   3.396   6.156
 6824SOL    HW221372   0.700   3.337   6.223
 6825SOL     OW21373   5.276   6.391   2.426
 6825SOL    HW121374   5.311   6.349   2.510
 6825SOL    HW221375   5.268   6.490   2.440
 6826SOL     OW21376   2.115   4.235   2.631
 6826SOL    HW121377   2.028   4.284   2.628
 6826SOL    HW221378   2.179   4.276   2.566
 6827SOL     OW21379   4.620   5.933   6.924
 6827SOL    HW121380   4.623   6.016   6.868
 6827SOL    HW221381   4.697   5.875   6.901
 6828SOL     OW21382   2.760   1.540   1.921
 6828SOL    HW121383   2.817   1.616   1.891
 6828SOL    HW221384   2.721   1.562   2.011
 6829SOL     OW21385   4.422   6.850   4.081
 6829SOL    HW121386   4.415   6.771   4.021
 6829SOL    HW221387   4.408   6.821   4.176
 6830SOL     OW21388   5.457   1.369   4.082
 6830SOL    HW121389   5.384   1.361   4.149
 6830SOL    HW221390   5.419   1.360   3.990
 6831SOL     OW21391   1.134   0.435   5.940
 6831SOL    HW121392   1.127   0.441   6.040
 6831SOL    HW221393   1.230   0.433   5.914
 6832SOL     OW21394   3.027   4.055   1.429
 6832SOL    HW121395   3.105   4.000   1.455
 6832SOL    HW221396   2.950   4.036   1.490
 6833SOL     OW21397   4.513   4.354   6.648
 6833SOL    HW121398   4.549   4.307   6.729
 6833SOL    HW221399   4.414   4.362   6.656
 6834SOL     OW21400   5.424   6.963   1.844
 6834SOL    HW121401   5.446   6.866   1.849
 6834SOL    HW221402   5.393   6.994   1.934
 6835SOL     OW21403   4.202   0.192   5.081
 6835SOL    HW121404   4.213   0.282   5.040
 6835SOL    HW221405   4.223   0.122   5.013
 6836SOL     OW21406   3.269   5.453   0.292
 6836SOL    HW121407   3.200   5.405   0.238
 6836SOL    HW221408   3.345   5.391   0.311
 6837SOL     OW21409   1.500   2.225   2.204
 6837SOL    HW121410   1.506   2.133   2.243
 6837SOL    HW221411   1.523   2.293   2.275
 6838SOL     OW21412   2.287   6.162   1.063
 6838SOL    HW121413   2.231   6.080   1.051
 6838SOL    HW221414   2.333   6.158   1.152
 6839SOL     OW21415   4.995   1.005   6.669
 6839SOL    HW121416   5.047   0.922   6.684
 6839SOL    HW221417   5.043   1.064   6.604
 6840SOL     OW21418   2.529   1.983   5.015
 6840SOL    HW121419   2.530   1.901   4.958
 6840SOL    HW221420   2.614   2.033   5.003
 6841SOL     OW21421   5.444   3.735   6.082
 6841SOL    HW121422   5.538   3.740   6.048
 6841SOL    HW221423   5.382   3.711   6.008
 6842SOL     OW21424   3.001   4.461   1.051
 6842SOL    HW121425   2.927   4.489   1.114
 6842SOL    HW221426   2.964   4.454   0.958
 6843SOL     OW21427   5.669   6.445   0.275
 6843SOL    HW121428   5.622   6.469   0.191
 6843SOL    HW221429   5.760   6.485   0.275
 6844SOL     OW21430   5.226   0.822   4.228
 6844SOL    HW121431   5.282   0.844   4.308
 6844SOL    HW221432   5.261   0.871   4.149
 6845SOL     OW21433   6.022   3.237   2.832
 6845SOL    HW121434   6.115   3.263   2.859
 6845SOL    HW221435   5.998   3.150   2.874
 6846SOL     OW21436   3.297   4.053   0.031
 6846SOL    HW121437   3.299   3.975   6.996
 6846SOL    HW221438   3.320   4.136   7.006
 6847SOL     OW21439   0.097   3.810   5.094
 6847SOL    HW121440   0.157   3.730   5.083
 6847SOL    HW221441   0.013   3.782   5.141
 6848SOL     OW21442   5.212   4.119   3.500
 6848SOL    HW121443   5.299   4.153   3.535
 6848SOL    HW221444   5.153   4.094   3.577
 6849SOL     OW21445   3.805   3.871   5.431
 6849SOL    HW121446   3.798   3.896   5.335
 6849SOL    HW221447   3.898   3.842   5.452
 6850SOL     OW21448   5.022   2.909   3.053
 6850SOL    HW121449   5.120   2.892   3.044
 6850SOL    HW221450   5.007   3.002   3.088
 6851SOL     OW21451   1.148   2.283   2.378
 6851SOL    HW121452   1.172   2.186   2.375
 6851SOL    HW221453   1.125   2.314   2.285
 6852SOL     OW21454   3.059   5.277   0.992
 6852SOL    HW121455   2.992   5.237   1.055
 6852SOL    HW221456   3.052   5.376   0.995
 6853SOL     OW21457   5.200   3.632   6.216
 6853SOL    HW121458   5.284   3.679   6.242
 6853SOL    HW221459   5.147   3.611   6.298
 6854SOL     OW21460   5.753   0.324   5.851
 6854SOL    HW121461   5.740   0.283   5.760
 6854SOL    HW221462   5.802   0.259   5.909
 6855SOL     OW21463   4.129   5.795   3.842
 6855SOL    HW121464   4.176   5.760   3.761
 6855SOL    HW221465   4.098   5.889   3.826
 6856SOL     OW21466   0.550   2.302   5.597
 6856SOL    HW121467   0.534   2.329   5.502
 6856SOL    HW221468   0.524   2.206   5.609
 6857SOL     OW21469   0.743   3.251   6.646
 6857SOL    HW121470   0.843   3.254   6.637
 6857SOL    HW221471   0.715   3.156   6.661
 6858SOL     OW21472   3.698   4.238   1.797
 6858SOL    HW121473   3.694   4.214   1.894
 6858SOL    HW221474   3.687   4.337   1.787
 6859SOL     OW21475   0.275   0.689   1.650
 6859SOL    HW121476   0.289   0.788   1.658
 6859SOL    HW221477   0.361   0.642   1.666
 6860SOL     OW21478   6.501   4.835   1.488
 6860SOL    HW121479   6.439   4.850   1.565
 6860SOL    HW221480   6.516   4.737   1.474
 6861SOL     OW21481   4.598   3.784   6.156
 6861SOL    HW121482   4.571   3.793   6.060
 6861SOL    HW221483   4.614   3.875   6.195
 6862SOL     OW21484   0.365   4.854   5.614
 6862SOL    HW121485   0.326   4.842   5.706
 6862SOL    HW221486   0.299   4.902   5.556
 6863SOL     OW21487   6.887   6.413   5.383
 6863SOL    HW121488   6.812   6.426   5.447
 6863SOL    HW221489   6.965   6.372   5.430
 6864SOL     OW21490   2.179   4.644   5.145
 6864SOL    HW121491   2.241   4.570   5.120
 6864SOL    HW221492   2.090   4.607   5.168
 6865SOL     OW21493   1.296   0.340   5.295
 6865SOL    HW121494   1.327   0.435   5.302
 6865SOL    HW221495   1.326   0.302   5.207
 6866SOL     OW21496   6.294   4.651   2.359
 6866SOL    HW121497   6.369   4.707   2.394
 6866SOL    HW221498   6.218   4.711   2.333
 6867SOL     OW21499   2.102   3.717   1.258
 6867SOL    HW121500   2.063   3.805   1.287
 6867SOL    HW221501   2.202   3.720   1.269
 6868SOL     OW21502   2.556   6.664   5.440
 6868SOL    HW121503   2.480   6.662   5.376
 6868SOL    HW221504   2.589   6.571   5.455
 6869SOL     OW21505   4.453   1.130   5.801
 6869SOL    HW121506   4.486   1.041   5.832
 6869SOL    HW221507   4.506   1.202   5.846
 6870SOL     OW21508   0.104   3.762   1.022
 6870SOL    HW121509   0.088   3.824   1.098
 6870SOL    HW221510   0.025   3.701   1.011
 6871SOL     OW21511   6.661   4.038   2.696
 6871SOL    HW121512   6.707   4.123   2.671
 6871SOL    HW221513   6.721   3.960   2.676
 6872SOL     OW21514   0.708   2.509   2.271
 6872SOL    HW121515   0.742   2.453   2.195
 6872SOL    HW221516   0.638   2.572   2.237
 6873SOL     OW21517   1.051   4.317   3.953
 6873SOL    HW121518   0.971   4.270   3.989
 6873SOL    HW221519   1.114   4.339   4.027
 6874SOL     OW21520   6.565   5.773   3.557
 6874SOL    HW121521   6.543   5.819   3.644
 6874SOL    HW221522   6.656   5.802   3.527
 6875SOL     OW21523   2.083   2.077   2.392
 6875SOL    HW121524   2.082   2.002   2.326
 6875SOL    HW221525   2.168   2.128   2.383
 6876SOL     OW21526   3.556   6.999   3.655
 6876SOL    HW121527   3.487   0.036   3.691
 6876SOL    HW221528   3.521   6.905   3.659
 6877SOL     OW21529   3.325   4.333   1.716
 6877SOL    HW121530   3.236   4.293   1.737
 6877SOL    HW221531   3.391   4.259   1.697
 6878SOL     OW21532   2.562   2.082   3.341
 6878SOL    HW121533   2.485   2.127   3.386
 6878SOL    HW221534   2.547   1.983   3.340
 6879SOL     OW21535   2.566   2.762   0.433
 6879SOL    HW121536   2.491   2.789   0.373
 6879SOL    HW221537   2.535   2.762   0.528
 6880SOL     OW21538   1.151   6.680   5.966
 6880SOL    HW121539   1.184   6.670   5.872
 6880SOL    HW221540   1.074   6.744   5.968
 6881SOL     OW21541   1.369   3.401   1.480
 6881SOL    HW121542   1.364   3.308   1.516
 6881SOL    HW221543   1.450   3.447   1.517
 6882SOL     OW21544   2.748   0.975   0.482
 6882SOL    HW121545   2.667   0.974   0.541
 6882SOL    HW221546   2.830   0.976   0.538
 6883SOL     OW21547   5.443   1.240   6.138
 6883SOL    HW121548   5.375   1.173   6.108
 6883SOL    HW221549   5.401   1.330   6.144
 6884SOL     OW21550   1.693   3.977   2.679
 6884SOL    HW121551   1.739   3.945   2.596
 6884SOL    HW221552   1.739   3.940   2.759
 6885SOL     OW21553   4.910   4.912   4.056
 6885SOL    HW121554   4.892   4.830   4.002
 6885SOL    HW221555   4.825   4.944   4.099
 6886SOL     OW21556   6.739   1.554   4.844
 6886SOL    HW121557   6.763   1.624   4.911
 6886SOL    HW221558   6.669   1.494   4.882
 6887SOL     OW21559   4.523   5.649   0.167
 6887SOL    HW121560   4.445   5.656   0.105
 6887SOL    HW221561   4.550   5.741   0.197
 6888SOL     OW21562   5.255   4.435   6.355
 6888SOL    HW121563   5.189   4.454   6.427
 6888SOL    HW221564   5.299   4.521   6.327
 6889SOL     OW21565   2.129   2.316   5.711
 6889SOL    HW121566   2.075   2.333   5.794
 6889SOL    HW221567   2.072   2.330   5.631
 6890SOL     OW21568   3.817   5.799   3.072
 6890SOL    HW121569   3.756   5.721   3.085
 6890SOL    HW221570   3.772   5.882   3.106
 6891SOL     OW21571   2.209   3.149   1.455
 6891SOL    HW121572   2.237   3.082   1.524
 6891SOL    HW221573   2.238   3.241   1.484
 6892SOL     OW21574   3.142   1.286   3.880
 6892SOL    HW121575   3.189   1.295   3.793
 6892SOL    HW221576   3.064   1.224   3.870
 6893SOL     OW21577   5.656   3.400   0.608
 6893SOL    HW121578   5.751   3.371   0.617
 6893SOL    HW221579   5.649   3.497   0.631
 6894SOL     OW21580   5.158   4.980   1.199
 6894SOL    HW121581   5.110   4.961   1.285
 6894SOL    HW221582   5.202   5.070   1.204
 6895SOL     OW21583   1.890   5.653   1.001
 6895SOL    HW121584   1.955   5.579   1.018
 6895SOL    HW221585   1.797   5.617   1.007
 6896SOL     OW21586   2.971   1.744   3.925
 6896SOL    HW121587   3.033   1.769   3.850
 6896SOL    HW221588   3.018   1.758   4.012
 6897SOL     OW21589   4.919   3.862   5.129
 6897SOL    HW121590   4.881   3.784   5.079
 6897SOL    HW221591   4.881   3.946   5.091
 6898SOL     OW21592   3.452   1.369   1.734
 6898SOL    HW121593   3.358   1.356   1.703
 6898SOL    HW221594   3.470   1.466   1.749
 6899SOL     OW21595   4.938   6.342   2.553
 6899SOL    HW121596   5.021   6.325   2.606
 6899SOL    HW221597   4.916   6.262   2.498
 6900SOL     OW21598   6.844   4.737   5.772
 6900SOL    HW121599   6.904   4.659   5.788
 6900SOL    HW221600   6.758   4.724   5.820
 6901SOL     OW21601   4.456   5.365   6.275
 6901SOL    HW121602   4.534   5.313   6.309
 6901SOL    HW221603   4.380   5.303   6.255
 6902SOL     OW21604   6.575   5.886   5.469
 6902SOL    HW121605   6.594   5.906   5.372
 6902SOL    HW221606   6.510   5.954   5.504
 6903SOL     OW21607   3.079   4.748   5.198
 6903SOL    HW121608   3.019   4.672   5.173
 6903SOL    HW221609   3.023   4.824   5.232
 6904SOL     OW21610   6.397   6.525   5.634
 6904SOL    HW121611   6.342   6.450   5.671
 6904SOL    HW221612   6.494   6.503   5.645
 6905SOL     OW21613   5.362   5.351   6.591
 6905SOL    HW121614   5.454   5.381   6.567
 6905SOL    HW221615   5.357   5.331   6.688
 6906SOL     OW21616   3.579   1.167   3.492
 6906SOL    HW121617   3.497   1.119   3.462
 6906SOL    HW221618   3.649   1.162   3.421
 6907SOL     OW21619   6.479   2.662   1.862
 6907SOL    HW121620   6.439   2.738   1.913
 6907SOL    HW221621   6.530   2.698   1.784
 6908SOL     OW21622   2.608   5.168   6.757
 6908SOL    HW121623   2.681   5.124   6.811
 6908SOL    HW221624   2.624   5.151   6.660
 6909SOL     OW21625   5.558   4.772   1.829
 6909SOL    HW121626   5.557   4.724   1.741
 6909SOL    HW221627   5.522   4.712   1.900
 6910SOL     OW21628   1.452   2.672   2.855
 6910SOL    HW121629   1.512   2.608   2.807
 6910SOL    HW221630   1.369   2.624   2.885
 6911SOL     OW21631   4.190   0.052   4.854
 6911SOL    HW121632   4.206   0.086   4.761
 6911SOL    HW221633   4.198   6.979   4.855
 6912SOL     OW21634   2.567   3.485   6.554
 6912SOL    HW121635   2.621   3.569   6.553
 6912SOL    HW221636   2.562   3.450   6.648
 6913SOL     OW21637   5.033   6.910   4.683
 6913SOL    HW121638   5.051   6.885   4.778
 6913SOL    HW221639   4.946   6.959   4.677
 6914SOL     OW21640   6.214   4.234   2.996
 6914SOL    HW121641   6.267   4.198   2.919
 6914SOL    HW221642   6.125   4.266   2.963
 6915SOL     OW21643   0.820   2.192   2.393
 6915SOL    HW121644   0.724   2.211   2.412
 6915SOL    HW221645   0.842   2.098   2.417
 6916SOL     OW21646   5.624   1.623   6.049
 6916SOL    HW121647   5.663   1.577   6.129
 6916SOL    HW221648   5.575   1.705   6.079
 6917SOL     OW21649   4.002   5.912   2.116
 6917SOL    HW121650   4.070   5.884   2.183
 6917SOL    HW221651   3.998   5.844   2.042
 6918SOL     OW21652   0.230   2.571   3.474
 6918SOL    HW121653   0.234   2.473   3.457
 6918SOL    HW221654   0.236   2.588   3.572
 6919SOL     OW21655   6.628   5.903   3.097
 6919SOL    HW121656   6.569   5.844   3.152
 6919SOL    HW221657   6.605   5.999   3.113
 6920SOL     OW21658   5.453   0.085   5.736
 6920SOL    HW121659   5.459   0.011   5.803
 6920SOL    HW221660   5.444   0.173   5.784
 6921SOL     OW21661   3.747   0.271   3.864
 6921SOL    HW121662   3.745   0.204   3.790
 6921SOL    HW221663   3.759   0.363   3.827
 6922SOL     OW21664   1.854   6.503   5.117
 6922SOL    HW121665   1.821   6.408   5.108
 6922SOL    HW221666   1.953   6.505   5.109
 6923SOL     OW21667   6.010   6.463   2.156
 6923SOL    HW121668   6.058   6.550   2.170
 6923SOL    HW221669   5.953   6.469   2.075
 6924SOL     OW21670   3.146   5.175   0.562
 6924SOL    HW121671   3.086   5.125   0.625
 6924SOL    HW221672   3.095   5.198   0.479
 6925SOL     OW21673   4.298   5.750   5.204
 6925SOL    HW121674   4.340   5.807   5.276
 6925SOL    HW221675   4.316   5.791   5.115
 6926SOL     OW21676   2.122   2.083   0.646
 6926SOL    HW121677   2.124   2.030   0.731
 6926SOL    HW221678   2.188   2.158   0.653
 6927SOL     OW21679   3.304   1.711   6.730
 6927SOL    HW121680   3.338   1.802   6.752
 6927SOL    HW221681   3.204   1.711   6.734
 6928SOL     OW21682   5.071   6.006   0.874
 6928SOL    HW121683   5.078   5.953   0.959
 6928SOL    HW221684   5.059   5.945   0.797
 6929SOL     OW21685   5.286   6.087   1.881
 6929SOL    HW121686   5.210   6.109   1.821
 6929SOL    HW221687   5.287   5.988   1.898
 6930SOL     OW21688   0.581   0.797   0.774
 6930SOL    HW121689   0.634   0.835   0.850
 6930SOL    HW221690   0.535   0.713   0.803
 6931SOL     OW21691   1.610   1.616   1.780
 6931SOL    HW121692   1.582   1.520   1.774
 6931SOL    HW221693   1.631   1.638   1.875
 6932SOL     OW21694   4.723   5.843   1.126
 6932SOL    HW121695   4.786   5.857   1.203
 6932SOL    HW221696   4.629   5.836   1.161
 6933SOL     OW21697   3.372   6.831   6.159
 6933SOL    HW121698   3.373   6.739   6.199
 6933SOL    HW221699   3.330   6.894   6.224
 6934SOL     OW21700   5.081   3.272   5.920
 6934SOL    HW121701   5.042   3.290   6.010
 6934SOL    HW221702   5.018   3.217   5.866
 6935SOL     OW21703   4.330   5.938   2.825
 6935SOL    HW121704   4.284   5.871   2.767
 6935SOL    HW221705   4.284   6.026   2.817
 6936SOL     OW21706   0.063   2.515   4.276
 6936SOL    HW121707   0.154   2.483   4.252
 6936SOL    HW221708   0.031   2.468   4.358
 6937SOL     OW21709   5.578   6.533   0.764
 6937SOL    HW121710   5.516   6.502   0.691
 6937SOL    HW221711   5.574   6.469   0.840
 6938SOL     OW21712   0.568   1.997   4.480
 6938SOL    HW121713   0.605   1.942   4.555
 6938SOL    HW221714   0.494   2.054   4.515
 6939SOL     OW21715   6.484   5.198   2.675
 6939SOL    HW121716   6.421   5.144   2.731
 6939SOL    HW221717   6.551   5.243   2.735
 6940SOL     OW21718   4.340   6.670   0.307
 6940SOL    HW121719   4.329   6.752   0.363
 6940SOL    HW221720   4.321   6.692   0.211
 6941SOL     OW21721   2.975   3.672   2.269
 6941SOL    HW121722   3.066   3.656   2.307
 6941SOL    HW221723   2.981   3.684   2.170
 6942SOL     OW21724   6.090   0.079   1.744
 6942SOL    HW121725   6.060   0.053   1.652
 6942SOL    HW221726   6.016   0.066   1.809
 6943SOL     OW21727   3.958   4.775   0.340
 6943SOL    HW121728   4.018   4.716   0.394
 6943SOL    HW221729   4.011   4.853   0.305
 6944SOL     OW21730   0.806   5.151   6.329
 6944SOL    HW121731   0.753   5.134   6.412
 6944SOL    HW221732   0.802   5.248   6.306
 6945SOL     OW21733   6.864   2.713   1.508
 6945SOL    HW121734   6.834   2.760   1.592
 6945SOL    HW221735   6.919   2.633   1.532
 6946SOL     OW21736   3.896   6.090   1.781
 6946SOL    HW121737   3.916   6.165   1.844
 6946SOL    HW221738   3.838   6.023   1.827
 6947SOL     OW21739   4.059   5.021   6.099
 6947SOL    HW121740   3.993   5.032   6.025
 6947SOL    HW221741   4.011   5.000   6.184
 6948SOL     OW21742   0.447   5.775   0.959
 6948SOL    HW121743   0.399   5.686   0.960
 6948SOL    HW221744   0.534   5.766   1.007
 6949SOL     OW21745   2.492   2.013   2.987
 6949SOL    HW121746   2.538   2.098   2.962
 6949SOL    HW221747   2.462   1.966   2.904
 6950SOL     OW21748   1.858   0.378   4.391
 6950SOL    HW121749   1.828   0.320   4.315
 6950SOL    HW221750   1.779   0.404   4.446
 6951SOL     OW21751   6.452   5.952   6.561
 6951SOL    HW121752   6.467   5.874   6.622
 6951SOL    HW221753   6.520   6.022   6.579
 6952SOL     OW21754   2.045   5.249   3.066
 6952SOL    HW121755   2.077   5.156   3.084
 6952SOL    HW221756   2.117   5.314   3.088
 6953SOL     OW21757   4.872   6.902   0.239
 6953SOL    HW121758   4.816   6.974   0.280
 6953SOL    HW221759   4.814   6.824   0.215
 6954SOL     OW21760   0.071   3.952   1.624
 6954SOL    HW121761   7.004   3.917   1.633
 6954SOL    HW221762   0.114   3.910   1.543
 6955SOL     OW21763   4.680   0.589   2.314
 6955SOL    HW121764   4.596   0.638   2.337
 6955SOL    HW221765   4.728   0.637   2.241
 6956SOL     OW21766   5.284   5.182   3.324
 6956SOL    HW121767   5.379   5.213   3.321
 6956SOL    HW221768   5.238   5.205   3.238
 6957SOL     OW21769   5.966   6.211   0.125
 6957SOL    HW121770   6.026   6.179   0.198
 6957SOL    HW221771   5.956   6.140   0.056
 6958SOL     OW21772   3.479   3.654   4.098
 6958SOL    HW121773   3.497   3.591   4.174
 6958SOL    HW221774   3.401   3.712   4.121
 6959SOL     OW21775   1.597   3.676   2.647
 6959SOL    HW121776   1.666   3.686   2.718
 6959SOL    HW221777   1.552   3.587   2.656
 6960SOL     OW21778   2.425   4.177   1.002
 6960SOL    HW121779   2.416   4.264   1.050
 6960SOL    HW221780   2.379   4.183   0.913
 6961SOL     OW21781   5.268   1.243   4.917
 6961SOL    HW121782   5.271   1.146   4.938
 6961SOL    HW221783   5.339   1.291   4.968
 6962SOL     OW21784   4.283   5.856   0.991
 6962SOL    HW121785   4.268   5.896   1.081
 6962SOL    HW221786   4.251   5.919   0.921
 6963SOL     OW21787   5.374   4.612   0.279
 6963SOL    HW121788   5.425   4.528   0.261
 6963SOL    HW221789   5.414   4.688   0.227
 6964SOL     OW21790   3.726   0.224   5.697
 6964SOL    HW121791   3.807   0.245   5.643
 6964SOL    HW221792   3.701   0.304   5.751
 6965SOL     OW21793   1.762   1.519   0.120
 6965SOL    HW121794   1.730   1.546   0.211
 6965SOL    HW221795   1.833   1.582   0.089
 6966SOL     OW21796   0.850   0.668   2.608
 6966SOL    HW121797   0.871   0.696   2.514
 6966SOL    HW221798   0.883   0.575   2.622
 6967SOL     OW21799   3.456   1.196   6.139
 6967SOL    HW121800   3.534   1.210   6.078
 6967SOL    HW221801   3.381   1.257   6.112
 6968SOL     OW21802   2.565   0.868   3.159
 6968SOL    HW121803   2.634   0.803   3.127
 6968SOL    HW221804   2.609   0.939   3.214
 6969SOL     OW21805   3.531   2.024   1.171
 6969SOL    HW121806   3.611   2.054   1.223
 6969SOL    HW221807   3.548   2.036   1.073
 6970SOL     OW21808   4.079   3.838   5.492
 6970SOL    HW121809   4.093   3.850   5.590
 6970SOL    HW221810   4.148   3.890   5.442
 6971SOL     OW21811   5.623   5.218   1.054
 6971SOL    HW121812   5.635   5.175   0.964
 6971SOL    HW221813   5.639   5.149   1.125
 6972SOL     OW21814   5.544   3.346   2.223
 6972SOL    HW121815   5.455   3.390   2.213
 6972SOL    HW221816   5.532   3.246   2.227
 6973SOL     OW21817   1.047   2.673   3.568
 6973SOL    HW121818   0.988   2.614   3.621
 6973SOL    HW221819   1.142   2.644   3.580
 6974SOL     OW21820   2.924   3.554   2.676
 6974SOL    HW121821   2.937   3.649   2.649
 6974SOL    HW221822   2.902   3.499   2.595
 6975SOL     OW21823   1.984   6.512   4.547
 6975SOL    HW121824   1.937   6.556   4.471
 6975SOL    HW221825   1.930   6.521   4.630
 6976SOL     OW21826   5.712   4.173   5.711
 6976SOL    HW121827   5.798   4.224   5.716
 6976SOL    HW221828   5.669   4.189   5.623
 6977SOL     OW21829   3.988   4.077   1.132
 6977SOL    HW121830   3.952   4.029   1.052
 6977SOL    HW221831   4.023   4.011   1.198
 6978SOL     OW21832   5.058   3.043   1.325
 6978SOL    HW121833   5.135   3.008   1.379
 6978SOL    HW221834   5.000   2.966   1.298
 6979SOL     OW21835   1.460   3.152   1.205
 6979SOL    HW121836   1.438   3.241   1.166
 6979SOL    HW221837   1.379   3.114   1.251
 6980SOL     OW21838   1.981   0.994   3.660
 6980SOL    HW121839   2.056   0.963   3.602
 6980SOL    HW221840   1.969   0.930   3.736
 6981SOL     OW21841   3.672   3.418   5.854
 6981SOL    HW121842   3.752   3.444   5.800
 6981SOL    HW221843   3.699   3.355   5.927
 6982SOL     OW21844   1.124   1.042   4.072
 6982SOL    HW121845   1.162   1.132   4.052
 6982SOL    HW221846   1.131   1.023   4.170
 6983SOL     OW21847   5.145   1.480   5.102
 6983SOL    HW121848   5.215   1.482   5.030
 6983SOL    HW221849   5.065   1.431   5.069
 6984SOL     OW21850   1.505   1.718   2.644
 6984SOL    HW121851   1.502   1.810   2.605
 6984SOL    HW221852   1.427   1.666   2.612
 6985SOL     OW21853   6.228   5.087   6.984
 6985SOL    HW121854   6.247   5.171   0.009
 6985SOL    HW221855   6.145   5.099   6.930
 6986SOL     OW21856   3.465   6.910   6.519
 6986SOL    HW121857   3.562   6.919   6.497
 6986SOL    HW221858   3.452   6.911   6.618
 6987SOL     OW21859   0.123   1.310   5.742
 6987SOL    HW121860   0.141   1.398   5.785
 6987SOL    HW221861   0.209   1.261   5.729
 6988SOL     OW21862   1.929   0.051   6.388
 6988SOL    HW121863   1.982   7.026   6.456
 6988SOL    HW221864   1.836   0.063   6.422
 6989SOL     OW21865   6.464   4.806   2.510
 6989SOL    HW121866   6.409   4.861   2.573
 6989SOL    HW221867   6.529   4.751   2.562
 6990SOL     OW21868   3.906   2.617   1.282
 6990SOL    HW121869   3.859   2.639   1.368
 6990SOL    HW221870   4.001   2.593   1.301
 6991SOL     OW21871   5.538   4.220   3.119
 6991SOL    HW121872   5.626   4.241   3.077
 6991SOL    HW221873   5.527   4.120   3.125
 6992SOL     OW21874   6.858   5.889   0.458
 6992SOL    HW121875   6.765   5.851   0.455
 6992SOL    HW221876   6.853   5.988   0.448
 6993SOL     OW21877   6.525   0.272   1.369
 6993SOL    HW121878   6.441   0.272   1.315
 6993SOL    HW221879   6.516   0.335   1.446
 6994SOL     OW21880   1.592   0.863   4.212
 6994SOL    HW121881   1.658   0.937   4.198
 6994SOL    HW221882   1.540   0.881   4.295
 6995SOL     OW21883   0.199   4.105   0.444
 6995SOL    HW121884   0.215   4.063   0.533
 6995SOL    HW221885   0.112   4.154   0.445
 6996SOL     OW21886   1.260   0.606   0.946
 6996SOL    HW121887   1.278   0.600   0.848
 6996SOL    HW221888   1.246   0.515   0.983
 6997SOL     OW21889   0.352   4.857   4.442
 6997SOL    HW121890   0.355   4.883   4.538
 6997SOL    HW221891   0.388   4.931   4.386
 6998SOL     OW21892   0.929   1.708   1.502
 6998SOL    HW121893   0.874   1.720   1.420
 6998SOL    HW221894   1.026   1.722   1.479
 6999SOL     OW21895   1.025   2.535   6.483
 6999SOL    HW121896   1.006   2.587   6.566
 6999SOL    HW221897   1.008   2.438   6.499
 7000SOL     OW21898   5.885   0.878   1.802
 7000SOL    HW121899   5.831   0.960   1.821
 7000SOL    HW221900   5.979   0.904   1.779
 7001SOL     OW21901   0.876   1.984   5.750
 7001SOL    HW121902   0.860   1.964   5.846
 7001SOL    HW221903   0.915   2.076   5.741
 7002SOL     OW21904   1.632   5.463   3.944
 7002SOL    HW121905   1.553   5.435   3.997
 7002SOL    HW221906   1.714   5.461   4.002
 7003SOL     OW21907   4.920   5.489   1.561
 7003SOL    HW121908   4.861   5.496   1.481
 7003SOL    HW221909   5.015   5.482   1.531
 7004SOL     OW21910   1.076   5.409   0.240
 7004SOL    HW121911   1.036   5.418   0.148
 7004SOL    HW221912   1.048   5.322   0.279
 7005SOL     OW21913   0.530   0.264   0.068
 7005SOL    HW121914   0.615   0.311   0.090
 7005SOL    HW221915   0.466   0.330   0.027
 7006SOL     OW21916   6.660   6.507   3.195
 7006SOL    HW121917   6.600   6.489   3.273
 7006SOL    HW221918   6.729   6.435   3.188
 7007SOL     OW21919   4.176   0.430   4.945
 7007SOL    HW121920   4.255   0.491   4.934
 7007SOL    HW221921   4.133   0.415   4.856
 7008SOL     OW21922   6.887   4.443   4.016
 7008SOL    HW121923   6.831   4.442   4.099
 7008SOL    HW221924   6.983   4.451   4.041
 7009SOL     OW21925   4.474   6.674   1.704
 7009SOL    HW121926   4.503   6.716   1.618
 7009SOL    HW221927   4.405   6.732   1.748
 7010SOL     OW21928   5.900   4.591   3.469
 7010SOL    HW121929   5.894   4.655   3.392
 7010SOL    HW221930   5.833   4.617   3.539
 7011SOL     OW21931   3.820   6.708   0.723
 7011SOL    HW121932   3.776   6.770   0.789
 7011SOL    HW221933   3.762   6.699   0.642
 7012SOL     OW21934   1.378   2.090   1.304
 7012SOL    HW121935   1.409   2.183   1.326
 7012SOL    HW221936   1.327   2.092   1.218
 7013SOL     OW21937   2.347   0.198   6.462
 7013SOL    HW121938   2.354   0.213   6.363
 7013SOL    HW221939   2.329   0.285   6.507
 7014SOL     OW21940   5.392   3.279   1.007
 7014SOL    HW121941   5.373   3.345   1.079
 7014SOL    HW221942   5.329   3.202   1.015
 7015SOL     OW21943   5.704   4.664   2.154
 7015SOL    HW121944   5.680   4.652   2.250
 7015SOL    HW221945   5.621   4.680   2.100
 7016SOL     OW21946   3.914   5.007   1.227
 7016SOL    HW121947   3.829   5.052   1.257
 7016SOL    HW221948   3.988   5.074   1.225
 7017SOL     OW21949   2.722   5.087   3.065
 7017SOL    HW121950   2.704   5.028   2.986
 7017SOL    HW221951   2.658   5.164   3.065
 7018SOL     OW21952   5.199   3.838   4.014
 7018SOL    HW121953   5.224   3.741   4.010
 7018SOL    HW221954   5.138   3.854   4.091
 7019SOL     OW21955   4.402   5.509   2.227
 7019SOL    HW121956   4.486   5.549   2.266
 7019SOL    HW221957   4.382   5.554   2.140
 7020SOL     OW21958   0.345   3.843   6.946
 7020SOL    HW121959   0.343   3.743   6.938
 7020SOL    HW221960   0.395   3.882   6.869
 7021SOL     OW21961   1.520   2.979   4.382
 7021SOL    HW121962   1.572   2.904   4.423
 7021SOL    HW221963   1.552   3.066   4.418
 7022SOL     OW21964   4.647   0.424   0.015
 7022SOL    HW121965   4.711   0.363   6.995
 7022SOL    HW221966   4.696   0.477   0.084
 7023SOL     OW21967   0.403   2.509   1.522
 7023SOL    HW121968   0.320   2.497   1.577
 7023SOL    HW221969   0.404   2.601   1.484
 7024SOL     OW21970   4.016   3.270   3.231
 7024SOL    HW121971   4.005   3.201   3.303
 7024SOL    HW221972   4.074   3.344   3.265
 7025SOL     OW21973   3.613   0.193   0.355
 7025SOL    HW121974   3.569   0.103   0.355
 7025SOL    HW221975   3.692   0.191   0.293
 7026SOL     OW21976   3.763   2.078   2.255
 7026SOL    HW121977   3.719   2.104   2.341
 7026SOL    HW221978   3.732   2.140   2.182
 7027SOL     OW21979   2.326   6.208   3.821
 7027SOL    HW121980   2.254   6.221   3.889
 7027SOL    HW221981   2.294   6.242   3.732
 7028SOL     OW21982   2.581   0.204   3.889
 7028SOL    HW121983   2.593   0.109   3.861
 7028SOL    HW221984   2.668   0.253   3.882
 7029SOL     OW21985   3.539   3.921   5.500
 7029SOL    HW121986   3.614   3.928   5.434
 7029SOL    HW221987   3.568   3.959   5.588
 7030SOL     OW21988   0.659   1.796   4.979
 7030SOL    HW121989   0.622   1.860   5.046
 7030SOL    HW221990   0.627   1.704   4.999
 7031SOL     OW21991   4.183   6.299   0.597
 7031SOL    HW121992   4.132   6.378   0.563
 7031SOL    HW221993   4.200   6.235   0.523
 7032SOL     OW21994   4.444   0.793   3.589
 7032SOL    HW121995   4.424   0.701   3.623
 7032SOL    HW221996   4.363   0.850   3.599
 7033SOL     OW21997   1.968   2.693   4.046
 7033SOL    HW121998   1.924   2.747   4.118
 7033SOL    HW221999   1.917   2.703   3.961
 7034SOL     OW22000   6.858   3.196   3.328
 7034SOL    HW122001   6.820   3.124   3.386
 7034SOL    HW222002   6.837   3.175   3.232
 7035SOL     OW22003   2.551   0.277   1.311
 7035SOL    HW122004   2.558   0.272   1.211
 7035SOL    HW222005   2.476   0.220   1.343
 7036SOL     OW22006   6.999   2.282   2.460
 7036SOL    HW122007   6.935   2.268   2.384
 7036SOL    HW222008   6.964   2.238   2.542
 7037SOL     OW22009   0.682   1.526   5.807
 7037SOL    HW122010   0.753   1.511   5.876
 7037SOL    HW222011   0.712   1.596   5.743
 7038SOL     OW22012   2.302   4.492   5.524
 7038SOL    HW122013   2.356   4.533   5.450
 7038SOL    HW222014   2.271   4.564   5.586
 7039SOL     OW22015   0.390   5.963   3.641
 7039SOL    HW122016   0.451   5.988   3.716
 7039SOL    HW222017   0.445   5.944   3.559
 7040SOL     OW22018   4.456   2.051   5.145
 7040SOL    HW122019   4.531   2.057   5.079
 7040SOL    HW222020   4.369   2.064   5.099
 7041SOL     OW22021   0.965   1.619   3.556
 7041SOL    HW122022   1.013   1.707   3.554
 7041SOL    HW222023   0.985   1.573   3.642
 7042SOL     OW22024   4.257   5.729   4.394
 7042SOL    HW122025   4.348   5.767   4.380
 7042SOL    HW222026   4.265   5.633   4.422
 7043SOL     OW22027   2.691   4.611   3.514
 7043SOL    HW122028   2.607   4.558   3.506
 7043SOL    HW222029   2.714   4.623   3.611
 7044SOL     OW22030   4.779   0.509   4.654
 7044SOL    HW122031   4.861   0.454   4.669
 7044SOL    HW222032   4.793   0.600   4.692
 7045SOL     OW22033   5.661   5.569   2.309
 7045SOL    HW122034   5.751   5.533   2.285
 7045SOL    HW222035   5.659   5.589   2.408
 7046SOL     OW22036   3.147   2.146   3.753
 7046SOL    HW122037   3.181   2.137   3.659
 7046SOL    HW222038   3.222   2.173   3.813
 7047SOL     OW22039   0.162   0.997   1.176
 7047SOL    HW122040   0.093   0.946   1.227
 7047SOL    HW222041   0.155   0.974   1.079
 7048SOL     OW22042   5.891   6.629   4.636
 7048SOL    HW122043   5.902   6.709   4.695
 7048SOL    HW222044   5.810   6.641   4.578
 7049SOL     OW22045   3.701   1.202   2.051
 7049SOL    HW122046   3.734   1.120   2.099
 7049SOL    HW222047   3.772   1.234   1.988
 7050SOL     OW22048   3.878   4.575   0.871
 7050SOL    HW122049   3.831   4.610   0.790
 7050SOL    HW222050   3.888   4.648   0.938
 7051SOL     OW22051   6.390   6.299   1.034
 7051SOL    HW122052   6.409   6.395   1.013
 7051SOL    HW222053   6.472   6.245   1.016
 7052SOL     OW22054   5.875   0.078   3.527
 7052SOL    HW122055   5.928   7.026   3.496
 7052SOL    HW222056   5.857   0.139   3.450
 7053SOL     OW22057   2.073   3.751   3.858
 7053SOL    HW122058   2.076   3.818   3.785
 7053SOL    HW222059   2.094   3.795   3.945
 7054SOL     OW22060   6.876   6.738   1.043
 7054SOL    HW122061   6.927   6.822   1.059
 7054SOL    HW222062   6.844   6.701   1.130
 7055SOL     OW22063   2.685   0.450   0.280
 7055SOL    HW122064   2.672   0.541   0.320
 7055SOL    HW222065   2.775   0.446   0.237
 7056SOL     OW22066   6.962   5.599   0.911
 7056SOL    HW122067   6.866   5.622   0.900
 7056SOL    HW222068   6.983   5.587   1.008
 7057SOL     OW22069   3.305   5.788   4.333
 7057SOL    HW122070   3.365   5.867   4.344
 7057SOL    HW222071   3.238   5.806   4.261
 7058SOL     OW22072   5.640   2.132   6.459
 7058SOL    HW122073   5.733   2.102   6.476
 7058SOL    HW222074   5.583   2.113   6.540
 7059SOL     OW22075   1.661   1.292   4.956
 7059SOL    HW122076   1.704   1.260   4.871
 7059SOL    HW222077   1.699   1.243   5.034
 7060SOL     OW22078   3.576   6.242   1.935
 7060SOL    HW122079   3.644   6.206   1.999
 7060SOL    HW222080   3.613   6.239   1.842
 7061SOL     OW22081   0.356   2.123   2.406
 7061SOL    HW122082   0.283   2.092   2.467
 7061SOL    HW222083   0.390   2.211   2.437
 7062SOL     OW22084   4.377   1.781   4.216
 7062SOL    HW122085   4.346   1.825   4.132
 7062SOL    HW222086   4.302   1.779   4.282
 7063SOL     OW22087   0.302   6.419   2.021
 7063SOL    HW122088   0.310   6.519   2.019
 7063SOL    HW222089   0.207   6.393   2.006
 7064SOL     OW22090   4.444   2.040   6.146
 7064SOL    HW122091   4.390   1.956   6.142
 7064SOL    HW222092   4.433   2.082   6.236
 7065SOL     OW22093   3.510   4.432   5.310
 7065SOL    HW122094   3.459   4.366   5.365
 7065SOL    HW222095   3.543   4.388   5.227
 7066SOL     OW22096   4.601   1.152   6.800
 7066SOL    HW122097   4.631   1.064   6.837
 7066SOL    HW222098   4.553   1.204   6.871
 7067SOL     OW22099   1.364   3.618   6.912
 7067SOL    HW122100   1.269   3.647   6.909
 7067SOL    HW222101   1.419   3.677   6.853
 7068SOL     OW22102   5.906   4.545   4.289
 7068SOL    HW122103   5.959   4.600   4.225
 7068SOL    HW222104   5.966   4.476   4.330
 7069SOL     OW22105   6.151   2.070   5.794
 7069SOL    HW122106   6.241   2.086   5.834
 7069SOL    HW222107   6.100   2.005   5.851
 7070SOL     OW22108   0.745   6.800   5.086
 7070SOL    HW122109   0.750   6.891   5.127
 7070SOL    HW222110   0.650   6.778   5.062
 7071SOL     OW22111   4.814   6.436   6.732
 7071SOL    HW122112   4.792   6.477   6.643
 7071SOL    HW222113   4.795   6.501   6.805
 7072SOL     OW22114   1.850   4.242   6.935
 7072SOL    HW122115   1.756   4.275   6.928
 7072SOL    HW222116   1.906   4.309   6.985
 7073SOL     OW22117   3.900   0.178   3.169
 7073SOL    HW122118   3.870   0.104   3.109
 7073SOL    HW222119   3.840   0.184   3.248
 7074SOL     OW22120   0.080   3.651   4.115
 7074SOL    HW122121   0.037   3.688   4.032
 7074SOL    HW222122   0.024   3.576   4.150
 7075SOL     OW22123   3.093   4.959   4.775
 7075SOL    HW122124   3.017   4.901   4.804
 7075SOL    HW222125   3.171   4.944   4.836
 7076SOL     OW22126   5.800   3.308   1.745
 7076SOL    HW122127   5.897   3.299   1.722
 7076SOL    HW222128   5.762   3.218   1.767
 7077SOL     OW22129   2.396   4.752   2.700
 7077SOL    HW122130   2.488   4.715   2.691
 7077SOL    HW222131   2.398   4.851   2.682
 7078SOL     OW22132   5.163   6.601   0.637
 7078SOL    HW122133   5.219   6.522   0.663
 7078SOL    HW222134   5.079   6.570   0.594
 7079SOL     OW22135   0.996   6.752   4.209
 7079SOL    HW122136   1.007   6.741   4.110
 7079SOL    HW222137   0.900   6.737   4.234
 7080SOL     OW22138   4.082   1.936   4.301
 7080SOL    HW122139   4.064   2.031   4.276
 7080SOL    HW222140   4.019   1.909   4.375
 7081SOL     OW22141   1.420   6.523   0.231
 7081SOL    HW122142   1.414   6.467   0.148
 7081SOL    HW222143   1.490   6.487   0.291
 7082SOL     OW22144   6.849   3.827   1.663
 7082SOL    HW122145   6.823   3.743   1.710
 7082SOL    HW222146   6.796   3.836   1.578
 7083SOL     OW22147   0.285   1.624   2.049
 7083SOL    HW122148   0.352   1.620   2.123
 7083SOL    HW222149   0.227   1.705   2.061
 7084SOL     OW22150   0.227   5.927   5.244
 7084SOL    HW122151   0.276   5.928   5.330
 7084SOL    HW222152   0.143   5.874   5.254
 7085SOL     OW22153   6.708   2.449   2.634
 7085SOL    HW122154   6.768   2.477   2.559
 7085SOL    HW222155   6.760   2.392   2.698
 7086SOL     OW22156   5.882   0.167   0.071
 7086SOL    HW122157   5.961   0.117   0.107
 7086SOL    HW222158   5.879   0.156   6.997
 7087SOL     OW22159   5.151   3.475   2.665
 7087SOL    HW122160   5.127   3.564   2.628
 7087SOL    HW222161   5.251   3.469   2.676
 7088SOL     OW22162   5.754   2.137   5.030
 7088SOL    HW122163   5.796   2.135   4.939
 7088SOL    HW222164   5.756   2.231   5.066
 7089SOL     OW22165   2.972   4.848   2.591
 7089SOL    HW122166   3.065   4.854   2.625
 7089SOL    HW222167   2.973   4.836   2.491
 7090SOL     OW22168   2.963   1.010   0.682
 7090SOL    HW122169   2.916   1.060   0.754
 7090SOL    HW222170   3.022   1.072   0.630
 7091SOL     OW22171   0.985   0.689   1.254
 7091SOL    HW122172   0.995   0.720   1.159
 7091SOL    HW222173   1.074   0.661   1.290
 7092SOL     OW22174   4.355   2.774   6.134
 7092SOL    HW122175   4.399   2.688   6.108
 7092SOL    HW222176   4.283   2.796   6.067
 7093SOL     OW22177   3.364   3.686   1.044
 7093SOL    HW122178   3.402   3.755   1.106
 7093SOL    HW222179   3.417   3.601   1.053
 7094SOL     OW22180   1.599   6.476   5.307
 7094SOL    HW122181   1.656   6.539   5.359
 7094SOL    HW222182   1.647   6.449   5.223
 7095SOL     OW22183   3.243   4.731   5.482
 7095SOL    HW122184   3.320   4.671   5.503
 7095SOL    HW222185   3.239   4.747   5.383
 7096SOL     OW22186   6.648   0.945   1.748
 7096SOL    HW122187   6.685   0.975   1.660
 7096SOL    HW222188   6.722   0.916   1.808
 7097SOL     OW22189   5.158   0.508   2.502
 7097SOL    HW122190   5.147   0.409   2.494
 7097SOL    HW222191   5.216   0.541   2.428
 7098SOL     OW22192   2.187   6.817   4.985
 7098SOL    HW122193   2.225   6.880   5.053
 7098SOL    HW222194   2.238   6.826   4.900
 7099SOL     OW22195   3.564   2.150   4.087
 7099SOL    HW122196   3.495   2.204   4.135
 7099SOL    HW222197   3.536   2.054   4.085
 7100SOL     OW22198   0.261   3.976   0.688
 7100SOL    HW122199   0.341   3.916   0.696
 7100SOL    HW222200   0.178   3.924   0.713
 7101SOL     OW22201   2.481   6.733   5.175
 7101SOL    HW122202   2.494   6.823   5.132
 7101SOL    HW222203   2.489   6.662   5.105
 7102SOL     OW22204   5.314   0.549   0.932
 7102SOL    HW122205   5.223   0.533   0.895
 7102SOL    HW222206   5.357   0.462   0.955
 7103SOL     OW22207   5.152   5.272   1.864
 7103SOL    HW122208   5.163   5.201   1.934
 7103SOL    HW222209   5.153   5.230   1.774
 7104SOL     OW22210   5.342   3.172   2.869
 7104SOL    HW122211   5.430   3.131   2.843
 7104SOL    HW222212   5.353   3.271   2.877
 7105SOL     OW22213   3.808   3.950   4.433
 7105SOL    HW122214   3.834   3.873   4.491
 7105SOL    HW222215   3.871   3.957   4.356
 7106SOL     OW22216   3.602   2.852   1.084
 7106SOL    HW122217   3.685   2.803   1.058
 7106SOL    HW222218   3.598   2.861   1.184
 7107SOL     OW22219   4.098   0.203   6.818
 7107SOL    HW122220   4.123   0.177   6.912
 7107SOL    HW222221   4.172   0.256   6.778
 7108SOL     OW22222   2.449   6.489   2.588
 7108SOL    HW122223   2.434   6.391   2.588
 7108SOL    HW222224   2.535   6.510   2.634
 7109SOL     OW22225   1.667   0.423   6.814
 7109SOL    HW122226   1.703   0.447   6.904
 7109SOL    HW222227   1.581   0.373   6.825
 7110SOL     OW22228   3.289   6.541   4.320
 7110SOL    HW122229   3.331   6.590   4.244
 7110SOL    HW222230   3.355   6.535   4.396
 7111SOL     OW22231   1.275   1.324   3.544
 7111SOL    HW122232   1.309   1.230   3.539
 7111SOL    HW222233   1.210   1.332   3.620
 7112SOL     OW22234   2.305   4.334   4.766
 7112SOL    HW122235   2.362   4.398   4.817
 7112SOL    HW222236   2.311   4.243   4.807
 7113SOL     OW22237   2.957   5.424   5.085
 7113SOL    HW122238   2.891   5.409   5.159
 7113SOL    HW222239   3.047   5.444   5.125
 7114SOL     OW22240   4.361   5.359   1.693
 7114SOL    HW122241   4.351   5.435   1.628
 7114SOL    HW222242   4.305   5.377   1.774
 7115SOL     OW22243   5.328   4.830   6.583
 7115SOL    HW122244   5.402   4.779   6.628
 7115SOL    HW222245   5.244   4.776   6.587
 7116SOL     OW22246   5.693   4.312   3.666
 7116SOL    HW122247   5.789   4.342   3.658
 7116SOL    HW222248   5.644   4.376   3.725
 7117SOL     OW22249   6.104   6.815   4.375
 7117SOL    HW122250   6.112   6.721   4.410
 7117SOL    HW222251   6.030   6.819   4.308
 7118SOL     OW22252   3.929   4.523   5.263
 7118SOL    HW122253   3.869   4.478   5.329
 7118SOL    HW222254   4.015   4.472   5.256
 7119SOL     OW22255   5.100   1.036   5.238
 7119SOL    HW122256   5.099   1.111   5.304
 7119SOL    HW222257   5.190   0.992   5.238
 7120SOL     OW22258   5.697   1.462   1.252
 7120SOL    HW122259   5.682   1.381   1.308
 7120SOL    HW222260   5.613   1.486   1.204
 7121SOL     OW22261   0.742   6.542   3.504
 7121SOL    HW122262   0.827   6.508   3.464
 7121SOL    HW222263   0.757   6.561   3.601
 7122SOL     OW22264   2.661   6.814   5.994
 7122SOL    HW122265   2.645   6.736   6.054
 7122SOL    HW222266   2.641   6.899   6.043
 7123SOL     OW22267   6.296   4.940   4.611
 7123SOL    HW122268   6.230   4.896   4.550
 7123SOL    HW222269   6.268   5.034   4.628
 7124SOL     OW22270   1.239   2.176   1.978
 7124SOL    HW122271   1.316   2.225   2.019
 7124SOL    HW222272   1.167   2.241   1.953
 7125SOL     OW22273   0.829   0.628   2.060
 7125SOL    HW122274   0.766   0.553   2.079
 7125SOL    HW222275   0.914   0.591   2.021
 7126SOL     OW22276   3.987   6.296   1.181
 7126SOL    HW122277   4.070   6.245   1.203
 7126SOL    HW222278   4.011   6.388   1.150
 7127SOL     OW22279   3.243   6.132   5.552
 7127SOL    HW122280   3.243   6.185   5.467
 7127SOL    HW222281   3.237   6.194   5.630
 7128SOL     OW22282   3.912   4.041   6.800
 7128SOL    HW122283   3.856   3.972   6.845
 7128SOL    HW222284   3.918   4.122   6.859
 7129SOL     OW22285   0.258   1.823   0.506
 7129SOL    HW122286   0.324   1.748   0.508
 7129SOL    HW222287   0.241   1.855   0.600
 7130SOL     OW22288   3.427   0.370   4.649
 7130SOL    HW122289   3.369   0.355   4.569
 7130SOL    HW222290   3.447   0.467   4.658
 7131SOL     OW22291   3.542   0.978   2.197
 7131SOL    HW122292   3.538   0.887   2.239
 7131SOL    HW222293   3.489   0.977   2.112
 7132SOL     OW22294   4.839   3.959   6.695
 7132SOL    HW122295   4.813   4.049   6.660
 7132SOL    HW222296   4.930   3.963   6.734
 7133SOL     OW22297   3.974   5.161   3.636
 7133SOL    HW122298   3.976   5.257   3.664
 7133SOL    HW222299   3.938   5.154   3.543
 7134SOL     OW22300   5.379   6.433   2.010
 7134SOL    HW122301   5.441   6.431   2.089
 7134SOL    HW222302   5.420   6.382   1.934
 7135SOL     OW22303   2.115   3.118   2.018
 7135SOL    HW122304   2.029   3.070   1.998
 7135SOL    HW222305   2.153   3.156   1.933
 7136SOL     OW22306   2.741   1.771   1.381
 7136SOL    HW122307   2.785   1.825   1.452
 7136SOL    HW222308   2.807   1.708   1.340
 7137SOL     OW22309   2.875   1.767   0.925
 7137SOL    HW122310   2.867   1.848   0.982
 7137SOL    HW222311   2.787   1.748   0.882
 7138SOL     OW22312   2.113   0.871   1.399
 7138SOL    HW122313   2.036   0.818   1.435
 7138SOL    HW222314   2.199   0.822   1.418
 7139SOL     OW22315   5.136   5.598   2.171
 7139SOL    HW122316   5.197   5.618   2.248
 7139SOL    HW222317   5.090   5.683   2.142
 7140SOL     OW22318   6.156   4.290   0.495
 7140SOL    HW122319   6.228   4.264   0.559
 7140SOL    HW222320   6.068   4.257   0.528
 7141SOL     OW22321   3.990   6.244   1.464
 7141SOL    HW122322   3.972   6.157   1.512
 7141SOL    HW222323   3.915   6.263   1.401
 7142SOL     OW22324   3.028   0.480   4.235
 7142SOL    HW122325   3.115   0.432   4.226
 7142SOL    HW222326   2.980   0.447   4.316
 7143SOL     OW22327   2.439   4.347   6.622
 7143SOL    HW122328   2.383   4.425   6.648
 7143SOL    HW222329   2.482   4.365   6.533
 7144SOL     OW22330   0.099   1.157   4.319
 7144SOL    HW122331   0.182   1.182   4.270
 7144SOL    HW222332   0.042   1.099   4.260
 7145SOL     OW22333   4.529   1.635   6.784
 7145SOL    HW122334   4.431   1.652   6.788
 7145SOL    HW222335   4.578   1.722   6.777
 7146SOL     OW22336   2.054   1.192   5.001
 7146SOL    HW122337   2.057   1.194   4.901
 7146SOL    HW222338   2.136   1.236   5.038
 7147SOL     OW22339   5.616   4.876   3.254
 7147SOL    HW122340   5.594   4.850   3.160
 7147SOL    HW222341   5.597   4.974   3.267
 7148SOL     OW22342   6.300   6.364   0.631
 7148SOL    HW122343   6.204   6.344   0.650
 7148SOL    HW222344   6.348   6.381   0.716
 7149SOL     OW22345   6.925   4.703   3.273
 7149SOL    HW122346   7.015   4.705   3.316
 7149SOL    HW222347   6.855   4.724   3.341
 7150SOL     OW22348   4.409   3.142   0.005
 7150SOL    HW122349   4.478   3.144   6.959
 7150SOL    HW222350   4.392   3.236   0.037
 7151SOL     OW22351   3.399   6.951   0.695
 7151SOL    HW122352   3.371   7.001   0.777
 7151SOL    HW222353   3.498   6.959   0.683
 7152SOL     OW22354   6.894   0.954   6.719
 7152SOL    HW122355   6.924   0.885   6.653
 7152SOL    HW222356   6.970   0.974   6.782
 7153SOL     OW22357   4.088   5.576   1.663
 7153SOL    HW122358   4.170   5.557   1.609
 7153SOL    HW222359   4.034   5.648   1.618
 7154SOL     OW22360   4.180   1.335   2.188
 7154SOL    HW122361   4.140   1.321   2.278
 7154SOL    HW222362   4.273   1.370   2.198
 7155SOL     OW22363   3.082   1.929   1.323
 7155SOL    HW122364   3.154   1.985   1.283
 7155SOL    HW222365   3.109   1.901   1.415
 7156SOL     OW22366   5.431   3.113   1.885
 7156SOL    HW122367   5.527   3.108   1.911
 7156SOL    HW222368   5.374   3.084   1.961
 7157SOL     OW22369   5.845   4.285   0.240
 7157SOL    HW122370   5.938   4.313   0.264
 7157SOL    HW222371   5.804   4.238   0.318
 7158SOL     OW22372   6.191   0.086   3.938
 7158SOL    HW122373   6.109   0.137   3.912
 7158SOL    HW222374   6.225   0.119   4.026
 7159SOL     OW22375   6.820   5.038   4.184
 7159SOL    HW122376   6.819   5.062   4.281
 7159SOL    HW222377   6.855   4.945   4.173
 7160SOL     OW22378   5.962   6.720   2.562
 7160SOL    HW122379   5.897   6.701   2.489
 7160SOL    HW222380   5.938   6.806   2.606
 7161SOL     OW22381   3.479   3.816   3.393
 7161SOL    HW122382   3.444   3.724   3.378
 7161SOL    HW222383   3.514   3.854   3.307
 7162SOL     OW22384   6.812   4.690   1.407
 7162SOL    HW122385   6.760   4.709   1.490
 7162SOL    HW222386   6.878   4.763   1.391
 7163SOL     OW22387   1.115   1.488   2.709
 7163SOL    HW122388   1.149   1.400   2.677
 7163SOL    HW222389   1.090   1.544   2.630
 7164SOL     OW22390   1.718   0.690   6.139
 7164SOL    HW122391   1.700   0.624   6.067
 7164SOL    HW222392   1.744   0.642   6.223
 7165SOL     OW22393   5.231   0.044   0.673
 7165SOL    HW122394   5.309   0.016   0.617
 7165SOL    HW222395   5.191   6.991   0.718
 7166SOL     OW22396   5.252   0.828   5.682
 7166SOL    HW122397   5.291   0.919   5.668
 7166SOL    HW222398   5.220   0.791   5.595
 7167SOL     OW22399   6.052   2.324   5.727
 7167SOL    HW122400   6.134   2.380   5.737
 7167SOL    HW222401   6.070   2.232   5.761
 7168SOL     OW22402   2.977   0.640   2.876
 7168SOL    HW122403   3.019   0.716   2.827
 7168SOL    HW222404   3.040   0.563   2.880
 7169SOL     OW22405   1.467   3.963   5.152
 7169SOL    HW122406   1.391   3.905   5.182
 7169SOL    HW222407   1.445   4.005   5.064
 7170SOL     OW22408   4.706   0.235   1.946
 7170SOL    HW122409   4.632   0.250   2.011
 7170SOL    HW222410   4.780   0.185   1.990
 7171SOL     OW22411   5.636   5.145   0.793
 7171SOL    HW122412   5.579   5.064   0.778
 7171SOL    HW222413   5.716   5.140   0.733
 7172SOL     OW22414   1.760   1.520   5.161
 7172SOL    HW122415   1.707   1.571   5.228
 7172SOL    HW222416   1.759   1.569   5.074
 7173SOL     OW22417   5.749   6.141   6.650
 7173SOL    HW122418   5.700   6.065   6.607
 7173SOL    HW222419   5.716   6.228   6.613
 7174SOL     OW22420   6.162   4.740   1.359
 7174SOL    HW122421   6.136   4.676   1.432
 7174SOL    HW222422   6.187   4.828   1.400
 7175SOL     OW22423   6.258   4.123   5.058
 7175SOL    HW122424   6.301   4.181   5.128
 7175SOL    HW222425   6.253   4.029   5.091
 7176SOL     OW22426   0.833   1.459   3.793
 7176SOL    HW122427   0.744   1.426   3.762
 7176SOL    HW222428   0.832   1.469   3.892
 7177SOL     OW22429   1.808   5.537   5.713
 7177SOL    HW122430   1.762   5.612   5.761
 7177SOL    HW222431   1.851   5.477   5.780
 7178SOL     OW22432   0.305   0.734   5.622
 7178SOL    HW122433   0.363   0.674   5.568
 7178SOL    HW222434   0.362   0.789   5.684
 7179SOL     OW22435   2.143   4.665   5.668
 7179SOL    HW122436   2.079   4.593   5.696
 7179SOL    HW222437   2.162   4.725   5.745
 7180SOL     OW22438   2.191   4.693   1.065
 7180SOL    HW122439   2.255   4.617   1.078
 7180SOL    HW222440   2.099   4.663   1.090
 7181SOL     OW22441   2.258   1.122   6.044
 7181SOL    HW122442   2.274   1.079   6.133
 7181SOL    HW222443   2.167   1.098   6.011
 7182SOL     OW22444   0.319   3.138   4.526
 7182SOL    HW122445   0.271   3.128   4.439
 7182SOL    HW222446   0.262   3.187   4.591
 7183SOL     OW22447   1.829   6.546   1.385
 7183SOL    HW122448   1.779   6.486   1.448
 7183SOL    HW222449   1.895   6.601   1.436
 7184SOL     OW22450   5.834   1.630   3.293
 7184SOL    HW122451   5.809   1.698   3.361
 7184SOL    HW222452   5.761   1.562   3.286
 7185SOL     OW22453   5.013   1.343   5.642
 7185SOL    HW122454   5.064   1.346   5.728
 7185SOL    HW222455   4.940   1.275   5.649
 7186SOL     OW22456   0.205   6.913   0.201
 7186SOL    HW122457   0.127   6.852   0.197
 7186SOL    HW222458   0.282   6.868   0.246
 7187SOL     OW22459   2.914   3.612   4.432
 7187SOL    HW122460   2.921   3.680   4.358
 7187SOL    HW222461   2.910   3.659   4.520
 7188SOL     OW22462   4.496   3.987   6.630
 7188SOL    HW122463   4.539   3.897   6.633
 7188SOL    HW222464   4.467   4.013   6.723
 7189SOL     OW22465   5.984   2.952   5.391
 7189SOL    HW122466   6.047   2.965   5.468
 7189SOL    HW222467   5.944   3.040   5.366
 7190SOL     OW22468   5.919   5.814   0.891
 7190SOL    HW122469   5.973   5.897   0.876
 7190SOL    HW222470   5.882   5.782   0.804
 7191SOL     OW22471   0.809   4.284   3.185
 7191SOL    HW122472   0.712   4.272   3.163
 7191SOL    HW222473   0.823   4.373   3.228
 7192SOL     OW22474   1.794   3.769   6.511
 7192SOL    HW122475   1.785   3.729   6.420
 7192SOL    HW222476   1.798   3.696   6.579
 7193SOL     OW22477   2.705   1.849   2.361
 7193SOL    HW122478   2.791   1.860   2.411
 7193SOL    HW222479   2.660   1.938   2.353
 7194SOL     OW22480   2.193   2.436   0.420
 7194SOL    HW122481   2.292   2.422   0.412
 7194SOL    HW222482   2.174   2.533   0.437
 7195SOL     OW22483   6.738   4.280   6.989
 7195SOL    HW122484   6.831   4.277   6.952
 7195SOL    HW222485   6.673   4.293   6.914
 7196SOL     OW22486   3.395   3.865   2.585
 7196SOL    HW122487   3.439   3.807   2.653
 7196SOL    HW222488   3.390   3.959   2.619
 7197SOL     OW22489   1.208   3.351   5.379
 7197SOL    HW122490   1.225   3.253   5.366
 7197SOL    HW222491   1.285   3.392   5.430
 7198SOL     OW22492   0.350   0.595   0.774
 7198SOL    HW122493   0.357   0.544   0.860
 7198SOL    HW222494   0.366   0.533   0.697
 7199SOL     OW22495   0.647   0.245   2.159
 7199SOL    HW122496   0.615   0.335   2.185
 7199SOL    HW222497   0.747   0.242   2.167
 7200SOL     OW22498   1.850   2.459   0.998
 7200SOL    HW122499   1.814   2.499   0.913
 7200SOL    HW222500   1.809   2.506   1.076
 7201SOL     OW22501   0.158   5.166   3.879
 7201SOL    HW122502   0.154   5.266   3.884
 7201SOL    HW222503   0.065   5.130   3.875
 7202SOL     OW22504   5.266   6.964   6.166
 7202SOL    HW122505   5.183   7.002   6.126
 7202SOL    HW222506   5.323   0.012   6.202
 7203SOL     OW22507   0.464   0.738   2.013
 7203SOL    HW122508   0.514   0.675   2.073
 7203SOL    HW222509   0.397   0.687   1.959
 7204SOL     OW22510   6.215   1.799   0.624
 7204SOL    HW122511   6.210   1.802   0.724
 7204SOL    HW222512   6.306   1.769   0.596
 7205SOL     OW22513   1.391   2.763   4.679
 7205SOL    HW122514   1.358   2.827   4.748
 7205SOL    HW222515   1.484   2.787   4.652
 7206SOL     OW22516   1.383   1.628   1.498
 7206SOL    HW122517   1.395   1.609   1.401
 7206SOL    HW222518   1.471   1.652   1.539
 7207SOL     OW22519   2.089   2.149   4.118
 7207SOL    HW122520   2.093   2.207   4.037
 7207SOL    HW222521   2.007   2.092   4.116
 7208SOL     OW22522   3.882   0.652   3.938
 7208SOL    HW122523   3.886   0.707   4.022
 7208SOL    HW222524   3.900   0.711   3.859
 7209SOL     OW22525   2.150   2.355   2.571
 7209SOL    HW122526   2.181   2.307   2.653
 7209SOL    HW222527   2.182   2.307   2.490
 7210SOL     OW22528   3.335   1.847   3.099
 7210SOL    HW122529   3.369   1.805   3.184
 7210SOL    HW222530   3.337   1.780   3.025
 7211SOL     OW22531   2.882   6.292   5.735
 7211SOL    HW122532   2.895   6.211   5.678
 7211SOL    HW222533   2.903   6.374   5.682
 7212SOL     OW22534   6.041   5.921   6.314
 7212SOL    HW122535   6.103   5.915   6.236
 7212SOL    HW222536   6.094   5.914   6.399
 7213SOL     OW22537   3.665   6.576   0.022
 7213SOL    HW122538   3.669   6.575   6.949
 7213SOL    HW222539   3.745   6.529   0.060
 7214SOL     OW22540   6.880   1.091   6.125
 7214SOL    HW122541   6.845   1.103   6.032
 7214SOL    HW222542   6.960   1.031   6.123
 7215SOL     OW22543   6.551   2.787   3.777
 7215SOL    HW122544   6.595   2.732   3.849
 7215SOL    HW222545   6.452   2.771   3.779
 7216SOL     OW22546   2.871   6.339   2.461
 7216SOL    HW122547   2.910   6.409   2.401
 7216SOL    HW222548   2.943   6.276   2.489
 7217SOL     OW22549   1.547   4.436   3.815
 7217SOL    HW122550   1.471   4.500   3.800
 7217SOL    HW222551   1.631   4.488   3.833
 7218SOL     OW22552   0.203   3.137   3.987
 7218SOL    HW122553   0.282   3.125   3.927
 7218SOL    HW222554   0.211   3.224   4.036
 7219SOL     OW22555   3.397   6.593   1.544
 7219SOL    HW122556   3.394   6.681   1.592
 7219SOL    HW222557   3.453   6.602   1.462
 7220SOL     OW22558   6.423   4.308   4.541
 7220SOL    HW122559   6.453   4.384   4.600
 7220SOL    HW222560   6.486   4.231   4.553
 7221SOL     OW22561   3.044   5.996   4.947
 7221SOL    HW122562   3.091   5.911   4.971
 7221SOL    HW222563   3.110   6.060   4.907
 7222SOL     OW22564   5.669   6.789   2.955
 7222SOL    HW122565   5.661   6.831   2.864
 7222SOL    HW222566   5.763   6.796   2.987
 7223SOL     OW22567   2.248   2.013   1.067
 7223SOL    HW122568   2.315   1.961   1.120
 7223SOL    HW222569   2.238   2.105   1.107
 7224SOL     OW22570   4.673   2.784   4.097
 7224SOL    HW122571   4.637   2.691   4.085
 7224SOL    HW222572   4.639   2.842   4.024
 7225SOL     OW22573   2.184   6.328   0.783
 7225SOL    HW122574   2.261   6.391   0.791
 7225SOL    HW222575   2.218   6.237   0.758
 7226SOL     OW22576   6.040   0.621   0.665
 7226SOL    HW122577   5.968   0.651   0.602
 7226SOL    HW222578   6.002   0.613   0.757
 7227SOL     OW22579   2.859   0.897   2.114
 7227SOL    HW122580   2.841   0.984   2.158
 7227SOL    HW222581   2.918   0.911   2.034
 7228SOL     OW22582   0.607   1.807   3.045
 7228SOL    HW122583   0.529   1.764   2.998
 7228SOL    HW222584   0.638   1.886   2.992
 7229SOL     OW22585   6.888   6.725   4.438
 7229SOL    HW122586   6.955   6.657   4.467
 7229SOL    HW222587   6.858   6.778   4.517
 7230SOL     OW22588   2.717   5.367   3.933
 7230SOL    HW122589   2.739   5.296   3.865
 7230SOL    HW222590   2.712   5.456   3.887
 7231SOL     OW22591   3.651   6.994   0.771
 7231SOL    HW122592   3.667   0.060   0.807
 7231SOL    HW222593   3.650   6.928   0.846
 7232SOL     OW22594   4.872   6.582   2.441
 7232SOL    HW122595   4.809   6.653   2.472
 7232SOL    HW222596   4.877   6.511   2.511
 7233SOL     OW22597   6.905   1.702   5.529
 7233SOL    HW122598   6.989   1.713   5.581
 7233SOL    HW222599   6.855   1.789   5.527
 7234SOL     OW22600   5.162   4.172   2.591
 7234SOL    HW122601   5.135   4.089   2.640
 7234SOL    HW222602   5.260   4.169   2.573
 7235SOL     OW22603   6.385   5.372   1.506
 7235SOL    HW122604   6.297   5.418   1.508
 7235SOL    HW222605   6.378   5.282   1.551
 7236SOL     OW22606   1.715   2.419   2.733
 7236SOL    HW122607   1.671   2.473   2.661
 7236SOL    HW222608   1.813   2.438   2.734
 7237SOL     OW22609   4.499   6.992   6.617
 7237SOL    HW122610   4.410   6.978   6.659
 7237SOL    HW222611   4.544   0.045   6.659
 7238SOL     OW22612   4.553   2.783   6.834
 7238SOL    HW122613   4.564   2.819   6.926
 7238SOL    HW222614   4.641   2.783   6.787
 7239SOL     OW22615   0.348   3.181   2.619
 7239SOL    HW122616   0.395   3.098   2.649
 7239SOL    HW222617   0.409   3.259   2.629
 7240SOL     OW22618   6.896   1.931   7.012
 7240SOL    HW122619   6.811   1.974   0.015
 7240SOL    HW222620   6.886   1.897   6.918
 7241SOL     OW22621   2.408   0.021   0.189
 7241SOL    HW122622   2.483   0.086   0.181
 7241SOL    HW222623   2.438   6.957   0.159
 7242SOL     OW22624   6.789   6.160   5.251
 7242SOL    HW122625   6.822   6.241   5.301
 7242SOL    HW222626   6.713   6.186   5.192
 7243SOL     OW22627   6.779   3.957   6.661
 7243SOL    HW122628   6.827   4.035   6.621
 7243SOL    HW222629   6.690   3.946   6.616
 7244SOL     OW22630   0.172   6.673   0.822
 7244SOL    HW122631   0.259   6.717   0.844
 7244SOL    HW222632   0.098   6.739   0.831
 7245SOL     OW22633   1.691   2.035   5.660
 7245SOL    HW122634   1.779   1.988   5.646
 7245SOL    HW222635   1.704   2.133   5.651
 7246SOL     OW22636   2.108   0.355   4.511
 7246SOL    HW122637   2.017   0.363   4.471
 7246SOL    HW222638   2.155   0.443   4.504
 7247SOL     OW22639   3.131   2.276   5.520
 7247SOL    HW122640   3.075   2.346   5.475
 7247SOL    HW222641   3.191   2.233   5.453
 7248SOL     OW22642   3.091   0.297   3.571
 7248SOL    HW122643   3.105   0.344   3.485
 7248SOL    HW222644   3.055   0.361   3.639
 7249SOL     OW22645   4.682   4.896   1.887
 7249SOL    HW122646   4.762   4.836   1.888
 7249SOL    HW222647   4.633   4.888   1.974
 7250SOL     OW22648   5.054   4.640   5.780
 7250SOL    HW122649   5.021   4.551   5.809
 7250SOL    HW222650   5.079   4.694   5.861
 7251SOL     OW22651   0.543   0.238   5.536
 7251SOL    HW122652   0.476   0.288   5.482
 7251SOL    HW222653   0.618   0.299   5.561
 7252SOL     OW22654   3.062   3.807   1.854
 7252SOL    HW122655   2.992   3.837   1.789
 7252SOL    HW222656   3.033   3.720   1.895
 7253SOL     OW22657   1.637   6.441   6.492
 7253SOL    HW122658   1.655   6.380   6.415
 7253SOL    HW222659   1.657   6.536   6.466
 7254SOL     OW22660   6.042   5.326   4.373
 7254SOL    HW122661   5.994   5.333   4.286
 7254SOL    HW222662   6.066   5.417   4.406
 7255SOL     OW22663   4.906   3.674   6.897
 7255SOL    HW122664   4.859   3.689   6.984
 7255SOL    HW222665   4.842   3.692   6.822
 7256SOL     OW22666   3.909   6.076   5.675
 7256SOL    HW122667   3.907   6.016   5.755
 7256SOL    HW222668   3.931   6.022   5.594
 7257SOL     OW22669   0.341   2.068   4.670
 7257SOL    HW122670   0.250   2.038   4.644
 7257SOL    HW222671   0.404   1.990   4.669
 7258SOL     OW22672   5.757   2.001   2.537
 7258SOL    HW122673   5.754   2.054   2.452
 7258SOL    HW222674   5.673   2.015   2.589
 7259SOL     OW22675   1.146   3.106   2.400
 7259SOL    HW122676   1.143   3.057   2.487
 7259SOL    HW222677   1.167   3.041   2.327
 7260SOL     OW22678   5.363   2.072   1.272
 7260SOL    HW122679   5.303   2.152   1.268
 7260SOL    HW222680   5.328   2.007   1.340
 7261SOL     OW22681   0.420   4.691   1.293
 7261SOL    HW122682   0.510   4.734   1.282
 7261SOL    HW222683   0.421   4.633   1.375
 7262SOL     OW22684   5.587   1.168   6.705
 7262SOL    HW122685   5.505   1.163   6.761
 7262SOL    HW222686   5.629   1.259   6.714
 7263SOL     OW22687   0.433   6.182   0.155
 7263SOL    HW122688   0.416   6.131   0.070
 7263SOL    HW222689   0.350   6.183   0.210
 7264SOL     OW22690   5.370   0.811   0.896
 7264SOL    HW122691   5.361   0.717   0.928
 7264SOL    HW222692   5.430   0.862   0.958
 7265SOL     OW22693   5.736   5.013   5.051
 7265SOL    HW122694   5.711   5.013   5.148
 7265SOL    HW222695   5.674   5.071   5.000
 7266SOL     OW22696   6.335   0.923   3.790
 7266SOL    HW122697   6.414   0.917   3.729
 7266SOL    HW222698   6.282   1.004   3.768
 7267SOL     OW22699   6.465   6.887   5.019
 7267SOL    HW122700   6.373   6.923   5.032
 7267SOL    HW222701   6.516   6.948   4.958
 7268SOL     OW22702   0.140   5.894   4.292
 7268SOL    HW122703   0.084   5.815   4.264
 7268SOL    HW222704   0.095   5.942   4.368
 7269SOL     OW22705   1.944   6.374   5.872
 7269SOL    HW122706   1.907   6.285   5.900
 7269SOL    HW222707   1.873   6.444   5.879
 7270SOL     OW22708   0.139   2.190   4.225
 7270SOL    HW122709   0.108   2.186   4.319
 7270SOL    HW222710   0.235   2.160   4.220
 7271SOL     OW22711   1.317   4.959   4.140
 7271SOL    HW122712   1.252   4.887   4.118
 7271SOL    HW222713   1.410   4.922   4.132
 7272SOL     OW22714   6.223   5.721   2.141
 7272SOL    HW122715   6.252   5.729   2.045
 7272SOL    HW222716   6.292   5.670   2.192
 7273SOL     OW22717   5.245   3.652   0.142
 7273SOL    HW122718   5.258   3.553   0.154
 7273SOL    HW222719   5.221   3.671   0.048
 7274SOL     OW22720   0.341   4.738   0.110
 7274SOL    HW122721   0.374   4.670   0.044
 7274SOL    HW222722   0.296   4.813   0.060
 7275SOL     OW22723   0.173   6.036   2.631
 7275SOL    HW122724   0.078   6.007   2.638
 7275SOL    HW222725   0.177   6.130   2.596
 7276SOL     OW22726   5.555   0.602   3.483
 7276SOL    HW122727   5.632   0.542   3.461
 7276SOL    HW222728   5.555   0.680   3.420
 7277SOL     OW22729   4.909   0.698   4.811
 7277SOL    HW122730   5.001   0.697   4.773
 7277SOL    HW222731   4.880   0.792   4.826
 7278SOL     OW22732   3.711   3.773   1.052
 7278SOL    HW122733   3.717   3.681   1.090
 7278SOL    HW222734   3.804   3.809   1.039
 7279SOL     OW22735   4.363   5.822   6.951
 7279SOL    HW122736   4.333   5.854   0.014
 7279SOL    HW222737   4.450   5.866   6.927
 7280SOL     OW22738   0.322   0.539   3.769
 7280SOL    HW122739   0.267   0.569   3.847
 7280SOL    HW222740   0.277   0.566   3.684
 7281SOL     OW22741   3.105   1.896   0.145
 7281SOL    HW122742   3.076   1.915   0.051
 7281SOL    HW222743   3.028   1.858   0.196
 7282SOL     OW22744   5.802   5.148   2.311
 7282SOL    HW122745   5.766   5.055   2.307
 7282SOL    HW222746   5.841   5.172   2.222
 7283SOL     OW22747   3.165   1.649   3.173
 7283SOL    HW122748   3.169   1.746   3.149
 7283SOL    HW222749   3.258   1.614   3.184
 7284SOL     OW22750   0.475   3.442   6.028
 7284SOL    HW122751   0.455   3.415   5.934
 7284SOL    HW222752   0.573   3.432   6.045
 7285SOL     OW22753   5.218   3.694   2.211
 7285SOL    HW122754   5.123   3.716   2.187
 7285SOL    HW222755   5.234   3.596   2.196
 7286SOL     OW22756   2.613   1.763   0.859
 7286SOL    HW122757   2.581   1.700   0.930
 7286SOL    HW222758   2.535   1.796   0.806
 7287SOL     OW22759   6.878   2.449   6.613
 7287SOL    HW122760   6.874   2.429   6.711
 7287SOL    HW222761   6.878   2.364   6.561
 7288SOL     OW22762   3.064   1.095   0.346
 7288SOL    HW122763   2.972   1.133   0.339
 7288SOL    HW222764   3.122   1.135   0.275
 7289SOL     OW22765   5.938   1.650   3.631
 7289SOL    HW122766   5.888   1.563   3.640
 7289SOL    HW222767   5.879   1.719   3.589
 7290SOL     OW22768   3.722   7.020   5.871
 7290SOL    HW122769   3.630   0.003   5.907
 7290SOL    HW222770   3.733   0.053   5.791
 7291SOL     OW22771   1.303   6.772   0.808
 7291SOL    HW122772   1.390   6.820   0.821
 7291SOL    HW222773   1.306   6.685   0.856
 7292SOL     OW22774   2.375   1.196   4.211
 7292SOL    HW122775   2.383   1.097   4.221
 7292SOL    HW222776   2.422   1.225   4.127
 7293SOL     OW22777   1.788   1.711   5.691
 7293SOL    HW122778   1.740   1.711   5.778
 7293SOL    HW222779   1.814   1.804   5.667
 7294SOL     OW22780   1.954   5.041   0.087
 7294SOL    HW122781   2.047   5.027   0.054
 7294SOL    HW222782   1.918   5.126   0.049
 7295SOL     OW22783   0.639   2.198   0.934
 7295SOL    HW122784   0.735   2.221   0.951
 7295SOL    HW222785   0.597   2.269   0.877
 7296SOL     OW22786   2.365   5.039   1.394
 7296SOL    HW122787   2.363   4.946   1.356
 7296SOL    HW222788   2.276   5.061   1.432
 7297SOL     OW22789   3.670   5.549   1.180
 7297SOL    HW122790   3.655   5.585   1.088
 7297SOL    HW222791   3.587   5.504   1.212
 7298SOL     OW22792   4.421   4.244   5.830
 7298SOL    HW122793   4.387   4.276   5.918
 7298SOL    HW222794   4.518   4.220   5.839
 7299SOL     OW22795   0.542   1.830   0.473
 7299SOL    HW122796   0.533   1.775   0.390
 7299SOL    HW222797   0.577   1.772   0.547
 7300SOL     OW22798   6.026   6.063   2.582
 7300SOL    HW122799   5.961   6.129   2.619
 7300SOL    HW222800   6.038   5.988   2.647
 7301SOL     OW22801   6.622   1.214   4.796
 7301SOL    HW122802   6.639   1.117   4.784
 7301SOL    HW222803   6.683   1.266   4.736
 7302SOL     OW22804   1.091   1.801   6.464
 7302SOL    HW122805   1.099   1.853   6.549
 7302SOL    HW222806   1.116   1.860   6.387
 7303SOL     OW22807   4.737   0.505   6.350
 7303SOL    HW122808   4.831   0.472   6.356
 7303SOL    HW222809   4.737   0.605   6.357
 7304SOL     OW22810   3.936   4.525   0.227
 7304SOL    HW122811   3.996   4.454   0.264
 7304SOL    HW222812   3.958   4.612   0.270
 7305SOL     OW22813   4.843   1.055   0.740
 7305SOL    HW122814   4.767   1.010   0.693
 7305SOL    HW222815   4.923   1.055   0.681
 7306SOL     OW22816   5.199   2.506   1.592
 7306SOL    HW122817   5.190   2.419   1.641
 7306SOL    HW222818   5.161   2.579   1.648
 7307SOL     OW22819   2.203   0.184   2.708
 7307SOL    HW122820   2.294   0.142   2.716
 7307SOL    HW222821   2.134   0.116   2.735
 7308SOL     OW22822   0.100   4.198   5.522
 7308SOL    HW122823   0.149   4.147   5.592
 7308SOL    HW222824   0.075   4.137   5.447
 7309SOL     OW22825   5.045   5.604   0.605
 7309SOL    HW122826   5.121   5.603   0.540
 7309SOL    HW222827   4.986   5.526   0.587
 7310SOL     OW22828   2.293   3.413   1.507
 7310SOL    HW122829   2.364   3.453   1.566
 7310SOL    HW222830   2.204   3.451   1.531
 7311SOL     OW22831   3.440   2.035   2.029
 7311SOL    HW122832   3.524   2.084   2.050
 7311SOL    HW222833   3.392   2.079   1.953
 7312SOL     OW22834   6.980   3.743   6.357
 7312SOL    HW122835   0.024   3.783   6.297
 7312SOL    HW222836   6.989   3.782   6.449
 7313SOL     OW22837   3.474   2.142   6.550
 7313SOL    HW122838   3.415   2.206   6.501
 7313SOL    HW222839   3.563   2.185   6.568
 7314SOL     OW22840   6.303   3.712   4.860
 7314SOL    HW122841   6.312   3.654   4.779
 7314SOL    HW222842   6.333   3.805   4.838
 7315SOL     OW22843   6.656   0.339   2.523
 7315SOL    HW122844   6.601   0.347   2.440
 7315SOL    HW222845   6.629   0.255   2.572
 7316SOL     OW22846   2.791   3.992   6.025
 7316SOL    HW122847   2.788   3.930   5.947
 7316SOL    HW222848   2.751   4.080   6.000
 7317SOL     OW22849   4.231   1.001   2.707
 7317SOL    HW122850   4.174   0.920   2.699
 7317SOL    HW222851   4.178   1.075   2.748
 7318SOL     OW22852   1.019   0.774   0.921
 7318SOL    HW122853   1.098   0.727   0.962
 7318SOL    HW222854   1.015   0.868   0.955
 7319SOL     OW22855   6.465   4.250   5.740
 7319SOL    HW122856   6.447   4.221   5.834
 7319SOL    HW222857   6.452   4.173   5.677
 7320SOL     OW22858   6.524   3.852   1.695
 7320SOL    HW122859   6.426   3.870   1.708
 7320SOL    HW222860   6.549   3.873   1.600
 7321SOL     OW22861   2.623   6.407   5.476
 7321SOL    HW122862   2.622   6.309   5.459
 7321SOL    HW222863   2.630   6.425   5.574
 7322SOL     OW22864   6.568   2.474   3.567
 7322SOL    HW122865   6.542   2.497   3.473
 7322SOL    HW222866   6.611   2.384   3.569
 7323SOL     OW22867   2.369   1.852   1.890
 7323SOL    HW122868   2.311   1.782   1.932
 7323SOL    HW222869   2.418   1.813   1.813
 7324SOL     OW22870   4.781   6.150   2.334
 7324SOL    HW122871   4.688   6.140   2.371
 7324SOL    HW222872   4.828   6.062   2.340
 7325SOL     OW22873   3.797   6.196   7.016
 7325SOL    HW122874   3.734   6.151   0.053
 7325SOL    HW222875   3.767   6.179   6.922
 7326SOL     OW22876   3.230   6.437   5.298
 7326SOL    HW122877   3.154   6.495   5.271
 7326SOL    HW222878   3.269   6.470   5.384
 7327SOL     OW22879   6.863   2.687   5.588
 7327SOL    HW122880   6.789   2.634   5.630
 7327SOL    HW222881   6.950   2.664   5.632
 7328SOL     OW22882   3.172   1.009   6.273
 7328SOL    HW122883   3.160   0.954   6.190
 7328SOL    HW222884   3.267   1.000   6.305
 7329SOL     OW22885   5.471   4.499   1.770
 7329SOL    HW122886   5.399   4.432   1.789
 7329SOL    HW222887   5.552   4.451   1.737
 7330SOL     OW22888   2.504   2.436   0.359
 7330SOL    HW122889   2.491   2.492   0.276
 7330SOL    HW222890   2.547   2.491   0.430
 7331SOL     OW22891   5.819   0.045   2.302
 7331SOL    HW122892   5.909   0.022   2.266
 7331SOL    HW222893   5.786   0.129   2.259
 7332SOL     OW22894   1.958   5.486   0.435
 7332SOL    HW122895   2.023   5.530   0.497
 7332SOL    HW222896   2.009   5.433   0.367
 7333SOL     OW22897   0.054   3.554   3.529
 7333SOL    HW122898   0.147   3.538   3.497
 7333SOL    HW222899   0.029   3.649   3.511
 7334SOL     OW22900   3.447   5.948   6.655
 7334SOL    HW122901   3.413   5.958   6.748
 7334SOL    HW222902   3.394   5.879   6.607
 7335SOL     OW22903   1.580   2.613   2.570
 7335SOL    HW122904   1.499   2.594   2.514
 7335SOL    HW222905   1.656   2.641   2.511
 7336SOL     OW22906   1.609   6.565   3.598
 7336SOL    HW122907   1.676   6.629   3.638
 7336SOL    HW222908   1.592   6.491   3.663
 7337SOL     OW22909   0.414   3.053   1.593
 7337SOL    HW122910   0.447   3.042   1.499
 7337SOL    HW222911   0.444   3.142   1.628
 7338SOL     OW22912   6.335   2.894   1.412
 7338SOL    HW122913   6.322   2.906   1.314
 7338SOL    HW222914   6.394   2.815   1.428
 7339SOL     OW22915   5.499   6.258   3.472
 7339SOL    HW122916   5.541   6.327   3.413
 7339SOL    HW222917   5.571   6.212   3.525
 7340SOL     OW22918   2.009   1.049   1.211
 7340SOL    HW122919   2.064   1.009   1.283
 7340SOL    HW222920   2.068   1.087   1.140
 7341SOL     OW22921   6.540   2.993   6.979
 7341SOL    HW122922   6.482   3.043   0.017
 7341SOL    HW222923   6.492   2.984   6.891
 7342SOL     OW22924   6.952   1.611   1.902
 7342SOL    HW122925   6.973   1.694   1.850
 7342SOL    HW222926   6.922   1.636   1.994
 7343SOL     OW22927   5.005   3.349   6.867
 7343SOL    HW122928   5.013   3.250   6.855
 7343SOL    HW222929   5.019   3.372   6.963
 7344SOL     OW22930   0.652   0.443   6.289
 7344SOL    HW122931   0.681   0.356   6.248
 7344SOL    HW222932   0.626   0.507   6.217
 7345SOL     OW22933   4.353   3.351   5.328
 7345SOL    HW122934   4.288   3.319   5.259
 7345SOL    HW222935   4.358   3.451   5.325
 7346SOL     OW22936   3.808   5.819   2.775
 7346SOL    HW122937   3.806   5.875   2.858
 7346SOL    HW222938   3.748   5.740   2.786
 7347SOL     OW22939   0.649   1.919   0.874
 7347SOL    HW122940   0.582   1.878   0.937
 7347SOL    HW222941   0.658   2.017   0.894
 7348SOL     OW22942   1.450   3.923   3.864
 7348SOL    HW122943   1.416   3.873   3.784
 7348SOL    HW222944   1.442   4.021   3.848
 7349SOL     OW22945   4.177   0.860   2.124
 7349SOL    HW122946   4.124   0.805   2.188
 7349SOL    HW222947   4.214   0.801   2.052
 7350SOL     OW22948   2.501   2.031   5.592
 7350SOL    HW122949   2.503   1.992   5.683
 7350SOL    HW222950   2.432   1.984   5.537
 7351SOL     OW22951   5.618   6.058   3.628
 7351SOL    HW122952   5.646   5.962   3.633
 7351SOL    HW222953   5.521   6.065   3.652
 7352SOL     OW22954   0.482   1.596   2.230
 7352SOL    HW122955   0.547   1.633   2.164
 7352SOL    HW222956   0.499   1.498   2.242
 7353SOL     OW22957   0.051   0.656   6.655
 7353SOL    HW122958   6.985   0.620   6.641
 7353SOL    HW222959   0.118   0.583   6.646
 7354SOL     OW22960   1.449   1.526   5.419
 7354SOL    HW122961   1.393   1.527   5.502
 7354SOL    HW222962   1.426   1.445   5.365
 7355SOL     OW22963   0.965   1.279   0.432
 7355SOL    HW122964   0.905   1.356   0.452
 7355SOL    HW222965   1.034   1.306   0.365
 7356SOL     OW22966   3.766   3.511   6.143
 7356SOL    HW122967   3.847   3.458   6.170
 7356SOL    HW222968   3.713   3.459   6.076
 7357SOL     OW22969   2.887   5.556   2.111
 7357SOL    HW122970   2.843   5.643   2.133
 7357SOL    HW222971   2.819   5.483   2.111
 7358SOL     OW22972   6.270   3.771   2.724
 7358SOL    HW122973   6.323   3.821   2.656
 7358SOL    HW222974   6.233   3.687   2.684
 7359SOL     OW22975   4.095   2.352   5.529
 7359SOL    HW122976   4.040   2.290   5.585
 7359SOL    HW222977   4.190   2.321   5.529
 7360SOL     OW22978   2.460   3.434   5.515
 7360SOL    HW122979   2.443   3.383   5.599
 7360SOL    HW222980   2.436   3.377   5.436
 7361SOL     OW22981   5.392   1.055   2.513
 7361SOL    HW122982   5.343   1.140   2.492
 7361SOL    HW222983   5.328   0.985   2.541
 7362SOL     OW22984   2.340   6.104   6.288
 7362SOL    HW122985   2.330   6.005   6.281
 7362SOL    HW222986   2.361   6.142   6.198
 7363SOL     OW22987   4.692   1.001   1.444
 7363SOL    HW122988   4.680   1.002   1.543
 7363SOL    HW222989   4.612   0.959   1.401
 7364SOL     OW22990   4.292   0.419   2.315
 7364SOL    HW122991   4.234   0.362   2.257
 7364SOL    HW222992   4.367   0.363   2.352
 7365SOL     OW22993   0.550   5.779   2.274
 7365SOL    HW122994   0.565   5.826   2.186
 7365SOL    HW222995   0.500   5.839   2.336
 7366SOL     OW22996   2.565   6.577   5.778
 7366SOL    HW122997   2.573   6.499   5.840
 7366SOL    HW222998   2.656   6.608   5.751
 7367SOL     OW22999   3.563   2.579   0.129
 7367SOL    HW123000   3.615   2.521   0.192
 7367SOL    HW223001   3.556   2.671   0.166
 7368SOL     OW23002   3.930   2.973   2.269
 7368SOL    HW123003   3.990   2.956   2.190
 7368SOL    HW223004   3.971   3.043   2.327
 7369SOL     OW23005   3.578   2.583   0.962
 7369SOL    HW123006   3.515   2.569   1.038
 7369SOL    HW223007   3.545   2.658   0.904
 7370SOL     OW23008   2.762   2.372   6.222
 7370SOL    HW123009   2.778   2.429   6.142
 7370SOL    HW223010   2.795   2.279   6.204
 7371SOL     OW23011   3.256   6.213   3.715
 7371SOL    HW123012   3.217   6.244   3.802
 7371SOL    HW223013   3.349   6.248   3.706
 7372SOL     OW23014   4.290   7.005   4.578
 7372SOL    HW123015   4.194   0.001   4.563
 7372SOL    HW223016   4.342   0.063   4.592
 7373SOL     OW23017   5.859   1.919   5.140
 7373SOL    HW123018   5.812   1.991   5.090
 7373SOL    HW223019   5.829   1.920   5.236
 7374SOL     OW23020   2.086   1.832   4.664
 7374SOL    HW123021   2.146   1.910   4.648
 7374SOL    HW223022   2.083   1.813   4.762
 7375SOL     OW23023   2.196   2.398   2.054
 7375SOL    HW123024   2.168   2.428   1.963
 7375SOL    HW223025   2.126   2.338   2.093
 7376SOL     OW23026   1.072   2.540   1.481
 7376SOL    HW123027   1.040   2.451   1.514
 7376SOL    HW223028   0.998   2.608   1.491
 7377SOL     OW23029   4.384   4.845   0.441
 7377SOL    HW123030   4.419   4.883   0.355
 7377SOL    HW223031   4.420   4.753   0.454
 7378SOL     OW23032   1.456   7.003   5.149
 7378SOL    HW123033   1.405   6.958   5.222
 7378SOL    HW223034   1.541   6.954   5.132
 7379SOL     OW23035   2.675   0.703   2.124
 7379SOL    HW123036   2.604   0.716   2.055
 7379SOL    HW223037   2.739   0.780   2.120
 7380SOL     OW23038   6.702   4.120   3.460
 7380SOL    HW123039   6.683   4.217   3.469
 7380SOL    HW223040   6.800   4.106   3.444
 7381SOL     OW23041   4.036   2.867   0.664
 7381SOL    HW123042   3.947   2.832   0.693
 7381SOL    HW223043   4.024   2.925   0.584
 7382SOL     OW23044   0.084   1.945   5.861
 7382SOL    HW123045   0.097   1.928   5.764
 7382SOL    HW223046   0.021   1.877   5.899
 7383SOL     OW23047   2.462   5.529   1.640
 7383SOL    HW123048   2.409   5.555   1.721
 7383SOL    HW223049   2.467   5.606   1.577
 7384SOL     OW23050   6.782   0.097   1.678
 7384SOL    HW123051   6.707   0.030   1.673
 7384SOL    HW223052   6.833   0.096   1.593
 7385SOL     OW23053   2.493   5.399   2.686
 7385SOL    HW123054   2.492   5.394   2.586
 7385SOL    HW223055   2.401   5.385   2.721
 7386SOL     OW23056   6.599   3.090   6.687
 7386SOL    HW123057   6.578   3.159   6.618
 7386SOL    HW223058   6.614   3.002   6.642
 7387SOL     OW23059   6.686   5.226   5.007
 7387SOL    HW123060   6.642   5.243   5.095
 7387SOL    HW223061   6.664   5.134   4.975
 7388SOL     OW23062   1.425   4.963   2.464
 7388SOL    HW123063   1.394   4.953   2.558
 7388SOL    HW223064   1.429   4.874   2.420
 7389SOL     OW23065   6.976   3.815   0.049
 7389SOL    HW123066   6.923   3.840   6.994
 7389SOL    HW223067   6.963   3.717   0.068
 7390SOL     OW23068   2.963   1.899   2.199
 7390SOL    HW123069   2.929   1.933   2.287
 7390SOL    HW223070   3.015   1.971   2.153
 7391SOL     OW23071   4.006   3.108   2.783
 7391SOL    HW123072   3.937   3.132   2.852
 7391SOL    HW223073   4.049   3.021   2.808
 7392SOL     OW23074   3.611   5.463   0.097
 7392SOL    HW123075   3.565   5.379   0.070
 7392SOL    HW223076   3.695   5.441   0.146
 7393SOL     OW23077   6.183   4.561   3.383
 7393SOL    HW123078   6.213   4.471   3.414
 7393SOL    HW223079   6.084   4.570   3.397
 7394SOL     OW23080   1.518   2.982   6.175
 7394SOL    HW123081   1.499   2.884   6.183
 7394SOL    HW223082   1.615   2.999   6.192
 7395SOL     OW23083   2.010   3.010   0.985
 7395SOL    HW123084   1.941   2.941   1.006
 7395SOL    HW223085   1.999   3.088   1.046
 7396SOL     OW23086   2.296   6.433   1.393
 7396SOL    HW123087   2.233   6.497   1.348
 7396SOL    HW223088   2.390   6.460   1.373
 7397SOL     OW23089   4.977   4.117   4.303
 7397SOL    HW123090   5.040   4.124   4.380
 7397SOL    HW223091   4.981   4.025   4.265
 7398SOL     OW23092   1.167   5.869   2.905
 7398SOL    HW123093   1.175   5.952   2.850
 7398SOL    HW223094   1.258   5.839   2.934
 7399SOL     OW23095   6.324   3.242   4.835
 7399SOL    HW123096   6.384   3.162   4.826
 7399SOL    HW223097   6.230   3.211   4.848
 7400SOL     OW23098   5.035   2.287   5.759
 7400SOL    HW123099   5.109   2.341   5.799
 7400SOL    HW223100   4.952   2.298   5.814
 7401SOL     OW23101   1.664   2.574   3.512
 7401SOL    HW123102   1.602   2.554   3.436
 7401SOL    HW223103   1.657   2.671   3.535
 7402SOL     OW23104   3.242   4.110   6.416
 7402SOL    HW123105   3.178   4.106   6.339
 7402SOL    HW223106   3.333   4.082   6.386
 7403SOL     OW23107   1.516   2.926   2.688
 7403SOL    HW123108   1.610   2.945   2.662
 7403SOL    HW223109   1.514   2.853   2.756
 7404SOL     OW23110   2.853   3.992   1.675
 7404SOL    HW123111   2.766   3.991   1.626
 7404SOL    HW223112   2.890   4.084   1.675
 7405SOL     OW23113   2.740   5.255   4.751
 7405SOL    HW123114   2.725   5.201   4.834
 7405SOL    HW223115   2.653   5.291   4.718
 7406SOL     OW23116   0.770   1.393   5.090
 7406SOL    HW123117   0.759   1.332   5.012
 7406SOL    HW223118   0.688   1.449   5.101
 7407SOL     OW23119   1.366   6.367   5.690
 7407SOL    HW123120   1.355   6.294   5.757
 7407SOL    HW223121   1.347   6.455   5.734
 7408SOL     OW23122   3.815   4.009   5.168
 7408SOL    HW123123   3.859   3.957   5.094
 7408SOL    HW223124   3.884   4.041   5.232
 7409SOL     OW23125   5.319   4.257   0.416
 7409SOL    HW123126   5.236   4.240   0.363
 7409SOL    HW223127   5.295   4.276   0.511
 7410SOL     OW23128   0.767   0.896   0.551
 7410SOL    HW123129   0.780   0.847   0.465
 7410SOL    HW223130   0.716   0.838   0.615
 7411SOL     OW23131   1.787   0.382   6.566
 7411SOL    HW123132   1.748   0.389   6.658
 7411SOL    HW223133   1.758   0.295   6.525
 7412SOL     OW23134   3.711   6.303   1.218
 7412SOL    HW123135   3.806   6.297   1.190
 7412SOL    HW223136   3.662   6.364   1.156
 7413SOL     OW23137   4.740   4.552   3.963
 7413SOL    HW123138   4.668   4.506   4.015
 7413SOL    HW223139   4.791   4.485   3.910
 7414SOL     OW23140   2.128   1.675   4.106
 7414SOL    HW123141   2.065   1.649   4.033
 7414SOL    HW223142   2.182   1.754   4.077
 7415SOL     OW23143   2.535   5.046   5.589
 7415SOL    HW123144   2.560   5.086   5.501
 7415SOL    HW223145   2.459   4.982   5.577
 7416SOL     OW23146   2.016   1.075   2.305
 7416SOL    HW123147   1.992   0.984   2.338
 7416SOL    HW223148   2.113   1.079   2.284
 7417SOL     OW23149   1.788   1.708   2.493
 7417SOL    HW123150   1.765   1.742   2.584
 7417SOL    HW223151   1.847   1.627   2.501
 7418SOL     OW23152   1.712   4.883   0.077
 7418SOL    HW123153   1.789   4.947   0.079
 7418SOL    HW223154   1.722   4.822   7.025
 7419SOL     OW23155   6.505   3.998   3.684
 7419SOL    HW123156   6.538   4.062   3.614
 7419SOL    HW223157   6.546   4.021   3.772
 7420SOL     OW23158   6.918   5.834   1.266
 7420SOL    HW123159   7.006   5.813   1.224
 7420SOL    HW223160   6.922   5.816   1.365
 7421SOL     OW23161   4.064   3.540   1.422
 7421SOL    HW123162   3.973   3.579   1.439
 7421SOL    HW223163   4.134   3.605   1.454
 7422SOL     OW23164   6.562   3.857   2.195
 7422SOL    HW123165   6.608   3.781   2.240
 7422SOL    HW223166   6.590   3.943   2.238
 7423SOL     OW23167   6.127   3.022   5.593
 7423SOL    HW123168   6.053   3.082   5.622
 7423SOL    HW223169   6.214   3.071   5.600
 7424SOL     OW23170   7.004   1.895   5.200
 7424SOL    HW123171   7.018   1.799   5.223
 7424SOL    HW223172   6.908   1.910   5.175
 7425SOL     OW23173   5.251   0.110   0.187
 7425SOL    HW123174   5.269   0.028   0.134
 7425SOL    HW223175   5.317   0.117   0.262
 7426SOL     OW23176   3.198   1.913   5.765
 7426SOL    HW123177   3.150   1.892   5.680
 7426SOL    HW223178   3.137   1.898   5.842
 7427SOL     OW23179   3.883   0.810   3.726
 7427SOL    HW123180   3.811   0.827   3.659
 7427SOL    HW223181   3.906   0.896   3.772
 7428SOL     OW23182   4.333   0.817   5.279
 7428SOL    HW123183   4.260   0.761   5.242
 7428SOL    HW223184   4.420   0.767   5.274
 7429SOL     OW23185   1.166   6.562   3.212
 7429SOL    HW123186   1.250   6.567   3.264
 7429SOL    HW223187   1.141   6.653   3.180
 7430SOL     OW23188   6.550   4.175   1.528
 7430SOL    HW123189   6.566   4.241   1.454
 7430SOL    HW223190   6.633   4.122   1.544
 7431SOL     OW23191   1.586   2.016   3.600
 7431SOL    HW123192   1.677   1.977   3.615
 7431SOL    HW223193   1.550   1.984   3.512
 7432SOL     OW23194   2.298   0.312   3.018
 7432SOL    HW123195   2.238   0.378   3.062
 7432SOL    HW223196   2.389   0.352   3.007
 7433SOL     OW23197   3.597   6.467   6.683
 7433SOL    HW123198   3.524   6.534   6.692
 7433SOL    HW223199   3.686   6.512   6.695
 7434SOL     OW23200   4.531   5.835   5.341
 7434SOL    HW123201   4.551   5.884   5.426
 7434SOL    HW223202   4.569   5.886   5.264
 7435SOL     OW23203   4.256   6.038   1.976
 7435SOL    HW123204   4.355   6.025   1.970
 7435SOL    HW223205   4.217   6.047   1.884
 7436SOL     OW23206   4.409   4.669   6.267
 7436SOL    HW123207   4.359   4.733   6.208
 7436SOL    HW223208   4.346   4.631   6.335
 7437SOL     OW23209   2.992   5.907   1.456
 7437SOL    HW123210   3.065   5.848   1.491
 7437SOL    HW223211   2.960   5.968   1.529
 7438SOL     OW23212   2.186   0.196   0.138
 7438SOL    HW123213   2.269   0.152   0.174
 7438SOL    HW223214   2.125   0.218   0.214
 7439SOL     OW23215   1.451   5.771   5.056
 7439SOL    HW123216   1.401   5.846   5.101
 7439SOL    HW223217   1.413   5.684   5.086
 7440SOL     OW23218   6.020   3.489   3.823
 7440SOL    HW123219   5.981   3.576   3.795
 7440SOL    HW223220   5.995   3.470   3.918
 7441SOL     OW23221   6.091   6.919   3.507
 7441SOL    HW123222   6.168   6.961   3.554
 7441SOL    HW223223   6.064   6.836   3.555
 7442SOL     OW23224   6.149   1.138   6.398
 7442SOL    HW123225   6.154   1.236   6.380
 7442SOL    HW223226   6.063   1.101   6.361
 7443SOL     OW23227   6.941   5.349   1.976
 7443SOL    HW123228   6.961   5.444   1.997
 7443SOL    HW223229   6.861   5.343   1.917
 7444SOL     OW23230   6.503   1.470   6.218
 7444SOL    HW123231   6.499   1.382   6.266
 7444SOL    HW223232   6.435   1.533   6.257
 7445SOL     OW23233   3.459   0.231   1.219
 7445SOL    HW123234   3.530   0.204   1.284
 7445SOL    HW223235   3.371   0.236   1.266
 7446SOL     OW23236   5.183   2.271   0.299
 7446SOL    HW123237   5.136   2.216   0.230
 7446SOL    HW223238   5.249   2.331   0.255
 7447SOL     OW23239   6.649   4.671   6.148
 7447SOL    HW123240   6.620   4.583   6.111
 7447SOL    HW223241   6.731   4.659   6.204
 7448SOL     OW23242   5.108   6.427   5.190
 7448SOL    HW123243   5.067   6.518   5.188
 7448SOL    HW223244   5.184   6.423   5.125
 7449SOL     OW23245   0.448   5.610   0.179
 7449SOL    HW123246   0.533   5.662   0.188
 7449SOL    HW223247   0.452   5.556   0.095
 7450SOL     OW23248   5.233   2.513   5.547
 7450SOL    HW123249   5.158   2.456   5.514
 7450SOL    HW223250   5.305   2.455   5.584
 7451SOL     OW23251   5.339   5.503   2.566
 7451SOL    HW123252   5.411   5.475   2.629
 7451SOL    HW223253   5.280   5.425   2.545
 7452SOL     OW23254   6.494   5.833   4.374
 7452SOL    HW123255   6.593   5.842   4.362
 7452SOL    HW223256   6.473   5.832   4.472
 7453SOL     OW23257   4.449   5.486   6.024
 7453SOL    HW123258   4.489   5.422   5.958
 7453SOL    HW223259   4.468   5.454   6.117
 7454SOL     OW23260   2.527   1.420   0.525
 7454SOL    HW123261   2.617   1.464   0.515
 7454SOL    HW223262   2.532   1.349   0.595
 7455SOL     OW23263   6.364   3.103   2.284
 7455SOL    HW123264   6.338   3.143   2.196
 7455SOL    HW223265   6.459   3.125   2.305
 7456SOL     OW23266   2.926   1.595   4.899
 7456SOL    HW123267   2.831   1.569   4.880
 7456SOL    HW223268   2.937   1.693   4.882
 7457SOL     OW23269   3.130   0.236   3.886
 7457SOL    HW123270   3.092   0.312   3.834
 7457SOL    HW223271   3.135   0.155   3.827
 7458SOL     OW23272   1.488   0.632   6.025
 7458SOL    HW123273   1.398   0.675   6.016
 7458SOL    HW223274   1.545   0.688   6.086
 7459SOL     OW23275   6.482   1.199   2.224
 7459SOL    HW123276   6.547   1.124   2.216
 7459SOL    HW223277   6.480   1.250   2.138
 7460SOL     OW23278   1.693   6.083   6.823
 7460SOL    HW123279   1.739   6.017   6.763
 7460SOL    HW223280   1.744   6.169   6.823
 7461SOL     OW23281   6.001   6.036   5.775
 7461SOL    HW123282   6.012   6.130   5.806
 7461SOL    HW223283   5.914   6.000   5.807
 7462SOL     OW23284   1.904   4.864   1.831
 7462SOL    HW123285   1.858   4.933   1.775
 7462SOL    HW223286   1.997   4.895   1.853
 7463SOL     OW23287   3.560   3.933   0.403
 7463SOL    HW123288   3.517   4.012   0.359
 7463SOL    HW223289   3.659   3.939   0.393
 7464SOL     OW23290   6.725   6.758   5.216
 7464SOL    HW123291   6.665   6.811   5.156
 7464SOL    HW223292   6.722   6.662   5.190
 7465SOL     OW23293   2.939   5.137   0.306
 7465SOL    HW123294   2.841   5.155   0.318
 7465SOL    HW223295   2.952   5.039   0.288
 7466SOL     OW23296   0.736   0.748   6.316
 7466SOL    HW123297   0.738   0.652   6.342
 7466SOL    HW223298   0.820   0.793   6.349
 7467SOL     OW23299   0.509   2.281   6.312
 7467SOL    HW123300   0.519   2.215   6.386
 7467SOL    HW223301   0.541   2.241   6.226
 7468SOL     OW23302   5.061   2.600   4.063
 7468SOL    HW123303   4.964   2.577   4.053
 7468SOL    HW223304   5.087   2.667   3.994
 7469SOL     OW23305   6.600   1.930   0.407
 7469SOL    HW123306   6.564   1.982   0.485
 7469SOL    HW223307   6.694   1.902   0.427
 7470SOL     OW23308   5.497   4.103   3.436
 7470SOL    HW123309   5.582   4.051   3.437
 7470SOL    HW223310   5.516   4.200   3.451
 7471SOL     OW23311   4.990   5.865   5.567
 7471SOL    HW123312   4.906   5.816   5.590
 7471SOL    HW223313   5.038   5.889   5.651
 7472SOL     OW23314   5.997   1.038   5.352
 7472SOL    HW123315   6.071   1.011   5.413
 7472SOL    HW223316   5.942   1.109   5.396
 7473SOL     OW23317   5.652   6.437   3.773
 7473SOL    HW123318   5.675   6.486   3.689
 7473SOL    HW223319   5.622   6.344   3.751
 7474SOL     OW23320   6.383   2.696   6.713
 7474SOL    HW123321   6.317   2.770   6.706
 7474SOL    HW223322   6.469   2.724   6.668
 7475SOL     OW23323   4.375   2.398   2.056
 7475SOL    HW123324   4.337   2.312   2.089
 7475SOL    HW223325   4.423   2.444   2.130
 7476SOL     OW23326   1.880   2.068   3.141
 7476SOL    HW123327   1.934   1.985   3.136
 7476SOL    HW223328   1.816   2.071   3.064
 7477SOL     OW23329   0.366   3.207   5.275
 7477SOL    HW123330   0.353   3.120   5.324
 7477SOL    HW223331   0.436   3.195   5.205
 7478SOL     OW23332   5.387   3.740   5.440
 7478SOL    HW123333   5.368   3.752   5.343
 7478SOL    HW223334   5.357   3.648   5.468
 7479SOL     OW23335   5.160   3.063   0.528
 7479SOL    HW123336   5.101   3.086   0.605
 7479SOL    HW223337   5.105   3.056   0.445
 7480SOL     OW23338   2.107   4.789   2.383
 7480SOL    HW123339   2.031   4.738   2.340
 7480SOL    HW223340   2.184   4.727   2.397
 7481SOL     OW23341   6.341   4.796   6.676
 7481SOL    HW123342   6.271   4.754   6.619
 7481SOL    HW223343   6.327   4.895   6.679
 7482SOL     OW23344   4.312   2.262   2.381
 7482SOL    HW123345   4.406   2.258   2.414
 7482SOL    HW223346   4.292   2.355   2.347
 7483SOL     OW23347   4.732   2.749   4.543
 7483SOL    HW123348   4.674   2.765   4.623
 7483SOL    HW223349   4.828   2.749   4.571
 7484SOL     OW23350   1.654   5.147   4.733
 7484SOL    HW123351   1.659   5.243   4.761
 7484SOL    HW223352   1.743   5.103   4.749
 7485SOL     OW23353   2.864   6.878   3.782
 7485SOL    HW123354   2.824   6.809   3.721
 7485SOL    HW223355   2.829   6.969   3.756
 7486SOL     OW23356   0.864   6.210   0.055
 7486SOL    HW123357   0.904   6.268   0.126
 7486SOL    HW223358   0.931   6.198   7.007
 7487SOL     OW23359   3.966   0.758   3.235
 7487SOL    HW123360   3.944   0.717   3.146
 7487SOL    HW223361   4.024   0.695   3.287
 7488SOL     OW23362   1.940   6.086   4.937
 7488SOL    HW123363   1.927   6.043   4.848
 7488SOL    HW223364   2.034   6.116   4.947
 7489SOL     OW23365   6.495   3.377   0.076
 7489SOL    HW123366   6.439   3.440   0.129
 7489SOL    HW223367   6.447   3.289   0.067
 7490SOL     OW23368   1.800   1.450   2.296
 7490SOL    HW123369   1.886   1.474   2.253
 7490SOL    HW223370   1.814   1.433   2.393
 7491SOL     OW23371   4.920   2.725   0.289
 7491SOL    HW123372   4.992   2.685   0.232
 7491SOL    HW223373   4.916   2.676   0.377
 7492SOL     OW23374   2.099   1.185   4.338
 7492SOL    HW123375   2.054   1.263   4.296
 7492SOL    HW223376   2.185   1.166   4.290
 7493SOL     OW23377   6.623   3.067   5.252
 7493SOL    HW123378   6.530   3.051   5.284
 7493SOL    HW223379   6.628   3.154   5.204
 7494SOL     OW23380   5.666   0.978   4.090
 7494SOL    HW123381   5.648   0.986   3.992
 7494SOL    HW223382   5.711   1.061   4.122
 7495SOL     OW23383   1.548   2.487   4.798
 7495SOL    HW123384   1.608   2.568   4.796
 7495SOL    HW223385   1.566   2.431   4.717
 7496SOL     OW23386   5.495   3.346   4.302
 7496SOL    HW123387   5.584   3.309   4.328
 7496SOL    HW223388   5.423   3.301   4.354
 7497SOL     OW23389   1.711   6.236   1.424
 7497SOL    HW123390   1.632   6.233   1.363
 7497SOL    HW223391   1.757   6.148   1.424
 7498SOL     OW23392   2.282   0.843   3.732
 7498SOL    HW123393   2.206   0.792   3.773
 7498SOL    HW223394   2.251   0.886   3.647
 7499SOL     OW23395   4.383   1.912   3.412
 7499SOL    HW123396   4.293   1.871   3.419
 7499SOL    HW223397   4.377   1.997   3.361
 7500SOL     OW23398   3.396   5.600   3.455
 7500SOL    HW123399   3.419   5.526   3.392
 7500SOL    HW223400   3.300   5.627   3.442
 7501SOL     OW23401   5.686   3.553   3.933
 7501SOL    HW123402   5.603   3.531   3.983
 7501SOL    HW223403   5.729   3.634   3.973
 7502SOL     OW23404   3.611   6.991   4.028
 7502SOL    HW123405   3.685   6.955   3.972
 7502SOL    HW223406   3.548   0.018   3.972
 7503SOL     OW23407   1.908   6.051   0.609
 7503SOL    HW123408   1.880   6.131   0.557
 7503SOL    HW223409   1.921   5.973   0.548
 7504SOL     OW23410   0.342   6.227   2.237
 7504SOL    HW123411   0.257   6.174   2.237
 7504SOL    HW223412   0.346   6.282   2.154
 7505SOL     OW23413   1.277   1.666   5.861
 7505SOL    HW123414   1.296   1.578   5.818
 7505SOL    HW223415   1.264   1.736   5.790
 7506SOL     OW23416   3.975   2.194   3.545
 7506SOL    HW123417   3.924   2.198   3.459
 7506SOL    HW223418   4.061   2.244   3.535
 7507SOL     OW23419   6.491   3.038   3.902
 7507SOL    HW123420   6.404   3.010   3.943
 7507SOL    HW223421   6.546   2.957   3.883
 7508SOL     OW23422   1.874   5.276   0.609
 7508SOL    HW123423   1.892   5.355   0.550
 7508SOL    HW223424   1.877   5.192   0.554
 7509SOL     OW23425   5.907   3.270   0.655
 7509SOL    HW123426   5.871   3.179   0.676
 7509SOL    HW223427   5.964   3.301   0.731
 7510SOL     OW23428   3.966   3.589   3.878
 7510SOL    HW123429   3.939   3.656   3.809
 7510SOL    HW223430   3.884   3.546   3.916
 7511SOL     OW23431   2.783   5.901   3.672
 7511SOL    HW123432   2.752   5.967   3.740
 7511SOL    HW223433   2.765   5.808   3.705
 7512SOL     OW23434   2.981   0.876   6.753
 7512SOL    HW123435   2.984   0.886   6.852
 7512SOL    HW223436   2.889   0.850   6.725
 7513SOL     OW23437   2.318   2.266   3.239
 7513SOL    HW123438   2.250   2.323   3.194
 7513SOL    HW223439   2.329   2.181   3.188
 7514SOL     OW23440   1.898   5.051   3.997
 7514SOL    HW123441   1.844   4.989   3.940
 7514SOL    HW223442   1.915   5.136   3.947
 7515SOL     OW23443   6.792   4.296   4.988
 7515SOL    HW123444   6.822   4.208   5.025
 7515SOL    HW223445   6.869   4.340   4.940
 7516SOL     OW23446   0.744   5.449   6.015
 7516SOL    HW123447   0.756   5.548   6.021
 7516SOL    HW223448   0.753   5.420   5.919
 7517SOL     OW23449   1.297   2.483   7.016
 7517SOL    HW123450   1.392   2.513   7.006
 7517SOL    HW223451   1.292   2.384   7.000
 7518SOL     OW23452   4.853   3.242   3.924
 7518SOL    HW123453   4.847   3.157   3.977
 7518SOL    HW223454   4.880   3.221   3.830
 7519SOL     OW23455   5.419   6.982   4.063
 7519SOL    HW123456   5.486   6.922   4.018
 7519SOL    HW223457   5.426   0.048   4.024
 7520SOL     OW23458   1.181   1.392   2.415
 7520SOL    HW123459   1.212   1.483   2.444
 7520SOL    HW223460   1.181   1.387   2.315
 7521SOL     OW23461   4.594   2.019   4.738
 7521SOL    HW123462   4.625   2.034   4.832
 7521SOL    HW223463   4.595   1.921   4.718
 7522SOL     OW23464   1.673   0.266   5.176
 7522SOL    HW123465   1.681   0.334   5.249
 7522SOL    HW223466   1.606   0.296   5.108
 7523SOL     OW23467   5.052   0.848   6.048
 7523SOL    HW123468   5.071   0.930   6.101
 7523SOL    HW223469   5.121   0.778   6.068
 7524SOL     OW23470   0.061   2.960   4.935
 7524SOL    HW123471   0.013   2.874   4.955
 7524SOL    HW223472   0.020   3.034   4.988
 7525SOL     OW23473   4.221   6.633   6.652
 7525SOL    HW123474   4.234   6.703   6.582
 7525SOL    HW223475   4.144   6.574   6.626
 7526SOL     OW23476   2.388   2.700   1.695
 7526SOL    HW123477   2.468   2.717   1.753
 7526SOL    HW223478   2.411   2.629   1.628
 7527SOL     OW23479   3.440   5.458   3.936
 7527SOL    HW123480   3.453   5.515   4.017
 7527SOL    HW223481   3.437   5.516   3.854
 7528SOL     OW23482   5.492   2.366   6.694
 7528SOL    HW123483   5.496   2.354   6.595
 7528SOL    HW223484   5.580   2.397   6.728
 7529SOL     OW23485   5.060   2.122   4.049
 7529SOL    HW123486   5.155   2.094   4.034
 7529SOL    HW223487   5.045   2.141   4.146
 7530SOL     OW23488   6.278   1.395   2.067
 7530SOL    HW123489   6.273   1.433   1.974
 7530SOL    HW223490   6.208   1.437   2.124
 7531SOL     OW23491   5.062   3.158   3.274
 7531SOL    HW123492   4.974   3.121   3.246
 7531SOL    HW223493   5.132   3.131   3.208
 7532SOL     OW23494   4.839   6.195   5.982
 7532SOL    HW123495   4.823   6.155   5.892
 7532SOL    HW223496   4.798   6.286   5.986
 7533SOL     OW23497   4.499   2.671   1.525
 7533SOL    HW123498   4.544   2.750   1.566
 7533SOL    HW223499   4.407   2.662   1.564
 7534SOL     OW23500   4.544   5.822   4.630
 7534SOL    HW123501   4.566   5.779   4.543
 7534SOL    HW223502   4.461   5.877   4.620
 7535SOL     OW23503   1.590   6.341   4.684
 7535SOL    HW123504   1.668   6.306   4.737
 7535SOL    HW223505   1.531   6.264   4.658
 7536SOL     OW23506   5.555   6.111   3.963
 7536SOL    HW123507   5.575   6.019   3.928
 7536SOL    HW223508   5.461   6.135   3.939
 7537SOL     OW23509   1.810   5.008   2.249
 7537SOL    HW123510   1.906   5.012   2.276
 7537SOL    HW223511   1.799   4.946   2.172
 7538SOL     OW23512   1.766   2.712   1.747
 7538SOL    HW123513   1.792   2.641   1.813
 7538SOL    HW223514   1.672   2.742   1.766
 7539SOL     OW23515   1.507   4.944   3.338
 7539SOL    HW123516   1.470   4.892   3.261
 7539SOL    HW223517   1.557   4.882   3.399
 7540SOL     OW23518   4.637   6.116   4.427
 7540SOL    HW123519   4.556   6.148   4.476
 7540SOL    HW223520   4.697   6.067   4.489
 7541SOL     OW23521   0.667   4.708   6.265
 7541SOL    HW123522   0.729   4.634   6.243
 7541SOL    HW223523   0.638   4.701   6.360
 7542SOL     OW23524   6.625   5.589   5.409
 7542SOL    HW123525   6.539   5.559   5.369
 7542SOL    HW223526   6.620   5.686   5.432
 7543SOL     OW23527   2.795   0.538   4.983
 7543SOL    HW123528   2.731   0.467   4.955
 7543SOL    HW223529   2.797   0.610   4.914
 7544SOL     OW23530   0.661   2.721   4.579
 7544SOL    HW123531   0.609   2.752   4.500
 7544SOL    HW223532   0.599   2.704   4.656
 7545SOL     OW23533   0.535   6.406   5.831
 7545SOL    HW123534   0.473   6.327   5.828
 7545SOL    HW223535   0.627   6.377   5.802
 7546SOL     OW23536   4.881   2.554   1.472
 7546SOL    HW123537   4.831   2.630   1.430
 7546SOL    HW223538   4.895   2.481   1.405
 7547SOL     OW23539   4.618   0.404   0.943
 7547SOL    HW123540   4.704   0.360   0.919
 7547SOL    HW223541   4.636   0.481   1.005
 7548SOL     OW23542   4.182   2.355   7.002
 7548SOL    HW123543   4.115   2.319   6.937
 7548SOL    HW223544   4.206   2.448   6.977
 7549SOL     OW23545   3.496   2.592   6.804
 7549SOL    HW123546   3.443   2.524   6.854
 7549SOL    HW223547   3.438   2.637   6.736
 7550SOL     OW23548   1.741   4.225   3.533
 7550SOL    HW123549   1.732   4.223   3.434
 7550SOL    HW223550   1.821   4.281   3.558
 7551SOL     OW23551   5.463   2.945   5.176
 7551SOL    HW123552   5.514   3.012   5.123
 7551SOL    HW223553   5.436   2.869   5.117
 7552SOL     OW23554   1.693   6.074   4.502
 7552SOL    HW123555   1.678   6.009   4.427
 7552SOL    HW223556   1.672   6.167   4.470
 7553SOL     OW23557   5.593   6.335   5.713
 7553SOL    HW123558   5.561   6.240   5.710
 7553SOL    HW223559   5.528   6.393   5.662
 7554SOL     OW23560   5.026   0.631   0.523
 7554SOL    HW123561   5.055   0.560   0.458
 7554SOL    HW223562   5.097   0.701   0.529
 7555SOL     OW23563   3.071   5.846   6.395
 7555SOL    HW123564   3.109   5.874   6.307
 7555SOL    HW223565   2.977   5.880   6.402
 7556SOL     OW23566   1.321   1.430   0.647
 7556SOL    HW123567   1.342   1.512   0.594
 7556SOL    HW223568   1.369   1.352   0.606
 7557SOL     OW23569   4.427   0.088   6.953
 7557SOL    HW123570   4.491   0.097   6.877
 7557SOL    HW223571   4.473   0.108   0.013
 7558SOL     OW23572   1.650   2.895   3.490
 7558SOL    HW123573   1.571   2.895   3.430
 7558SOL    HW223574   1.648   2.975   3.550
 7559SOL     OW23575   3.802   2.367   5.339
 7559SOL    HW123576   3.845   2.280   5.316
 7559SOL    HW223577   3.866   2.442   5.320
 7560SOL     OW23578   6.381   0.183   0.011
 7560SOL    HW123579   6.377   0.154   0.107
 7560SOL    HW223580   6.289   0.203   7.004
 7561SOL     OW23581   5.775   3.553   5.504
 7561SOL    HW123582   5.872   3.566   5.483
 7561SOL    HW223583   5.730   3.642   5.511
 7562SOL     OW23584   1.048   4.726   4.857
 7562SOL    HW123585   1.136   4.754   4.894
 7562SOL    HW223586   1.028   4.632   4.886
 7563SOL     OW23587   2.346   6.093   2.813
 7563SOL    HW123588   2.247   6.081   2.800
 7563SOL    HW223589   2.365   6.113   2.909
 7564SOL     OW23590   3.757   0.795   4.825
 7564SOL    HW123591   3.729   0.729   4.894
 7564SOL    HW223592   3.850   0.775   4.795
 7565SOL     OW23593   6.158   4.478   5.577
 7565SOL    HW123594   6.252   4.459   5.604
 7565SOL    HW223595   6.144   4.449   5.482
 7566SOL     OW23596   5.248   4.951   2.288
 7566SOL    HW123597   5.255   4.851   2.290
 7566SOL    HW223598   5.338   4.990   2.269
 7567SOL     OW23599   1.016   1.146   4.802
 7567SOL    HW123600   1.045   1.238   4.777
 7567SOL    HW223601   0.987   1.096   4.720
 7568SOL     OW23602   5.536   5.358   1.871
 7568SOL    HW123603   5.542   5.380   1.968
 7568SOL    HW223604   5.626   5.364   1.829
 7569SOL     OW23605   4.248   4.271   6.619
 7569SOL    HW123606   4.278   4.225   6.535
 7569SOL    HW223607   4.255   4.207   6.696
 7570SOL     OW23608   6.985   2.618   4.046
 7570SOL    HW123609   7.002   2.716   4.052
 7570SOL    HW223610   7.018   2.573   4.130
 7571SOL     OW23611   5.156   3.789   3.093
 7571SOL    HW123612   5.220   3.763   3.021
 7571SOL    HW223613   5.081   3.723   3.097
 7572SOL     OW23614   5.334   6.549   2.954
 7572SOL    HW123615   5.247   6.516   2.991
 7572SOL    HW223616   5.364   6.630   3.005
 7573SOL     OW23617   5.870   0.575   5.801
 7573SOL    HW123618   5.889   0.634   5.880
 7573SOL    HW223619   5.812   0.499   5.829
 7574SOL     OW23620   5.721   1.761   4.465
 7574SOL    HW123621   5.659   1.729   4.393
 7574SOL    HW223622   5.761   1.682   4.510
 7575SOL     OW23623   6.169   6.369   0.301
 7575SOL    HW123624   6.171   6.332   0.393
 7575SOL    HW223625   6.194   6.466   0.304
 7576SOL     OW23626   5.355   2.409   0.118
 7576SOL    HW123627   5.434   2.437   0.063
 7576SOL    HW223628   5.273   2.410   0.061
 7577SOL     OW23629   6.913   6.292   6.967
 7577SOL    HW123630   6.950   6.381   6.939
 7577SOL    HW223631   6.917   6.284   0.040
 7578SOL     OW23632   1.313   5.212   2.388
 7578SOL    HW123633   1.336   5.229   2.292
 7578SOL    HW223634   1.365   5.134   2.421
 7579SOL     OW23635   6.662   1.673   1.219
 7579SOL    HW123636   6.678   1.770   1.238
 7579SOL    HW223637   6.738   1.636   1.165
 7580SOL     OW23638   1.592   4.670   3.461
 7580SOL    HW123639   1.507   4.617   3.468
 7580SOL    HW223640   1.656   4.622   3.401
 7581SOL     OW23641   0.527   1.179   1.086
 7581SOL    HW123642   0.598   1.129   1.037
 7581SOL    HW223643   0.494   1.125   1.163
 7582SOL     OW23644   4.012   1.531   3.662
 7582SOL    HW123645   3.923   1.528   3.617
 7582SOL    HW223646   4.067   1.605   3.623
 7583SOL     OW23647   5.248   4.051   3.037
 7583SOL    HW123648   5.290   4.044   2.947
 7583SOL    HW223649   5.208   3.962   3.062
 7584SOL     OW23650   1.106   6.648   2.636
 7584SOL    HW123651   1.179   6.688   2.691
 7584SOL    HW223652   1.102   6.549   2.652
 7585SOL     OW23653   0.834   2.555   6.892
 7585SOL    HW123654   0.800   2.464   6.865
 7585SOL    HW223655   0.914   2.544   6.951
 7586SOL     OW23656   1.918   0.282   2.474
 7586SOL    HW123657   1.833   0.278   2.526
 7586SOL    HW223658   1.898   0.278   2.376
 7587SOL     OW23659   2.821   1.407   0.605
 7587SOL    HW123660   2.878   1.336   0.646
 7587SOL    HW223661   2.795   1.474   0.674
 7588SOL     OW23662   1.376   2.584   4.103
 7588SOL    HW123663   1.353   2.509   4.041
 7588SOL    HW223664   1.359   2.556   4.198
 7589SOL     OW23665   6.994   1.362   3.146
 7589SOL    HW123666   0.038   1.300   3.182
 7589SOL    HW223667   6.967   1.332   3.054
 7590SOL     OW23668   6.529   1.413   6.830
 7590SOL    HW123669   6.469   1.492   6.819
 7590SOL    HW223670   6.524   1.356   6.748
 7591SOL     OW23671   4.798   3.056   6.427
 7591SOL    HW123672   4.794   2.969   6.377
 7591SOL    HW223673   4.719   3.113   6.402
 7592SOL     OW23674   6.554   4.850   4.614
 7592SOL    HW123675   6.456   4.870   4.620
 7592SOL    HW223676   6.577   4.776   4.677
 7593SOL     OW23677   6.845   2.768   6.178
 7593SOL    HW123678   6.873   2.707   6.253
 7593SOL    HW223679   6.777   2.721   6.122
 7594SOL     OW23680   0.758   4.238   1.915
 7594SOL    HW123681   0.837   4.297   1.900
 7594SOL    HW223682   0.774   4.149   1.871
 7595SOL     OW23683   6.522   3.735   6.367
 7595SOL    HW123684   6.579   3.776   6.296
 7595SOL    HW223685   6.431   3.715   6.330
 7596SOL     OW23686   3.208   0.108   5.086
 7596SOL    HW123687   3.110   0.120   5.101
 7596SOL    HW223688   3.258   0.138   5.167
 7597SOL     OW23689   1.937   6.274   2.931
 7597SOL    HW123690   1.920   6.283   3.030
 7597SOL    HW223691   2.006   6.340   2.903
 7598SOL     OW23692   6.114   0.747   2.987
 7598SOL    HW123693   6.048   0.770   3.059
 7598SOL    HW223694   6.184   0.818   2.982
 7599SOL     OW23695   5.192   3.085   1.052
 7599SOL    HW123696   5.171   3.097   1.149
 7599SOL    HW223697   5.204   2.988   1.032
 7600SOL     OW23698   1.426   0.937   3.823
 7600SOL    HW123699   1.513   0.903   3.789
 7600SOL    HW223700   1.411   0.908   3.917
 7601SOL     OW23701   3.103   5.189   2.338
 7601SOL    HW123702   3.106   5.264   2.272
 7601SOL    HW223703   3.037   5.211   2.410
 7602SOL     OW23704   0.468   2.899   0.186
 7602SOL    HW123705   0.430   2.927   0.098
 7602SOL    HW223706   0.476   2.980   0.245
 7603SOL     OW23707   2.121   6.774   5.798
 7603SOL    HW123708   2.171   6.702   5.845
 7603SOL    HW223709   2.161   6.788   5.707
 7604SOL     OW23710   1.772   1.937   4.976
 7604SOL    HW123711   1.692   1.997   4.974
 7604SOL    HW223712   1.755   1.857   4.918
 7605SOL     OW23713   0.686   0.525   0.533
 7605SOL    HW123714   0.724   0.442   0.493
 7605SOL    HW223715   0.746   0.558   0.606
 7606SOL     OW23716   5.794   2.764   5.019
 7606SOL    HW123717   5.718   2.704   5.042
 7606SOL    HW223718   5.780   2.803   4.928
 7607SOL     OW23719   3.886   5.737   0.695
 7607SOL    HW123720   3.843   5.747   0.605
 7607SOL    HW223721   3.937   5.651   0.699
 7608SOL     OW23722   5.405   2.273   6.104
 7608SOL    HW123723   5.367   2.285   6.196
 7608SOL    HW223724   5.505   2.281   6.109
 7609SOL     OW23725   0.484   3.646   3.901
 7609SOL    HW123726   0.453   3.707   3.974
 7609SOL    HW223727   0.407   3.594   3.866
 7610SOL     OW23728   3.462   4.766   6.211
 7610SOL    HW123729   3.550   4.812   6.211
 7610SOL    HW223730   3.470   4.678   6.163
 7611SOL     OW23731   5.248   3.748   1.467
 7611SOL    HW123732   5.294   3.668   1.505
 7611SOL    HW223733   5.181   3.783   1.533
 7612SOL     OW23734   4.047   2.171   3.101
 7612SOL    HW123735   3.989   2.252   3.105
 7612SOL    HW223736   4.100   2.172   3.016
 7613SOL     OW23737   0.751   2.107   1.976
 7613SOL    HW123738   0.837   2.091   1.927
 7613SOL    HW223739   0.760   2.189   2.033
 7614SOL     OW23740   4.977   3.233   0.980
 7614SOL    HW123741   5.056   3.186   1.019
 7614SOL    HW223742   4.929   3.283   1.051
 7615SOL     OW23743   5.380   3.945   5.634
 7615SOL    HW123744   5.407   4.035   5.600
 7615SOL    HW223745   5.391   3.877   5.561
 7616SOL     OW23746   6.273   0.485   3.132
 7616SOL    HW123747   6.330   0.408   3.102
 7616SOL    HW223748   6.217   0.516   3.055
 7617SOL     OW23749   5.338   4.694   2.927
 7617SOL    HW123750   5.308   4.615   2.874
 7617SOL    HW223751   5.262   4.728   2.982
 7618SOL     OW23752   1.539   2.185   0.215
 7618SOL    HW123753   1.537   2.256   0.285
 7618SOL    HW223754   1.618   2.125   0.229
 7619SOL     OW23755   0.244   2.810   4.269
 7619SOL    HW123756   0.253   2.712   4.286
 7619SOL    HW223757   0.155   2.841   4.302
 7620SOL     OW23758   3.490   4.157   0.259
 7620SOL    HW123759   3.430   4.231   0.228
 7620SOL    HW223760   3.565   4.145   0.194
 7621SOL     OW23761   0.352   6.281   0.828
 7621SOL    HW123762   0.290   6.266   0.750
 7621SOL    HW223763   0.300   6.321   0.904
 7622SOL     OW23764   4.395   4.379   0.026
 7622SOL    HW123765   4.413   4.287   7.018
 7622SOL    HW223766   4.464   4.403   0.095
 7623SOL     OW23767   4.139   4.621   0.537
 7623SOL    HW123768   4.181   4.665   0.616
 7623SOL    HW223769   4.208   4.564   0.491
 7624SOL     OW23770   0.220   2.677   2.960
 7624SOL    HW123771   0.137   2.727   2.984
 7624SOL    HW223772   0.260   2.638   3.043
 7625SOL     OW23773   5.547   2.014   0.225
 7625SOL    HW123774   5.477   2.027   0.155
 7625SOL    HW223775   5.504   1.988   0.311
 7626SOL     OW23776   6.583   0.983   6.079
 7626SOL    HW123777   6.676   1.021   6.085
 7626SOL    HW223778   6.584   0.904   6.017
 7627SOL     OW23779   3.120   1.904   0.848
 7627SOL    HW123780   3.057   1.860   0.912
 7627SOL    HW223781   3.159   1.835   0.787
 7628SOL     OW23782   4.131   3.080   1.186
 7628SOL    HW123783   4.133   2.989   1.227
 7628SOL    HW223784   4.114   3.148   1.257
 7629SOL     OW23785   6.343   3.781   3.964
 7629SOL    HW123786   6.326   3.774   4.062
 7629SOL    HW223787   6.418   3.845   3.948
 7630SOL     OW23788   1.371   0.136   5.612
 7630SOL    HW123789   1.438   0.129   5.686
 7630SOL    HW223790   1.412   0.181   5.533
 7631SOL     OW23791   1.304   0.508   5.712
 7631SOL    HW123792   1.276   0.604   5.718
 7631SOL    HW223793   1.238   0.457   5.657
 7632SOL     OW23794   4.440   4.853   0.961
 7632SOL    HW123795   4.412   4.759   0.941
 7632SOL    HW223796   4.379   4.892   1.030
 7633SOL     OW23797   6.136   0.464   1.233
 7633SOL    HW123798   6.122   0.402   1.310
 7633SOL    HW223799   6.132   0.413   1.147
 7634SOL     OW23800   1.230   1.198   1.583
 7634SOL    HW123801   1.277   1.244   1.507
 7634SOL    HW223802   1.132   1.212   1.576
 7635SOL     OW23803   2.574   4.979   4.698
 7635SOL    HW123804   2.564   5.059   4.639
 7635SOL    HW223805   2.547   5.003   4.792
 7636SOL     OW23806   0.442   4.138   4.096
 7636SOL    HW123807   0.428   4.229   4.134
 7636SOL    HW223808   0.507   4.088   4.153
 7637SOL     OW23809   0.952   6.463   3.371
 7637SOL    HW123810   0.958   6.389   3.304
 7637SOL    HW223811   1.036   6.517   3.369
 7638SOL     OW23812   1.305   5.203   1.346
 7638SOL    HW123813   1.318   5.270   1.273
 7638SOL    HW223814   1.383   5.206   1.408
 7639SOL     OW23815   0.464   0.731   0.237
 7639SOL    HW123816   0.447   0.682   0.322
 7639SOL    HW223817   0.560   0.759   0.233
 7640SOL     OW23818   3.369   1.962   6.779
 7640SOL    HW123819   3.417   2.022   6.715
 7640SOL    HW223820   3.374   2.002   6.871
 7641SOL     OW23821   0.119   3.886   2.859
 7641SOL    HW123822   0.194   3.937   2.815
 7641SOL    HW223823   0.035   3.940   2.853
 7642SOL     OW23824   6.042   1.102   2.628
 7642SOL    HW123825   6.065   1.104   2.725
 7642SOL    HW223826   5.993   1.186   2.603
 7643SOL     OW23827   5.279   1.864   3.089
 7643SOL    HW123828   5.248   1.821   3.004
 7643SOL    HW223829   5.202   1.878   3.150
 7644SOL     OW23830   4.925   2.912   2.475
 7644SOL    HW123831   5.014   2.873   2.499
 7644SOL    HW223832   4.920   2.924   2.376
 7645SOL     OW23833   4.178   3.295   5.148
 7645SOL    HW123834   4.089   3.314   5.191
 7645SOL    HW223835   4.173   3.315   5.051
 7646SOL     OW23836   0.667   3.053   3.080
 7646SOL    HW123837   0.729   3.037   3.003
 7646SOL    HW223838   0.611   2.972   3.096
 7647SOL     OW23839   0.927   2.754   4.650
 7647SOL    HW123840   0.991   2.736   4.575
 7647SOL    HW223841   0.833   2.736   4.619
 7648SOL     OW23842   2.341   1.481   2.449
 7648SOL    HW123843   2.290   1.397   2.468
 7648SOL    HW223844   2.365   1.485   2.352
 7649SOL     OW23845   1.137   1.368   4.721
 7649SOL    HW123846   1.109   1.435   4.653
 7649SOL    HW223847   1.232   1.384   4.747
 7650SOL     OW23848   5.060   1.167   1.042
 7650SOL    HW123849   5.120   1.143   1.118
 7650SOL    HW223850   5.108   1.229   0.979
 7651SOL     OW23851   2.197   5.157   4.477
 7651SOL    HW123852   2.207   5.137   4.575
 7651SOL    HW223853   2.226   5.078   4.424
 7652SOL     OW23854   5.829   2.415   5.090
 7652SOL    HW123855   5.888   2.372   5.159
 7652SOL    HW223856   5.769   2.481   5.135
 7653SOL     OW23857   1.189   1.416   0.315
 7653SOL    HW123858   1.242   1.482   0.261
 7653SOL    HW223859   1.227   1.412   0.408
 7654SOL     OW23860   5.615   2.913   4.861
 7654SOL    HW123861   5.601   2.929   4.763
 7654SOL    HW223862   5.609   2.999   4.911
 7655SOL     OW23863   3.367   0.250   3.645
 7655SOL    HW123864   3.425   0.307   3.587
 7655SOL    HW223865   3.272   0.277   3.634
 7656SOL     OW23866   6.394   3.109   6.019
 7656SOL    HW123867   6.316   3.047   6.021
 7656SOL    HW223868   6.469   3.066   5.968
 7657SOL     OW23869   1.851   3.257   4.369
 7657SOL    HW123870   1.858   3.206   4.283
 7657SOL    HW223871   1.886   3.200   4.444
 7658SOL     OW23872   3.023   0.263   1.072
 7658SOL    HW123873   3.117   0.286   1.047
 7658SOL    HW223874   2.962   0.338   1.048
 7659SOL     OW23875   4.729   4.013   6.184
 7659SOL    HW123876   4.824   4.037   6.163
 7659SOL    HW223877   4.669   4.089   6.160
 7660SOL     OW23878   6.588   5.430   4.821
 7660SOL    HW123879   6.513   5.365   4.811
 7660SOL    HW223880   6.675   5.383   4.809
 7661SOL     OW23881   4.330   2.538   6.001
 7661SOL    HW123882   4.265   2.569   5.931
 7661SOL    HW223883   4.370   2.450   5.973
 7662SOL     OW23884   0.704   2.218   3.014
 7662SOL    HW123885   0.801   2.195   3.025
 7662SOL    HW223886   0.695   2.317   3.003
 7663SOL     OW23887   5.182   6.081   6.335
 7663SOL    HW123888   5.186   5.982   6.347
 7663SOL    HW223889   5.087   6.108   6.322
 7664SOL     OW23890   4.144   1.175   3.162
 7664SOL    HW123891   4.087   1.193   3.242
 7664SOL    HW223892   4.209   1.102   3.184
 7665SOL     OW23893   5.764   2.152   4.059
 7665SOL    HW123894   5.777   2.072   4.118
 7665SOL    HW223895   5.841   2.159   3.995
 7666SOL     OW23896   6.367   5.923   4.145
 7666SOL    HW123897   6.388   5.879   4.233
 7666SOL    HW223898   6.344   6.019   4.161
 7667SOL     OW23899   4.513   0.267   2.123
 7667SOL    HW123900   4.512   0.281   2.222
 7667SOL    HW223901   4.426   0.227   2.094
 7668SOL     OW23902   2.868   4.917   0.950
 7668SOL    HW123903   2.782   4.959   0.923
 7668SOL    HW223904   2.860   4.817   0.943
 7669SOL     OW23905   4.216   1.032   5.995
 7669SOL    HW123906   4.306   1.064   5.964
 7669SOL    HW223907   4.203   1.059   6.091
 7670SOL     OW23908   0.905   6.654   0.569
 7670SOL    HW123909   0.923   6.652   0.667
 7670SOL    HW223910   0.989   6.674   0.520
 7671SOL     OW23911   5.615   6.959   2.743
 7671SOL    HW123912   5.556   0.001   2.785
 7671SOL    HW223913   5.634   6.985   2.648
 7672SOL     OW23914   6.898   4.885   3.078
 7672SOL    HW123915   6.985   4.891   3.028
 7672SOL    HW223916   6.898   4.803   3.135
 7673SOL     OW23917   1.397   6.028   2.446
 7673SOL    HW123918   1.334   6.046   2.371
 7673SOL    HW223919   1.490   6.049   2.417
 7674SOL     OW23920   4.162   0.786   3.816
 7674SOL    HW123921   4.106   0.730   3.754
 7674SOL    HW223922   4.206   0.859   3.764
 7675SOL     OW23923   4.066   6.610   3.414
 7675SOL    HW123924   3.992   6.589   3.351
 7675SOL    HW223925   4.104   6.525   3.452
 7676SOL     OW23926   2.867   2.169   5.732
 7676SOL    HW123927   2.821   2.113   5.663
 7676SOL    HW223928   2.908   2.249   5.689
 7677SOL     OW23929   0.145   4.548   1.522
 7677SOL    HW123930   0.231   4.540   1.472
 7677SOL    HW223931   0.125   4.644   1.539
 7678SOL     OW23932   1.746   2.194   5.345
 7678SOL    HW123933   1.661   2.222   5.389
 7678SOL    HW223934   1.737   2.101   5.310
 7679SOL     OW23935   2.056   5.314   5.363
 7679SOL    HW123936   1.985   5.320   5.294
 7679SOL    HW223937   2.146   5.327   5.320
 7680SOL     OW23938   1.566   0.520   5.793
 7680SOL    HW123939   1.558   0.558   5.885
 7680SOL    HW223940   1.482   0.539   5.742
 7681SOL     OW23941   2.895   1.977   6.588
 7681SOL    HW123942   2.820   1.928   6.632
 7681SOL    HW223943   2.940   1.917   6.521
 7682SOL     OW23944   3.748   1.461   2.724
 7682SOL    HW123945   3.729   1.518   2.805
 7682SOL    HW223946   3.811   1.510   2.664
 7683SOL     OW23947   0.791   1.405   4.565
 7683SOL    HW123948   0.754   1.395   4.657
 7683SOL    HW223949   0.828   1.318   4.533
 7684SOL     OW23950   4.453   2.067   1.910
 7684SOL    HW123951   4.398   1.988   1.883
 7684SOL    HW223952   4.401   2.125   1.972
 7685SOL     OW23953   3.834   1.564   6.856
 7685SOL    HW123954   3.824   1.499   6.781
 7685SOL    HW223955   3.795   1.525   6.939
 7686SOL     OW23956   5.184   6.913   3.956
 7686SOL    HW123957   5.272   6.939   3.996
 7686SOL    HW223958   5.109   6.948   4.013
 7687SOL     OW23959   5.042   5.329   4.750
 7687SOL    HW123960   5.141   5.341   4.754
 7687SOL    HW223961   4.997   5.418   4.750
 7688SOL     OW23962   0.028   5.689   5.487
 7688SOL    HW123963   0.023   5.690   5.387
 7688SOL    HW223964   0.082   5.766   5.519
 7689SOL     OW23965   4.699   0.068   1.662
 7689SOL    HW123966   4.767   0.007   1.702
 7689SOL    HW223967   4.688   0.148   1.721
 7690SOL     OW23968   5.777   5.042   0.089
 7690SOL    HW123969   5.817   5.115   0.145
 7690SOL    HW223970   5.723   5.082   0.016
 7691SOL     OW23971   4.474   4.546   2.090
 7691SOL    HW123972   4.501   4.574   1.998
 7691SOL    HW223973   4.539   4.479   2.125
 7692SOL     OW23974   1.039   6.067   1.226
 7692SOL    HW123975   1.067   6.104   1.314
 7692SOL    HW223976   0.940   6.072   1.217
 7693SOL     OW23977   3.129   0.870   1.143
 7693SOL    HW123978   3.192   0.816   1.089
 7693SOL    HW223979   3.043   0.821   1.154
 7694SOL     OW23980   5.536   2.713   4.296
 7694SOL    HW123981   5.526   2.710   4.197
 7694SOL    HW223982   5.451   2.685   4.339
 7695SOL     OW23983   5.578   0.702   1.942
 7695SOL    HW123984   5.569   0.719   2.040
 7695SOL    HW223985   5.511   0.756   1.892
 7696SOL     OW23986   0.595   1.797   5.933
 7696SOL    HW123987   0.576   1.699   5.927
 7696SOL    HW223988   0.518   1.848   5.896
 7697SOL     OW23989   3.262   0.494   2.388
 7697SOL    HW123990   3.310   0.424   2.441
 7697SOL    HW223991   3.166   0.498   2.417
 7698SOL     OW23992   6.444   2.404   6.127
 7698SOL    HW123993   6.382   2.452   6.189
 7698SOL    HW223994   6.407   2.314   6.105
 7699SOL     OW23995   2.140   5.263   6.739
 7699SOL    HW123996   2.231   5.242   6.702
 7699SOL    HW223997   2.072   5.252   6.667
 7700SOL     OW23998   4.389   6.309   3.041
 7700SOL    HW123999   4.445   6.356   2.974
 7700SOL    HW224000   4.381   6.212   3.016
 7701SOL     OW24001   0.048   1.592   5.840
 7701SOL    HW124002   7.012   1.664   5.872
 7701SOL    HW224003   0.142   1.625   5.847
 7702SOL     OW24004   4.169   6.631   5.592
 7702SOL    HW124005   4.263   6.597   5.588
 7702SOL    HW224006   4.125   6.599   5.676
 7703SOL     OW24007   6.573   0.263   5.109
 7703SOL    HW124008   6.554   0.253   5.011
 7703SOL    HW224009   6.650   0.205   5.135
 7704SOL     OW24010   6.364   1.947   3.876
 7704SOL    HW124011   6.299   1.873   3.892
 7704SOL    HW224012   6.448   1.931   3.927
 7705SOL     OW24013   2.565   4.860   0.859
 7705SOL    HW124014   2.510   4.783   0.827
 7705SOL    HW224015   2.643   4.873   0.798
 7706SOL     OW24016   3.304   3.040   2.722
 7706SOL    HW124017   3.236   3.037   2.795
 7706SOL    HW224018   3.262   3.012   2.636
 7707SOL     OW24019   0.147   5.199   6.163
 7707SOL    HW124020   0.088   5.128   6.126
 7707SOL    HW224021   0.102   5.242   6.241
 7708SOL     OW24022   1.021   6.708   3.944
 7708SOL    HW124023   0.957   6.699   3.867
 7708SOL    HW224024   1.080   6.787   3.929
 7709SOL     OW24025   6.198   5.527   1.223
 7709SOL    HW124026   6.164   5.547   1.131
 7709SOL    HW224027   6.266   5.454   1.218
 7710SOL     OW24028   2.060   2.649   0.756
 7710SOL    HW124029   2.107   2.731   0.726
 7710SOL    HW224030   2.125   2.589   0.803
 7711SOL     OW24031   6.730   6.142   5.917
 7711SOL    HW124032   6.693   6.147   6.009
 7711SOL    HW224033   6.791   6.063   5.910
 7712SOL     OW24034   6.436   4.495   6.479
 7712SOL    HW124035   6.352   4.442   6.466
 7712SOL    HW224036   6.440   4.568   6.411
 7713SOL     OW24037   1.675   4.314   0.659
 7713SOL    HW124038   1.608   4.300   0.586
 7713SOL    HW224039   1.720   4.227   0.680
 7714SOL     OW24040   0.049   6.794   4.989
 7714SOL    HW124041   0.032   6.831   5.080
 7714SOL    HW224042   0.018   6.859   4.920
 7715SOL     OW24043   2.866   2.107   6.316
 7715SOL    HW124044   2.847   2.080   6.410
 7715SOL    HW224045   2.943   2.171   6.315
 7716SOL     OW24046   0.197   4.807   6.512
 7716SOL    HW124047   0.098   4.799   6.525
 7716SOL    HW224048   0.244   4.776   6.595
 7717SOL     OW24049   1.401   1.827   5.331
 7717SOL    HW124050   1.480   1.766   5.331
 7717SOL    HW224051   1.410   1.893   5.406
 7718SOL     OW24052   0.379   3.562   3.184
 7718SOL    HW124053   0.385   3.479   3.128
 7718SOL    HW224054   0.379   3.642   3.124
 7719SOL     OW24055   1.563   3.976   4.615
 7719SOL    HW124056   1.638   3.930   4.662
 7719SOL    HW224057   1.564   4.074   4.636
 7720SOL     OW24058   6.031   2.324   6.445
 7720SOL    HW124059   6.086   2.342   6.527
 7720SOL    HW224060   5.960   2.394   6.436
 7721SOL     OW24061   1.215   0.574   2.531
 7721SOL    HW124062   1.240   0.647   2.595
 7721SOL    HW224063   1.134   0.526   2.564
 7722SOL     OW24064   1.966   5.350   4.068
 7722SOL    HW124065   2.062   5.342   4.095
 7722SOL    HW224066   1.910   5.291   4.127
 7723SOL     OW24067   5.064   3.225   6.428
 7723SOL    HW124068   4.967   3.200   6.433
 7723SOL    HW224069   5.078   3.313   6.475
 7724SOL     OW24070   3.239   4.170   0.564
 7724SOL    HW124071   3.328   4.214   0.555
 7724SOL    HW224072   3.176   4.208   0.496
 7725SOL     OW24073   5.941   2.574   2.723
 7725SOL    HW124074   5.892   2.638   2.782
 7725SOL    HW224075   5.888   2.489   2.715
 7726SOL     OW24076   1.302   3.050   6.001
 7726SOL    HW124077   1.379   2.997   6.034
 7726SOL    HW224078   1.225   2.988   5.981
 7727SOL     OW24079   5.991   2.531   1.603
 7727SOL    HW124080   6.060   2.527   1.675
 7727SOL    HW224081   5.962   2.438   1.580
 7728SOL     OW24082   2.239   2.707   5.625
 7728SOL    HW124083   2.249   2.660   5.537
 7728SOL    HW224084   2.227   2.639   5.698
 7729SOL     OW24085   6.454   1.908   1.917
 7729SOL    HW124086   6.551   1.889   1.898
 7729SOL    HW224087   6.397   1.854   1.855
 7730SOL     OW24088   5.680   4.655   5.195
 7730SOL    HW124089   5.778   4.635   5.190
 7730SOL    HW224090   5.635   4.624   5.112
 7731SOL     OW24091   5.989   0.072   0.684
 7731SOL    HW124092   6.045   0.147   0.718
 7731SOL    HW224093   5.917   0.107   0.626
 7732SOL     OW24094   3.904   0.528   0.323
 7732SOL    HW124095   3.826   0.581   0.354
 7732SOL    HW224096   3.949   0.485   0.402
 7733SOL     OW24097   6.023   5.609   2.540
 7733SOL    HW124098   5.988   5.613   2.633
 7733SOL    HW224099   5.998   5.693   2.491
 7734SOL     OW24100   2.466   4.464   5.147
 7734SOL    HW124101   2.486   4.482   5.051
 7734SOL    HW224102   2.551   4.442   5.195
 7735SOL     OW24103   6.419   5.829   6.965
 7735SOL    HW124104   6.449   5.867   0.027
 7735SOL    HW224105   6.320   5.816   6.967
 7736SOL     OW24106   2.749   3.060   0.610
 7736SOL    HW124107   2.712   2.971   0.634
 7736SOL    HW224108   2.823   3.084   0.672
 7737SOL     OW24109   3.576   4.927   1.646
 7737SOL    HW124110   3.587   4.893   1.740
 7737SOL    HW224111   3.545   4.853   1.587
 7738SOL     OW24112   2.205   5.987   6.797
 7738SOL    HW124113   2.235   6.051   6.726
 7738SOL    HW224114   2.162   6.038   6.871
 7739SOL     OW24115   1.089   1.912   2.085
 7739SOL    HW124116   1.145   1.961   2.019
 7739SOL    HW224117   1.096   1.956   2.174
 7740SOL     OW24118   1.864   1.099   2.811
 7740SOL    HW124119   1.769   1.108   2.841
 7740SOL    HW224120   1.895   1.186   2.772
 7741SOL     OW24121   1.614   4.454   5.410
 7741SOL    HW124122   1.676   4.456   5.488
 7741SOL    HW224123   1.522   4.434   5.441
 7742SOL     OW24124   3.783   1.330   3.865
 7742SOL    HW124125   3.707   1.272   3.897
 7742SOL    HW224126   3.842   1.277   3.805
 7743SOL     OW24127   4.903   1.190   6.864
 7743SOL    HW124128   4.927   1.111   6.807
 7743SOL    HW224129   4.814   1.225   6.835
 7744SOL     OW24130   0.700   5.943   4.250
 7744SOL    HW124131   0.708   5.855   4.204
 7744SOL    HW224132   0.709   6.017   4.183
 7745SOL     OW24133   2.112   6.508   0.526
 7745SOL    HW124134   2.098   6.478   0.621
 7745SOL    HW224135   2.202   6.549   0.517
 7746SOL     OW24136   1.538   6.466   0.697
 7746SOL    HW124137   1.468   6.501   0.634
 7746SOL    HW224138   1.596   6.541   0.728
 7747SOL     OW24139   0.155   6.091   0.713
 7747SOL    HW124140   0.067   6.118   0.750
 7747SOL    HW224141   0.142   6.021   0.643
 7748SOL     OW24142   3.591   2.950   5.110
 7748SOL    HW124143   3.568   2.870   5.165
 7748SOL    HW224144   3.616   2.921   5.018
 7749SOL     OW24145   3.084   4.029   3.204
 7749SOL    HW124146   3.115   4.067   3.117
 7749SOL    HW224147   3.026   3.950   3.188
 7750SOL     OW24148   5.315   5.412   5.735
 7750SOL    HW124149   5.229   5.436   5.780
 7750SOL    HW224150   5.299   5.342   5.666
 7751SOL     OW24151   0.350   1.496   3.767
 7751SOL    HW124152   0.276   1.551   3.728
 7751SOL    HW224153   0.312   1.436   3.838
 7752SOL     OW24154   5.637   5.363   5.473
 7752SOL    HW124155   5.679   5.363   5.382
 7752SOL    HW224156   5.581   5.281   5.484
 7753SOL     OW24157   2.475   0.588   4.890
 7753SOL    HW124158   2.456   0.531   4.970
 7753SOL    HW224159   2.524   0.671   4.918
 7754SOL     OW24160   5.391   0.545   1.210
 7754SOL    HW124161   5.348   0.635   1.215
 7754SOL    HW224162   5.476   0.551   1.157
 7755SOL     OW24163   0.772   6.816   5.402
 7755SOL    HW124164   0.734   6.781   5.487
 7755SOL    HW224165   0.722   6.898   5.375
 7756SOL     OW24166   2.191   5.580   2.634
 7756SOL    HW124167   2.124   5.564   2.562
 7756SOL    HW224168   2.248   5.658   2.609
 7757SOL     OW24169   4.643   6.100   4.872
 7757SOL    HW124170   4.608   6.086   4.779
 7757SOL    HW224171   4.691   6.187   4.877
 7758SOL     OW24172   2.085   2.433   6.619
 7758SOL    HW124173   2.185   2.425   6.617
 7758SOL    HW224174   2.059   2.529   6.613
 7759SOL     OW24175   2.643   0.811   4.915
 7759SOL    HW124176   2.665   0.772   5.004
 7759SOL    HW224177   2.704   0.888   4.895
 7760SOL     OW24178   5.839   2.873   2.069
 7760SOL    HW124179   5.931   2.833   2.074
 7760SOL    HW224180   5.826   2.936   2.145
 7761SOL     OW24181   3.055   6.946   6.082
 7761SOL    HW124182   3.070   6.870   6.145
 7761SOL    HW224183   2.972   6.996   6.109
 7762SOL     OW24184   4.041   1.208   5.870
 7762SOL    HW124185   4.050   1.115   5.906
 7762SOL    HW224186   4.110   1.267   5.911
 7763SOL     OW24187   1.162   1.776   1.403
 7763SOL    HW124188   1.224   1.818   1.336
 7763SOL    HW224189   1.204   1.779   1.494
 7764SOL     OW24190   4.040   3.345   2.687
 7764SOL    HW124191   4.054   3.398   2.771
 7764SOL    HW224192   4.023   3.249   2.711
 7765SOL     OW24193   6.496   3.457   4.342
 7765SOL    HW124194   6.559   3.532   4.361
 7765SOL    HW224195   6.490   3.398   4.422
 7766SOL     OW24196   5.276   2.301   6.857
 7766SOL    HW124197   5.212   2.240   6.810
 7766SOL    HW224198   5.334   2.347   6.789
 7767SOL     OW24199   3.795   6.134   3.865
 7767SOL    HW124200   3.723   6.064   3.858
 7767SOL    HW224201   3.765   6.217   3.819
 7768SOL     OW24202   3.848   4.851   2.921
 7768SOL    HW124203   3.858   4.837   2.822
 7768SOL    HW224204   3.931   4.893   2.957
 7769SOL     OW24205   4.974   1.691   1.866
 7769SOL    HW124206   5.004   1.658   1.776
 7769SOL    HW224207   4.887   1.741   1.856
 7770SOL     OW24208   2.496   4.446   2.286
 7770SOL    HW124209   2.566   4.516   2.275
 7770SOL    HW224210   2.452   4.429   2.198
 7771SOL     OW24211   2.487   2.488   5.038
 7771SOL    HW124212   2.415   2.548   5.002
 7771SOL    HW224213   2.446   2.411   5.086
 7772SOL     OW24214   4.804   1.289   3.732
 7772SOL    HW124215   4.894   1.250   3.750
 7772SOL    HW224216   4.733   1.226   3.763
 7773SOL     OW24217   3.488   4.972   5.425
 7773SOL    HW124218   3.417   4.902   5.435
 7773SOL    HW224219   3.543   4.975   5.509
 7774SOL     OW24220   5.721   1.948   6.022
 7774SOL    HW124221   5.623   1.931   6.035
 7774SOL    HW224222   5.761   1.982   6.107
 7775SOL     OW24223   3.809   6.965   3.056
 7775SOL    HW124224   3.804   6.915   3.142
 7775SOL    HW224225   3.823   6.900   2.981
 7776SOL     OW24226   3.153   3.021   5.897
 7776SOL    HW124227   3.131   3.104   5.845
 7776SOL    HW224228   3.247   3.026   5.931
 7777SOL     OW24229   2.267   1.575   5.271
 7777SOL    HW124230   2.261   1.654   5.211
 7777SOL    HW224231   2.361   1.541   5.273
 7778SOL     OW24232   5.123   6.963   6.769
 7778SOL    HW124233   5.198   6.912   6.727
 7778SOL    HW224234   5.129   0.033   6.742
 7779SOL     OW24235   3.781   3.071   0.253
 7779SOL    HW124236   3.842   3.074   0.332
 7779SOL    HW224237   3.785   2.981   0.209
 7780SOL     OW24238   2.035   5.298   4.837
 7780SOL    HW124239   2.024   5.200   4.819
 7780SOL    HW224240   1.978   5.350   4.773
 7781SOL     OW24241   0.706   3.830   6.127
 7781SOL    HW124242   0.745   3.767   6.060
 7781SOL    HW224243   0.607   3.834   6.117
 7782SOL     OW24244   1.788   3.514   5.447
 7782SOL    HW124245   1.817   3.609   5.456
 7782SOL    HW224246   1.719   3.507   5.374
 7783SOL     OW24247   3.021   6.489   6.078
 7783SOL    HW124248   3.053   6.565   6.022
 7783SOL    HW224249   3.068   6.405   6.050
 7784SOL     OW24250   1.802   2.532   0.089
 7784SOL    HW124251   1.730   2.532   0.019
 7784SOL    HW224252   1.766   2.572   0.173
 7785SOL     OW24253   1.658   6.804   4.240
 7785SOL    HW124254   1.566   6.841   4.222
 7785SOL    HW224255   1.685   6.745   4.164
 7786SOL     OW24256   3.234   4.960   5.691
 7786SOL    HW124257   3.199   4.873   5.656
 7786SOL    HW224258   3.334   4.959   5.688
 7787SOL     OW24259   2.107   2.098   5.452
 7787SOL    HW124260   2.067   2.188   5.470
 7787SOL    HW224261   2.121   2.087   5.353
 7788SOL     OW24262   1.565   1.034   1.895
 7788SOL    HW124263   1.496   1.105   1.886
 7788SOL    HW224264   1.648   1.074   1.935
 7789SOL     OW24265   2.766   0.329   0.831
 7789SOL    HW124266   2.732   0.366   0.745
 7789SOL    HW224267   2.787   0.232   0.820
 7790SOL     OW24268   6.465   4.909   3.092
 7790SOL    HW124269   6.408   4.842   3.139
 7790SOL    HW224270   6.537   4.861   3.042
 7791SOL     OW24271   2.684   6.458   3.891
 7791SOL    HW124272   2.709   6.547   3.928
 7791SOL    HW224273   2.665   6.394   3.966
 7792SOL     OW24274   1.285   5.358   5.794
 7792SOL    HW124275   1.245   5.318   5.877
 7792SOL    HW224276   1.289   5.288   5.723
 7793SOL     OW24277   2.052   0.964   5.794
 7793SOL    HW124278   2.007   1.038   5.845
 7793SOL    HW224279   2.142   0.995   5.763
 7794SOL     OW24280   5.164   5.307   4.400
 7794SOL    HW124281   5.240   5.355   4.444
 7794SOL    HW224282   5.187   5.209   4.394
 7795SOL     OW24283   2.234   4.329   5.139
 7795SOL    HW124284   2.331   4.354   5.145
 7795SOL    HW224285   2.226   4.238   5.099
 7796SOL     OW24286   3.556   4.142   3.793
 7796SOL    HW124287   3.641   4.160   3.843
 7796SOL    HW224288   3.527   4.048   3.809
 7797SOL     OW24289   0.516   5.902   3.033
 7797SOL    HW124290   0.586   5.973   3.030
 7797SOL    HW224291   0.481   5.885   2.941
 7798SOL     OW24292   1.743   4.888   6.611
 7798SOL    HW124293   1.656   4.841   6.594
 7798SOL    HW224294   1.815   4.820   6.628
 7799SOL     OW24295   6.767   6.032   1.819
 7799SOL    HW124296   6.820   6.059   1.738
 7799SOL    HW224297   6.793   6.089   1.896
 7800SOL     OW24298   0.905   4.265   1.538
 7800SOL    HW124299   0.963   4.243   1.459
 7800SOL    HW224300   0.911   4.190   1.605
 7801SOL     OW24301   2.522   1.751   1.712
 7801SOL    HW124302   2.621   1.760   1.718
 7801SOL    HW224303   2.498   1.698   1.631
 7802SOL     OW24304   6.063   2.926   0.890
 7802SOL    HW124305   6.038   2.837   0.929
 7802SOL    HW224306   6.043   2.998   0.956
 7803SOL     OW24307   4.395   3.751   5.656
 7803SOL    HW124308   4.347   3.680   5.605
 7803SOL    HW224309   4.488   3.761   5.621
 7804SOL     OW24310   5.956   1.312   4.220
 7804SOL    HW124311   5.876   1.373   4.218
 7804SOL    HW224312   5.930   1.221   4.188
 7805SOL     OW24313   5.313   1.660   1.292
 7805SOL    HW124314   5.338   1.581   1.236
 7805SOL    HW224315   5.213   1.667   1.298
 7806SOL     OW24316   6.334   3.166   5.620
 7806SOL    HW124317   6.401   3.179   5.693
 7806SOL    HW224318   6.378   3.178   5.532
 7807SOL     OW24319   0.284   4.940   6.287
 7807SOL    HW124320   0.263   5.037   6.292
 7807SOL    HW224321   0.252   4.895   6.371
 7808SOL     OW24322   0.188   3.437   4.484
 7808SOL    HW124323   0.252   3.443   4.561
 7808SOL    HW224324   0.235   3.465   4.400
 7809SOL     OW24325   2.674   6.425   4.854
 7809SOL    HW124326   2.706   6.384   4.939
 7809SOL    HW224327   2.604   6.366   4.812
 7810SOL     OW24328   3.429   0.447   5.536
 7810SOL    HW124329   3.517   0.410   5.507
 7810SOL    HW224330   3.401   0.520   5.472
 7811SOL     OW24331   6.654   4.217   4.033
 7811SOL    HW124332   6.618   4.286   4.096
 7811SOL    HW224333   6.750   4.236   4.015
 7812SOL     OW24334   1.495   1.608   3.826
 7812SOL    HW124335   1.486   1.640   3.920
 7812SOL    HW224336   1.569   1.541   3.820
 7813SOL     OW24337   4.639   2.404   6.149
 7813SOL    HW124338   4.669   2.345   6.225
 7813SOL    HW224339   4.641   2.351   6.064
 7814SOL     OW24340   6.982   2.518   3.308
 7814SOL    HW124341   6.969   2.473   3.396
 7814SOL    HW224342   6.978   2.617   3.320
 7815SOL     OW24343   4.827   1.199   6.373
 7815SOL    HW124344   4.877   1.264   6.431
 7815SOL    HW224345   4.731   1.223   6.371
 7816SOL     OW24346   2.059   2.812   6.156
 7816SOL    HW124347   2.057   2.894   6.099
 7816SOL    HW224348   2.006   2.829   6.240
 7817SOL     OW24349   6.297   3.575   3.786
 7817SOL    HW124350   6.197   3.584   3.787
 7817SOL    HW224351   6.338   3.653   3.832
 7818SOL     OW24352   4.890   0.608   2.489
 7818SOL    HW124353   4.834   0.590   2.409
 7818SOL    HW224354   4.985   0.582   2.470
 7819SOL     OW24355   0.138   2.992   1.545
 7819SOL    HW124356   0.065   3.054   1.576
 7819SOL    HW224357   0.227   3.034   1.561
 7820SOL     OW24358   1.983   1.908   4.386
 7820SOL    HW124359   1.989   1.876   4.480
 7820SOL    HW224360   1.997   2.007   4.384
 7821SOL     OW24361   4.468   5.450   1.305
 7821SOL    HW124362   4.463   5.470   1.207
 7821SOL    HW224363   4.557   5.476   1.340
 7822SOL     OW24364   0.299   0.760   5.244
 7822SOL    HW124365   0.238   0.685   5.218
 7822SOL    HW224366   0.393   0.727   5.248
 7823SOL     OW24367   2.139   3.899   4.781
 7823SOL    HW124368   2.147   3.914   4.682
 7823SOL    HW224369   2.219   3.937   4.827
 7824SOL     OW24370   6.646   2.293   4.608
 7824SOL    HW124371   6.653   2.335   4.698
 7824SOL    HW224372   6.605   2.202   4.616
 7825SOL     OW24373   2.511   3.019   0.150
 7825SOL    HW124374   2.590   3.035   0.209
 7825SOL    HW224375   2.540   2.980   0.063
 7826SOL     OW24376   6.688   1.215   0.812
 7826SOL    HW124377   6.733   1.163   0.739
 7826SOL    HW224378   6.634   1.153   0.869
 7827SOL     OW24379   1.322   5.515   1.614
 7827SOL    HW124380   1.279   5.432   1.648
 7827SOL    HW224381   1.338   5.506   1.515
 7828SOL     OW24382   6.193   4.679   6.883
 7828SOL    HW124383   6.105   4.639   6.855
 7828SOL    HW224384   6.236   4.721   6.803
 7829SOL     OW24385   3.166   3.195   1.444
 7829SOL    HW124386   3.245   3.257   1.452
 7829SOL    HW224387   3.096   3.221   1.510
 7830SOL     OW24388   3.339   5.351   5.510
 7830SOL    HW124389   3.323   5.449   5.498
 7830SOL    HW224390   3.363   5.332   5.605
 7831SOL     OW24391   2.143   0.608   2.269
 7831SOL    HW124392   2.102   0.566   2.188
 7831SOL    HW224393   2.071   0.640   2.331
 7832SOL     OW24394   5.942   0.122   4.265
 7832SOL    HW124395   5.915   0.132   4.361
 7832SOL    HW224396   6.039   0.141   4.256
 7833SOL     OW24397   1.591   1.065   4.563
 7833SOL    HW124398   1.534   1.012   4.499
 7833SOL    HW224399   1.667   1.105   4.513
 7834SOL     OW24400   0.269   1.587   3.366
 7834SOL    HW124401   0.236   1.532   3.442
 7834SOL    HW224402   0.192   1.623   3.314
 7835SOL     OW24403   3.861   1.803   4.442
 7835SOL    HW124404   3.818   1.739   4.379
 7835SOL    HW224405   3.797   1.876   4.465
 7836SOL     OW24406   3.227   4.278   5.703
 7836SOL    HW124407   3.172   4.359   5.681
 7836SOL    HW224408   3.251   4.278   5.800
 7837SOL     OW24409   5.210   6.183   0.101
 7837SOL    HW124410   5.184   6.279   0.090
 7837SOL    HW224411   5.309   6.173   0.092
 7838SOL     OW24412   4.727   5.619   1.376
 7838SOL    HW124413   4.816   5.664   1.387
 7838SOL    HW224414   4.659   5.687   1.352
 7839SOL     OW24415   5.647   4.312   4.789
 7839SOL    HW124416   5.656   4.255   4.707
 7839SOL    HW224417   5.615   4.256   4.866
 7840SOL     OW24418   0.685   4.172   4.606
 7840SOL    HW124419   0.609   4.187   4.543
 7840SOL    HW224420   0.767   4.216   4.571
 7841SOL     OW24421   4.579   1.957   6.466
 7841SOL    HW124422   4.646   1.941   6.538
 7841SOL    HW224423   4.549   2.053   6.469
 7842SOL     OW24424   2.118   1.299   2.478
 7842SOL    HW124425   2.053   1.312   2.553
 7842SOL    HW224426   2.109   1.206   2.441
 7843SOL     OW24427   0.037   6.229   4.349
 7843SOL    HW124428   0.126   6.217   4.392
 7843SOL    HW224429   0.050   6.261   4.255
 7844SOL     OW24430   3.876   0.403   2.355
 7844SOL    HW124431   3.776   0.401   2.359
 7844SOL    HW224432   3.914   0.332   2.414
 7845SOL     OW24433   5.342   1.877   1.466
 7845SOL    HW124434   5.258   1.930   1.479
 7845SOL    HW224435   5.321   1.794   1.413
 7846SOL     OW24436   1.379   1.966   0.434
 7846SOL    HW124437   1.318   2.040   0.404
 7846SOL    HW224438   1.438   1.940   0.358
 7847SOL     OW24439   6.279   1.665   4.037
 7847SOL    HW124440   6.277   1.752   4.087
 7847SOL    HW224441   6.203   1.663   3.971
 7848SOL     OW24442   2.985   4.345   0.777
 7848SOL    HW124443   2.946   4.278   0.714
 7848SOL    HW224444   3.056   4.398   0.731
 7849SOL     OW24445   5.778   3.609   4.906
 7849SOL    HW124446   5.843   3.616   4.830
 7849SOL    HW224447   5.737   3.518   4.907
 7850SOL     OW24448   0.075   2.139   3.911
 7850SOL    HW124449   0.137   2.202   3.957
 7850SOL    HW224450   0.127   2.069   3.863
 7851SOL     OW24451   1.020   2.728   1.987
 7851SOL    HW124452   0.937   2.772   1.954
 7851SOL    HW224453   1.004   2.630   1.998
 7852SOL     OW24454   2.730   1.113   0.252
 7852SOL    HW124455   2.733   1.049   0.328
 7852SOL    HW224456   2.764   1.202   0.280
 7853SOL     OW24457   4.581   2.928   1.609
 7853SOL    HW124458   4.560   2.959   1.702
 7853SOL    HW224459   4.660   2.979   1.575
 7854SOL     OW24460   4.071   2.460   6.439
 7854SOL    HW124461   3.996   2.396   6.456
 7854SOL    HW224462   4.036   2.544   6.398
 7855SOL     OW24463   4.679   6.213   4.169
 7855SOL    HW124464   4.671   6.185   4.264
 7855SOL    HW224465   4.590   6.245   4.136
 7856SOL     OW24466   1.082   5.076   5.400
 7856SOL    HW124467   1.051   4.987   5.433
 7856SOL    HW224468   1.060   5.084   5.303
 7857SOL     OW24469   4.833   3.784   0.483
 7857SOL    HW124470   4.758   3.848   0.466
 7857SOL    HW224471   4.797   3.701   0.526
 7858SOL     OW24472   6.813   5.890   4.589
 7858SOL    HW124473   6.867   5.887   4.673
 7858SOL    HW224474   6.718   5.911   4.612
 7859SOL     OW24475   4.743   3.180   6.908
 7859SOL    HW124476   4.703   3.133   6.830
 7859SOL    HW224477   4.750   3.278   6.888
 7860SOL     OW24478   3.794   1.504   4.089
 7860SOL    HW124479   3.809   1.445   4.009
 7860SOL    HW224480   3.877   1.557   4.107
 7861SOL     OW24481   2.837   5.266   2.170
 7861SOL    HW124482   2.919   5.208   2.165
 7861SOL    HW224483   2.756   5.211   2.151
 7862SOL     OW24484   2.547   5.627   2.122
 7862SOL    HW124485   2.478   5.563   2.089
 7862SOL    HW224486   2.612   5.646   2.049
 7863SOL     OW24487   0.571   4.524   3.565
 7863SOL    HW124488   0.477   4.506   3.597
 7863SOL    HW224489   0.568   4.556   3.471
 7864SOL     OW24490   1.588   5.530   6.414
 7864SOL    HW124491   1.654   5.547   6.341
 7864SOL    HW224492   1.629   5.470   6.482
 7865SOL     OW24493   5.939   5.962   3.834
 7865SOL    HW124494   5.910   6.006   3.749
 7865SOL    HW224495   6.035   5.985   3.852
 7866SOL     OW24496   2.361   0.467   5.122
 7866SOL    HW124497   2.263   0.487   5.123
 7866SOL    HW224498   2.374   0.368   5.121
 7867SOL     OW24499   5.806   6.842   3.312
 7867SOL    HW124500   5.710   6.845   3.340
 7867SOL    HW224501   5.860   6.799   3.384
 7868SOL     OW24502   3.691   5.649   0.936
 7868SOL    HW124503   3.777   5.699   0.929
 7868SOL    HW224504   3.676   5.596   0.853
 7869SOL     OW24505   4.940   4.706   5.522
 7869SOL    HW124506   4.994   4.710   5.606
 7869SOL    HW224507   4.933   4.797   5.482
 7870SOL     OW24508   4.757   0.273   4.886
 7870SOL    HW124509   4.766   0.293   4.983
 7870SOL    HW224510   4.848   0.272   4.844
 7871SOL     OW24511   5.791   1.714   1.823
 7871SOL    HW124512   5.729   1.652   1.776
 7871SOL    HW224513   5.800   1.799   1.771
 7872SOL     OW24514   1.716   4.808   2.677
 7872SOL    HW124515   1.739   4.729   2.621
 7872SOL    HW224516   1.764   4.889   2.642
 7873SOL     OW24517   6.319   1.080   0.312
 7873SOL    HW124518   6.391   1.069   0.381
 7873SOL    HW224519   6.327   1.170   0.269
 7874SOL     OW24520   5.254   2.912   1.427
 7874SOL    HW124521   5.295   2.924   1.518
 7874SOL    HW224522   5.326   2.916   1.358
 7875SOL     OW24523   3.891   3.431   0.239
 7875SOL    HW124524   3.822   3.460   0.173
 7875SOL    HW224525   3.903   3.502   0.309
 7876SOL     OW24526   1.188   6.990   3.573
 7876SOL    HW124527   1.164   0.041   3.632
 7876SOL    HW224528   1.265   7.016   3.514
 7877SOL     OW24529   6.794   1.901   2.893
 7877SOL    HW124530   6.698   1.887   2.873
 7877SOL    HW224531   6.845   1.816   2.875
 7878SOL     OW24532   4.874   4.126   3.400
 7878SOL    HW124533   4.867   4.045   3.459
 7878SOL    HW224534   4.969   4.157   3.398
 7879SOL     OW24535   3.122   4.890   3.064
 7879SOL    HW124536   3.214   4.896   3.024
 7879SOL    HW224537   3.056   4.934   3.002
 7880SOL     OW24538   2.419   3.706   0.786
 7880SOL    HW124539   2.443   3.660   0.871
 7880SOL    HW224540   2.501   3.721   0.730
 7881SOL     OW24541   5.138   4.443   4.561
 7881SOL    HW124542   5.043   4.477   4.559
 7881SOL    HW224543   5.140   4.350   4.524
 7882SOL     OW24544   2.479   3.782   1.702
 7882SOL    HW124545   2.533   3.857   1.662
 7882SOL    HW224546   2.394   3.772   1.650
 7883SOL     OW24547   0.965   0.321   5.750
 7883SOL    HW124548   1.005   0.315   5.659
 7883SOL    HW224549   1.019   0.382   5.807
 7884SOL     OW24550   0.869   4.201   4.116
 7884SOL    HW124551   0.835   4.292   4.138
 7884SOL    HW224552   0.806   4.132   4.154
 7885SOL     OW24553   6.264   5.490   0.826
 7885SOL    HW124554   6.322   5.553   0.774
 7885SOL    HW224555   6.322   5.427   0.877
 7886SOL     OW24556   4.258   5.875   0.486
 7886SOL    HW124557   4.174   5.884   0.540
 7886SOL    HW224558   4.269   5.956   0.428
 7887SOL     OW24559   3.358   2.017   0.028
 7887SOL    HW124560   3.386   2.089   0.092
 7887SOL    HW224561   3.259   2.006   0.032
 7888SOL     OW24562   4.968   0.434   3.845
 7888SOL    HW124563   5.015   0.505   3.896
 7888SOL    HW224564   4.938   0.470   3.756
 7889SOL     OW24565   1.383   5.474   1.347
 7889SOL    HW124566   1.483   5.479   1.353
 7889SOL    HW224567   1.357   5.445   1.254
 7890SOL     OW24568   2.198   3.770   2.357
 7890SOL    HW124569   2.165   3.677   2.338
 7890SOL    HW224570   2.167   3.798   2.448
 7891SOL     OW24571   2.276   5.036   2.725
 7891SOL    HW124572   2.249   5.131   2.739
 7891SOL    HW224573   2.199   4.986   2.685
 7892SOL     OW24574   2.123   2.243   4.800
 7892SOL    HW124575   2.216   2.250   4.836
 7892SOL    HW224576   2.062   2.209   4.871
 7893SOL     OW24577   5.964   6.684   1.406
 7893SOL    HW124578   6.017   6.600   1.398
 7893SOL    HW224579   5.979   6.740   1.324
 7894SOL     OW24580   2.445   6.088   2.341
 7894SOL    HW124581   2.520   6.094   2.408
 7894SOL    HW224582   2.359   6.070   2.389
 7895SOL     OW24583   6.471   1.597   5.433
 7895SOL    HW124584   6.399   1.639   5.379
 7895SOL    HW224585   6.435   1.516   5.481
 7896SOL     OW24586   4.723   4.227   5.871
 7896SOL    HW124587   4.783   4.301   5.840
 7896SOL    HW224588   4.770   4.139   5.862
 7897SOL     OW24589   2.489   3.681   6.113
 7897SOL    HW124590   2.531   3.709   6.027
 7897SOL    HW224591   2.392   3.663   6.099
 7898SOL     OW24592   4.696   2.128   3.794
 7898SOL    HW124593   4.651   2.082   3.870
 7898SOL    HW224594   4.753   2.202   3.829
 7899SOL     OW24595   6.732   1.941   1.230
 7899SOL    HW124596   6.704   1.998   1.307
 7899SOL    HW224597   6.748   1.998   1.150
 7900SOL     OW24598   1.123   4.838   1.083
 7900SOL    HW124599   1.181   4.831   1.165
 7900SOL    HW224600   1.170   4.892   1.014
 7901SOL     OW24601   5.371   0.291   5.859
 7901SOL    HW124602   5.410   0.376   5.893
 7901SOL    HW224603   5.279   0.278   5.898
 7902SOL     OW24604   5.017   5.065   1.425
 7902SOL    HW124605   5.002   5.016   1.511
 7902SOL    HW224606   4.951   5.035   1.357
 7903SOL     OW24607   5.758   2.217   0.153
 7903SOL    HW124608   5.681   2.154   0.167
 7903SOL    HW224609   5.794   2.245   0.242
 7904SOL     OW24610   6.590   1.079   2.588
 7904SOL    HW124611   6.503   1.065   2.540
 7904SOL    HW224612   6.645   0.996   2.582
 7905SOL     OW24613   4.973   1.563   0.880
 7905SOL    HW124614   4.988   1.641   0.819
 7905SOL    HW224615   4.895   1.583   0.940
 7906SOL     OW24616   6.858   5.924   6.715
 7906SOL    HW124617   6.788   5.946   6.784
 7906SOL    HW224618   6.945   5.964   6.743
 7907SOL     OW24619   6.163   2.387   4.464
 7907SOL    HW124620   6.106   2.397   4.382
 7907SOL    HW224621   6.143   2.462   4.527
 7908SOL     OW24622   1.393   0.788   4.040
 7908SOL    HW124623   1.386   0.691   4.018
 7908SOL    HW224624   1.456   0.801   4.116
 7909SOL     OW24625   4.902   3.718   4.824
 7909SOL    HW124626   4.874   3.681   4.912
 7909SOL    HW224627   4.894   3.648   4.754
 7910SOL     OW24628   3.885   2.924   5.104
 7910SOL    HW124629   3.945   2.935   5.024
 7910SOL    HW224630   3.790   2.916   5.073
 7911SOL     OW24631   0.116   4.653   0.763
 7911SOL    HW124632   0.120   4.683   0.859
 7911SOL    HW224633   0.028   4.610   0.745
 7912SOL     OW24634   6.949   5.633   6.632
 7912SOL    HW124635   6.978   5.673   6.546
 7912SOL    HW224636   6.858   5.592   6.621
 7913SOL     OW24637   0.212   5.523   6.249
 7913SOL    HW124638   0.303   5.510   6.210
 7913SOL    HW224639   0.148   5.458   6.208
 7914SOL     OW24640   6.743   5.046   0.146
 7914SOL    HW124641   6.705   5.044   0.239
 7914SOL    HW224642   6.683   4.995   0.085
 7915SOL     OW24643   5.151   2.294   2.719
 7915SOL    HW124644   5.128   2.391   2.731
 7915SOL    HW224645   5.130   2.266   2.625
 7916SOL     OW24646   5.636   4.018   5.232
 7916SOL    HW124647   5.671   3.958   5.161
 7916SOL    HW224648   5.709   4.077   5.266
 7917SOL     OW24649   3.848   2.964   3.906
 7917SOL    HW124650   3.771   2.955   3.969
 7917SOL    HW224651   3.835   2.903   3.828
 7918SOL     OW24652   6.023   1.512   1.529
 7918SOL    HW124653   5.928   1.532   1.504
 7918SOL    HW224654   6.039   1.539   1.624
 7919SOL     OW24655   6.773   4.381   2.914
 7919SOL    HW124656   6.707   4.456   2.904
 7919SOL    HW224657   6.726   4.297   2.940
 7920SOL     OW24658   6.941   5.073   1.183
 7920SOL    HW124659   6.862   5.134   1.183
 7920SOL    HW224660   6.957   5.040   1.090
 7921SOL     OW24661   3.426   6.560   1.266
 7921SOL    HW124662   3.494   6.573   1.193
 7921SOL    HW224663   3.391   6.466   1.262
 7922SOL     OW24664   6.780   5.720   0.212
 7922SOL    HW124665   6.802   5.786   0.140
 7922SOL    HW224666   6.768   5.768   0.299
 7923SOL     OW24667   1.802   1.171   3.174
 7923SOL    HW124668   1.739   1.104   3.135
 7923SOL    HW224669   1.895   1.136   3.172
 7924SOL     OW24670   3.455   6.406   3.723
 7924SOL    HW124671   3.469   6.430   3.627
 7924SOL    HW224672   3.390   6.469   3.764
 7925SOL     OW24673   6.959   1.734   6.217
 7925SOL    HW124674   0.002   1.725   6.289
 7925SOL    HW224675   6.871   1.703   6.252
 7926SOL     OW24676   3.330   0.661   3.752
 7926SOL    HW124677   3.359   0.586   3.811
 7926SOL    HW224678   3.384   0.743   3.773
 7927SOL     OW24679   3.920   5.612   4.472
 7927SOL    HW124680   3.963   5.541   4.417
 7927SOL    HW224681   3.973   5.697   4.465
 7928SOL     OW24682   1.345   4.395   3.356
 7928SOL    HW124683   1.301   4.334   3.422
 7928SOL    HW224684   1.330   4.490   3.383
 7929SOL     OW24685   4.104   3.497   4.636
 7929SOL    HW124686   4.050   3.461   4.559
 7929SOL    HW224687   4.096   3.434   4.714
 7930SOL     OW24688   5.057   6.008   3.526
 7930SOL    HW124689   4.996   5.932   3.500
 7930SOL    HW224690   5.139   6.005   3.470
 7931SOL     OW24691   2.030   2.650   0.091
 7931SOL    HW124692   2.092   2.572   0.085
 7931SOL    HW224693   1.935   2.618   0.090
 7932SOL     OW24694   2.501   0.320   6.955
 7932SOL    HW124695   2.546   0.274   0.005
 7932SOL    HW224696   2.505   0.419   6.968
 7933SOL     OW24697   0.603   6.802   6.997
 7933SOL    HW124698   0.696   6.834   7.014
 7933SOL    HW224699   0.539   6.878   7.009
 7934SOL     OW24700   2.246   3.607   0.170
 7934SOL    HW124701   2.316   3.642   0.106
 7934SOL    HW224702   2.286   3.536   0.228
 7935SOL     OW24703   4.855   5.773   6.864
 7935SOL    HW124704   4.892   5.685   6.895
 7935SOL    HW224705   4.927   5.842   6.866
 7936SOL     OW24706   3.385   5.994   3.236
 7936SOL    HW124707   3.357   6.079   3.191
 7936SOL    HW224708   3.341   5.916   3.190
 7937SOL     OW24709   5.234   0.117   4.746
 7937SOL    HW124710   5.162   0.143   4.682
 7937SOL    HW224711   5.308   0.073   4.697
 7938SOL     OW24712   4.741   4.902   4.826
 7938SOL    HW124713   4.642   4.905   4.809
 7938SOL    HW224714   4.761   4.938   4.917
 7939SOL     OW24715   0.757   1.543   6.066
 7939SOL    HW124716   0.785   1.633   6.033
 7939SOL    HW224717   0.665   1.548   6.104
 7940SOL     OW24718   2.613   5.070   2.057
 7940SOL    HW124719   2.637   4.977   2.030
 7940SOL    HW224720   2.527   5.069   2.108
 7941SOL     OW24721   6.754   0.147   0.844
 7941SOL    HW124722   6.664   0.105   0.848
 7941SOL    HW224723   6.746   0.243   0.815
 7942SOL     OW24724   0.118   6.586   2.401
 7942SOL    HW124725   0.112   6.636   2.314
 7942SOL    HW224726   0.105   6.488   2.384
 7943SOL     OW24727   6.033   2.291   1.050
 7943SOL    HW124728   6.105   2.226   1.027
 7943SOL    HW224729   5.963   2.290   0.978
 7944SOL     OW24730   0.272   3.420   1.052
 7944SOL    HW124731   0.200   3.366   1.095
 7944SOL    HW224732   0.340   3.447   1.120
 7945SOL     OW24733   5.106   0.216   3.000
 7945SOL    HW124734   5.112   0.293   3.064
 7945SOL    HW224735   5.082   0.250   2.909
 7946SOL     OW24736   2.007   1.947   6.024
 7946SOL    HW124737   2.009   1.850   6.048
 7946SOL    HW224738   2.054   2.000   6.094
 7947SOL     OW24739   3.833   3.035   6.577
 7947SOL    HW124740   3.919   3.044   6.527
 7947SOL    HW224741   3.815   2.938   6.594
 7948SOL     OW24742   6.704   6.781   0.827
 7948SOL    HW124743   6.744   6.764   0.918
 7948SOL    HW224744   6.760   6.737   0.757
 7949SOL     OW24745   5.227   5.032   4.389
 7949SOL    HW124746   5.233   4.975   4.471
 7949SOL    HW224747   5.167   4.987   4.322
 7950SOL     OW24748   4.545   4.857   3.786
 7950SOL    HW124749   4.644   4.844   3.790
 7950SOL    HW224750   4.513   4.842   3.692
 7951SOL     OW24751   2.928   3.481   1.140
 7951SOL    HW124752   2.850   3.423   1.161
 7951SOL    HW224753   2.904   3.545   1.067
 7952SOL     OW24754   6.793   2.934   6.912
 7952SOL    HW124755   6.701   2.963   6.941
 7952SOL    HW224756   6.786   2.852   6.856
 7953SOL     OW24757   2.183   2.514   3.066
 7953SOL    HW124758   2.115   2.441   3.072
 7953SOL    HW224759   2.230   2.508   2.978
 7954SOL     OW24760   4.530   5.327   4.531
 7954SOL    HW124761   4.576   5.250   4.574
 7954SOL    HW224762   4.592   5.372   4.468
 7955SOL     OW24763   0.147   6.626   6.740
 7955SOL    HW124764   0.148   6.725   6.728
 7955SOL    HW224765   0.228   6.586   6.695
 7956SOL     OW24766   0.695   6.110   2.944
 7956SOL    HW124767   0.792   6.104   2.920
 7956SOL    HW224768   0.661   6.201   2.919
 7957SOL     OW24769   1.638   2.030   0.658
 7957SOL    HW124770   1.734   2.015   0.635
 7957SOL    HW224771   1.585   2.042   0.574
 7958SOL     OW24772   3.526   5.631   4.418
 7958SOL    HW124773   3.449   5.687   4.387
 7958SOL    HW224774   3.612   5.678   4.399
 7959SOL     OW24775   4.700   5.036   0.412
 7959SOL    HW124776   4.632   4.987   0.358
 7959SOL    HW224777   4.748   5.101   0.353
 7960SOL     OW24778   3.284   1.823   1.492
 7960SOL    HW124779   3.296   1.908   1.543
 7960SOL    HW224780   3.350   1.820   1.417
 7961SOL     OW24781   2.003   6.423   6.554
 7961SOL    HW124782   2.098   6.448   6.575
 7961SOL    HW224783   1.997   6.394   6.459
 7962SOL     OW24784   2.266   0.642   1.185
 7962SOL    HW124785   2.211   0.698   1.122
 7962SOL    HW224786   2.206   0.575   1.230
 7963SOL     OW24787   0.024   1.486   4.842
 7963SOL    HW124788   6.960   1.486   4.886
 7963SOL    HW224789   0.013   1.506   4.744
 7964SOL     OW24790   5.590   5.197   3.894
 7964SOL    HW124791   5.528   5.145   3.836
 7964SOL    HW224792   5.610   5.146   3.977
 7965SOL     OW24793   4.254   2.668   7.016
 7965SOL    HW124794   4.320   2.624   6.956
 7965SOL    HW224795   4.270   2.767   7.017
 7966SOL     OW24796   0.722   3.661   4.802
 7966SOL    HW124797   0.774   3.585   4.841
 7966SOL    HW224798   0.713   3.649   4.703
 7967SOL     OW24799   3.040   5.982   3.664
 7967SOL    HW124800   3.049   6.013   3.758
 7967SOL    HW224801   2.951   5.937   3.652
 7968SOL     OW24802   2.366   2.506   3.354
 7968SOL    HW124803   2.288   2.569   3.351
 7968SOL    HW224804   2.342   2.422   3.305
 7969SOL     OW24805   3.614   6.857   2.107
 7969SOL    HW124806   3.600   6.939   2.051
 7969SOL    HW224807   3.677   6.796   2.061
 7970SOL     OW24808   0.067   3.589   2.925
 7970SOL    HW124809   0.016   3.669   2.893
 7970SOL    HW224810   0.161   3.595   2.892
 7971SOL     OW24811   3.107   1.220   1.966
 7971SOL    HW124812   3.111   1.208   2.065
 7971SOL    HW224813   3.045   1.296   1.944
 7972SOL     OW24814   6.678   4.560   1.177
 7972SOL    HW124815   6.744   4.561   1.101
 7972SOL    HW224816   6.723   4.587   1.261
 7973SOL     OW24817   5.145   3.522   3.671
 7973SOL    HW124818   5.223   3.583   3.673
 7973SOL    HW224819   5.145   3.470   3.585
 7974SOL     OW24820   6.169   0.300   4.569
 7974SOL    HW124821   6.176   0.361   4.648
 7974SOL    HW224822   6.199   0.348   4.487
 7975SOL     OW24823   5.036   0.404   4.146
 7975SOL    HW124824   4.988   0.492   4.156
 7975SOL    HW224825   4.971   0.329   4.157
 7976SOL     OW24826   0.828   6.559   5.237
 7976SOL    HW124827   0.768   6.481   5.252
 7976SOL    HW224828   0.797   6.637   5.291
 7977SOL     OW24829   4.532   5.840   2.488
 7977SOL    HW124830   4.525   5.817   2.585
 7977SOL    HW224831   4.534   5.940   2.477
 7978SOL     OW24832   5.099   3.916   6.258
 7978SOL    HW124833   5.094   3.819   6.235
 7978SOL    HW224834   5.163   3.962   6.195
 7979SOL     OW24835   3.203   0.138   4.795
 7979SOL    HW124836   3.219   0.167   4.889
 7979SOL    HW224837   3.290   0.134   4.745
 7980SOL     OW24838   4.032   5.700   0.372
 7980SOL    HW124839   4.004   5.615   0.416
 7980SOL    HW224840   4.131   5.706   0.369
 7981SOL     OW24841   1.060   5.304   1.410
 7981SOL    HW124842   1.157   5.311   1.390
 7981SOL    HW224843   1.027   5.392   1.445
 7982SOL     OW24844   0.135   2.504   0.882
 7982SOL    HW124845   0.165   2.449   0.804
 7982SOL    HW224846   0.208   2.566   0.909
 7983SOL     OW24847   5.479   1.852   3.488
 7983SOL    HW124848   5.387   1.879   3.458
 7983SOL    HW224849   5.476   1.823   3.583
 7984SOL     OW24850   0.895   1.756   1.935
 7984SOL    HW124851   0.948   1.804   2.005
 7984SOL    HW224852   0.911   1.657   1.943
 7985SOL     OW24853   1.378   0.254   2.678
 7985SOL    HW124854   1.289   0.227   2.642
 7985SOL    HW224855   1.433   0.173   2.696
 7986SOL     OW24856   3.379   1.289   6.965
 7986SOL    HW124857   3.435   1.207   6.965
 7986SOL    HW224858   3.420   1.357   6.904
 7987SOL     OW24859   0.260   3.805   5.881
 7987SOL    HW124860   0.310   3.781   5.797
 7987SOL    HW224861   0.240   3.721   5.932
 7988SOL     OW24862   2.820   2.294   4.628
 7988SOL    HW124863   2.751   2.352   4.672
 7988SOL    HW224864   2.829   2.321   4.532
 7989SOL     OW24865   3.534   2.726   5.241
 7989SOL    HW124866   3.597   2.745   5.316
 7989SOL    HW224867   3.445   2.701   5.277
 7990SOL     OW24868   1.567   3.553   3.244
 7990SOL    HW124869   1.546   3.553   3.341
 7990SOL    HW224870   1.483   3.537   3.191
 7991SOL     OW24871   6.946   2.577   6.372
 7991SOL    HW124872   6.928   2.500   6.311
 7991SOL    HW224873   6.944   2.545   6.467
 7992SOL     OW24874   1.181   6.094   0.993
 7992SOL    HW124875   1.279   6.101   1.011
 7992SOL    HW224876   1.134   6.070   1.077
 7993SOL     OW24877   2.161   5.736   6.688
 7993SOL    HW124878   2.182   5.828   6.720
 7993SOL    HW224879   2.234   5.704   6.627
 7994SOL     OW24880   4.608   0.486   3.734
 7994SOL    HW124881   4.664   0.557   3.692
 7994SOL    HW224882   4.616   0.491   3.834
 7995SOL     OW24883   3.674   5.237   3.953
 7995SOL    HW124884   3.621   5.165   3.909
 7995SOL    HW224885   3.614   5.314   3.975
 7996SOL     OW24886   3.700   6.419   4.229
 7996SOL    HW124887   3.730   6.468   4.311
 7996SOL    HW224888   3.706   6.480   4.150
 7997SOL     OW24889   6.424   1.635   1.312
 7997SOL    HW124890   6.410   1.549   1.362
 7997SOL    HW224891   6.516   1.637   1.273
 7998SOL     OW24892   4.555   4.950   0.193
 7998SOL    HW124893   4.592   5.038   0.164
 7998SOL    HW224894   4.582   4.879   0.129
 7999SOL     OW24895   1.082   0.048   5.595
 7999SOL    HW124896   1.162   0.101   5.566
 7999SOL    HW224897   1.081   0.040   5.694
 8000SOL     OW24898   5.651   0.452   6.229
 8000SOL    HW124899   5.672   0.354   6.227
 8000SOL    HW224900   5.589   0.470   6.306
 8001SOL     OW24901   2.762   6.223   2.113
 8001SOL    HW124902   2.855   6.197   2.137
 8001SOL    HW224903   2.763   6.304   2.055
 8002SOL     OW24904   0.182   3.503   5.972
 8002SOL    HW124905   0.083   3.495   5.981
 8002SOL    HW224906   0.223   3.411   5.974
 8003SOL     OW24907   2.766   4.750   2.716
 8003SOL    HW124908   2.854   4.777   2.676
 8003SOL    HW224909   2.715   4.695   2.649
 8004SOL     OW24910   1.792   4.844   3.306
 8004SOL    HW124911   1.802   4.943   3.318
 8004SOL    HW224912   1.800   4.799   3.394
 8005SOL     OW24913   3.413   1.217   2.318
 8005SOL    HW124914   3.444   1.142   2.259
 8005SOL    HW224915   3.457   1.302   2.289
 8006SOL     OW24916   2.572   5.919   0.487
 8006SOL    HW124917   2.544   6.005   0.443
 8006SOL    HW224918   2.661   5.890   0.450
 8007SOL     OW24919   0.860   0.359   3.896
 8007SOL    HW124920   0.794   0.288   3.919
 8007SOL    HW224921   0.953   0.323   3.907
 8008SOL     OW24922   5.381   6.718   6.156
 8008SOL    HW124923   5.340   6.807   6.175
 8008SOL    HW224924   5.319   6.645   6.185
 8009SOL     OW24925   6.295   0.450   2.585
 8009SOL    HW124926   6.315   0.354   2.566
 8009SOL    HW224927   6.372   0.491   2.633
 8010SOL     OW24928   2.133   1.486   6.953
 8010SOL    HW124929   2.079   1.424   6.895
 8010SOL    HW224930   2.168   1.436   0.006
 8011SOL     OW24931   1.885   1.924   1.493
 8011SOL    HW124932   1.918   1.986   1.564
 8011SOL    HW224933   1.942   1.934   1.411
 8012SOL     OW24934   1.889   6.022   1.039
 8012SOL    HW124935   1.911   6.102   1.094
 8012SOL    HW224936   1.818   6.046   0.972
 8013SOL     OW24937   6.692   5.200   4.650
 8013SOL    HW124938   6.728   5.121   4.601
 8013SOL    HW224939   6.769   5.253   4.688
 8014SOL     OW24940   1.565   6.098   5.984
 8014SOL    HW124941   1.519   6.053   6.060
 8014SOL    HW224942   1.497   6.132   5.919
 8015SOL     OW24943   2.969   2.233   0.798
 8015SOL    HW124944   2.913   2.191   0.727
 8015SOL    HW224945   2.923   2.316   0.831
 8016SOL     OW24946   4.609   0.107   0.133
 8016SOL    HW124947   4.616   0.066   0.224
 8016SOL    HW224948   4.622   0.206   0.140
 8017SOL     OW24949   0.651   4.638   5.592
 8017SOL    HW124950   0.558   4.628   5.627
 8017SOL    HW224951   0.679   4.734   5.595
 8018SOL     OW24952   4.749   1.896   5.761
 8018SOL    HW124953   4.753   1.932   5.668
 8018SOL    HW224954   4.758   1.972   5.826
 8019SOL     OW24955   1.953   4.176   0.202
 8019SOL    HW124956   1.860   4.178   0.239
 8019SOL    HW224957   1.970   4.261   0.152
 8020SOL     OW24958   5.683   6.401   6.495
 8020SOL    HW124959   5.609   6.463   6.469
 8020SOL    HW224960   5.770   6.449   6.488
 8021SOL     OW24961   0.923   1.026   1.756
 8021SOL    HW124962   0.879   0.966   1.823
 8021SOL    HW224963   0.968   1.102   1.803
 8022SOL     OW24964   3.841   1.088   2.810
 8022SOL    HW124965   3.775   1.153   2.847
 8022SOL    HW224966   3.933   1.125   2.821
 8023SOL     OW24967   6.335   6.322   3.053
 8023SOL    HW124968   6.265   6.380   3.093
 8023SOL    HW224969   6.293   6.260   2.986
 8024SOL     OW24970   3.599   5.351   6.599
 8024SOL    HW124971   3.663   5.351   6.675
 8024SOL    HW224972   3.623   5.423   6.534
 8025SOL     OW24973   3.668   6.070   6.091
 8025SOL    HW124974   3.721   6.048   6.172
 8025SOL    HW224975   3.680   6.166   6.067
 8026SOL     OW24976   0.363   4.133   0.204
 8026SOL    HW124977   0.296   4.070   0.164
 8026SOL    HW224978   0.341   4.147   0.301
 8027SOL     OW24979   4.574   2.214   5.340
 8027SOL    HW124980   4.523   2.148   5.285
 8027SOL    HW224981   4.659   2.237   5.292
 8028SOL     OW24982   3.728   4.745   5.388
 8028SOL    HW124983   3.658   4.769   5.320
 8028SOL    HW224984   3.783   4.670   5.353
 8029SOL     OW24985   5.408   4.017   6.468
 8029SOL    HW124986   5.387   4.059   6.379
 8029SOL    HW224987   5.451   3.928   6.453
 8030SOL     OW24988   5.620   4.324   6.016
 8030SOL    HW124989   5.524   4.345   6.033
 8030SOL    HW224990   5.655   4.383   5.944
 8031SOL     OW24991   4.943   5.670   2.418
 8031SOL    HW124992   5.002   5.590   2.405
 8031SOL    HW224993   4.849   5.647   2.394
 8032SOL     OW24994   5.986   4.076   4.943
 8032SOL    HW124995   6.065   4.094   5.002
 8032SOL    HW224996   5.998   4.123   4.856
 8033SOL     OW24997   5.611   2.834   0.265
 8033SOL    HW124998   5.541   2.805   0.199
 8033SOL    HW224999   5.616   2.934   0.267
 8034SOL     OW25000   6.508   0.616   5.255
 8034SOL    HW125001   6.477   0.576   5.341
 8034SOL    HW225002   6.457   0.700   5.237
 8035SOL     OW25003   5.737   6.808   5.231
 8035SOL    HW125004   5.638   6.816   5.229
 8035SOL    HW225005   5.764   6.739   5.298
 8036SOL     OW25006   1.389   3.683   1.608
 8036SOL    HW125007   1.407   3.670   1.510
 8036SOL    HW225008   1.388   3.781   1.628
 8037SOL     OW25009   1.691   3.407   1.292
 8037SOL    HW125010   1.744   3.334   1.248
 8037SOL    HW225011   1.598   3.408   1.254
 8038SOL     OW25012   5.561   1.901   3.081
 8038SOL    HW125013   5.464   1.878   3.072
 8038SOL    HW225014   5.589   1.891   3.176
 8039SOL     OW25015   1.794   6.918   3.534
 8039SOL    HW125016   1.718   6.892   3.592
 8039SOL    HW225017   1.857   6.977   3.584
 8040SOL     OW25018   0.595   5.306   0.914
 8040SOL    HW125019   0.655   5.277   0.988
 8040SOL    HW225020   0.568   5.226   0.860
 8041SOL     OW25021   3.804   1.679   1.467
 8041SOL    HW125022   3.770   1.585   1.475
 8041SOL    HW225023   3.889   1.679   1.415
 8042SOL     OW25024   3.427   2.712   1.771
 8042SOL    HW125025   3.430   2.799   1.722
 8042SOL    HW225026   3.396   2.727   1.865
 8043SOL     OW25027   2.977   0.265   0.489
 8043SOL    HW125028   2.889   0.300   0.521
 8043SOL    HW225029   2.991   0.291   0.394
 8044SOL     OW25030   3.126   3.114   1.166
 8044SOL    HW125031   3.132   3.102   1.265
 8044SOL    HW225032   3.198   3.062   1.121
 8045SOL     OW25033   5.726   1.155   2.275
 8045SOL    HW125034   5.674   1.162   2.360
 8045SOL    HW225035   5.804   1.218   2.279
 8046SOL     OW25036   6.005   4.810   5.724
 8046SOL    HW125037   5.981   4.842   5.633
 8046SOL    HW225038   5.979   4.714   5.735
 8047SOL     OW25039   3.422   4.932   4.766
 8047SOL    HW125040   3.399   4.918   4.862
 8047SOL    HW225041   3.338   4.950   4.714
 8048SOL     OW25042   5.208   1.304   5.421
 8048SOL    HW125043   5.183   1.393   5.459
 8048SOL    HW225044   5.178   1.232   5.484
 8049SOL     OW25045   0.691   6.921   1.485
 8049SOL    HW125046   0.712   6.911   1.388
 8049SOL    HW225047   0.594   6.945   1.496
 8050SOL     OW25048   1.101   3.624   1.530
 8050SOL    HW125049   1.092   3.558   1.456
 8050SOL    HW225050   1.196   3.626   1.562
 8051SOL     OW25051   5.178   0.062   3.355
 8051SOL    HW125052   5.184   7.000   3.401
 8051SOL    HW225053   5.084   0.077   3.325
 8052SOL     OW25054   3.529   1.779   2.286
 8052SOL    HW125055   3.489   1.692   2.315
 8052SOL    HW225056   3.455   1.844   2.268
 8053SOL     OW25057   4.004   3.858   2.729
 8053SOL    HW125058   3.967   3.777   2.774
 8053SOL    HW225059   4.087   3.887   2.775
 8054SOL     OW25060   4.427   6.701   4.684
 8054SOL    HW125061   4.343   6.741   4.719
 8054SOL    HW225062   4.499   6.770   4.683
 8055SOL     OW25063   0.566   0.528   5.989
 8055SOL    HW125064   0.532   0.459   5.924
 8055SOL    HW225065   0.662   0.548   5.968
 8056SOL     OW25066   4.349   1.340   3.191
 8056SOL    HW125067   4.439   1.299   3.173
 8056SOL    HW225068   4.281   1.268   3.203
 8057SOL     OW25069   3.003   0.489   2.549
 8057SOL    HW125070   2.929   0.423   2.543
 8057SOL    HW225071   2.978   0.571   2.498
 8058SOL     OW25072   3.269   6.805   2.723
 8058SOL    HW125073   3.353   6.796   2.777
 8058SOL    HW225074   3.194   6.830   2.784
 8059SOL     OW25075   3.652   2.054   4.647
 8059SOL    HW125076   3.657   2.050   4.548
 8059SOL    HW225077   3.740   2.085   4.684
 8060SOL     OW25078   0.751   1.319   4.820
 8060SOL    HW125079   0.839   1.367   4.814
 8060SOL    HW225080   0.766   1.228   4.860
 8061SOL     OW25081   6.837   5.787   1.997
 8061SOL    HW125082   6.762   5.742   2.046
 8061SOL    HW225083   6.801   5.866   1.947
 8062SOL     OW25084   1.929   4.262   4.344
 8062SOL    HW125085   1.956   4.241   4.437
 8062SOL    HW225086   1.942   4.360   4.326
 8063SOL     OW25087   2.336   3.811   6.802
 8063SOL    HW125088   2.362   3.881   6.736
 8063SOL    HW225089   2.262   3.755   6.764
 8064SOL     OW25090   0.562   4.723   0.289
 8064SOL    HW125091   0.482   4.713   0.229
 8064SOL    HW225092   0.533   4.763   0.376
 8065SOL     OW25093   4.037   0.255   4.358
 8065SOL    HW125094   4.092   0.335   4.334
 8065SOL    HW225095   4.066   0.177   4.302
 8066SOL     OW25096   1.731   0.853   6.909
 8066SOL    HW125097   1.802   0.867   6.840
 8066SOL    HW225098   1.668   0.781   6.878
 8067SOL     OW25099   3.949   3.418   1.702
 8067SOL    HW125100   3.966   3.516   1.709
 8067SOL    HW225101   3.870   3.403   1.643
 8068SOL     OW25102   6.213   6.236   5.418
 8068SOL    HW125103   6.210   6.334   5.399
 8068SOL    HW225104   6.127   6.194   5.390
 8069SOL     OW25105   2.587   6.024   1.559
 8069SOL    HW125106   2.538   5.960   1.619
 8069SOL    HW225107   2.564   6.118   1.584
 8070SOL     OW25108   2.995   5.178   1.306
 8070SOL    HW125109   3.016   5.107   1.373
 8070SOL    HW225110   3.014   5.268   1.346
 8071SOL     OW25111   4.172   6.794   4.907
 8071SOL    HW125112   4.112   6.734   4.960
 8071SOL    HW225113   4.251   6.819   4.963
 8072SOL     OW25114   3.951   1.232   0.487
 8072SOL    HW125115   3.958   1.172   0.407
 8072SOL    HW225116   4.029   1.216   0.547
 8073SOL     OW25117   4.937   0.515   6.774
 8073SOL    HW125118   4.968   0.459   6.697
 8073SOL    HW225119   4.841   0.538   6.762
 8074SOL     OW25120   3.228   3.268   0.329
 8074SOL    HW125121   3.139   3.301   0.361
 8074SOL    HW225122   3.282   3.238   0.408
 8075SOL     OW25123   6.855   1.107   1.472
 8075SOL    HW125124   6.874   1.176   1.542
 8075SOL    HW225125   6.917   1.121   1.395
 8076SOL     OW25126   5.022   2.323   5.477
 8076SOL    HW125127   5.015   2.291   5.572
 8076SOL    HW225128   4.964   2.266   5.419
 8077SOL     OW25129   0.445   6.619   1.575
 8077SOL    HW125130   0.495   6.675   1.510
 8077SOL    HW225131   0.510   6.570   1.633
 8078SOL     OW25132   6.113   1.959   0.452
 8078SOL    HW125133   6.020   1.925   0.437
 8078SOL    HW225134   6.156   1.905   0.525
 8079SOL     OW25135   6.229   2.024   3.009
 8079SOL    HW125136   6.280   2.069   2.935
 8079SOL    HW225137   6.184   2.092   3.066
 8080SOL     OW25138   2.395   3.495   0.582
 8080SOL    HW125139   2.370   3.586   0.615
 8080SOL    HW225140   2.344   3.426   0.634
 8081SOL     OW25141   5.611   1.018   5.275
 8081SOL    HW125142   5.618   1.118   5.278
 8081SOL    HW225143   5.615   0.982   5.368
 8082SOL     OW25144   5.723   2.490   3.144
 8082SOL    HW125145   5.779   2.407   3.149
 8082SOL    HW225146   5.628   2.467   3.166
 8083SOL     OW25147   4.895   3.381   2.265
 8083SOL    HW125148   4.935   3.340   2.348
 8083SOL    HW225149   4.830   3.318   2.224
 8084SOL     OW25150   6.758   6.022   1.135
 8084SOL    HW125151   6.751   6.115   1.169
 8084SOL    HW225152   6.820   5.969   1.193
 8085SOL     OW25153   5.988   6.798   1.166
 8085SOL    HW125154   6.042   6.720   1.133
 8085SOL    HW225155   5.954   6.850   1.088
 8086SOL     OW25156   3.799   0.204   4.118
 8086SOL    HW125157   3.791   0.110   4.151
 8086SOL    HW225158   3.777   0.207   4.021
 8087SOL     OW25159   2.732   2.225   1.048
 8087SOL    HW125160   2.818   2.175   1.043
 8087SOL    HW225161   2.713   2.248   1.144
 8088SOL     OW25162   6.343   1.549   1.822
 8088SOL    HW125163   6.441   1.546   1.842
 8088SOL    HW225164   6.315   1.465   1.775
 8089SOL     OW25165   5.444   2.661   6.788
 8089SOL    HW125166   5.423   2.755   6.815
 8089SOL    HW225167   5.417   2.646   6.693
 8090SOL     OW25168   4.957   2.085   6.466
 8090SOL    HW125169   5.045   2.069   6.422
 8090SOL    HW225170   4.892   2.119   6.397
 8091SOL     OW25171   3.432   4.496   6.984
 8091SOL    HW125172   3.367   4.434   6.938
 8091SOL    HW225173   3.522   4.452   6.989
 8092SOL     OW25174   1.440   1.399   4.743
 8092SOL    HW125175   1.423   1.386   4.841
 8092SOL    HW225176   1.537   1.388   4.725
 8093SOL     OW25177   6.418   6.051   1.389
 8093SOL    HW125178   6.364   6.127   1.425
 8093SOL    HW225179   6.504   6.044   1.440
 8094SOL     OW25180   1.816   4.367   6.002
 8094SOL    HW125181   1.794   4.320   5.916
 8094SOL    HW225182   1.800   4.305   6.079
 8095SOL     OW25183   6.014   3.813   4.292
 8095SOL    HW125184   5.994   3.717   4.312
 8095SOL    HW225185   6.099   3.819   4.240
 8096SOL     OW25186   2.828   5.495   3.283
 8096SOL    HW125187   2.878   5.502   3.370
 8096SOL    HW225188   2.759   5.567   3.278
 8097SOL     OW25189   4.703   0.135   3.388
 8097SOL    HW125190   4.678   0.170   3.479
 8097SOL    HW225191   4.639   0.063   3.362
 8098SOL     OW25192   2.352   6.167   4.221
 8098SOL    HW125193   2.320   6.075   4.241
 8098SOL    HW225194   2.326   6.192   4.128
 8099SOL     OW25195   6.609   0.752   4.050
 8099SOL    HW125196   6.639   0.710   3.963
 8099SOL    HW225197   6.591   0.849   4.035
 8100SOL     OW25198   0.498   6.498   0.292
 8100SOL    HW125199   0.506   6.472   0.196
 8100SOL    HW225200   0.583   6.543   0.322
 8101SOL     OW25201   1.417   0.250   5.054
 8101SOL    HW125202   1.356   0.247   4.975
 8101SOL    HW225203   1.466   0.163   5.062
 8102SOL     OW25204   0.912   5.457   6.219
 8102SOL    HW125205   0.934   5.546   6.257
 8102SOL    HW225206   0.839   5.466   6.150
 8103SOL     OW25207   4.130   0.896   1.644
 8103SOL    HW125208   4.036   0.893   1.677
 8103SOL    HW225209   4.185   0.827   1.692
 8104SOL     OW25210   3.973   6.996   5.945
 8104SOL    HW125211   4.008   6.941   5.870
 8104SOL    HW225212   3.873   6.995   5.944
 8105SOL     OW25213   2.673   2.364   3.531
 8105SOL    HW125214   2.740   2.292   3.549
 8105SOL    HW225215   2.679   2.392   3.435
 8106SOL     OW25216   1.332   5.079   3.588
 8106SOL    HW125217   1.343   5.177   3.598
 8106SOL    HW225218   1.399   5.045   3.521
 8107SOL     OW25219   2.271   6.543   5.865
 8107SOL    HW125220   2.243   6.451   5.837
 8107SOL    HW225221   2.355   6.568   5.816
 8108SOL     OW25222   6.753   3.322   4.500
 8108SOL    HW125223   6.748   3.359   4.593
 8108SOL    HW225224   6.683   3.252   4.488
 8109SOL     OW25225   2.062   4.452   4.856
 8109SOL    HW125226   2.129   4.384   4.825
 8109SOL    HW225227   2.020   4.420   4.941
 8110SOL     OW25228   2.801   6.320   0.623
 8110SOL    HW125229   2.832   6.314   0.718
 8110SOL    HW225230   2.833   6.406   0.584
 8111SOL     OW25231   2.910   6.539   5.295
 8111SOL    HW125232   2.895   6.463   5.358
 8111SOL    HW225233   2.926   6.623   5.346
 8112SOL     OW25234   2.524   0.656   5.530
 8112SOL    HW125235   2.466   0.711   5.590
 8112SOL    HW225236   2.524   0.561   5.561
 8113SOL     OW25237   3.074   2.615   0.495
 8113SOL    HW125238   3.137   2.690   0.517
 8113SOL    HW225239   2.985   2.652   0.470
 8114SOL     OW25240   2.226   2.885   2.108
 8114SOL    HW125241   2.237   2.872   2.207
 8114SOL    HW225242   2.187   2.976   2.091
 8115SOL     OW25243   3.988   1.129   1.502
 8115SOL    HW125244   3.983   1.215   1.552
 8115SOL    HW225245   4.030   1.059   1.561
 8116SOL     OW25246   5.635   0.077   5.345
 8116SOL    HW125247   5.582   0.008   5.394
 8116SOL    HW225248   5.732   0.068   5.368
 8117SOL     OW25249   1.629   2.109   3.984
 8117SOL    HW125250   1.663   2.197   4.018
 8117SOL    HW225251   1.663   2.035   4.042
 8118SOL     OW25252   0.795   3.891   5.756
 8118SOL    HW125253   0.775   3.944   5.838
 8118SOL    HW225254   0.743   3.928   5.679
 8119SOL     OW25255   0.493   5.389   4.059
 8119SOL    HW125256   0.540   5.318   4.006
 8119SOL    HW225257   0.557   5.429   4.125
 8120SOL     OW25258   4.150   4.342   0.183
 8120SOL    HW125259   4.198   4.299   0.260
 8120SOL    HW225260   4.214   4.400   0.133
 8121SOL     OW25261   0.508   6.675   3.062
 8121SOL    HW125262   0.463   6.764   3.074
 8121SOL    HW225263   0.580   6.665   3.131
 8122SOL     OW25264   0.782   4.791   2.142
 8122SOL    HW125265   0.871   4.838   2.145
 8122SOL    HW225266   0.754   4.780   2.047
 8123SOL     OW25267   0.766   0.202   6.196
 8123SOL    HW125268   0.860   0.236   6.201
 8123SOL    HW225269   0.749   0.166   6.104
 8124SOL     OW25270   1.511   6.220   0.800
 8124SOL    HW125271   1.585   6.152   0.805
 8124SOL    HW225272   1.546   6.305   0.763
 8125SOL     OW25273   5.881   5.011   2.826
 8125SOL    HW125274   5.783   5.028   2.842
 8125SOL    HW225275   5.892   4.922   2.782
 8126SOL     OW25276   6.059   4.764   3.016
 8126SOL    HW125277   6.001   4.682   3.025
 8126SOL    HW225278   6.154   4.740   3.037
 8127SOL     OW25279   2.349   5.086   0.716
 8127SOL    HW125280   2.333   5.174   0.671
 8127SOL    HW225281   2.324   5.012   0.653
 8128SOL     OW25282   3.292   2.768   6.690
 8128SOL    HW125283   3.250   2.820   6.764
 8128SOL    HW225284   3.287   2.822   6.605
 8129SOL     OW25285   5.368   1.053   6.405
 8129SOL    HW125286   5.268   1.060   6.399
 8129SOL    HW225287   5.406   1.035   6.315
 8130SOL     OW25288   1.191   5.719   6.046
 8130SOL    HW125289   1.279   5.762   6.062
 8130SOL    HW225290   1.191   5.627   6.085
 8131SOL     OW25291   3.077   1.220   0.589
 8131SOL    HW125292   3.099   1.251   0.497
 8131SOL    HW225293   3.151   1.246   0.651
 8132SOL     OW25294   5.937   5.685   5.291
 8132SOL    HW125295   5.994   5.616   5.335
 8132SOL    HW225296   5.841   5.669   5.312
 8133SOL     OW25297   3.464   4.938   3.359
 8133SOL    HW125298   3.496   4.918   3.452
 8133SOL    HW225299   3.541   4.932   3.295
 8134SOL     OW25300   1.889   1.943   4.116
 8134SOL    HW125301   1.954   1.904   4.182
 8134SOL    HW225302   1.821   1.874   4.092
 8135SOL     OW25303   3.235   4.966   2.243
 8135SOL    HW125304   3.176   4.902   2.194
 8135SOL    HW225305   3.179   5.040   2.282
 8136SOL     OW25306   4.011   5.125   2.366
 8136SOL    HW125307   3.918   5.147   2.334
 8136SOL    HW225308   4.074   5.130   2.288
 8137SOL     OW25309   1.874   2.877   4.498
 8137SOL    HW125310   1.947   2.809   4.506
 8137SOL    HW225311   1.912   2.968   4.516
 8138SOL     OW25312   5.868   1.852   2.106
 8138SOL    HW125313   5.899   1.769   2.061
 8138SOL    HW225314   5.937   1.883   2.171
 8139SOL     OW25315   0.541   3.382   3.672
 8139SOL    HW125316   0.595   3.454   3.716
 8139SOL    HW225317   0.452   3.375   3.717
 8140SOL     OW25318   4.200   6.947   6.648
 8140SOL    HW125319   4.213   0.009   6.601
 8140SOL    HW225320   4.109   6.944   6.689
 8141SOL     OW25321   4.765   1.185   5.610
 8141SOL    HW125322   4.748   1.138   5.523
 8141SOL    HW225323   4.794   1.118   5.678
 8142SOL     OW25324   2.675   5.186   0.381
 8142SOL    HW125325   2.621   5.137   0.313
 8142SOL    HW225326   2.628   5.271   0.406
 8143SOL     OW25327   5.417   4.772   1.282
 8143SOL    HW125328   5.336   4.765   1.339
 8143SOL    HW225329   5.392   4.809   1.192
 8144SOL     OW25330   0.212   5.913   5.568
 8144SOL    HW125331   0.163   5.970   5.634
 8144SOL    HW225332   0.301   5.888   5.606
 8145SOL     OW25333   4.948   5.724   0.319
 8145SOL    HW125334   4.876   5.708   0.386
 8145SOL    HW225335   4.974   5.820   0.321
 8146SOL     OW25336   6.421   0.557   4.752
 8146SOL    HW125337   6.424   0.612   4.668
 8146SOL    HW225338   6.330   0.515   4.760
 8147SOL     OW25339   0.649   0.639   6.677
 8147SOL    HW125340   0.605   0.605   6.760
 8147SOL    HW225341   0.656   0.739   6.681
 8148SOL     OW25342   4.335   4.052   0.079
 8148SOL    HW125343   4.392   3.969   0.083
 8148SOL    HW225344   4.339   4.100   0.166
 8149SOL     OW25345   1.611   6.682   4.494
 8149SOL    HW125346   1.620   6.717   4.400
 8149SOL    HW225347   1.520   6.643   4.507
 8150SOL     OW25348   1.119   3.445   1.077
 8150SOL    HW125349   1.061   3.418   1.000
 8150SOL    HW225350   1.134   3.366   1.137
 8151SOL     OW25351   5.952   5.191   3.599
 8151SOL    HW125352   5.955   5.216   3.502
 8151SOL    HW225353   5.865   5.221   3.639
 8152SOL     OW25354   4.453   2.053   2.956
 8152SOL    HW125355   4.408   1.981   2.903
 8152SOL    HW225356   4.540   2.076   2.912
 8153SOL     OW25357   0.989   0.463   3.377
 8153SOL    HW125358   1.082   0.459   3.339
 8153SOL    HW225359   0.926   0.492   3.306
 8154SOL     OW25360   2.861   1.611   3.443
 8154SOL    HW125361   2.878   1.709   3.429
 8154SOL    HW225362   2.946   1.565   3.467
 8155SOL     OW25363   1.503   4.325   2.197
 8155SOL    HW125364   1.438   4.294   2.266
 8155SOL    HW225365   1.469   4.302   2.106
 8156SOL     OW25366   5.981   5.823   1.160
 8156SOL    HW125367   5.986   5.728   1.192
 8156SOL    HW225368   5.971   5.825   1.061
 8157SOL     OW25369   6.128   3.603   5.779
 8157SOL    HW125370   6.045   3.658   5.789
 8157SOL    HW225371   6.113   3.512   5.817
 8158SOL     OW25372   5.225   4.851   5.921
 8158SOL    HW125373   5.190   4.912   5.850
 8158SOL    HW225374   5.323   4.836   5.907
 8159SOL     OW25375   4.056   6.519   5.824
 8159SOL    HW125376   4.132   6.530   5.889
 8159SOL    HW225377   3.981   6.579   5.851
 8160SOL     OW25378   4.860   1.387   3.477
 8160SOL    HW125379   4.865   1.486   3.474
 8160SOL    HW225380   4.835   1.357   3.569
 8161SOL     OW25381   5.361   3.342   0.470
 8161SOL    HW125382   5.261   3.339   0.463
 8161SOL    HW225383   5.388   3.384   0.556
 8162SOL     OW25384   0.269   4.973   6.978
 8162SOL    HW125385   0.215   4.938   6.901
 8162SOL    HW225386   0.218   5.046   7.024
 8163SOL     OW25387   4.044   4.802   5.531
 8163SOL    HW125388   4.065   4.771   5.439
 8163SOL    HW225389   3.953   4.845   5.532
 8164SOL     OW25390   4.435   0.924   6.980
 8164SOL    HW125391   4.375   0.993   6.940
 8164SOL    HW225392   4.467   0.955   0.043
 8165SOL     OW25393   6.559   3.339   6.552
 8165SOL    HW125394   6.499   3.337   6.472
 8165SOL    HW225395   6.605   3.428   6.556
 8166SOL     OW25396   1.887   2.114   3.813
 8166SOL    HW125397   1.805   2.165   3.839
 8166SOL    HW225398   1.966   2.176   3.812
 8167SOL     OW25399   6.565   1.360   3.755
 8167SOL    HW125400   6.548   1.455   3.780
 8167SOL    HW225401   6.599   1.356   3.661
 8168SOL     OW25402   2.048   0.537   1.644
 8168SOL    HW125403   2.011   0.616   1.596
 8168SOL    HW225404   1.980   0.463   1.645
 8169SOL     OW25405   4.437   1.863   0.331
 8169SOL    HW125406   4.414   1.834   0.423
 8169SOL    HW225407   4.433   1.963   0.326
 8170SOL     OW25408   7.023   3.830   2.243
 8170SOL    HW125409   0.040   3.833   2.333
 8170SOL    HW225410   6.993   3.736   2.224
 8171SOL     OW25411   1.918   0.972   0.158
 8171SOL    HW125412   1.860   0.890   0.152
 8171SOL    HW225413   1.929   1.011   0.067
 8172SOL     OW25414   0.498   1.682   1.723
 8172SOL    HW125415   0.479   1.702   1.819
 8172SOL    HW225416   0.566   1.746   1.689
 8173SOL     OW25417   6.027   2.045   2.547
 8173SOL    HW125418   6.066   1.978   2.610
 8173SOL    HW225419   5.927   2.034   2.545
 8174SOL     OW25420   1.243   6.378   2.376
 8174SOL    HW125421   1.157   6.341   2.343
 8174SOL    HW225422   1.314   6.363   2.308
 8175SOL     OW25423   0.818   2.515   3.973
 8175SOL    HW125424   0.865   2.437   4.013
 8175SOL    HW225425   0.768   2.564   4.044
 8176SOL     OW25426   1.609   4.345   1.508
 8176SOL    HW125427   1.671   4.414   1.470
 8176SOL    HW225428   1.603   4.358   1.607
 8177SOL     OW25429   3.587   0.901   3.072
 8177SOL    HW125430   3.571   0.965   2.997
 8177SOL    HW225431   3.664   0.932   3.127
 8178SOL     OW25432   3.118   6.503   0.884
 8178SOL    HW125433   3.107   6.595   0.845
 8178SOL    HW225434   3.215   6.478   0.885
 8179SOL     OW25435   5.629   0.247   4.112
 8179SOL    HW125436   5.595   0.229   4.019
 8179SOL    HW225437   5.687   0.171   4.141
 8180SOL     OW25438   5.939   0.111   6.833
 8180SOL    HW125439   5.980   0.188   6.785
 8180SOL    HW225440   6.009   0.042   6.852
 8181SOL     OW25441   0.687   0.915   1.004
 8181SOL    HW125442   0.765   0.958   0.959
 8181SOL    HW225443   0.704   0.909   1.102
 8182SOL     OW25444   3.812   3.535   4.557
 8182SOL    HW125445   3.769   3.452   4.591
 8182SOL    HW225446   3.779   3.614   4.610
 8183SOL     OW25447   6.666   0.917   5.111
 8183SOL    HW125448   6.606   0.849   5.153
 8183SOL    HW225449   6.662   1.002   5.165
 8184SOL     OW25450   1.152   6.981   0.187
 8184SOL    HW125451   1.056   6.984   0.212
 8184SOL    HW225452   1.171   0.026   0.120
 8185SOL     OW25453   1.712   0.682   1.312
 8185SOL    HW125454   1.698   0.583   1.324
 8185SOL    HW225455   1.628   0.723   1.277
 8186SOL     OW25456   1.541   4.592   6.443
 8186SOL    HW125457   1.461   4.533   6.433
 8186SOL    HW225458   1.604   4.553   6.510
 8187SOL     OW25459   2.285   1.840   5.154
 8187SOL    HW125460   2.188   1.818   5.146
 8187SOL    HW225461   2.298   1.939   5.145
 8188SOL     OW25462   4.124   2.123   3.899
 8188SOL    HW125463   4.190   2.198   3.897
 8188SOL    HW225464   4.032   2.160   3.884
 8189SOL     OW25465   5.259   4.634   3.597
 8189SOL    HW125466   5.334   4.659   3.535
 8189SOL    HW225467   5.252   4.701   3.671
 8190SOL     OW25468   5.274   3.885   3.306
 8190SOL    HW125469   5.281   3.825   3.385
 8190SOL    HW225470   5.218   3.842   3.235
 8191SOL     OW25471   4.422   5.085   2.139
 8191SOL    HW125472   4.396   5.064   2.044
 8191SOL    HW225473   4.521   5.096   2.144
 8192SOL     OW25474   1.764   5.422   2.324
 8192SOL    HW125475   1.715   5.385   2.245
 8192SOL    HW225476   1.714   5.400   2.407
 8193SOL     OW25477   6.936   5.650   4.533
 8193SOL    HW125478   6.975   5.659   4.441
 8193SOL    HW225479   6.900   5.738   4.563
 8194SOL     OW25480   4.373   0.023   0.754
 8194SOL    HW125481   4.346   0.119   0.766
 8194SOL    HW225482   4.465   0.010   0.790
 8195SOL     OW25483   6.066   6.563   4.442
 8195SOL    HW125484   6.009   6.598   4.516
 8195SOL    HW225485   6.146   6.517   4.480
 8196SOL     OW25486   4.211   0.700   6.811
 8196SOL    HW125487   4.157   0.637   6.754
 8196SOL    HW225488   4.268   0.757   6.752
 8197SOL     OW25489   4.734   1.801   1.782
 8197SOL    HW125490   4.697   1.721   1.736
 8197SOL    HW225491   4.686   1.883   1.750
 8198SOL     OW25492   2.520   0.488   2.063
 8198SOL    HW125493   2.511   0.419   2.135
 8198SOL    HW225494   2.566   0.568   2.099
 8199SOL     OW25495   4.509   3.149   5.945
 8199SOL    HW125496   4.546   3.230   5.990
 8199SOL    HW225497   4.418   3.170   5.909
 8200SOL     OW25498   5.974   4.277   1.959
 8200SOL    HW125499   5.937   4.204   1.901
 8200SOL    HW225500   6.067   4.298   1.930
 8201SOL     OW25501   0.150   1.392   5.219
 8201SOL    HW125502   0.098   1.328   5.276
 8201SOL    HW225503   0.207   1.341   5.154
 8202SOL     OW25504   0.188   6.522   2.651
 8202SOL    HW125505   0.181   6.543   2.554
 8202SOL    HW225506   0.270   6.564   2.689
 8203SOL     OW25507   1.906   2.275   0.175
 8203SOL    HW125508   1.882   2.264   0.271
 8203SOL    HW225509   1.892   2.371   0.148
 8204SOL     OW25510   4.219   3.900   0.856
 8204SOL    HW125511   4.269   3.850   0.927
 8204SOL    HW225512   4.271   3.981   0.829
 8205SOL     OW25513   0.466   2.695   6.876
 8205SOL    HW125514   0.386   2.747   6.845
 8205SOL    HW225515   0.545   2.717   6.819
 8206SOL     OW25516   4.964   1.124   0.313
 8206SOL    HW125517   5.034   1.195   0.320
 8206SOL    HW225518   5.001   1.046   0.262
 8207SOL     OW25519   3.139   4.016   4.181
 8207SOL    HW125520   3.207   4.075   4.138
 8207SOL    HW225521   3.100   4.062   4.261
 8208SOL     OW25522   0.601   1.135   0.619
 8208SOL    HW125523   0.646   1.053   0.587
 8208SOL    HW225524   0.547   1.114   0.700
 8209SOL     OW25525   0.556   1.249   5.253
 8209SOL    HW125526   0.643   1.285   5.218
 8209SOL    HW225527   0.572   1.200   5.338
 8210SOL     OW25528   2.196   2.716   0.478
 8210SOL    HW125529   2.111   2.747   0.436
 8210SOL    HW225530   2.274   2.749   0.425
 8211SOL     OW25531   3.476   4.158   1.202
 8211SOL    HW125532   3.411   4.169   1.277
 8211SOL    HW225533   3.493   4.061   1.187
 8212SOL     OW25534   1.349   2.391   2.957
 8212SOL    HW125535   1.284   2.344   2.896
 8212SOL    HW225536   1.301   2.463   3.007
 8213SOL     OW25537   6.779   4.288   2.083
 8213SOL    HW125538   6.844   4.295   2.008
 8213SOL    HW225539   6.691   4.256   2.048
 8214SOL     OW25540   5.686   5.038   3.551
 8214SOL    HW125541   5.775   4.993   3.548
 8214SOL    HW225542   5.698   5.137   3.539
 8215SOL     OW25543   3.186   6.197   5.172
 8215SOL    HW125544   3.205   6.288   5.208
 8215SOL    HW225545   3.269   6.160   5.128
 8216SOL     OW25546   5.400   5.942   4.418
 8216SOL    HW125547   5.339   5.972   4.344
 8216SOL    HW225548   5.353   5.872   4.473
 8217SOL     OW25549   2.396   5.028   6.861
 8217SOL    HW125550   2.436   4.946   6.903
 8217SOL    HW225551   2.468   5.082   6.819
 8218SOL     OW25552   0.766   1.314   6.943
 8218SOL    HW125553   0.819   1.350   6.866
 8218SOL    HW225554   0.828   1.277   7.012
 8219SOL     OW25555   4.745   1.451   0.176
 8219SOL    HW125556   4.843   1.436   0.189
 8219SOL    HW225557   4.727   1.549   0.168
 8220SOL     OW25558   3.052   3.064   2.839
 8220SOL    HW125559   2.970   3.016   2.809
 8220SOL    HW225560   3.037   3.162   2.833
 8221SOL     OW25561   5.012   6.125   4.342
 8221SOL    HW125562   4.960   6.108   4.425
 8221SOL    HW225563   4.978   6.207   4.296
 8222SOL     OW25564   5.363   1.820   2.328
 8222SOL    HW125565   5.291   1.804   2.396
 8222SOL    HW225566   5.364   1.918   2.304
 8223SOL     OW25567   1.497   3.775   5.687
 8223SOL    HW125568   1.542   3.759   5.599
 8223SOL    HW225569   1.529   3.707   5.754
 8224SOL     OW25570   0.663   2.505   3.023
 8224SOL    HW125571   0.713   2.527   2.939
 8224SOL    HW225572   0.708   2.549   3.101
 8225SOL     OW25573   3.778   1.121   0.652
 8225SOL    HW125574   3.842   1.044   0.649
 8225SOL    HW225575   3.803   1.188   0.582
 8226SOL     OW25576   5.186   0.202   2.346
 8226SOL    HW125577   5.224   0.234   2.259
 8226SOL    HW225578   5.251   0.139   2.389
 8227SOL     OW25579   0.388   2.650   3.840
 8227SOL    HW125580   0.465   2.617   3.785
 8227SOL    HW225581   0.423   2.712   3.911
 8228SOL     OW25582   0.493   2.705   6.177
 8228SOL    HW125583   0.410   2.758   6.196
 8228SOL    HW225584   0.534   2.738   6.092
 8229SOL     OW25585   3.697   4.139   0.103
 8229SOL    HW125586   3.746   4.204   0.046
 8229SOL    HW225587   3.758   4.103   0.173
 8230SOL     OW25588   5.706   0.164   5.641
 8230SOL    HW125589   5.613   0.128   5.644
 8230SOL    HW225590   5.746   0.146   5.551
 8231SOL     OW25591   3.982   5.774   1.539
 8231SOL    HW125592   3.918   5.850   1.537
 8231SOL    HW225593   4.032   5.770   1.452
 8232SOL     OW25594   5.595   1.125   0.849
 8232SOL    HW125595   5.679   1.154   0.896
 8232SOL    HW225596   5.518   1.180   0.883
 8233SOL     OW25597   0.978   5.864   6.059
 8233SOL    HW125598   0.984   5.917   6.143
 8233SOL    HW225599   1.059   5.805   6.052
 8234SOL     OW25600   2.597   3.469   6.855
 8234SOL    HW125601   2.692   3.491   6.875
 8234SOL    HW225602   2.537   3.527   6.911
 8235SOL     OW25603   2.217   3.395   0.898
 8235SOL    HW125604   2.174   3.345   0.973
 8235SOL    HW225605   2.148   3.415   0.828
 8236SOL     OW25606   6.635   3.642   0.180
 8236SOL    HW125607   6.556   3.649   0.118
 8236SOL    HW225608   6.716   3.615   0.129
 8237SOL     OW25609   4.781   6.658   4.858
 8237SOL    HW125610   4.754   6.649   4.954
 8237SOL    HW225611   4.878   6.634   4.848
 8238SOL     OW25612   1.486   4.180   0.157
 8238SOL    HW125613   1.446   4.126   0.082
 8238SOL    HW225614   1.583   4.157   0.167
 8239SOL     OW25615   6.708   1.531   5.615
 8239SOL    HW125616   6.631   1.547   5.552
 8239SOL    HW225617   6.783   1.593   5.592
 8240SOL     OW25618   3.562   3.684   2.688
 8240SOL    HW125619   3.650   3.687   2.640
 8240SOL    HW225620   3.567   3.621   2.765
 8241SOL     OW25621   3.471   6.540   0.404
 8241SOL    HW125622   3.388   6.485   0.415
 8241SOL    HW225623   3.452   6.617   0.342
 8242SOL     OW25624   1.319   4.018   6.167
 8242SOL    HW125625   1.391   4.040   6.101
 8242SOL    HW225626   1.324   3.920   6.189
 8243SOL     OW25627   0.990   3.150   6.404
 8243SOL    HW125628   1.023   3.216   6.471
 8243SOL    HW225629   1.068   3.102   6.364
 8244SOL     OW25630   0.314   6.928   3.063
 8244SOL    HW125631   0.362   7.013   3.084
 8244SOL    HW225632   0.286   6.928   2.967
 8245SOL     OW25633   3.622   1.079   2.499
 8245SOL    HW125634   3.542   1.134   2.474
 8245SOL    HW225635   3.610   0.985   2.465
 8246SOL     OW25636   6.723   3.546   5.433
 8246SOL    HW125637   6.686   3.463   5.476
 8246SOL    HW225638   6.756   3.608   5.504
 8247SOL     OW25639   0.898   0.329   2.071
 8247SOL    HW125640   0.960   0.340   2.148
 8247SOL    HW225641   0.937   0.376   1.991
 8248SOL     OW25642   5.624   5.087   2.834
 8248SOL    HW125643   5.582   5.166   2.878
 8248SOL    HW225644   5.553   5.029   2.794
 8249SOL     OW25645   2.150   3.431   4.919
 8249SOL    HW125646   2.225   3.428   4.986
 8249SOL    HW225647   2.115   3.524   4.913
 8250SOL     OW25648   3.033   3.991   2.275
 8250SOL    HW125649   3.054   3.988   2.373
 8250SOL    HW225650   2.949   4.044   2.261
 8251SOL     OW25651   6.146   2.802   4.439
 8251SOL    HW125652   6.194   2.856   4.508
 8251SOL    HW225653   6.163   2.841   4.348
 8252SOL     OW25654   3.285   3.150   6.954
 8252SOL    HW125655   3.271   3.245   6.979
 8252SOL    HW225656   3.377   3.121   6.978
 8253SOL     OW25657   4.036   3.765   5.068
 8253SOL    HW125658   3.956   3.728   5.115
 8253SOL    HW225659   4.022   3.760   4.969
 8254SOL     OW25660   4.488   4.696   4.561
 8254SOL    HW125661   4.537   4.777   4.529
 8254SOL    HW225662   4.513   4.618   4.504
 8255SOL     OW25663   3.301   6.128   4.881
 8255SOL    HW125664   3.295   6.225   4.900
 8255SOL    HW225665   3.394   6.096   4.899
 8256SOL     OW25666   6.410   0.609   1.961
 8256SOL    HW125667   6.324   0.630   1.915
 8256SOL    HW225668   6.402   0.632   2.058
 8257SOL     OW25669   6.570   4.145   3.220
 8257SOL    HW125670   6.472   4.155   3.241
 8257SOL    HW225671   6.621   4.133   3.306
 8258SOL     OW25672   5.412   0.973   0.657
 8258SOL    HW125673   5.444   0.966   0.752
 8258SOL    HW225674   5.455   1.052   0.614
 8259SOL     OW25675   4.193   1.703   3.580
 8259SOL    HW125676   4.289   1.678   3.596
 8259SOL    HW225677   4.178   1.797   3.613
 8260SOL     OW25678   2.864   0.734   1.836
 8260SOL    HW125679   2.797   0.786   1.889
 8260SOL    HW225680   2.928   0.798   1.793
 8261SOL     OW25681   6.410   1.359   1.376
 8261SOL    HW125682   6.504   1.370   1.409
 8261SOL    HW225683   6.393   1.262   1.356
 8262SOL     OW25684   1.026   3.064   1.036
 8262SOL    HW125685   0.930   3.088   1.025
 8262SOL    HW225686   1.073   3.072   0.948
 8263SOL     OW25687   0.578   2.182   0.346
 8263SOL    HW125688   0.547   2.255   0.285
 8263SOL    HW225689   0.678   2.185   0.352
 8264SOL     OW25690   1.796   6.241   2.287
 8264SOL    HW125691   1.740   6.308   2.239
 8264SOL    HW225692   1.893   6.265   2.278
 8265SOL     OW25693   0.929   6.735   1.403
 8265SOL    HW125694   0.880   6.725   1.489
 8265SOL    HW225695   0.867   6.768   1.332
 8266SOL     OW25696   2.074   0.726   3.242
 8266SOL    HW125697   2.171   0.731   3.267
 8266SOL    HW225698   2.059   0.778   3.158
 8267SOL     OW25699   1.696   3.133   0.916
 8267SOL    HW125700   1.704   3.108   0.820
 8267SOL    HW225701   1.600   3.141   0.941
 8268SOL     OW25702   2.231   6.453   6.124
 8268SOL    HW125703   2.327   6.436   6.146
 8268SOL    HW225704   2.224   6.490   6.031
 8269SOL     OW25705   5.734   1.591   1.503
 8269SOL    HW125706   5.699   1.572   1.412
 8269SOL    HW225707   5.766   1.686   1.507
 8270SOL     OW25708   2.649   6.894   5.013
 8270SOL    HW125709   2.713   6.930   5.081
 8270SOL    HW225710   2.679   6.804   4.983
 8271SOL     OW25711   0.159   0.907   2.586
 8271SOL    HW125712   0.220   0.879   2.512
 8271SOL    HW225713   0.214   0.937   2.664
 8272SOL     OW25714   5.134   1.397   1.265
 8272SOL    HW125715   5.035   1.407   1.276
 8272SOL    HW225716   5.159   1.301   1.272
 8273SOL     OW25717   2.139   5.905   0.954
 8273SOL    HW125718   2.135   5.806   0.960
 8273SOL    HW225719   2.049   5.944   0.973
 8274SOL     OW25720   4.956   4.668   3.061
 8274SOL    HW125721   4.862   4.702   3.060
 8274SOL    HW225722   5.010   4.720   2.995
 8275SOL     OW25723   4.246   1.348   6.000
 8275SOL    HW125724   4.298   1.414   5.946
 8275SOL    HW225725   4.301   1.317   6.077
 8276SOL     OW25726   1.334   2.330   4.017
 8276SOL    HW125727   1.286   2.242   4.027
 8276SOL    HW225728   1.404   2.321   3.947
 8277SOL     OW25729   0.076   0.964   0.061
 8277SOL    HW125730   0.169   0.958   0.099
 8277SOL    HW225731   0.017   1.013   0.125
 8278SOL     OW25732   2.484   1.841   5.809
 8278SOL    HW125733   2.554   1.777   5.776
 8278SOL    HW225734   2.527   1.924   5.843
 8279SOL     OW25735   1.550   0.483   4.441
 8279SOL    HW125736   1.555   0.538   4.524
 8279SOL    HW225737   1.455   0.474   4.412
 8280SOL     OW25738   2.593   3.251   0.507
 8280SOL    HW125739   2.516   3.280   0.563
 8280SOL    HW225740   2.634   3.169   0.548
 8281SOL     OW25741   2.045   4.849   1.311
 8281SOL    HW125742   1.976   4.793   1.265
 8281SOL    HW225743   2.025   4.852   1.409
 8282SOL     OW25744   5.477   3.717   6.688
 8282SOL    HW125745   5.472   3.649   6.761
 8282SOL    HW225746   5.570   3.754   6.683
 8283SOL     OW25747   1.310   4.439   6.481
 8283SOL    HW125748   1.237   4.501   6.452
 8283SOL    HW225749   1.292   4.347   6.444
 8284SOL     OW25750   0.828   3.735   0.895
 8284SOL    HW125751   0.871   3.774   0.814
 8284SOL    HW225752   0.893   3.736   0.971
 8285SOL     OW25753   3.335   2.890   4.843
 8285SOL    HW125754   3.322   2.980   4.886
 8285SOL    HW225755   3.266   2.827   4.876
 8286SOL     OW25756   5.443   3.362   6.679
 8286SOL    HW125757   5.463   3.268   6.707
 8286SOL    HW225758   5.443   3.422   6.759
 8287SOL     OW25759   1.959   5.308   4.448
 8287SOL    HW125760   2.029   5.242   4.473
 8287SOL    HW225761   1.896   5.267   4.381
 8288SOL     OW25762   2.787   1.804   1.698
 8288SOL    HW125763   2.792   1.847   1.788
 8288SOL    HW225764   2.849   1.851   1.635
 8289SOL     OW25765   0.711   5.985   1.786
 8289SOL    HW125766   0.801   6.024   1.766
 8289SOL    HW225767   0.653   6.054   1.829
 8290SOL     OW25768   5.866   0.865   0.857
 8290SOL    HW125769   5.843   0.903   0.768
 8290SOL    HW225770   5.887   0.767   0.847
 8291SOL     OW25771   4.531   5.852   6.292
 8291SOL    HW125772   4.496   5.778   6.349
 8291SOL    HW225773   4.457   5.917   6.274
 8292SOL     OW25774   2.506   6.332   6.914
 8292SOL    HW125775   2.534   6.298   6.824
 8292SOL    HW225776   2.425   6.390   6.903
 8293SOL     OW25777   3.311   7.014   0.086
 8293SOL    HW125778   3.224   6.988   0.046
 8293SOL    HW225779   3.359   6.933   0.120
 8294SOL     OW25780   5.809   4.790   4.950
 8294SOL    HW125781   5.775   4.874   4.992
 8294SOL    HW225782   5.770   4.710   4.996
 8295SOL     OW25783   5.388   5.355   1.654
 8295SOL    HW125784   5.331   5.273   1.645
 8295SOL    HW225785   5.441   5.350   1.738
 8296SOL     OW25786   2.606   6.569   6.588
 8296SOL    HW125787   2.603   6.479   6.632
 8296SOL    HW225788   2.637   6.559   6.494
 8297SOL     OW25789   6.816   2.839   2.309
 8297SOL    HW125790   6.914   2.819   2.306
 8297SOL    HW225791   6.792   2.898   2.232
 8298SOL     OW25792   6.086   2.397   1.317
 8298SOL    HW125793   6.084   2.347   1.231
 8298SOL    HW225794   6.155   2.470   1.311
 8299SOL     OW25795   0.011   2.417   1.992
 8299SOL    HW125796   7.025   2.516   2.002
 8299SOL    HW225797   0.084   2.399   1.926
 8300SOL     OW25798   0.935   6.035   5.335
 8300SOL    HW125799   0.994   6.030   5.255
 8300SOL    HW225800   0.989   6.022   5.418
 8301SOL     OW25801   4.131   1.716   1.602
 8301SOL    HW125802   4.149   1.788   1.536
 8301SOL    HW225803   4.170   1.630   1.569
 8302SOL     OW25804   5.217   6.215   5.976
 8302SOL    HW125805   5.248   6.306   5.948
 8302SOL    HW225806   5.164   6.223   6.061
 8303SOL     OW25807   6.805   1.228   4.084
 8303SOL    HW125808   6.709   1.244   4.107
 8303SOL    HW225809   6.854   1.315   4.081
 8304SOL     OW25810   1.167   3.086   0.264
 8304SOL    HW125811   1.094   3.075   0.197
 8304SOL    HW225812   1.144   3.160   0.328
 8305SOL     OW25813   3.909   4.908   4.263
 8305SOL    HW125814   3.934   4.966   4.185
 8305SOL    HW225815   3.992   4.882   4.312
 8306SOL     OW25816   0.216   2.952   5.237
 8306SOL    HW125817   0.281   2.958   5.161
 8306SOL    HW225818   0.262   2.976   5.322
 8307SOL     OW25819   4.396   5.128   1.567
 8307SOL    HW125820   4.368   5.209   1.617
 8307SOL    HW225821   4.316   5.080   1.532
 8308SOL     OW25822   4.284   5.985   1.527
 8308SOL    HW125823   4.236   5.957   1.611
 8308SOL    HW225824   4.317   6.078   1.537
 8309SOL     OW25825   6.482   5.525   3.560
 8309SOL    HW125826   6.558   5.465   3.584
 8309SOL    HW225827   6.515   5.620   3.554
 8310SOL     OW25828   1.133   4.269   0.513
 8310SOL    HW125829   1.094   4.360   0.528
 8310SOL    HW225830   1.220   4.262   0.562
 8311SOL     OW25831   0.489   1.104   4.886
 8311SOL    HW125832   0.584   1.119   4.913
 8311SOL    HW225833   0.453   1.024   4.933
 8312SOL     OW25834   4.533   5.811   1.317
 8312SOL    HW125835   4.574   5.877   1.380
 8312SOL    HW225836   4.439   5.837   1.298
 8313SOL     OW25837   5.062   1.039   2.333
 8313SOL    HW125838   4.977   1.008   2.289
 8313SOL    HW225839   5.044   1.061   2.428
 8314SOL     OW25840   4.887   6.865   1.427
 8314SOL    HW125841   4.911   6.837   1.334
 8314SOL    HW225842   4.952   6.825   1.492
 8315SOL     OW25843   4.234   3.532   1.185
 8315SOL    HW125844   4.270   3.444   1.154
 8315SOL    HW225845   4.152   3.516   1.239
 8316SOL     OW25846   1.109   2.397   1.852
 8316SOL    HW125847   1.010   2.407   1.857
 8316SOL    HW225848   1.134   2.359   1.763
 8317SOL     OW25849   2.406   2.591   2.217
 8317SOL    HW125850   2.420   2.674   2.163
 8317SOL    HW225851   2.311   2.589   2.250
 8318SOL     OW25852   4.037   1.451   4.346
 8318SOL    HW125853   4.032   1.362   4.300
 8318SOL    HW225854   3.945   1.485   4.364
 8319SOL     OW25855   3.058   1.776   6.447
 8319SOL    HW125856   3.082   1.687   6.410
 8319SOL    HW225857   3.126   1.843   6.418
 8320SOL     OW25858   3.516   3.888   1.214
 8320SOL    HW125859   3.610   3.896   1.182
 8320SOL    HW225860   3.514   3.835   1.299
 8321SOL     OW25861   0.408   1.426   0.152
 8321SOL    HW125862   0.461   1.358   0.101
 8321SOL    HW225863   0.313   1.398   0.157
 8322SOL     OW25864   0.289   0.270   0.636
 8322SOL    HW125865   0.229   0.250   0.558
 8322SOL    HW225866   0.285   0.195   0.701
 8323SOL     OW25867   6.434   6.592   2.985
 8323SOL    HW125868   6.490   6.540   3.049
 8323SOL    HW225869   6.347   6.545   2.971
 8324SOL     OW25870   6.142   0.932   1.724
 8324SOL    HW125871   6.224   0.967   1.679
 8324SOL    HW225872   6.147   0.832   1.730
 8325SOL     OW25873   3.232   3.470   5.143
 8325SOL    HW125874   3.282   3.445   5.060
 8325SOL    HW225875   3.144   3.423   5.145
 8326SOL     OW25876   4.773   3.129   5.356
 8326SOL    HW125877   4.695   3.182   5.323
 8326SOL    HW225878   4.856   3.184   5.351
 8327SOL     OW25879   5.404   2.768   6.280
 8327SOL    HW125880   5.479   2.738   6.219
 8327SOL    HW225881   5.346   2.833   6.231
 8328SOL     OW25882   2.903   4.132   6.493
 8328SOL    HW125883   2.919   4.220   6.447
 8328SOL    HW225884   2.867   4.066   6.427
 8329SOL     OW25885   6.922   4.179   6.190
 8329SOL    HW125886   6.955   4.103   6.135
 8329SOL    HW225887   6.992   4.207   6.256
 8330SOL     OW25888   2.439   0.049   0.839
 8330SOL    HW125889   2.494   7.002   0.879
 8330SOL    HW225890   2.414   0.025   0.746
 8331SOL     OW25891   2.376   0.772   1.470
 8331SOL    HW125892   2.409   0.698   1.411
 8331SOL    HW225893   2.342   0.733   1.555
 8332SOL     OW25894   4.834   5.260   2.432
 8332SOL    HW125895   4.771   5.335   2.453
 8332SOL    HW225896   4.823   5.233   2.336
 8333SOL     OW25897   0.723   6.470   6.781
 8333SOL    HW125898   0.788   6.446   6.853
 8333SOL    HW225899   0.661   6.394   6.765
 8334SOL     OW25900   4.402   1.486   4.198
 8334SOL    HW125901   4.386   1.581   4.171
 8334SOL    HW225902   4.403   1.479   4.298
 8335SOL     OW25903   6.259   5.610   6.108
 8335SOL    HW125904   6.205   5.548   6.051
 8335SOL    HW225905   6.317   5.668   6.050
 8336SOL     OW25906   0.077   7.024   2.134
 8336SOL    HW125907   0.061   0.057   2.213
 8336SOL    HW225908   0.141   0.042   2.071
 8337SOL     OW25909   0.877   6.624   3.056
 8337SOL    HW125910   0.806   6.564   3.093
 8337SOL    HW225911   0.916   6.680   3.130
 8338SOL     OW25912   1.557   5.122   2.093
 8338SOL    HW125913   1.593   5.213   2.079
 8338SOL    HW225914   1.618   5.070   2.153
 8339SOL     OW25915   5.879   0.589   1.185
 8339SOL    HW125916   5.886   0.678   1.232
 8339SOL    HW225917   5.968   0.544   1.188
 8340SOL     OW25918   5.337   4.138   1.173
 8340SOL    HW125919   5.278   4.203   1.125
 8340SOL    HW225920   5.353   4.170   1.266
 8341SOL     OW25921   2.585   6.419   0.155
 8341SOL    HW125922   2.569   6.411   0.057
 8341SOL    HW225923   2.498   6.412   0.204
 8342SOL     OW25924   3.781   0.317   1.424
 8342SOL    HW125925   3.709   0.380   1.397
 8342SOL    HW225926   3.757   0.224   1.397
 8343SOL     OW25927   1.181   4.788   6.077
 8343SOL    HW125928   1.158   4.703   6.030
 8343SOL    HW225929   1.218   4.854   6.011
 8344SOL     OW25930   4.705   0.344   5.372
 8344SOL    HW125931   4.619   0.352   5.322
 8344SOL    HW225932   4.781   0.345   5.307
 8345SOL     OW25933   5.283   1.899   3.844
 8345SOL    HW125934   5.341   1.964   3.893
 8345SOL    HW225935   5.216   1.949   3.789
 8346SOL     OW25936   3.248   4.597   0.391
 8346SOL    HW125937   3.162   4.629   0.351
 8346SOL    HW225938   3.309   4.675   0.406
 8347SOL     OW25939   3.503   6.593   4.834
 8347SOL    HW125940   3.445   6.650   4.776
 8347SOL    HW225941   3.482   6.611   4.930
 8348SOL     OW25942   0.764   6.667   1.714
 8348SOL    HW125943   0.715   6.752   1.695
 8348SOL    HW225944   0.858   6.689   1.743
 8349SOL     OW25945   6.019   5.724   1.571
 8349SOL    HW125946   6.041   5.687   1.481
 8349SOL    HW225947   5.972   5.655   1.626
 8350SOL     OW25948   4.916   1.276   4.830
 8350SOL    HW125949   4.992   1.287   4.894
 8350SOL    HW225950   4.901   1.362   4.781
 8351SOL     OW25951   4.773   5.228   4.297
 8351SOL    HW125952   4.833   5.256   4.222
 8351SOL    HW225953   4.826   5.227   4.382
 8352SOL     OW25954   6.984   6.751   2.555
 8352SOL    HW125955   6.889   6.729   2.530
 8352SOL    HW225956   0.019   6.691   2.504
 8353SOL     OW25957   6.048   3.952   1.989
 8353SOL    HW125958   6.117   3.943   2.061
 8353SOL    HW225959   6.029   3.862   1.949
 8354SOL     OW25960   3.225   0.769   6.681
 8354SOL    HW125961   3.139   0.794   6.725
 8354SOL    HW225962   3.209   0.752   6.583
 8355SOL     OW25963   2.831   0.648   7.006
 8355SOL    HW125964   2.861   0.607   6.920
 8355SOL    HW225965   2.879   0.735   7.020
 8356SOL     OW25966   1.578   6.395   0.416
 8356SOL    HW125967   1.651   6.462   0.428
 8356SOL    HW225968   1.542   6.368   0.505
 8357SOL     OW25969   3.665   6.863   6.180
 8357SOL    HW125970   3.569   6.859   6.152
 8357SOL    HW225971   3.717   6.794   6.130
 8358SOL     OW25972   1.708   2.647   5.303
 8358SOL    HW125973   1.793   2.688   5.269
 8358SOL    HW225974   1.652   2.616   5.227
 8359SOL     OW25975   3.226   6.301   4.216
 8359SOL    HW125976   3.169   6.245   4.275
 8359SOL    HW225977   3.250   6.386   4.263
 8360SOL     OW25978   3.390   6.062   2.151
 8360SOL    HW125979   3.451   6.116   2.092
 8360SOL    HW225980   3.351   6.121   2.221
 8361SOL     OW25981   1.932   0.623   2.629
 8361SOL    HW125982   1.994   0.548   2.605
 8361SOL    HW225983   1.865   0.591   2.696
 8362SOL     OW25984   2.558   2.305   0.801
 8362SOL    HW125985   2.606   2.265   0.723
 8362SOL    HW225986   2.608   2.283   0.885
 8363SOL     OW25987   0.292   2.442   6.864
 8363SOL    HW125988   0.256   2.520   6.812
 8363SOL    HW225989   0.387   2.427   6.838
 8364SOL     OW25990   6.533   3.444   3.204
 8364SOL    HW125991   6.469   3.513   3.171
 8364SOL    HW225992   6.605   3.487   3.258
 8365SOL     OW25993   1.293   4.309   1.632
 8365SOL    HW125994   1.304   4.330   1.535
 8365SOL    HW225995   1.319   4.214   1.650
 8366SOL     OW25996   3.751   5.167   2.307
 8366SOL    HW125997   3.700   5.201   2.228
 8366SOL    HW225998   3.730   5.070   2.320
 8367SOL     OW25999   4.045   6.055   3.784
 8367SOL    HW126000   3.975   6.109   3.831
 8367SOL    HW226001   4.004   6.012   3.703
 8368SOL     OW26002   2.485   6.381   6.165
 8368SOL    HW126003   2.461   6.295   6.120
 8368SOL    HW226004   2.579   6.405   6.144
 8369SOL     OW26005   2.024   0.052   6.942
 8369SOL    HW126006   2.019   0.117   6.866
 8369SOL    HW226007   2.081   0.090   7.015
 8370SOL     OW26008   2.603   2.269   5.819
 8370SOL    HW126009   2.567   2.360   5.798
 8370SOL    HW226010   2.674   2.245   5.753
 8371SOL     OW26011   1.709   4.235   1.016
 8371SOL    HW126012   1.738   4.166   1.082
 8371SOL    HW226013   1.652   4.192   0.946
 8372SOL     OW26014   0.359   6.193   2.897
 8372SOL    HW126015   0.289   6.219   2.964
 8372SOL    HW226016   0.446   6.235   2.920
 8373SOL     OW26017   1.130   0.279   4.743
 8373SOL    HW126018   1.199   0.271   4.671
 8373SOL    HW226019   1.066   0.203   4.736
 8374SOL     OW26020   6.582   0.613   6.340
 8374SOL    HW126021   6.508   0.681   6.338
 8374SOL    HW226022   6.655   0.642   6.278
 8375SOL     OW26023   3.233   6.635   5.661
 8375SOL    HW126024   3.270   6.544   5.681
 8375SOL    HW226025   3.300   6.688   5.609
 8376SOL     OW26026   2.061   6.854   4.039
 8376SOL    HW126027   1.981   6.913   4.049
 8376SOL    HW226028   2.144   6.908   4.056
 8377SOL     OW26029   5.734   5.918   1.247
 8377SOL    HW126030   5.833   5.899   1.247
 8377SOL    HW226031   5.700   5.919   1.153
 8378SOL     OW26032   4.580   4.493   3.066
 8378SOL    HW126033   4.633   4.467   3.146
 8378SOL    HW226034   4.617   4.578   3.028
 8379SOL     OW26035   6.752   2.768   0.931
 8379SOL    HW126036   6.807   2.742   1.010
 8379SOL    HW226037   6.794   2.730   0.848
 8380SOL     OW26038   6.697   1.337   2.514
 8380SOL    HW126039   6.681   1.414   2.576
 8380SOL    HW226040   6.652   1.255   2.550
 8381SOL     OW26041   0.330   4.167   4.827
 8381SOL    HW126042   0.304   4.071   4.827
 8381SOL    HW226043   0.306   4.209   4.739
 8382SOL     OW26044   1.342   1.391   2.124
 8382SOL    HW126045   1.295   1.479   2.112
 8382SOL    HW226046   1.435   1.408   2.157
 8383SOL     OW26047   2.340   0.884   6.280
 8383SOL    HW126048   2.420   0.894   6.222
 8383SOL    HW226049   2.351   0.940   6.362
 8384SOL     OW26050   0.451   0.002   0.051
 8384SOL    HW126051   0.477   0.094   0.079
 8384SOL    HW226052   0.373   6.998   0.105
 8385SOL     OW26053   6.074   2.717   1.416
 8385SOL    HW126054   6.133   2.670   1.350
 8385SOL    HW226055   6.021   2.649   1.467
 8386SOL     OW26056   0.963   4.175   2.587
 8386SOL    HW126057   0.994   4.084   2.558
 8386SOL    HW226058   0.866   4.185   2.568
 8387SOL     OW26059   0.795   1.247   1.356
 8387SOL    HW126060   0.881   1.291   1.382
 8387SOL    HW226061   0.808   1.197   1.270
 8388SOL     OW26062   1.954   5.813   0.467
 8388SOL    HW126063   1.880   5.793   0.531
 8388SOL    HW226064   1.955   5.744   0.395
 8389SOL     OW26065   5.890   3.556   2.473
 8389SOL    HW126066   5.917   3.530   2.566
 8389SOL    HW226067   5.965   3.537   2.410
 8390SOL     OW26068   3.682   1.666   6.485
 8390SOL    HW126069   3.634   1.589   6.528
 8390SOL    HW226070   3.741   1.632   6.412
 8391SOL     OW26071   5.965   5.820   0.527
 8391SOL    HW126072   6.031   5.750   0.499
 8391SOL    HW226073   5.876   5.777   0.542
 8392SOL     OW26074   5.930   3.674   3.619
 8392SOL    HW126075   5.898   3.639   3.531
 8392SOL    HW226076   5.925   3.774   3.619
 8393SOL     OW26077   5.832   0.831   2.852
 8393SOL    HW126078   5.927   0.824   2.880
 8393SOL    HW226079   5.812   0.924   2.821
 8394SOL     OW26080   5.682   3.050   1.950
 8394SOL    HW126081   5.747   2.989   1.994
 8394SOL    HW226082   5.676   3.028   1.852
 8395SOL     OW26083   3.119   6.700   5.902
 8395SOL    HW126084   3.155   6.693   5.809
 8395SOL    HW226085   3.139   6.791   5.939
 8396SOL     OW26086   4.641   4.588   3.413
 8396SOL    HW126087   4.668   4.498   3.378
 8396SOL    HW226088   4.705   4.657   3.380
 8397SOL     OW26089   0.717   1.149   3.606
 8397SOL    HW126090   0.704   1.084   3.681
 8397SOL    HW226091   0.669   1.234   3.627
 8398SOL     OW26092   5.087   2.691   6.429
 8398SOL    HW126093   5.020   2.627   6.392
 8398SOL    HW226094   5.122   2.749   6.356
 8399SOL     OW26095   6.059   6.515   6.878
 8399SOL    HW126096   6.147   6.531   6.922
 8399SOL    HW226097   6.071   6.447   6.806
 8400SOL     OW26098   1.970   2.426   4.120
 8400SOL    HW126099   1.977   2.526   4.119
 8400SOL    HW226100   2.020   2.388   4.043
 8401SOL     OW26101   2.184   1.169   5.542
 8401SOL    HW126102   2.220   1.260   5.522
 8401SOL    HW226103   2.085   1.175   5.559
 8402SOL     OW26104   5.471   1.895   6.107
 8402SOL    HW126105   5.418   1.889   6.191
 8402SOL    HW226106   5.410   1.921   6.031
 8403SOL     OW26107   0.644   3.382   4.616
 8403SOL    HW126108   0.675   3.340   4.701
 8403SOL    HW226109   0.693   3.468   4.601
 8404SOL     OW26110   3.666   0.413   5.907
 8404SOL    HW126111   3.609   0.467   5.844
 8404SOL    HW226112   3.744   0.469   5.937
 8405SOL     OW26113   3.421   1.940   6.221
 8405SOL    HW126114   3.335   1.945   6.170
 8405SOL    HW226115   3.407   1.887   6.305
 8406SOL     OW26116   4.276   6.949   0.316
 8406SOL    HW126117   4.193   6.979   0.362
 8406SOL    HW226118   4.282   6.992   0.226
 8407SOL     OW26119   4.228   6.320   3.298
 8407SOL    HW126120   4.289   6.281   3.229
 8407SOL    HW226121   4.188   6.405   3.263
 8408SOL     OW26122   5.409   5.366   0.228
 8408SOL    HW126123   5.312   5.376   0.253
 8408SOL    HW226124   5.449   5.457   0.212
 8409SOL     OW26125   4.547   2.481   1.864
 8409SOL    HW126126   4.545   2.422   1.784
 8409SOL    HW226127   4.498   2.437   1.939
 8410SOL     OW26128   6.406   2.176   1.912
 8410SOL    HW126129   6.420   2.213   2.004
 8410SOL    HW226130   6.400   2.076   1.917
 8411SOL     OW26131   0.253   5.967   0.977
 8411SOL    HW126132   0.335   5.913   0.960
 8411SOL    HW226133   0.231   6.021   0.896
 8412SOL     OW26134   3.974   2.347   1.266
 8412SOL    HW126135   4.058   2.378   1.310
 8412SOL    HW226136   3.913   2.425   1.252
 8413SOL     OW26137   4.166   5.413   6.086
 8413SOL    HW126138   4.170   5.329   6.141
 8413SOL    HW226139   4.246   5.470   6.107
 8414SOL     OW26140   2.565   1.048   2.815
 8414SOL    HW126141   2.502   1.102   2.760
 8414SOL    HW226142   2.528   0.956   2.829
 8415SOL     OW26143   2.141   6.683   4.273
 8415SOL    HW126144   2.151   6.772   4.229
 8415SOL    HW226145   2.164   6.690   4.370
 8416SOL     OW26146   6.095   1.673   4.867
 8416SOL    HW126147   5.996   1.660   4.866
 8416SOL    HW226148   6.141   1.584   4.877
 8417SOL     OW26149   2.193   3.052   5.479
 8417SOL    HW126150   2.261   3.022   5.546
 8417SOL    HW226151   2.156   2.973   5.430
 8418SOL     OW26152   0.206   5.809   1.938
 8418SOL    HW126153   0.149   5.804   2.020
 8418SOL    HW226154   0.267   5.730   1.935
 8419SOL     OW26155   5.854   1.497   2.946
 8419SOL    HW126156   5.900   1.502   3.035
 8419SOL    HW226157   5.881   1.576   2.891
 8420SOL     OW26158   3.182   6.480   2.129
 8420SOL    HW126159   3.224   6.448   2.044
 8420SOL    HW226160   3.135   6.567   2.112
 8421SOL     OW26161   3.231   5.265   6.938
 8421SOL    HW126162   3.316   5.306   6.973
 8421SOL    HW226163   3.175   5.337   6.897
 8422SOL     OW26164   3.848   1.889   2.576
 8422SOL    HW126165   3.915   1.922   2.509
 8422SOL    HW226166   3.757   1.924   2.552
 8423SOL     OW26167   4.316   4.036   5.714
 8423SOL    HW126168   4.381   4.005   5.644
 8423SOL    HW226169   4.350   4.121   5.755
 8424SOL     OW26170   2.199   1.975   3.385
 8424SOL    HW126171   2.225   1.980   3.288
 8424SOL    HW226172   2.194   2.068   3.423
 8425SOL     OW26173   4.143   3.511   4.146
 8425SOL    HW126174   4.097   3.583   4.198
 8425SOL    HW226175   4.131   3.528   4.048
 8426SOL     OW26176   3.598   3.306   2.540
 8426SOL    HW126177   3.629   3.213   2.521
 8426SOL    HW226178   3.498   3.308   2.542
 8427SOL     OW26179   3.195   3.621   3.156
 8427SOL    HW126180   3.185   3.521   3.151
 8427SOL    HW226181   3.104   3.664   3.148
 8428SOL     OW26182   6.758   6.507   1.515
 8428SOL    HW126183   6.771   6.442   1.589
 8428SOL    HW226184   6.660   6.518   1.497
 8429SOL     OW26185   1.655   5.212   5.846
 8429SOL    HW126186   1.717   5.190   5.921
 8429SOL    HW226187   1.613   5.301   5.862
 8430SOL     OW26188   3.900   5.125   4.078
 8430SOL    HW126189   3.936   5.211   4.042
 8430SOL    HW226190   3.804   5.115   4.051
 8431SOL     OW26191   3.431   3.699   6.797
 8431SOL    HW126192   3.390   3.730   6.712
 8431SOL    HW226193   3.530   3.701   6.789
 8432SOL     OW26194   6.847   5.492   5.549
 8432SOL    HW126195   6.920   5.530   5.491
 8432SOL    HW226196   6.760   5.499   5.502
 8433SOL     OW26197   4.432   2.616   0.759
 8433SOL    HW126198   4.352   2.676   0.750
 8433SOL    HW226199   4.403   2.529   0.800
 8434SOL     OW26200   2.447   6.353   4.430
 8434SOL    HW126201   2.477   6.412   4.354
 8434SOL    HW226202   2.385   6.283   4.395
 8435SOL     OW26203   5.384   0.594   3.078
 8435SOL    HW126204   5.470   0.561   3.117
 8435SOL    HW226205   5.358   0.679   3.123
 8436SOL     OW26206   3.162   6.320   3.948
 8436SOL    HW126207   3.202   6.317   4.040
 8436SOL    HW226208   3.092   6.392   3.945
 8437SOL     OW26209   2.183   2.669   2.333
 8437SOL    HW126210   2.107   2.621   2.376
 8437SOL    HW226211   2.191   2.761   2.372
 8438SOL     OW26212   2.251   4.245   2.884
 8438SOL    HW126213   2.317   4.320   2.892
 8438SOL    HW226214   2.217   4.240   2.790
 8439SOL     OW26215   6.423   5.160   3.262
 8439SOL    HW126216   6.433   5.091   3.191
 8439SOL    HW226217   6.340   5.213   3.247
 8440SOL     OW26218   2.384   2.151   3.583
 8440SOL    HW126219   2.431   2.198   3.658
 8440SOL    HW226220   2.291   2.187   3.575
 8441SOL     OW26221   5.113   6.004   5.792
 8441SOL    HW126222   5.083   6.080   5.850
 8441SOL    HW226223   5.188   5.955   5.836
 8442SOL     OW26224   3.767   0.756   5.480
 8442SOL    HW126225   3.743   0.848   5.450
 8442SOL    HW226226   3.683   0.701   5.488
 8443SOL     OW26227   2.459   4.711   3.742
 8443SOL    HW126228   2.389   4.677   3.679
 8443SOL    HW226229   2.462   4.810   3.738
 8444SOL     OW26230   3.271   6.777   3.482
 8444SOL    HW126231   3.218   6.844   3.431
 8444SOL    HW226232   3.210   6.712   3.526
 8445SOL     OW26233   2.643   0.635   0.677
 8445SOL    HW126234   2.668   0.601   0.768
 8445SOL    HW226235   2.548   0.666   0.678
 8446SOL     OW26236   6.557   5.887   5.161
 8446SOL    HW126237   6.521   5.823   5.094
 8446SOL    HW226238   6.546   5.981   5.128
 8447SOL     OW26239   3.911   1.371   1.604
 8447SOL    HW126240   3.818   1.359   1.571
 8447SOL    HW226241   3.910   1.405   1.698
 8448SOL     OW26242   4.660   6.431   3.499
 8448SOL    HW126243   4.685   6.462   3.590
 8448SOL    HW226244   4.742   6.405   3.449
 8449SOL     OW26245   0.371   3.342   4.055
 8449SOL    HW126246   0.444   3.276   4.037
 8449SOL    HW226247   0.364   3.407   3.980
 8450SOL     OW26248   0.410   0.967   1.228
 8450SOL    HW126249   0.441   1.016   1.310
 8450SOL    HW226250   0.313   0.986   1.212
 8451SOL     OW26251   3.283   0.995   0.453
 8451SOL    HW126252   3.189   1.027   0.440
 8451SOL    HW226253   3.332   1.059   0.512
 8452SOL     OW26254   5.277   2.391   4.091
 8452SOL    HW126255   5.324   2.407   4.004
 8452SOL    HW226256   5.210   2.464   4.107
 8453SOL     OW26257   0.164   5.191   0.087
 8453SOL    HW126258   0.164   5.289   0.071
 8453SOL    HW226259   0.071   5.159   0.104
 8454SOL     OW26260   0.363   5.039   0.230
 8454SOL    HW126261   0.370   4.959   0.171
 8454SOL    HW226262   0.295   5.103   0.192
 8455SOL     OW26263   6.961   2.086   2.983
 8455SOL    HW126264   6.893   2.125   3.045
 8455SOL    HW226265   6.928   1.999   2.946
 8456SOL     OW26266   4.801   0.739   3.568
 8456SOL    HW126267   4.872   0.766   3.633
 8456SOL    HW226268   4.780   0.817   3.508
 8457SOL     OW26269   6.540   6.196   5.077
 8457SOL    HW126270   6.451   6.241   5.068
 8457SOL    HW226271   6.595   6.215   4.995
 8458SOL     OW26272   1.294   0.226   0.787
 8458SOL    HW126273   1.213   0.197   0.737
 8458SOL    HW226274   1.267   0.270   0.873
 8459SOL     OW26275   2.001   5.813   3.264
 8459SOL    HW126276   1.995   5.728   3.211
 8459SOL    HW226277   1.925   5.873   3.238
 8460SOL     OW26278   4.336   3.902   5.378
 8460SOL    HW126279   4.376   3.816   5.345
 8460SOL    HW226280   4.408   3.961   5.413
 8461SOL     OW26281   0.969   2.127   5.226
 8461SOL    HW126282   0.908   2.207   5.220
 8461SOL    HW226283   0.914   2.045   5.240
 8462SOL     OW26284   3.275   1.562   0.528
 8462SOL    HW126285   3.264   1.643   0.585
 8462SOL    HW226286   3.334   1.496   0.574
 8463SOL     OW26287   6.350   0.009   1.808
 8463SOL    HW126288   6.252   0.025   1.797
 8463SOL    HW226289   6.399   0.095   1.797
 8464SOL     OW26290   5.631   4.166   4.312
 8464SOL    HW126291   5.665   4.238   4.252
 8464SOL    HW226292   5.621   4.081   4.260
 8465SOL     OW26293   1.709   2.322   0.643
 8465SOL    HW126294   1.677   2.230   0.663
 8465SOL    HW226295   1.794   2.318   0.590
 8466SOL     OW26296   1.199   6.067   3.985
 8466SOL    HW126297   1.214   6.094   3.890
 8466SOL    HW226298   1.276   6.099   4.041
 8467SOL     OW26299   2.887   5.903   0.905
 8467SOL    HW126300   2.948   5.843   0.854
 8467SOL    HW226301   2.939   5.980   0.942
 8468SOL     OW26302   3.532   1.766   0.855
 8468SOL    HW126303   3.590   1.689   0.881
 8468SOL    HW226304   3.531   1.833   0.928
 8469SOL     OW26305   3.224   3.072   6.652
 8469SOL    HW126306   3.309   3.074   6.703
 8469SOL    HW226307   3.233   3.008   6.575
 8470SOL     OW26308   2.261   2.963   1.662
 8470SOL    HW126309   2.305   2.903   1.728
 8470SOL    HW226310   2.232   3.047   1.707
 8471SOL     OW26311   2.425   0.553   3.364
 8471SOL    HW126312   2.506   0.499   3.386
 8471SOL    HW226313   2.416   0.563   3.265
 8472SOL     OW26314   0.290   0.133   4.533
 8472SOL    HW126315   0.325   0.072   4.461
 8472SOL    HW226316   0.276   0.224   4.494
 8473SOL     OW26317   0.191   5.518   6.995
 8473SOL    HW126318   0.162   5.518   0.064
 8473SOL    HW226319   0.135   5.582   6.942
 8474SOL     OW26320   3.034   3.079   1.886
 8474SOL    HW126321   3.056   3.042   1.976
 8474SOL    HW226322   3.118   3.108   1.841
 8475SOL     OW26323   6.388   1.933   2.637
 8475SOL    HW126324   6.374   1.983   2.551
 8475SOL    HW226325   6.304   1.884   2.660
 8476SOL     OW26326   6.105   0.368   1.827
 8476SOL    HW126327   6.042   0.376   1.905
 8476SOL    HW226328   6.125   0.272   1.810
 8477SOL     OW26329   3.029   6.358   1.248
 8477SOL    HW126330   2.973   6.438   1.226
 8477SOL    HW226331   3.003   6.282   1.188
 8478SOL     OW26332   1.662   0.476   5.349
 8478SOL    HW126333   1.709   0.479   5.437
 8478SOL    HW226334   1.564   0.491   5.363
 8479SOL     OW26335   5.781   1.047   0.047
 8479SOL    HW126336   5.736   1.107   0.114
 8479SOL    HW226337   5.879   1.066   0.046
 8480SOL     OW26338   3.442   1.230   1.408
 8480SOL    HW126339   3.364   1.177   1.376
 8480SOL    HW226340   3.414   1.324   1.427
 8481SOL     OW26341   3.521   1.530   4.061
 8481SOL    HW126342   3.494   1.438   4.090
 8481SOL    HW226343   3.619   1.533   4.045
 8482SOL     OW26344   2.147   6.931   2.337
 8482SOL    HW126345   2.247   6.934   2.333
 8482SOL    HW226346   2.112   6.883   2.257
 8483SOL     OW26347   3.360   5.587   2.859
 8483SOL    HW126348   3.378   5.544   2.770
 8483SOL    HW226349   3.380   5.522   2.932
 8484SOL     OW26350   0.390   4.620   2.930
 8484SOL    HW126351   0.367   4.661   2.841
 8484SOL    HW226352   0.433   4.689   2.988
 8485SOL     OW26353   1.825   3.750   0.113
 8485SOL    HW126354   1.840   3.677   0.180
 8485SOL    HW226355   1.911   3.771   0.067
 8486SOL     OW26356   5.299   1.336   2.383
 8486SOL    HW126357   5.201   1.340   2.364
 8486SOL    HW226358   5.350   1.330   2.297
 8487SOL     OW26359   5.079   0.261   0.765
 8487SOL    HW126360   5.138   0.185   0.735
 8487SOL    HW226361   5.071   0.260   0.864
 8488SOL     OW26362   5.426   5.594   4.907
 8488SOL    HW126363   5.447   5.652   4.828
 8488SOL    HW226364   5.332   5.613   4.938
 8489SOL     OW26365   5.748   6.096   1.615
 8489SOL    HW126366   5.798   6.183   1.609
 8489SOL    HW226367   5.670   6.099   1.553
 8490SOL     OW26368   4.653   5.990   3.717
 8490SOL    HW126369   4.738   6.043   3.724
 8490SOL    HW226370   4.631   5.976   3.621
 8491SOL     OW26371   2.508   0.428   1.777
 8491SOL    HW126372   2.589   0.439   1.720
 8491SOL    HW226373   2.535   0.418   1.873
 8492SOL     OW26374   4.641   3.764   5.564
 8492SOL    HW126375   4.690   3.707   5.630
 8492SOL    HW226376   4.690   3.763   5.477
 8493SOL     OW26377   3.241   1.919   0.390
 8493SOL    HW126378   3.203   1.914   0.298
 8493SOL    HW226379   3.341   1.926   0.385
 8494SOL     OW26380   2.105   4.687   6.543
 8494SOL    HW126381   2.067   4.675   6.634
 8494SOL    HW226382   2.044   4.645   6.476
 8495SOL     OW26383   0.168   3.053   0.875
 8495SOL    HW126384   0.168   3.152   0.857
 8495SOL    HW226385   0.100   3.009   0.817
 8496SOL     OW26386   0.591   2.078   3.400
 8496SOL    HW126387   0.535   2.088   3.318
 8496SOL    HW226388   0.663   2.148   3.401
 8497SOL     OW26389   5.515   6.359   4.093
 8497SOL    HW126390   5.421   6.331   4.110
 8497SOL    HW226391   5.566   6.283   4.054
 8498SOL     OW26392   0.175   6.605   1.530
 8498SOL    HW126393   0.147   6.697   1.556
 8498SOL    HW226394   0.270   6.590   1.556
 8499SOL     OW26395   2.348   5.645   6.527
 8499SOL    HW126396   2.319   5.581   6.456
 8499SOL    HW226397   2.446   5.634   6.543
 8500SOL     OW26398   2.268   0.404   5.755
 8500SOL    HW126399   2.209   0.461   5.698
 8500SOL    HW226400   2.284   0.316   5.710
 8501SOL     OW26401   1.617   2.520   6.936
 8501SOL    HW126402   1.651   2.435   6.895
 8501SOL    HW226403   1.566   2.572   6.868
 8502SOL     OW26404   0.977   5.563   1.513
 8502SOL    HW126405   0.910   5.611   1.569
 8502SOL    HW226406   1.016   5.626   1.445
 8503SOL     OW26407   1.071   5.351   2.963
 8503SOL    HW126408   0.984   5.388   2.931
 8503SOL    HW226409   1.135   5.426   2.979
 8504SOL     OW26410   1.704   5.905   3.531
 8504SOL    HW126411   1.688   5.857   3.618
 8504SOL    HW226412   1.803   5.911   3.514
 8505SOL     OW26413   5.096   4.216   3.164
 8505SOL    HW126414   5.127   4.153   3.092
 8505SOL    HW226415   5.084   4.307   3.125
 8506SOL     OW26416   0.914   6.995   0.280
 8506SOL    HW126417   0.884   0.040   0.342
 8506SOL    HW226418   0.955   6.919   0.332
 8507SOL     OW26419   2.578   0.901   5.438
 8507SOL    HW126420   2.589   0.802   5.449
 8507SOL    HW226421   2.487   0.929   5.468
 8508SOL     OW26422   6.551   2.996   4.717
 8508SOL    HW126423   6.586   2.959   4.802
 8508SOL    HW226424   6.618   2.982   4.644
 8509SOL     OW26425   5.822   1.396   5.031
 8509SOL    HW126426   5.741   1.346   4.998
 8509SOL    HW226427   5.836   1.477   4.974
 8510SOL     OW26428   6.667   5.268   3.335
 8510SOL    HW126429   6.581   5.216   3.334
 8510SOL    HW226430   6.735   5.222   3.278
 8511SOL     OW26431   5.677   4.331   1.672
 8511SOL    HW126432   5.687   4.237   1.639
 8511SOL    HW226433   5.766   4.377   1.669
 8512SOL     OW26434   4.150   1.889   0.341
 8512SOL    HW126435   4.165   1.988   0.353
 8512SOL    HW226436   4.230   1.849   0.295
 8513SOL     OW26437   4.876   3.825   1.231
 8513SOL    HW126438   4.932   3.756   1.185
 8513SOL    HW226439   4.933   3.904   1.255
 8514SOL     OW26440   2.505   2.638   3.608
 8514SOL    HW126441   2.599   2.611   3.630
 8514SOL    HW226442   2.465   2.572   3.545
 8515SOL     OW26443   0.506   1.221   7.003
 8515SOL    HW126444   0.488   1.125   0.001
 8515SOL    HW226445   0.603   1.232   6.982
 8516SOL     OW26446   6.016   3.268   2.123
 8516SOL    HW126447   6.013   3.178   2.168
 8516SOL    HW226448   5.926   3.311   2.129
 8517SOL     OW26449   2.174   2.878   5.863
 8517SOL    HW126450   2.098   2.837   5.913
 8517SOL    HW226451   2.147   2.967   5.827
 8518SOL     OW26452   5.378   4.163   6.206
 8518SOL    HW126453   5.362   4.260   6.224
 8518SOL    HW226454   5.403   4.150   6.110
 8519SOL     OW26455   0.619   4.593   0.822
 8519SOL    HW126456   0.609   4.673   0.881
 8519SOL    HW226457   0.691   4.609   0.755
 8520SOL     OW26458   3.257   3.474   5.411
 8520SOL    HW126459   3.343   3.515   5.442
 8520SOL    HW226460   3.253   3.479   5.311
 8521SOL     OW26461   2.017   6.424   5.611
 8521SOL    HW126462   1.988   6.402   5.704
 8521SOL    HW226463   2.114   6.448   5.611
 8522SOL     OW26464   0.313   6.946   1.201
 8522SOL    HW126465   0.336   0.015   1.221
 8522SOL    HW226466   0.385   6.886   1.235
 8523SOL     OW26467   3.097   6.976   6.961
 8523SOL    HW126468   3.031   6.953   0.006
 8523SOL    HW226469   3.077   6.923   6.878
 8524SOL     OW26470   1.419   4.092   4.929
 8524SOL    HW126471   1.373   4.173   4.964
 8524SOL    HW226472   1.482   4.119   4.856
 8525SOL     OW26473   5.603   5.488   1.135
 8525SOL    HW126474   5.608   5.389   1.120
 8525SOL    HW226475   5.686   5.518   1.183
 8526SOL     OW26476   3.400   6.574   0.871
 8526SOL    HW126477   3.387   6.621   0.783
 8526SOL    HW226478   3.448   6.635   0.934
 8527SOL     OW26479   3.493   0.612   0.242
 8527SOL    HW126480   3.472   0.521   0.205
 8527SOL    HW226481   3.422   0.637   0.309
 8528SOL     OW26482   4.415   1.256   0.683
 8528SOL    HW126483   4.509   1.254   0.649
 8528SOL    HW226484   4.363   1.181   0.643
 8529SOL     OW26485   1.138   6.667   0.408
 8529SOL    HW126486   1.203   6.738   0.434
 8529SOL    HW226487   1.140   6.654   0.308
 8530SOL     OW26488   3.730   3.769   4.659
 8530SOL    HW126489   3.638   3.732   4.654
 8530SOL    HW226490   3.725   3.869   4.663
 8531SOL     OW26491   6.949   5.588   2.942
 8531SOL    HW126492   6.955   5.495   2.979
 8531SOL    HW226493   6.891   5.644   3.002
 8532SOL     OW26494   3.782   6.293   4.592
 8532SOL    HW126495   3.864   6.329   4.548
 8532SOL    HW226496   3.708   6.359   4.583
 8533SOL     OW26497   1.792   6.042   0.040
 8533SOL    HW126498   1.763   6.030   0.135
 8533SOL    HW226499   1.711   6.062   7.010
 8534SOL     OW26500   4.620   2.657   3.718
 8534SOL    HW126501   4.670   2.730   3.764
 8534SOL    HW226502   4.645   2.655   3.621
 8535SOL     OW26503   5.659   1.348   4.393
 8535SOL    HW126504   5.662   1.293   4.309
 8535SOL    HW226505   5.699   1.295   4.468
 8536SOL     OW26506   0.932   1.816   4.903
 8536SOL    HW126507   0.844   1.810   4.951
 8536SOL    HW226508   0.993   1.878   4.954
 8537SOL     OW26509   5.795   1.821   3.475
 8537SOL    HW126510   5.871   1.885   3.461
 8537SOL    HW226511   5.708   1.870   3.472
 8538SOL     OW26512   2.332   2.077   0.163
 8538SOL    HW126513   2.357   2.018   0.239
 8538SOL    HW226514   2.404   2.073   0.093
 8539SOL     OW26515   6.559   1.791   2.338
 8539SOL    HW126516   6.546   1.697   2.370
 8539SOL    HW226517   6.499   1.809   2.260
 8540SOL     OW26518   5.647   0.255   6.636
 8540SOL    HW126519   5.623   0.286   6.728
 8540SOL    HW226520   5.703   0.325   6.591
 8541SOL     OW26521   3.495   1.843   3.502
 8541SOL    HW126522   3.467   1.750   3.476
 8541SOL    HW226523   3.494   1.852   3.601
 8542SOL     OW26524   3.643   4.337   6.319
 8542SOL    HW126525   3.702   4.352   6.240
 8542SOL    HW226526   3.686   4.271   6.381
 8543SOL     OW26527   1.911   1.354   1.427
 8543SOL    HW126528   1.939   1.450   1.423
 8543SOL    HW226529   1.912   1.316   1.334
 8544SOL     OW26530   5.699   2.986   4.412
 8544SOL    HW126531   5.786   2.960   4.453
 8544SOL    HW226532   5.653   2.904   4.378
 8545SOL     OW26533   4.696   0.036   5.730
 8545SOL    HW126534   4.662   0.102   5.796
 8545SOL    HW226535   4.777   7.016   5.767
 8546SOL     OW26536   5.816   2.575   3.874
 8546SOL    HW126537   5.904   2.598   3.915
 8546SOL    HW226538   5.757   2.535   3.944
 8547SOL     OW26539   0.738   6.326   6.110
 8547SOL    HW126540   0.815   6.324   6.047
 8547SOL    HW226541   0.680   6.246   6.094
 8548SOL     OW26542   6.110   2.264   4.721
 8548SOL    HW126543   6.182   2.301   4.779
 8548SOL    HW226544   6.136   2.274   4.624
 8549SOL     OW26545   0.502   3.657   4.317
 8549SOL    HW126546   0.587   3.656   4.265
 8549SOL    HW226547   0.438   3.590   4.278
 8550SOL     OW26548   1.738   4.626   6.919
 8550SOL    HW126549   1.723   4.585   7.008
 8550SOL    HW226550   1.654   4.670   6.887
 8551SOL     OW26551   3.678   4.438   6.679
 8551SOL    HW126552   3.633   4.489   6.605
 8551SOL    HW226553   3.776   4.458   6.678
 8552SOL     OW26554   2.837   6.243   3.814
 8552SOL    HW126555   2.926   6.214   3.847
 8552SOL    HW226556   2.782   6.276   3.891
 8553SOL     OW26557   5.223   5.867   6.827
 8553SOL    HW126558   5.303   5.899   6.776
 8553SOL    HW226559   5.154   5.940   6.829
 8554SOL     OW26560   0.301   4.853   0.446
 8554SOL    HW126561   0.255   4.784   0.390
 8554SOL    HW226562   0.315   4.937   0.392
 8555SOL     OW26563   0.853   0.632   3.188
 8555SOL    HW126564   0.795   0.688   3.247
 8555SOL    HW226565   0.941   0.676   3.175
 8556SOL     OW26566   0.482   0.098   3.110
 8556SOL    HW126567   0.506   0.153   3.190
 8556SOL    HW226568   0.560   0.041   3.083
 8557SOL     OW26569   6.557   1.469   2.078
 8557SOL    HW126570   6.611   1.507   2.003
 8557SOL    HW226571   6.460   1.473   2.053
 8558SOL     OW26572   2.512   5.277   2.988
 8558SOL    HW126573   2.529   5.315   2.897
 8558SOL    HW226574   2.447   5.201   2.981
 8559SOL     OW26575   6.744   0.600   2.493
 8559SOL    HW126576   6.712   0.628   2.403
 8559SOL    HW226577   6.712   0.506   2.511
 8560SOL     OW26578   6.887   0.169   1.095
 8560SOL    HW126579   6.838   0.128   1.018
 8560SOL    HW226580   6.890   0.269   1.084
 8561SOL     OW26581   3.873   5.798   2.477
 8561SOL    HW126582   3.905   5.835   2.564
 8561SOL    HW226583   3.775   5.815   2.467
 8562SOL     OW26584   5.242   0.027   5.023
 8562SOL    HW126585   5.223   0.052   4.928
 8562SOL    HW226586   5.310   0.090   5.061
 8563SOL     OW26587   2.646   3.033   6.657
 8563SOL    HW126588   2.617   3.083   6.738
 8563SOL    HW226589   2.646   2.935   6.676
 8564SOL     OW26590   2.070   0.462   3.157
 8564SOL    HW126591   2.083   0.547   3.209
 8564SOL    HW226592   2.044   0.388   3.220
 8565SOL     OW26593   4.244   6.802   1.805
 8565SOL    HW126594   4.145   6.800   1.818
 8565SOL    HW226595   4.276   6.897   1.805
 8566SOL     OW26596   1.365   1.180   2.575
 8566SOL    HW126597   1.317   1.229   2.503
 8566SOL    HW226598   1.313   1.185   2.660
 8567SOL     OW26599   6.698   1.377   1.311
 8567SOL    HW126600   6.764   1.334   1.373
 8567SOL    HW226601   6.715   1.475   1.308
 8568SOL     OW26602   5.033   1.644   0.052
 8568SOL    HW126603   4.946   1.655   0.003
 8568SOL    HW226604   5.019   1.585   0.131
 8569SOL     OW26605   4.760   1.640   5.606
 8569SOL    HW126606   4.736   1.727   5.649
 8569SOL    HW226607   4.846   1.651   5.555
 8570SOL     OW26608   1.102   3.235   6.094
 8570SOL    HW126609   1.040   3.157   6.100
 8570SOL    HW226610   1.182   3.210   6.039
 8571SOL     OW26611   0.194   5.032   5.501
 8571SOL    HW126612   0.121   5.021   5.433
 8571SOL    HW226613   0.224   5.127   5.502
 8572SOL     OW26614   2.257   5.131   5.718
 8572SOL    HW126615   2.317   5.209   5.700
 8572SOL    HW226616   2.179   5.134   5.657
 8573SOL     OW26617   3.846   6.258   6.706
 8573SOL    HW126618   3.827   6.162   6.689
 8573SOL    HW226619   3.763   6.302   6.742
 8574SOL     OW26620   0.721   4.894   5.566
 8574SOL    HW126621   0.644   4.956   5.583
 8574SOL    HW226622   0.807   4.940   5.588
 8575SOL     OW26623   2.622   2.352   6.954
 8575SOL    HW126624   2.687   2.339   0.003
 8575SOL    HW226625   2.549   2.414   6.983
 8576SOL     OW26626   0.679   6.464   1.065
 8576SOL    HW126627   0.700   6.400   1.138
 8576SOL    HW226628   0.629   6.417   0.992
 8577SOL     OW26629   6.255   5.215   4.611
 8577SOL    HW126630   6.234   5.259   4.525
 8577SOL    HW226631   6.217   5.268   4.687
 8578SOL     OW26632   4.579   0.041   4.271
 8578SOL    HW126633   4.543   6.975   4.258
 8578SOL    HW226634   4.565   0.094   4.188
 8579SOL     OW26635   1.185   5.727   3.455
 8579SOL    HW126636   1.280   5.748   3.433
 8579SOL    HW226637   1.160   5.638   3.417
 8580SOL     OW26638   2.754   7.019   2.060
 8580SOL    HW126639   2.655   7.021   2.049
 8580SOL    HW226640   2.777   6.972   2.146
 8581SOL     OW26641   3.689   2.625   1.769
 8581SOL    HW126642   3.592   2.646   1.768
 8581SOL    HW226643   3.703   2.532   1.804
 8582SOL     OW26644   4.733   4.602   2.475
 8582SOL    HW126645   4.638   4.573   2.476
 8582SOL    HW226646   4.776   4.580   2.563
 8583SOL     OW26647   5.677   0.809   6.504
 8583SOL    HW126648   5.581   0.817   6.533
 8583SOL    HW226649   5.737   0.831   6.581
 8584SOL     OW26650   0.198   4.564   0.517
 8584SOL    HW126651   0.165   4.606   0.602
 8584SOL    HW226652   0.144   4.483   0.496
 8585SOL     OW26653   0.058   6.956   0.491
 8585SOL    HW126654   7.004   6.978   0.547
 8585SOL    HW226655   0.043   6.870   0.442
 8586SOL     OW26656   2.632   6.009   3.124
 8586SOL    HW126657   2.671   6.007   3.216
 8586SOL    HW226658   2.584   5.923   3.106
 8587SOL     OW26659   0.565   0.587   2.812
 8587SOL    HW126660   0.660   0.564   2.788
 8587SOL    HW226661   0.512   0.600   2.729
 8588SOL     OW26662   3.129   1.406   0.343
 8588SOL    HW126663   3.165   1.469   0.412
 8588SOL    HW226664   3.136   1.448   0.253
 8589SOL     OW26665   4.046   1.674   4.163
 8589SOL    HW126666   4.063   1.597   4.224
 8589SOL    HW226667   4.063   1.760   4.211
 8590SOL     OW26668   6.759   5.643   4.096
 8590SOL    HW126669   6.767   5.684   4.187
 8590SOL    HW226670   6.851   5.634   4.056
 8591SOL     OW26671   0.469   4.232   6.731
 8591SOL    HW126672   0.438   4.316   6.686
 8591SOL    HW226673   0.562   4.246   6.767
 8592SOL     OW26674   0.024   4.375   0.447
 8592SOL    HW126675   6.992   4.381   0.366
 8592SOL    HW226676   6.993   4.364   0.528
 8593SOL     OW26677   0.561   6.539   1.844
 8593SOL    HW126678   0.643   6.547   1.788
 8593SOL    HW226679   0.558   6.448   1.886
 8594SOL     OW26680   3.372   3.973   4.955
 8594SOL    HW126681   3.395   3.877   4.943
 8594SOL    HW226682   3.279   3.990   4.922
 8595SOL     OW26683   2.128   1.922   2.630
 8595SOL    HW126684   2.081   1.991   2.574
 8595SOL    HW226685   2.131   1.836   2.580
 8596SOL     OW26686   5.908   5.481   2.253
 8596SOL    HW126687   6.006   5.489   2.273
 8596SOL    HW226688   5.893   5.407   2.188
 8597SOL     OW26689   3.899   1.860   1.229
 8597SOL    HW126690   3.862   1.931   1.288
 8597SOL    HW226691   3.938   1.903   1.147
 8598SOL     OW26692   0.171   5.472   1.392
 8598SOL    HW126693   0.228   5.390   1.382
 8598SOL    HW226694   0.222   5.552   1.360
 8599SOL     OW26695   0.966   3.116   3.730
 8599SOL    HW126696   0.867   3.124   3.731
 8599SOL    HW226697   0.998   3.083   3.819
 8600SOL     OW26698   5.762   4.951   6.605
 8600SOL    HW126699   5.734   4.945   6.701
 8600SOL    HW226700   5.858   4.977   6.600
 8601SOL     OW26701   0.599   1.005   4.501
 8601SOL    HW126702   0.585   0.956   4.587
 8601SOL    HW226703   0.528   0.979   4.436
 8602SOL     OW26704   2.620   6.781   2.610
 8602SOL    HW126705   2.520   6.778   2.605
 8602SOL    HW226706   2.648   6.875   2.632
 8603SOL     OW26707   3.698   3.778   6.671
 8603SOL    HW126708   3.737   3.841   6.604
 8603SOL    HW226709   3.680   3.689   6.628
 8604SOL     OW26710   5.963   3.067   3.892
 8604SOL    HW126711   5.884   3.016   3.858
 8604SOL    HW226712   6.015   3.103   3.815
 8605SOL     OW26713   3.390   5.159   4.547
 8605SOL    HW126714   3.420   5.221   4.619
 8605SOL    HW226715   3.291   5.147   4.553
 8606SOL     OW26716   1.933   4.062   5.782
 8606SOL    HW126717   1.909   4.079   5.878
 8606SOL    HW226718   1.864   4.004   5.740
 8607SOL     OW26719   3.307   5.242   1.104
 8607SOL    HW126720   3.300   5.153   1.148
 8607SOL    HW226721   3.222   5.261   1.055
 8608SOL     OW26722   4.701   4.874   2.760
 8608SOL    HW126723   4.740   4.824   2.682
 8608SOL    HW226724   4.715   4.972   2.747
 8609SOL     OW26725   3.570   0.460   4.053
 8609SOL    HW126726   3.567   0.474   4.152
 8609SOL    HW226727   3.663   0.436   4.025
 8610SOL     OW26728   1.098   0.152   2.983
 8610SOL    HW126729   1.094   0.070   2.925
 8610SOL    HW226730   1.012   0.161   3.034
 8611SOL     OW26731   1.681   2.102   4.411
 8611SOL    HW126732   1.609   2.145   4.357
 8611SOL    HW226733   1.771   2.128   4.375
 8612SOL     OW26734   3.271   3.152   6.289
 8612SOL    HW126735   3.184   3.164   6.336
 8612SOL    HW226736   3.344   3.140   6.357
 8613SOL     OW26737   2.382   1.245   1.472
 8613SOL    HW126738   2.475   1.214   1.491
 8613SOL    HW226739   2.354   1.215   1.381
 8614SOL     OW26740   1.080   3.960   2.978
 8614SOL    HW126741   1.153   4.028   2.985
 8614SOL    HW226742   1.003   3.987   3.036
 8615SOL     OW26743   4.385   1.792   4.999
 8615SOL    HW126744   4.331   1.875   5.015
 8615SOL    HW226745   4.334   1.729   4.942
 8616SOL     OW26746   0.530   4.836   0.593
 8616SOL    HW126747   0.438   4.820   0.556
 8616SOL    HW226748   0.579   4.749   0.599
 8617SOL     OW26749   6.488   1.698   0.503
 8617SOL    HW126750   6.550   1.764   0.460
 8617SOL    HW226751   6.541   1.633   0.557
 8618SOL     OW26752   4.759   6.734   1.853
 8618SOL    HW126753   4.835   6.799   1.851
 8618SOL    HW226754   4.767   6.671   1.775
 8619SOL     OW26755   3.705   4.884   0.495
 8619SOL    HW126756   3.776   4.817   0.475
 8619SOL    HW226757   3.615   4.845   0.472
 8620SOL     OW26758   6.314   6.792   2.833
 8620SOL    HW126759   6.276   6.747   2.752
 8620SOL    HW226760   6.379   6.731   2.878
 8621SOL     OW26761   6.069   1.341   3.574
 8621SOL    HW126762   5.997   1.339   3.643
 8621SOL    HW226763   6.059   1.422   3.517
 8622SOL     OW26764   4.555   4.271   0.391
 8622SOL    HW126765   4.556   4.323   0.477
 8622SOL    HW226766   4.594   4.327   0.318
 8623SOL     OW26767   0.545   4.270   3.119
 8623SOL    HW126768   0.493   4.202   3.068
 8623SOL    HW226769   0.504   4.282   3.209
 8624SOL     OW26770   1.336   4.822   3.638
 8624SOL    HW126771   1.323   4.918   3.613
 8624SOL    HW226772   1.317   4.810   3.735
 8625SOL     OW26773   4.391   0.736   3.967
 8625SOL    HW126774   4.298   0.751   3.931
 8625SOL    HW226775   4.450   0.812   3.939
 8626SOL     OW26776   3.790   3.356   4.251
 8626SOL    HW126777   3.720   3.349   4.322
 8626SOL    HW226778   3.842   3.441   4.265
 8627SOL     OW26779   1.071   0.386   2.256
 8627SOL    HW126780   1.121   0.472   2.254
 8627SOL    HW226781   1.085   0.342   2.345
 8628SOL     OW26782   6.331   6.718   0.547
 8628SOL    HW126783   6.385   6.698   0.629
 8628SOL    HW226784   6.263   6.645   0.534
 8629SOL     OW26785   1.703   4.940   4.361
 8629SOL    HW126786   1.794   4.903   4.382
 8629SOL    HW226787   1.638   4.911   4.431
 8630SOL     OW26788   5.984   4.333   4.772
 8630SOL    HW126789   5.997   4.259   4.706
 8630SOL    HW226790   5.886   4.344   4.791
 8631SOL     OW26791   4.018   6.382   6.135
 8631SOL    HW126792   4.071   6.331   6.067
 8631SOL    HW226793   4.025   6.337   6.224
 8632SOL     OW26794   3.696   6.567   3.998
 8632SOL    HW126795   3.707   6.524   3.908
 8632SOL    HW226796   3.731   6.660   3.995
 8633SOL     OW26797   5.247   1.313   4.238
 8633SOL    HW126798   5.166   1.255   4.232
 8633SOL    HW226799   5.301   1.286   4.318
 8634SOL     OW26800   6.511   3.137   0.950
 8634SOL    HW126801   6.524   3.236   0.944
 8634SOL    HW226802   6.418   3.114   0.920
 8635SOL     OW26803   5.919   3.757   5.791
 8635SOL    HW126804   5.857   3.715   5.857
 8635SOL    HW226805   5.922   3.856   5.807
 8636SOL     OW26806   6.042   5.017   6.583
 8636SOL    HW126807   6.089   5.075   6.517
 8636SOL    HW226808   6.044   5.061   6.673
 8637SOL     OW26809   1.373   0.585   0.465
 8637SOL    HW126810   1.318   0.632   0.397
 8637SOL    HW226811   1.461   0.559   0.425
 8638SOL     OW26812   2.014   3.436   0.052
 8638SOL    HW126813   2.047   3.342   0.044
 8638SOL    HW226814   2.091   3.497   0.073
 8639SOL     OW26815   5.804   2.338   1.554
 8639SOL    HW126816   5.747   2.362   1.475
 8639SOL    HW226817   5.885   2.289   1.522
 8640SOL     OW26818   5.214   3.840   0.545
 8640SOL    HW126819   5.305   3.860   0.509
 8640SOL    HW226820   5.148   3.902   0.503
 8641SOL     OW26821   0.027   4.084   4.189
 8641SOL    HW126822   0.074   3.998   4.210
 8641SOL    HW226823   0.084   4.140   4.128
 8642SOL     OW26824   4.551   0.350   2.399
 8642SOL    HW126825   4.573   0.323   2.493
 8642SOL    HW226826   4.597   0.436   2.377
 8643SOL     OW26827   4.358   6.818   6.848
 8643SOL    HW126828   4.379   6.724   6.821
 8643SOL    HW226829   4.308   6.863   6.774
 8644SOL     OW26830   5.293   2.646   5.851
 8644SOL    HW126831   5.298   2.552   5.819
 8644SOL    HW226832   5.198   2.676   5.852
 8645SOL     OW26833   5.822   4.890   1.846
 8645SOL    HW126834   5.740   4.836   1.822
 8645SOL    HW226835   5.868   4.847   1.924
 8646SOL     OW26836   6.114   1.040   1.001
 8646SOL    HW126837   6.115   1.133   0.966
 8646SOL    HW226838   6.054   0.984   0.944
 8647SOL     OW26839   3.888   4.829   6.413
 8647SOL    HW126840   3.840   4.902   6.364
 8647SOL    HW226841   3.920   4.760   6.348
 8648SOL     OW26842   5.590   1.239   5.024
 8648SOL    HW126843   5.584   1.145   4.989
 8648SOL    HW226844   5.523   1.251   5.097
 8649SOL     OW26845   5.655   4.797   5.727
 8649SOL    HW126846   5.600   4.762   5.803
 8649SOL    HW226847   5.709   4.722   5.688
 8650SOL     OW26848   1.527   4.867   4.540
 8650SOL    HW126849   1.481   4.779   4.556
 8650SOL    HW226850   1.461   4.932   4.502
 8651SOL     OW26851   4.261   0.566   0.409
 8651SOL    HW126852   4.184   0.509   0.439
 8651SOL    HW226853   4.277   0.551   0.311
 8652SOL     OW26854   1.529   4.415   3.176
 8652SOL    HW126855   1.456   4.412   3.244
 8652SOL    HW226856   1.606   4.468   3.212
 8653SOL     OW26857   6.346   2.987   6.752
 8653SOL    HW126858   6.266   2.980   6.694
 8653SOL    HW226859   6.398   3.070   6.728
 8654SOL     OW26860   0.558   6.274   1.911
 8654SOL    HW126861   0.468   6.306   1.939
 8654SOL    HW226862   0.614   6.257   1.992
 8655SOL     OW26863   5.722   0.516   3.881
 8655SOL    HW126864   5.630   0.530   3.845
 8655SOL    HW226865   5.762   0.434   3.840
 8656SOL     OW26866   6.501   1.096   0.964
 8656SOL    HW126867   6.450   1.179   0.982
 8656SOL    HW226868   6.453   1.041   0.895
 8657SOL     OW26869   4.221   5.225   6.330
 8657SOL    HW126870   4.279   5.149   6.303
 8657SOL    HW226871   4.190   5.212   6.424
 8658SOL     OW26872   4.686   5.445   0.099
 8658SOL    HW126873   4.694   5.446   7.026
 8658SOL    HW226874   4.621   5.516   0.128
 8659SOL     OW26875   4.501   1.156   2.843
 8659SOL    HW126876   4.416   1.159   2.789
 8659SOL    HW226877   4.559   1.234   2.818
 8660SOL     OW26878   5.386   3.824   0.753
 8660SOL    HW126879   5.304   3.812   0.697
 8660SOL    HW226880   5.408   3.921   0.759
 8661SOL     OW26881   5.809   4.078   1.870
 8661SOL    HW126882   5.789   4.081   1.772
 8661SOL    HW226883   5.878   4.008   1.888
 8662SOL     OW26884   5.153   6.722   1.818
 8662SOL    HW126885   5.101   6.757   1.896
 8662SOL    HW226886   5.250   6.739   1.832
 8663SOL     OW26887   2.458   5.726   0.670
 8663SOL    HW126888   2.374   5.711   0.617
 8663SOL    HW226889   2.485   5.822   0.663
 8664SOL     OW26890   3.913   5.056   0.541
 8664SOL    HW126891   4.005   5.019   0.555
 8664SOL    HW226892   3.847   4.981   0.536
 8665SOL     OW26893   5.081   5.507   5.486
 8665SOL    HW126894   5.180   5.499   5.480
 8665SOL    HW226895   5.052   5.593   5.444
 8666SOL     OW26896   5.161   2.524   5.150
 8666SOL    HW126897   5.161   2.577   5.234
 8666SOL    HW226898   5.253   2.493   5.129
 8667SOL     OW26899   5.247   2.109   2.889
 8667SOL    HW126900   5.225   2.177   2.819
 8667SOL    HW226901   5.203   2.022   2.867
 8668SOL     OW26902   5.004   2.730   3.751
 8668SOL    HW126903   4.981   2.635   3.729
 8668SOL    HW226904   5.104   2.740   3.754
 8669SOL     OW26905   3.194   0.492   6.756
 8669SOL    HW126906   3.213   0.590   6.756
 8669SOL    HW226907   3.269   0.443   6.800
 8670SOL     OW26908   3.227   4.951   5.032
 8670SOL    HW126909   3.195   5.037   5.073
 8670SOL    HW226910   3.179   4.874   5.074
 8671SOL     OW26911   5.385   0.581   4.055
 8671SOL    HW126912   5.357   0.653   4.118
 8671SOL    HW226913   5.485   0.581   4.048
 8672SOL     OW26914   2.682   5.873   4.423
 8672SOL    HW126915   2.648   5.959   4.461
 8672SOL    HW226916   2.637   5.797   4.469
 8673SOL     OW26917   0.454   0.922   6.979
 8673SOL    HW126918   0.420   0.924   6.886
 8673SOL    HW226919   0.437   0.831   7.019
 8674SOL     OW26920   6.680   5.948   1.509
 8674SOL    HW126921   6.690   5.924   1.605
 8674SOL    HW226922   6.649   5.868   1.458
 8675SOL     OW26923   3.361   2.186   3.906
 8675SOL    HW126924   3.459   2.200   3.916
 8675SOL    HW226925   3.313   2.228   3.983
 8676SOL     OW26926   3.484   6.851   3.305
 8676SOL    HW126927   3.431   6.779   3.349
 8676SOL    HW226928   3.441   6.876   3.218
 8677SOL     OW26929   1.837   5.279   6.264
 8677SOL    HW126930   1.886   5.247   6.345
 8677SOL    HW226931   1.833   5.379   6.266
 8678SOL     OW26932   0.088   0.001   6.954
 8678SOL    HW126933   0.160   7.025   7.024
 8678SOL    HW226934   0.035   0.085   6.964
 8679SOL     OW26935   6.082   2.583   4.610
 8679SOL    HW126936   6.003   2.558   4.666
 8679SOL    HW226937   6.050   2.631   4.528
 8680SOL     OW26938   0.499   3.780   0.990
 8680SOL    HW126939   0.416   3.727   0.969
 8680SOL    HW226940   0.554   3.788   0.907
 8681SOL     OW26941   4.661   4.420   0.167
 8681SOL    HW126942   4.733   4.424   0.098
 8681SOL    HW226943   4.685   4.481   0.243
 8682SOL     OW26944   3.854   6.537   2.806
 8682SOL    HW126945   3.941   6.518   2.759
 8682SOL    HW226946   3.781   6.484   2.764
 8683SOL     OW26947   1.683   2.143   2.020
 8683SOL    HW126948   1.611   2.190   2.071
 8683SOL    HW226949   1.663   2.045   2.018
 8684SOL     OW26950   0.294   3.181   4.961
 8684SOL    HW126951   0.392   3.188   4.977
 8684SOL    HW226952   0.266   3.085   4.961
 8685SOL     OW26953   1.270   2.365   5.919
 8685SOL    HW126954   1.175   2.399   5.920
 8685SOL    HW226955   1.270   2.267   5.900
 8686SOL     OW26956   6.668   1.820   1.739
 8686SOL    HW126957   6.740   1.886   1.763
 8686SOL    HW226958   6.612   1.858   1.665
 8687SOL     OW26959   3.637   5.976   2.632
 8687SOL    HW126960   3.701   5.920   2.684
 8687SOL    HW226961   3.605   5.924   2.552
 8688SOL     OW26962   2.992   6.327   7.013
 8688SOL    HW126963   2.984   6.232   0.015
 8688SOL    HW226964   3.062   6.372   0.043
 8689SOL     OW26965   3.289   5.717   0.256
 8689SOL    HW126966   3.310   5.732   0.159
 8689SOL    HW226967   3.283   5.619   0.274
 8690SOL     OW26968   1.681   2.492   3.805
 8690SOL    HW126969   1.747   2.522   3.735
 8690SOL    HW226970   1.616   2.428   3.764
 8691SOL     OW26971   4.233   3.134   6.149
 8691SOL    HW126972   4.151   3.087   6.115
 8691SOL    HW226973   4.269   3.084   6.228
 8692SOL     OW26974   3.397   2.145   2.583
 8692SOL    HW126975   3.377   2.201   2.663
 8692SOL    HW226976   3.318   2.146   2.521
 8693SOL     OW26977   5.734   1.807   0.766
 8693SOL    HW126978   5.763   1.817   0.861
 8693SOL    HW226979   5.635   1.809   0.760
 8694SOL     OW26980   4.303   1.079   6.780
 8694SOL    HW126981   4.230   1.105   6.843
 8694SOL    HW226982   4.305   1.141   6.702
 8695SOL     OW26983   4.744   2.699   5.893
 8695SOL    HW126984   4.727   2.793   5.923
 8695SOL    HW226985   4.659   2.658   5.861
 8696SOL     OW26986   3.347   5.863   1.179
 8696SOL    HW126987   3.429   5.917   1.198
 8696SOL    HW226988   3.270   5.925   1.163
 8697SOL     OW26989   6.301   3.925   0.564
 8697SOL    HW126990   6.380   3.985   0.571
 8697SOL    HW226991   6.327   3.832   0.590
 8698SOL     OW26992   5.901   6.102   3.603
 8698SOL    HW126993   5.951   6.125   3.520
 8698SOL    HW226994   5.806   6.079   3.579
 8699SOL     OW26995   1.432   2.332   5.672
 8699SOL    HW126996   1.369   2.274   5.724
 8699SOL    HW226997   1.413   2.428   5.692
 8700SOL     OW26998   2.430   0.900   4.720
 8700SOL    HW126999   2.358   0.831   4.716
 8700SOL    HW227000   2.464   0.907   4.814
 8701SOL     OW27001   1.633   0.875   0.143
 8701SOL    HW127002   1.669   0.843   0.056
 8701SOL    HW227003   1.540   0.910   0.131
 8702SOL     OW27004   5.598   4.821   0.117
 8702SOL    HW127005   5.623   4.759   0.191
 8702SOL    HW227006   5.649   4.906   0.125
 8703SOL     OW27007   2.736   5.280   1.241
 8703SOL    HW127008   2.686   5.296   1.326
 8703SOL    HW227009   2.798   5.202   1.253
 8704SOL     OW27010   5.922   3.475   2.758
 8704SOL    HW127011   5.967   3.387   2.776
 8704SOL    HW227012   5.971   3.547   2.807
 8705SOL     OW27013   5.081   1.241   0.036
 8705SOL    HW127014   5.034   1.254   6.974
 8705SOL    HW227015   5.042   1.162   0.083
 8706SOL     OW27016   4.677   2.468   5.746
 8706SOL    HW127017   4.655   2.387   5.800
 8706SOL    HW227018   4.744   2.523   5.796
 8707SOL     OW27019   4.806   2.284   7.016
 8707SOL    HW127020   4.807   2.360   0.054
 8707SOL    HW227021   4.714   2.273   6.979
 8708SOL     OW27022   4.262   2.160   2.100
 8708SOL    HW127023   4.168   2.163   2.064
 8708SOL    HW227024   4.262   2.115   2.189
 8709SOL     OW27025   6.726   5.594   6.414
 8709SOL    HW127026   6.627   5.576   6.415
 8709SOL    HW227027   6.742   5.692   6.406
 8710SOL     OW27028   1.946   2.987   3.024
 8710SOL    HW127029   2.029   3.011   3.075
 8710SOL    HW227030   1.963   2.908   2.966
 8711SOL     OW27031   6.812   6.025   2.240
 8711SOL    HW127032   6.764   5.952   2.289
 8711SOL    HW227033   6.886   6.060   2.297
 8712SOL     OW27034   4.153   2.240   4.226
 8712SOL    HW127035   4.234   2.256   4.283
 8712SOL    HW227036   4.179   2.244   4.130
 8713SOL     OW27037   0.242   4.099   3.440
 8713SOL    HW127038   0.285   4.009   3.432
 8713SOL    HW227039   0.292   4.165   3.384
 8714SOL     OW27040   0.353   0.956   6.049
 8714SOL    HW127041   0.320   0.891   6.117
 8714SOL    HW227042   0.282   1.023   6.029
 8715SOL     OW27043   5.171   0.404   1.278
 8715SOL    HW127044   5.100   0.470   1.303
 8715SOL    HW227045   5.253   0.454   1.249
 8716SOL     OW27046   0.775   0.866   1.261
 8716SOL    HW127047   0.759   0.932   1.335
 8716SOL    HW227048   0.838   0.795   1.292
 8717SOL     OW27049   3.941   3.680   2.931
 8717SOL    HW127050   3.968   3.586   2.950
 8717SOL    HW227051   3.873   3.709   2.999
 8718SOL     OW27052   1.272   2.885   5.592
 8718SOL    HW127053   1.332   2.813   5.556
 8718SOL    HW227054   1.323   2.970   5.599
 8719SOL     OW27055   2.037   0.259   6.244
 8719SOL    HW127056   2.074   0.337   6.295
 8719SOL    HW227057   2.011   0.187   6.309
 8720SOL     OW27058   6.452   5.106   5.628
 8720SOL    HW127059   6.520   5.180   5.632
 8720SOL    HW227060   6.360   5.145   5.634
 8721SOL     OW27061   5.659   2.449   4.060
 8721SOL    HW127062   5.739   2.403   4.097
 8721SOL    HW227063   5.578   2.420   4.111
 8722SOL     OW27064   3.874   0.590   0.643
 8722SOL    HW127065   3.785   0.628   0.620
 8722SOL    HW227066   3.878   0.571   0.741
 8723SOL     OW27067   5.464   6.289   1.814
 8723SOL    HW127068   5.410   6.204   1.817
 8723SOL    HW227069   5.561   6.268   1.821
 8724SOL     OW27070   6.007   6.507   4.912
 8724SOL    HW127071   5.941   6.581   4.897
 8724SOL    HW227072   5.991   6.465   5.001
 8725SOL     OW27073   2.927   6.762   0.020
 8725SOL    HW127074   2.864   6.821   6.994
 8725SOL    HW227075   2.970   6.696   6.984
 8726SOL     OW27076   6.597   0.641   1.100
 8726SOL    HW127077   6.556   0.615   1.188
 8726SOL    HW227078   6.630   0.735   1.105
 8727SOL     OW27079   6.420   6.503   2.073
 8727SOL    HW127080   6.440   6.408   2.094
 8727SOL    HW227081   6.363   6.542   2.146
 8728SOL     OW27082   4.021   0.084   4.557
 8728SOL    HW127083   4.023   0.157   4.488
 8728SOL    HW227084   3.949   0.104   4.624
 8729SOL     OW27085   4.742   6.086   3.332
 8729SOL    HW127086   4.802   6.154   3.374
 8729SOL    HW227087   4.662   6.071   3.390
 8730SOL     OW27088   6.805   5.459   2.702
 8730SOL    HW127089   6.758   5.412   2.777
 8730SOL    HW227090   6.884   5.509   2.737
 8731SOL     OW27091   2.353   1.949   2.772
 8731SOL    HW127092   2.263   1.941   2.730
 8731SOL    HW227093   2.424   1.928   2.705
 8732SOL     OW27094   4.873   4.707   1.831
 8732SOL    HW127095   4.946   4.673   1.890
 8732SOL    HW227096   4.806   4.634   1.816
 8733SOL     OW27097   1.592   5.821   3.151
 8733SOL    HW127098   1.620   5.751   3.086
 8733SOL    HW227099   1.540   5.892   3.104
 8734SOL     OW27100   0.932   4.421   1.877
 8734SOL    HW127101   0.996   4.480   1.927
 8734SOL    HW227102   0.897   4.471   1.798
 8735SOL     OW27103   0.956   1.589   0.104
 8735SOL    HW127104   1.049   1.623   0.118
 8735SOL    HW227105   0.950   1.494   0.137
 8736SOL     OW27106   0.963   6.674   0.136
 8736SOL    HW127107   1.056   6.710   0.125
 8736SOL    HW227108   0.929   6.644   0.047
 8737SOL     OW27109   3.274   6.996   6.358
 8737SOL    HW127110   3.356   6.973   6.411
 8737SOL    HW227111   3.194   6.994   6.417
 8738SOL     OW27112   2.139   3.847   4.106
 8738SOL    HW127113   2.171   3.932   4.149
 8738SOL    HW227114   2.126   3.777   4.177
 8739SOL     OW27115   6.509   5.444   5.967
 8739SOL    HW127116   6.494   5.386   6.047
 8739SOL    HW227117   6.515   5.540   5.997
 8740SOL     OW27118   3.898   1.302   5.376
 8740SOL    HW127119   3.969   1.239   5.406
 8740SOL    HW227120   3.915   1.329   5.281
 8741SOL     OW27121   1.967   1.253   2.114
 8741SOL    HW127122   1.971   1.166   2.162
 8741SOL    HW227123   1.876   1.267   2.076
 8742SOL     OW27124   5.044   6.093   1.763
 8742SOL    HW127125   4.966   6.030   1.764
 8742SOL    HW227126   5.019   6.176   1.713
 8743SOL     OW27127   2.368   6.685   2.893
 8743SOL    HW127128   2.292   6.731   2.940
 8743SOL    HW227129   2.354   6.691   2.794
 8744SOL     OW27130   3.741   2.644   6.074
 8744SOL    HW127131   3.839   2.661   6.083
 8744SOL    HW227132   3.709   2.585   6.148
 8745SOL     OW27133   6.604   2.585   5.682
 8745SOL    HW127134   6.561   2.665   5.640
 8745SOL    HW227135   6.536   2.535   5.736
 8746SOL     OW27136   4.224   4.311   5.347
 8746SOL    HW127137   4.248   4.216   5.328
 8746SOL    HW227138   4.253   4.368   5.270
 8747SOL     OW27139   0.971   2.915   3.503
 8747SOL    HW127140   1.014   2.833   3.539
 8747SOL    HW227141   0.991   2.992   3.564
 8748SOL     OW27142   0.620   1.210   6.712
 8748SOL    HW127143   0.574   1.298   6.699
 8748SOL    HW227144   0.618   1.159   6.626
 8749SOL     OW27145   2.675   0.299   4.814
 8749SOL    HW127146   2.614   0.341   4.747
 8749SOL    HW227147   2.667   0.200   4.808
 8750SOL     OW27148   2.364   3.262   5.340
 8750SOL    HW127149   2.283   3.217   5.378
 8750SOL    HW227150   2.412   3.199   5.280
 8751SOL     OW27151   6.435   6.926   2.066
 8751SOL    HW127152   6.518   6.872   2.055
 8751SOL    HW227153   6.400   6.952   1.976
 8752SOL     OW27154   2.706   4.102   0.016
 8752SOL    HW127155   2.676   4.074   0.108
 8752SOL    HW227156   2.737   4.021   6.992
 8753SOL     OW27157   5.130   1.616   4.808
 8753SOL    HW127158   5.196   1.668   4.862
 8753SOL    HW227159   5.040   1.622   4.851
 8754SOL     OW27160   0.988   2.387   5.914
 8754SOL    HW127161   0.992   2.344   5.824
 8754SOL    HW227162   0.893   2.413   5.935
 8755SOL     OW27163   2.834   1.543   6.782
 8755SOL    HW127164   2.841   1.458   6.730
 8755SOL    HW227165   2.796   1.524   6.873
 8756SOL     OW27166   2.174   3.268   3.291
 8756SOL    HW127167   2.185   3.366   3.274
 8756SOL    HW227168   2.161   3.252   3.388
 8757SOL     OW27169   5.452   6.436   6.057
 8757SOL    HW127170   5.398   6.433   5.973
 8757SOL    HW227171   5.532   6.495   6.042
 8758SOL     OW27172   5.169   6.072   2.351
 8758SOL    HW127173   5.201   6.103   2.441
 8758SOL    HW227174   5.143   6.151   2.297
 8759SOL     OW27175   4.273   1.798   6.211
 8759SOL    HW127176   4.317   1.807   6.300
 8759SOL    HW227177   4.224   1.711   6.207
 8760SOL     OW27178   2.015   1.757   4.906
 8760SOL    HW127179   2.033   1.765   5.004
 8760SOL    HW227180   1.924   1.718   4.891
 8761SOL     OW27181   4.447   0.160   1.131
 8761SOL    HW127182   4.449   0.199   1.038
 8761SOL    HW227183   4.491   0.224   1.194
 8762SOL     OW27184   1.302   2.912   2.527
 8762SOL    HW127185   1.370   2.908   2.601
 8762SOL    HW227186   1.334   2.975   2.457
 8763SOL     OW27187   5.965   6.090   4.708
 8763SOL    HW127188   5.912   6.034   4.645
 8763SOL    HW227189   6.046   6.127   4.661
 8764SOL     OW27190   4.865   1.126   4.030
 8764SOL    HW127191   4.820   1.213   4.051
 8764SOL    HW227192   4.800   1.052   4.043
 8765SOL     OW27193   6.080   6.245   4.931
 8765SOL    HW127194   6.024   6.187   4.872
 8765SOL    HW227195   6.049   6.340   4.923
 8766SOL     OW27196   4.233   4.905   3.301
 8766SOL    HW127197   4.233   4.925   3.399
 8766SOL    HW227198   4.294   4.828   3.283
 8767SOL     OW27199   4.593   0.688   3.082
 8767SOL    HW127200   4.545   0.611   3.040
 8767SOL    HW227201   4.619   0.663   3.176
 8768SOL     OW27202   2.112   3.187   0.135
 8768SOL    HW127203   2.047   3.113   0.154
 8768SOL    HW227204   2.167   3.205   0.216
 8769SOL     OW27205   0.902   0.545   5.457
 8769SOL    HW127206   0.946   0.505   5.376
 8769SOL    HW227207   0.859   0.632   5.431
 8770SOL     OW27208   5.103   4.020   2.088
 8770SOL    HW127209   5.153   3.947   2.134
 8770SOL    HW227210   5.009   4.023   2.123
 8771SOL     OW27211   2.201   0.233   5.999
 8771SOL    HW127212   2.138   0.231   6.077
 8771SOL    HW227213   2.155   0.272   5.920
 8772SOL     OW27214   5.691   0.050   0.265
 8772SOL    HW127215   5.704   6.980   0.243
 8772SOL    HW227216   5.734   0.107   0.195
 8773SOL     OW27217   4.641   1.863   3.509
 8773SOL    HW127218   4.555   1.880   3.461
 8773SOL    HW227219   4.685   1.951   3.531
 8774SOL     OW27220   1.588   1.134   0.804
 8774SOL    HW127221   1.646   1.069   0.852
 8774SOL    HW227222   1.541   1.088   0.729
 8775SOL     OW27223   5.901   0.092   3.964
 8775SOL    HW127224   5.927   0.068   4.058
 8775SOL    HW227225   5.900   0.010   3.907
 8776SOL     OW27226   3.198   3.137   4.943
 8776SOL    HW127227   3.207   3.094   5.033
 8776SOL    HW227228   3.264   3.212   4.936
 8777SOL     OW27229   6.698   4.324   1.379
 8777SOL    HW127230   6.671   4.371   1.295
 8777SOL    HW227231   6.794   4.342   1.399
 8778SOL     OW27232   0.375   2.564   4.313
 8778SOL    HW127233   0.357   2.537   4.408
 8778SOL    HW227234   0.424   2.491   4.266
 8779SOL     OW27235   2.106   5.273   1.972
 8779SOL    HW127236   2.106   5.265   2.071
 8779SOL    HW227237   2.013   5.292   1.940
 8780SOL     OW27238   1.466   5.779   3.412
 8780SOL    HW127239   1.490   5.771   3.315
 8780SOL    HW227240   1.535   5.834   3.459
 8781SOL     OW27241   6.777   1.783   3.798
 8781SOL    HW127242   6.785   1.873   3.840
 8781SOL    HW227243   6.683   1.768   3.768
 8782SOL     OW27244   5.684   1.091   1.314
 8782SOL    HW127245   5.615   1.029   1.275
 8782SOL    HW227246   5.641   1.150   1.383
 8783SOL     OW27247   6.192   3.970   3.831
 8783SOL    HW127248   6.241   3.892   3.871
 8783SOL    HW227249   6.120   4.000   3.893
 8784SOL     OW27250   4.807   4.703   5.085
 8784SOL    HW127251   4.807   4.686   4.986
 8784SOL    HW227252   4.891   4.751   5.111
 8785SOL     OW27253   5.674   3.536   0.083
 8785SOL    HW127254   5.663   3.520   0.181
 8785SOL    HW227255   5.753   3.486   0.049
 8786SOL     OW27256   2.332   6.511   6.896
 8786SOL    HW127257   2.269   6.574   6.850
 8786SOL    HW227258   2.346   6.542   6.990
 8787SOL     OW27259   1.575   2.602   2.102
 8787SOL    HW127260   1.555   2.683   2.157
 8787SOL    HW227261   1.666   2.609   2.063
 8788SOL     OW27262   6.645   2.180   5.442
 8788SOL    HW127263   6.716   2.251   5.448
 8788SOL    HW227264   6.569   2.205   5.502
 8789SOL     OW27265   5.920   0.162   6.034
 8789SOL    HW127266   5.972   0.243   6.063
 8789SOL    HW227267   5.837   0.155   6.089
 8790SOL     OW27268   6.672   1.290   0.447
 8790SOL    HW127269   6.683   1.253   0.354
 8790SOL    HW227270   6.752   1.345   0.470
 8791SOL     OW27271   5.055   0.319   5.679
 8791SOL    HW127272   5.045   0.416   5.705
 8791SOL    HW227273   4.993   0.299   5.603
 8792SOL     OW27274   4.046   6.788   3.105
 8792SOL    HW127275   4.038   6.824   3.198
 8792SOL    HW227276   4.081   6.859   3.045
 8793SOL     OW27277   2.019   5.789   4.274
 8793SOL    HW127278   2.000   5.728   4.197
 8793SOL    HW227279   1.959   5.765   4.351
 8794SOL     OW27280   3.060   6.133   2.504
 8794SOL    HW127281   3.130   6.173   2.563
 8794SOL    HW227282   3.007   6.066   2.555
 8795SOL     OW27283   1.416   6.587   5.071
 8795SOL    HW127284   1.352   6.545   5.006
 8795SOL    HW227285   1.499   6.615   5.022
 8796SOL     OW27286   3.681   1.500   5.343
 8796SOL    HW127287   3.720   1.509   5.251
 8796SOL    HW227288   3.730   1.428   5.392
 8797SOL     OW27289   1.617   6.590   6.046
 8797SOL    HW127290   1.609   6.557   5.952
 8797SOL    HW227291   1.663   6.522   6.102
 8798SOL     OW27292   5.475   4.369   5.242
 8798SOL    HW127293   5.460   4.461   5.208
 8798SOL    HW227294   5.388   4.319   5.242
 8799SOL     OW27295   2.462   4.499   3.396
 8799SOL    HW127296   2.515   4.568   3.347
 8799SOL    HW227297   2.427   4.432   3.331
 8800SOL     OW27298   5.314   3.488   5.495
 8800SOL    HW127299   5.379   3.433   5.547
 8800SOL    HW227300   5.237   3.513   5.553
 8801SOL     OW27301   2.137   1.119   4.010
 8801SOL    HW127302   2.237   1.113   4.006
 8801SOL    HW227303   2.104   1.068   4.090
 8802SOL     OW27304   1.028   0.165   1.112
 8802SOL    HW127305   0.976   0.176   1.196
 8802SOL    HW227306   0.965   0.164   1.034
 8803SOL     OW27307   1.461   4.653   6.035
 8803SOL    HW127308   1.461   4.572   6.093
 8803SOL    HW227309   1.396   4.641   5.960
 8804SOL     OW27310   3.974   0.698   1.447
 8804SOL    HW127311   3.990   0.763   1.521
 8804SOL    HW227312   4.026   0.726   1.366
 8805SOL     OW27313   2.463   6.981   3.607
 8805SOL    HW127314   2.446   7.010   3.701
 8805SOL    HW227315   2.376   6.968   3.560
 8806SOL     OW27316   2.140   5.057   1.531
 8806SOL    HW127317   2.163   5.146   1.569
 8806SOL    HW227318   2.047   5.059   1.494
 8807SOL     OW27319   6.680   6.148   6.203
 8807SOL    HW127320   6.724   6.167   6.291
 8807SOL    HW227321   6.582   6.167   6.209
 8808SOL     OW27322   5.358   1.771   0.864
 8808SOL    HW127323   5.439   1.714   0.880
 8808SOL    HW227324   5.285   1.715   0.824
 8809SOL     OW27325   5.573   3.606   1.869
 8809SOL    HW127326   5.539   3.514   1.886
 8809SOL    HW227327   5.546   3.666   1.944
 8810SOL     OW27328   5.802   1.580   5.322
 8810SOL    HW127329   5.865   1.616   5.391
 8810SOL    HW227330   5.837   1.600   5.231
 8811SOL     OW27331   2.351   1.829   4.070
 8811SOL    HW127332   2.310   1.875   4.149
 8811SOL    HW227333   2.380   1.898   4.004
 8812SOL     OW27334   0.834   0.628   0.754
 8812SOL    HW127335   0.765   0.584   0.811
 8812SOL    HW227336   0.887   0.692   0.809
 8813SOL     OW27337   1.102   4.897   1.696
 8813SOL    HW127338   1.143   4.930   1.611
 8813SOL    HW227339   1.131   4.802   1.712
 8814SOL     OW27340   7.002   1.114   0.268
 8814SOL    HW127341   6.997   1.027   0.317
 8814SOL    HW227342   6.909   1.150   0.255
 8815SOL     OW27343   6.475   5.976   0.659
 8815SOL    HW127344   6.565   6.019   0.671
 8815SOL    HW227345   6.431   5.965   0.749
 8816SOL     OW27346   1.101   6.964   0.873
 8816SOL    HW127347   1.169   6.894   0.851
 8816SOL    HW227348   1.118   6.999   0.965
 8817SOL     OW27349   0.318   5.411   5.789
 8817SOL    HW127350   0.369   5.496   5.775
 8817SOL    HW227351   0.225   5.433   5.819
 8818SOL     OW27352   0.323   3.520   3.458
 8818SOL    HW127353   0.354   3.533   3.364
 8818SOL    HW227354   0.343   3.426   3.487
 8819SOL     OW27355   4.650   6.704   3.837
 8819SOL    HW127356   4.555   6.673   3.829
 8819SOL    HW227357   4.678   6.700   3.932
 8820SOL     OW27358   2.583   2.444   4.167
 8820SOL    HW127359   2.570   2.495   4.082
 8820SOL    HW227360   2.504   2.385   4.183
 8821SOL     OW27361   1.701   6.470   6.924
 8821SOL    HW127362   1.789   6.440   6.885
 8821SOL    HW227363   1.631   6.465   6.853
 8822SOL     OW27364   0.729   0.404   3.116
 8822SOL    HW127365   0.630   0.408   3.108
 8822SOL    HW227366   0.763   0.493   3.148
 8823SOL     OW27367   2.113   0.434   1.286
 8823SOL    HW127368   2.142   0.340   1.305
 8823SOL    HW227369   2.024   0.433   1.241
 8824SOL     OW27370   2.727   3.436   0.664
 8824SOL    HW127371   2.697   3.370   0.596
 8824SOL    HW227372   2.690   3.526   0.641
 8825SOL     OW27373   1.764   0.482   3.550
 8825SOL    HW127374   1.824   0.538   3.492
 8825SOL    HW227375   1.713   0.418   3.493
 8826SOL     OW27376   6.270   2.203   0.363
 8826SOL    HW127377   6.179   2.175   0.395
 8826SOL    HW227378   6.305   2.134   0.300
 8827SOL     OW27379   2.965   1.434   3.116
 8827SOL    HW127380   3.007   1.521   3.145
 8827SOL    HW227381   3.001   1.360   3.173
 8828SOL     OW27382   4.183   5.457   3.803
 8828SOL    HW127383   4.181   5.556   3.806
 8828SOL    HW227384   4.091   5.421   3.822
 8829SOL     OW27385   0.201   3.160   0.122
 8829SOL    HW127386   0.281   3.150   0.062
 8829SOL    HW227387   0.174   3.071   0.157
 8830SOL     OW27388   0.087   1.770   0.042
 8830SOL    HW127389   0.119   1.828   0.117
 8830SOL    HW227390   7.014   1.783   0.030
 8831SOL     OW27391   5.306   1.281   3.496
 8831SOL    HW127392   5.223   1.241   3.458
 8831SOL    HW227393   5.385   1.245   3.447
 8832SOL     OW27394   7.007   6.368   2.287
 8832SOL    HW127395   6.921   6.412   2.314
 8832SOL    HW227396   7.022   6.380   2.189
 8833SOL     OW27397   2.217   6.257   5.080
 8833SOL    HW127398   2.206   6.160   5.103
 8833SOL    HW227399   2.312   6.285   5.098
 8834SOL     OW27400   5.668   3.649   4.294
 8834SOL    HW127401   5.602   3.596   4.241
 8834SOL    HW227402   5.636   3.743   4.303
 8835SOL     OW27403   6.197   0.556   5.815
 8835SOL    HW127404   6.188   0.547   5.716
 8835SOL    HW227405   6.106   0.563   5.856
 8836SOL     OW27406   4.346   1.051   0.488
 8836SOL    HW127407   4.296   0.971   0.522
 8836SOL    HW227408   4.313   1.074   0.397
 8837SOL     OW27409   0.649   0.144   2.566
 8837SOL    HW127410   0.566   0.159   2.619
 8837SOL    HW227411   0.674   0.229   2.519
 8838SOL     OW27412   2.990   5.125   3.178
 8838SOL    HW127413   2.895   5.102   3.157
 8838SOL    HW227414   3.046   5.042   3.172
 8839SOL     OW27415   5.560   6.057   3.156
 8839SOL    HW127416   5.618   6.110   3.095
 8839SOL    HW227417   5.612   6.031   3.237
 8840SOL     OW27418   6.490   2.192   2.186
 8840SOL    HW127419   6.554   2.115   2.186
 8840SOL    HW227420   6.536   2.272   2.147
 8841SOL     OW27421   1.584   0.778   5.101
 8841SOL    HW127422   1.514   0.849   5.104
 8841SOL    HW227423   1.663   0.807   5.155
 8842SOL     OW27424   3.516   2.825   0.276
 8842SOL    HW127425   3.532   2.778   0.362
 8842SOL    HW227426   3.497   2.922   0.293
 8843SOL     OW27427   1.711   2.295   5.658
 8843SOL    HW127428   1.615   2.309   5.685
 8843SOL    HW227429   1.739   2.368   5.596
 8844SOL     OW27430   5.821   1.177   6.389
 8844SOL    HW127431   5.852   1.109   6.456
 8844SOL    HW227432   5.721   1.185   6.394
 8845SOL     OW27433   4.127   3.350   0.116
 8845SOL    HW127434   4.040   3.388   0.148
 8845SOL    HW227435   4.200   3.417   0.132
 8846SOL     OW27436   2.118   6.004   4.094
 8846SOL    HW127437   2.210   5.982   4.060
 8846SOL    HW227438   2.085   5.928   4.150
 8847SOL     OW27439   3.133   0.850   2.780
 8847SOL    HW127440   3.138   0.933   2.836
 8847SOL    HW227441   3.091   0.872   2.692
 8848SOL     OW27442   2.462   0.894   1.235
 8848SOL    HW127443   2.401   0.841   1.293
 8848SOL    HW227444   2.509   0.833   1.172
 8849SOL     OW27445   2.637   5.692   3.265
 8849SOL    HW127446   2.575   5.722   3.192
 8849SOL    HW227447   2.661   5.771   3.322
 8850SOL     OW27448   1.958   1.682   0.027
 8850SOL    HW127449   2.013   1.766   0.024
 8850SOL    HW227450   2.005   1.610   7.001
 8851SOL     OW27451   2.016   4.647   2.776
 8851SOL    HW127452   2.087   4.630   2.845
 8851SOL    HW227453   2.025   4.580   2.702
 8852SOL     OW27454   1.269   1.873   5.662
 8852SOL    HW127455   1.180   1.904   5.628
 8852SOL    HW227456   1.340   1.936   5.632
 8853SOL     OW27457   3.124   1.480   1.395
 8853SOL    HW127458   3.093   1.390   1.426
 8853SOL    HW227459   3.220   1.492   1.420
 8854SOL     OW27460   1.915   3.273   4.977
 8854SOL    HW127461   1.941   3.240   5.067
 8854SOL    HW227462   1.990   3.326   4.938
 8855SOL     OW27463   6.362   5.147   1.645
 8855SOL    HW127464   6.438   5.139   1.710
 8855SOL    HW227465   6.276   5.152   1.695
 8856SOL     OW27466   6.255   5.687   6.488
 8856SOL    HW127467   6.230   5.774   6.530
 8856SOL    HW227468   6.254   5.615   6.557
 8857SOL     OW27469   6.645   2.101   5.061
 8857SOL    HW127470   6.655   2.188   5.109
 8857SOL    HW227471   6.558   2.058   5.086
 8858SOL     OW27472   0.083   4.897   5.048
 8858SOL    HW127473   0.002   4.879   4.992
 8858SOL    HW227474   0.072   4.854   5.137
 8859SOL     OW27475   1.135   0.812   3.907
 8859SOL    HW127476   1.223   0.766   3.920
 8859SOL    HW227477   1.138   0.903   3.949
 8860SOL     OW27478   6.960   3.163   1.584
 8860SOL    HW127479   6.917   3.111   1.510
 8860SOL    HW227480   0.008   3.219   1.547
 8861SOL     OW27481   4.059   0.804   0.789
 8861SOL    HW127482   3.993   0.838   0.722
 8861SOL    HW227483   4.036   0.709   0.812
 8862SOL     OW27484   4.649   5.750   3.972
 8862SOL    HW127485   4.570   5.788   4.022
 8862SOL    HW227486   4.712   5.825   3.950
 8863SOL     OW27487   2.084   4.704   3.405
 8863SOL    HW127488   2.071   4.632   3.337
 8863SOL    HW227489   1.998   4.754   3.417
 8864SOL     OW27490   4.837   3.653   6.396
 8864SOL    HW127491   4.847   3.743   6.354
 8864SOL    HW227492   4.810   3.587   6.326
 8865SOL     OW27493   2.590   1.425   5.728
 8865SOL    HW127494   2.559   1.513   5.690
 8865SOL    HW227495   2.643   1.376   5.659
 8866SOL     OW27496   5.653   6.608   2.650
 8866SOL    HW127497   5.646   6.620   2.550
 8866SOL    HW227498   5.577   6.657   2.694
 8867SOL     OW27499   6.381   3.634   3.090
 8867SOL    HW127500   6.326   3.642   3.173
 8867SOL    HW227501   6.359   3.710   3.029
 8868SOL     OW27502   0.002   3.303   2.304
 8868SOL    HW127503   6.977   3.252   2.235
 8868SOL    HW227504   6.977   3.302   2.390
 8869SOL     OW27505   4.341   5.174   4.371
 8869SOL    HW127506   4.435   5.191   4.399
 8869SOL    HW227507   4.335   5.084   4.327
 8870SOL     OW27508   2.223   6.545   1.671
 8870SOL    HW127509   2.246   6.473   1.605
 8870SOL    HW227510   2.305   6.597   1.693
 8871SOL     OW27511   1.317   1.169   3.187
 8871SOL    HW127512   1.381   1.172   3.110
 8871SOL    HW227513   1.224   1.180   3.153
 8872SOL     OW27514   1.022   4.522   6.037
 8872SOL    HW127515   1.074   4.441   6.062
 8872SOL    HW227516   0.929   4.515   6.073
 8873SOL     OW27517   1.624   0.354   1.839
 8873SOL    HW127518   1.592   0.447   1.818
 8873SOL    HW227519   1.545   0.296   1.858
 8874SOL     OW27520   1.236   4.982   1.479
 8874SOL    HW127521   1.181   4.919   1.424
 8874SOL    HW227522   1.263   5.060   1.424
 8875SOL     OW27523   6.990   3.400   4.144
 8875SOL    HW127524   6.983   3.344   4.061
 8875SOL    HW227525   6.986   3.341   4.225
 8876SOL     OW27526   2.784   0.497   6.469
 8876SOL    HW127527   2.762   0.595   6.466
 8876SOL    HW227528   2.871   0.482   6.424
 8877SOL     OW27529   1.311   3.611   1.865
 8877SOL    HW127530   1.329   3.630   1.769
 8877SOL    HW227531   1.313   3.696   1.917
 8878SOL     OW27532   3.503   4.251   0.533
 8878SOL    HW127533   3.552   4.198   0.602
 8878SOL    HW227534   3.503   4.201   0.446
 8879SOL     OW27535   6.707   4.795   2.657
 8879SOL    HW127536   6.727   4.724   2.590
 8879SOL    HW227537   6.713   4.884   2.614
 8880SOL     OW27538   4.087   6.563   4.052
 8880SOL    HW127539   4.057   6.541   3.959
 8880SOL    HW227540   4.017   6.617   4.098
 8881SOL     OW27541   5.312   4.757   4.021
 8881SOL    HW127542   5.387   4.700   4.055
 8881SOL    HW227543   5.229   4.737   4.073
 8882SOL     OW27544   3.917   0.890   0.578
 8882SOL    HW127545   3.952   0.895   0.484
 8882SOL    HW227546   3.837   0.831   0.582
 8883SOL     OW27547   0.071   6.934   6.063
 8883SOL    HW127548   0.062   6.835   6.078
 8883SOL    HW227549   0.159   6.964   6.099
 8884SOL     OW27550   5.280   4.627   5.338
 8884SOL    HW127551   5.182   4.644   5.331
 8884SOL    HW227552   5.319   4.620   5.246
 8885SOL     OW27553   5.677   5.219   6.916
 8885SOL    HW127554   5.592   5.253   6.877
 8885SOL    HW227555   5.740   5.295   6.931
 8886SOL     OW27556   3.886   5.276   6.380
 8886SOL    HW127557   3.907   5.293   6.477
 8886SOL    HW227558   3.948   5.330   6.323
 8887SOL     OW27559   4.376   0.337   0.844
 8887SOL    HW127560   4.358   0.365   0.750
 8887SOL    HW227561   4.470   0.359   0.869
 8888SOL     OW27562   1.592   1.775   3.417
 8888SOL    HW127563   1.566   1.718   3.495
 8888SOL    HW227564   1.691   1.768   3.403
 8889SOL     OW27565   6.834   6.501   6.254
 8889SOL    HW127566   6.910   6.542   6.303
 8889SOL    HW227567   6.833   6.402   6.270
 8890SOL     OW27568   0.604   5.979   6.832
 8890SOL    HW127569   0.564   5.892   6.801
 8890SOL    HW227570   0.645   5.966   6.922
 8891SOL     OW27571   4.886   4.424   6.698
 8891SOL    HW127572   4.815   4.486   6.665
 8891SOL    HW227573   4.962   4.424   6.633
 8892SOL     OW27574   3.977   4.873   3.619
 8892SOL    HW127575   4.054   4.813   3.637
 8892SOL    HW227576   3.999   4.966   3.649
 8893SOL     OW27577   1.275   5.053   5.142
 8893SOL    HW127578   1.288   4.971   5.197
 8893SOL    HW227579   1.200   5.038   5.077
 8894SOL     OW27580   4.988   1.807   0.772
 8894SOL    HW127581   5.046   1.874   0.817
 8894SOL    HW227582   4.896   1.845   0.760
 8895SOL     OW27583   0.875   3.151   0.670
 8895SOL    HW127584   0.931   3.216   0.720
 8895SOL    HW227585   0.806   3.111   0.731
 8896SOL     OW27586   1.611   2.558   5.082
 8896SOL    HW127587   1.655   2.590   4.998
 8896SOL    HW227588   1.576   2.466   5.068
 8897SOL     OW27589   2.082   3.925   3.466
 8897SOL    HW127590   2.004   3.973   3.425
 8897SOL    HW227591   2.099   3.961   3.558
 8898SOL     OW27592   5.509   3.887   2.530
 8898SOL    HW127593   5.475   3.837   2.450
 8898SOL    HW227594   5.608   3.875   2.536
 8899SOL     OW27595   6.644   5.075   6.275
 8899SOL    HW127596   6.699   5.158   6.269
 8899SOL    HW227597   6.681   5.016   6.348
 8900SOL     OW27598   5.376   2.299   3.402
 8900SOL    HW127599   5.368   2.241   3.321
 8900SOL    HW227600   5.441   2.258   3.466
 8901SOL     OW27601   0.895   2.136   3.327
 8901SOL    HW127602   0.921   2.142   3.230
 8901SOL    HW227603   0.945   2.061   3.370
 8902SOL     OW27604   1.232   4.920   0.132
 8902SOL    HW127605   1.308   4.868   0.095
 8902SOL    HW227606   1.182   4.864   0.198
 8903SOL     OW27607   1.465   1.280   5.254
 8903SOL    HW127608   1.482   1.212   5.182
 8903SOL    HW227609   1.427   1.363   5.213
 8904SOL     OW27610   0.486   1.556   2.869
 8904SOL    HW127611   0.434   1.483   2.913
 8904SOL    HW227612   0.582   1.549   2.895
 8905SOL     OW27613   1.718   3.004   2.466
 8905SOL    HW127614   1.642   3.033   2.408
 8905SOL    HW227615   1.803   3.042   2.430
 8906SOL     OW27616   0.648   6.768   0.618
 8906SOL    HW127617   0.618   6.674   0.632
 8906SOL    HW227618   0.727   6.770   0.558
 8907SOL     OW27619   3.263   2.670   5.318
 8907SOL    HW127620   3.282   2.576   5.291
 8907SOL    HW227621   3.172   2.696   5.287
 8908SOL     OW27622   1.109   4.755   0.344
 8908SOL    HW127623   1.056   4.671   0.354
 8908SOL    HW227624   1.077   4.823   0.411
 8909SOL     OW27625   2.614   0.905   6.224
 8909SOL    HW127626   2.610   0.878   6.320
 8909SOL    HW227627   2.706   0.938   6.203
 8910SOL     OW27628   0.784   2.499   5.465
 8910SOL    HW127629   0.797   2.499   5.564
 8910SOL    HW227630   0.852   2.558   5.422
 8911SOL     OW27631   5.089   1.618   4.506
 8911SOL    HW127632   5.074   1.604   4.603
 8911SOL    HW227633   5.032   1.554   4.453
 8912SOL     OW27634   3.911   3.099   5.429
 8912SOL    HW127635   3.974   3.028   5.395
 8912SOL    HW227636   3.952   3.189   5.415
 8913SOL     OW27637   5.247   5.159   7.019
 8913SOL    HW127638   5.329   5.122   0.035
 8913SOL    HW227639   5.223   5.104   6.939
 8914SOL     OW27640   5.029   6.880   4.972
 8914SOL    HW127641   5.099   6.945   5.003
 8914SOL    HW227642   4.944   6.897   5.020
 8915SOL     OW27643   1.085   1.527   4.166
 8915SOL    HW127644   1.102   1.625   4.157
 8915SOL    HW227645   1.172   1.477   4.161
 8916SOL     OW27646   5.500   2.077   6.684
 8916SOL    HW127647   5.430   2.014   6.720
 8916SOL    HW227648   5.481   2.169   6.717
 8917SOL     OW27649   5.911   1.574   0.495
 8917SOL    HW127650   5.884   1.537   0.584
 8917SOL    HW227651   5.887   1.671   0.491
 8918SOL     OW27652   1.577   5.540   0.982
 8918SOL    HW127653   1.589   5.459   1.039
 8918SOL    HW227654   1.548   5.617   1.039
 8919SOL     OW27655   5.024   4.763   6.863
 8919SOL    HW127656   5.013   4.719   6.952
 8919SOL    HW227657   4.935   4.796   6.831
 8920SOL     OW27658   0.522   1.368   0.413
 8920SOL    HW127659   0.452   1.389   0.345
 8920SOL    HW227660   0.485   1.308   0.483
 8921SOL     OW27661   1.320   2.576   1.297
 8921SOL    HW127662   1.349   2.672   1.295
 8921SOL    HW227663   1.246   2.564   1.363
 8922SOL     OW27664   3.396   6.812   2.386
 8922SOL    HW127665   3.487   6.834   2.423
 8922SOL    HW227666   3.401   6.726   2.336
 8923SOL     OW27667   1.255   2.118   5.824
 8923SOL    HW127668   1.239   2.048   5.755
 8923SOL    HW227669   1.309   2.080   5.899
 8924SOL     OW27670   5.336   5.972   4.699
 8924SOL    HW127671   5.244   5.932   4.702
 8924SOL    HW227672   5.338   6.045   4.631
 8925SOL     OW27673   0.541   0.671   2.549
 8925SOL    HW127674   0.461   0.720   2.512
 8925SOL    HW227675   0.621   0.730   2.543
 8926SOL     OW27676   6.534   3.539   5.239
 8926SOL    HW127677   6.508   3.631   5.267
 8926SOL    HW227678   6.619   3.513   5.284
 8927SOL     OW27679   6.800   1.956   5.561
 8927SOL    HW127680   6.759   2.022   5.498
 8927SOL    HW227681   6.780   1.983   5.655
 8928SOL     OW27682   2.263   0.542   6.001
 8928SOL    HW127683   2.336   0.610   6.007
 8928SOL    HW227684   2.265   0.498   5.912
 8929SOL     OW27685   6.274   2.390   4.886
 8929SOL    HW127686   6.277   2.345   4.976
 8929SOL    HW227687   6.315   2.481   4.893
 8930SOL     OW27688   0.763   3.525   2.851
 8930SOL    HW127689   0.774   3.435   2.891
 8930SOL    HW227690   0.817   3.592   2.903
 8931SOL     OW27691   3.010   2.643   1.570
 8931SOL    HW127692   3.090   2.653   1.511
 8931SOL    HW227693   3.027   2.689   1.658
 8932SOL     OW27694   0.283   1.864   3.231
 8932SOL    HW127695   0.343   1.833   3.157
 8932SOL    HW227696   0.302   1.811   3.314
 8933SOL     OW27697   3.188   2.497   6.676
 8933SOL    HW127698   3.189   2.589   6.715
 8933SOL    HW227699   3.131   2.495   6.594
 8934SOL     OW27700   3.250   5.363   4.927
 8934SOL    HW127701   3.331   5.330   4.879
 8934SOL    HW227702   3.279   5.420   5.004
 8935SOL     OW27703   0.556   4.830   0.960
 8935SOL    HW127704   0.544   4.795   1.052
 8935SOL    HW227705   0.490   4.903   0.943
 8936SOL     OW27706   1.965   3.585   0.553
 8936SOL    HW127707   1.963   3.497   0.599
 8936SOL    HW227708   2.034   3.644   0.595
 8937SOL     OW27709   0.238   6.964   5.343
 8937SOL    HW127710   0.150   6.931   5.310
 8937SOL    HW227711   0.302   6.887   5.351
 8938SOL     OW27712   0.385   5.507   0.953
 8938SOL    HW127713   0.306   5.467   0.908
 8938SOL    HW227714   0.456   5.437   0.965
 8939SOL     OW27715   4.852   2.266   4.631
 8939SOL    HW127716   4.841   2.238   4.536
 8939SOL    HW227717   4.762   2.272   4.675
 8940SOL     OW27718   0.343   0.996   3.943
 8940SOL    HW127719   0.302   0.923   3.997
 8940SOL    HW227720   0.420   1.036   3.992
 8941SOL     OW27721   5.686   2.183   5.886
 8941SOL    HW127722   5.709   2.097   5.931
 8941SOL    HW227723   5.699   2.258   5.950
 8942SOL     OW27724   0.442   3.426   5.727
 8942SOL    HW127725   0.428   3.520   5.757
 8942SOL    HW227726   0.377   3.404   5.654
 8943SOL     OW27727   5.011   4.014   0.460
 8943SOL    HW127728   4.948   3.937   0.448
 8943SOL    HW227729   4.987   4.065   0.542
 8944SOL     OW27730   4.798   5.460   5.579
 8944SOL    HW127731   4.761   5.499   5.494
 8944SOL    HW227732   4.892   5.491   5.592
 8945SOL     OW27733   1.950   0.635   4.331
 8945SOL    HW127734   2.048   0.629   4.349
 8945SOL    HW227735   1.906   0.548   4.354
 8946SOL     OW27736   3.171   1.998   5.084
 8946SOL    HW127737   3.165   1.963   4.990
 8946SOL    HW227738   3.161   2.097   5.083
 8947SOL     OW27739   1.517   3.373   5.063
 8947SOL    HW127740   1.561   3.329   4.986
 8947SOL    HW227741   1.417   3.369   5.052
 8948SOL     OW27742   5.934   5.404   3.948
 8948SOL    HW127743   5.865   5.389   3.876
 8948SOL    HW227744   6.006   5.463   3.913
 8949SOL     OW27745   1.866   0.144   0.752
 8949SOL    HW127746   1.836   0.239   0.763
 8949SOL    HW227747   1.927   0.137   0.673
 8950SOL     OW27748   4.556   3.312   5.618
 8950SOL    HW127749   4.627   3.259   5.664
 8950SOL    HW227750   4.588   3.337   5.527
 8951SOL     OW27751   1.952   2.171   5.003
 8951SOL    HW127752   1.910   2.254   5.039
 8951SOL    HW227753   1.883   2.099   4.995
 8952SOL     OW27754   0.904   0.622   2.317
 8952SOL    HW127755   0.872   0.641   2.224
 8952SOL    HW227756   0.996   0.661   2.328
 8953SOL     OW27757   1.051   3.705   6.939
 8953SOL    HW127758   1.068   3.709   6.841
 8953SOL    HW227759   0.953   3.713   6.957
 8954SOL     OW27760   0.462   5.935   5.463
 8954SOL    HW127761   0.492   5.868   5.395
 8954SOL    HW227762   0.540   5.988   5.496
 8955SOL     OW27763   6.997   4.132   2.820
 8955SOL    HW127764   6.904   4.148   2.853
 8955SOL    HW227765   7.008   4.175   2.730
 8956SOL     OW27766   0.220   1.575   6.667
 8956SOL    HW127767   0.228   1.588   6.766
 8956SOL    HW227768   0.225   1.478   6.646
 8957SOL     OW27769   3.287   4.178   1.389
 8957SOL    HW127770   3.193   4.144   1.400
 8957SOL    HW227771   3.314   4.227   1.472
 8958SOL     OW27772   0.811   0.572   4.085
 8958SOL    HW127773   0.841   0.500   4.148
 8958SOL    HW227774   0.798   0.532   3.994
 8959SOL     OW27775   1.107   4.291   0.828
 8959SOL    HW127776   1.195   4.331   0.806
 8959SOL    HW227777   1.041   4.363   0.847
 8960SOL     OW27778   4.747   5.475   2.712
 8960SOL    HW127779   4.693   5.519   2.784
 8960SOL    HW227780   4.844   5.495   2.727
 8961SOL     OW27781   1.332   2.247   4.616
 8961SOL    HW127782   1.358   2.152   4.598
 8961SOL    HW227783   1.407   2.308   4.591
 8962SOL     OW27784   6.046   6.776   1.948
 8962SOL    HW127785   6.097   6.762   1.863
 8962SOL    HW227786   5.971   6.840   1.932
 8963SOL     OW27787   4.795   6.643   4.074
 8963SOL    HW127788   4.887   6.681   4.075
 8963SOL    HW227789   4.769   6.615   4.166
 8964SOL     OW27790   6.197   4.160   2.523
 8964SOL    HW127791   6.262   4.163   2.599
 8964SOL    HW227792   6.242   4.193   2.440
 8965SOL     OW27793   1.743   4.824   1.132
 8965SOL    HW127794   1.792   4.737   1.125
 8965SOL    HW227795   1.708   4.850   1.043
 8966SOL     OW27796   1.857   3.284   5.622
 8966SOL    HW127797   1.930   3.309   5.684
 8966SOL    HW227798   1.866   3.335   5.536
 8967SOL     OW27799   3.015   6.095   1.666
 8967SOL    HW127800   3.042   6.155   1.591
 8967SOL    HW227801   3.047   6.134   1.752
 8968SOL     OW27802   4.613   5.416   2.471
 8968SOL    HW127803   4.628   5.425   2.569
 8968SOL    HW227804   4.552   5.339   2.453
 8969SOL     OW27805   6.192   0.723   3.882
 8969SOL    HW127806   6.213   0.650   3.817
 8969SOL    HW227807   6.259   0.797   3.870
 8970SOL     OW27808   3.253   2.869   0.551
 8970SOL    HW127809   3.191   2.916   0.614
 8970SOL    HW227810   3.346   2.902   0.564
 8971SOL     OW27811   3.385   5.618   2.553
 8971SOL    HW127812   3.455   5.685   2.529
 8971SOL    HW227813   3.353   5.572   2.469
 8972SOL     OW27814   4.849   6.108   6.412
 8972SOL    HW127815   4.769   6.119   6.353
 8972SOL    HW227816   4.856   6.012   6.440
 8973SOL     OW27817   0.507   3.585   2.118
 8973SOL    HW127818   0.512   3.598   2.217
 8973SOL    HW227819   0.526   3.671   2.072
 8974SOL     OW27820   1.226   4.198   5.837
 8974SOL    HW127821   1.256   4.222   5.929
 8974SOL    HW227822   1.285   4.127   5.800
 8975SOL     OW27823   2.544   1.068   7.023
 8975SOL    HW127824   2.563   1.121   6.940
 8975SOL    HW227825   2.606   1.097   0.070
 8976SOL     OW27826   0.957   5.056   5.157
 8976SOL    HW127827   0.880   5.004   5.120
 8976SOL    HW227828   0.977   5.134   5.098
 8977SOL     OW27829   5.689   1.423   6.891
 8977SOL    HW127830   5.782   1.385   6.896
 8977SOL    HW227831   5.675   1.465   6.801
 8978SOL     OW27832   6.232   6.108   6.521
 8978SOL    HW127833   6.319   6.058   6.520
 8978SOL    HW227834   6.156   6.044   6.534
 8979SOL     OW27835   1.345   3.225   4.086
 8979SOL    HW127836   1.341   3.268   4.176
 8979SOL    HW227837   1.276   3.266   4.026
 8980SOL     OW27838   2.373   2.966   5.654
 8980SOL    HW127839   2.343   2.874   5.678
 8980SOL    HW227840   2.445   2.996   5.717
 8981SOL     OW27841   3.805   1.928   4.961
 8981SOL    HW127842   3.755   1.983   5.027
 8981SOL    HW227843   3.820   1.981   4.877
 8982SOL     OW27844   1.351   2.611   0.248
 8982SOL    HW127845   1.365   2.544   0.175
 8982SOL    HW227846   1.297   2.569   0.321
 8983SOL     OW27847   2.739   5.888   6.917
 8983SOL    HW127848   2.802   5.837   6.858
 8983SOL    HW227849   2.698   5.826   6.984
 8984SOL     OW27850   1.194   6.937   3.928
 8984SOL    HW127851   1.121   7.004   3.939
 8984SOL    HW227852   1.273   6.980   3.884
 8985SOL     OW27853   4.049   2.259   0.997
 8985SOL    HW127854   3.990   2.318   1.050
 8985SOL    HW227855   4.053   2.168   1.040
 8986SOL     OW27856   4.212   5.416   2.845
 8986SOL    HW127857   4.256   5.370   2.768
 8986SOL    HW227858   4.121   5.376   2.859
 8987SOL     OW27859   3.421   6.566   2.275
 8987SOL    HW127860   3.350   6.500   2.251
 8987SOL    HW227861   3.483   6.525   2.343
 8988SOL     OW27862   1.607   4.847   4.119
 8988SOL    HW127863   1.695   4.834   4.075
 8988SOL    HW227864   1.621   4.889   4.209
 8989SOL     OW27865   4.472   3.355   6.748
 8989SOL    HW127866   4.490   3.279   6.685
 8989SOL    HW227867   4.559   3.399   6.772
 8990SOL     OW27868   1.175   5.240   4.252
 8990SOL    HW127869   1.245   5.310   4.244
 8990SOL    HW227870   1.204   5.158   4.201
 8991SOL     OW27871   1.665   3.378   4.681
 8991SOL    HW127872   1.646   3.295   4.734
 8991SOL    HW227873   1.590   3.442   4.693
 8992SOL     OW27874   4.786   2.018   0.799
 8992SOL    HW127875   4.714   2.050   0.860
 8992SOL    HW227876   4.747   1.995   0.710
 8993SOL     OW27877   3.795   2.766   0.774
 8993SOL    HW127878   3.765   2.732   0.863
 8993SOL    HW227879   3.739   2.844   0.747
 8994SOL     OW27880   1.402   4.343   5.534
 8994SOL    HW127881   1.325   4.376   5.588
 8994SOL    HW227882   1.368   4.291   5.455
 8995SOL     OW27883   0.544   1.893   0.054
 8995SOL    HW127884   0.605   1.835   0.000
 8995SOL    HW227885   0.499   1.838   0.124
 8996SOL     OW27886   5.324   4.177   6.662
 8996SOL    HW127887   5.373   4.130   6.736
 8996SOL    HW227888   5.326   4.119   6.580
 8997SOL     OW27889   4.634   1.302   5.967
 8997SOL    HW127890   4.604   1.348   6.050
 8997SOL    HW227891   4.732   1.284   5.971
 8998SOL     OW27892   5.925   3.545   4.269
 8998SOL    HW127893   5.827   3.556   4.287
 8998SOL    HW227894   5.939   3.468   4.206
 8999SOL     OW27895   4.668   6.588   6.507
 8999SOL    HW127896   4.741   6.646   6.472
 8999SOL    HW227897   4.580   6.634   6.495
 9000SOL     OW27898   1.942   3.106   2.327
 9000SOL    HW127899   1.927   3.041   2.252
 9000SOL    HW227900   1.987   3.187   2.291
 9001SOL     OW27901   1.157   4.966   2.002
 9001SOL    HW127902   1.067   4.984   2.040
 9001SOL    HW227903   1.151   4.962   1.902
 9002SOL     OW27904   1.910   5.340   5.126
 9002SOL    HW127905   1.962   5.361   5.043
 9002SOL    HW227906   1.879   5.245   5.123
 9003SOL     OW27907   5.576   3.929   1.329
 9003SOL    HW127908   5.483   3.924   1.292
 9003SOL    HW227909   5.609   4.023   1.325
 9004SOL     OW27910   4.488   5.338   0.951
 9004SOL    HW127911   4.424   5.395   1.002
 9004SOL    HW227912   4.489   5.367   0.855
 9005SOL     OW27913   6.556   1.970   5.317
 9005SOL    HW127914   6.456   1.973   5.309
 9005SOL    HW227915   6.589   2.061   5.344
 9006SOL     OW27916   2.589   5.715   1.194
 9006SOL    HW127917   2.672   5.662   1.173
 9006SOL    HW227918   2.571   5.780   1.120
 9007SOL     OW27919   3.104   0.901   3.125
 9007SOL    HW127920   3.045   0.913   3.045
 9007SOL    HW227921   3.178   0.968   3.122
 9008SOL     OW27922   0.279   5.145   2.507
 9008SOL    HW127923   0.331   5.221   2.468
 9008SOL    HW227924   0.342   5.074   2.539
 9009SOL     OW27925   3.627   4.793   1.052
 9009SOL    HW127926   3.568   4.828   1.125
 9009SOL    HW227927   3.717   4.774   1.090
 9010SOL     OW27928   1.957   6.498   4.253
 9010SOL    HW127929   2.037   6.555   4.238
 9010SOL    HW227930   1.883   6.526   4.191
 9011SOL     OW27931   4.231   0.821   1.190
 9011SOL    HW127932   4.155   0.775   1.145
 9011SOL    HW227933   4.315   0.810   1.135
 9012SOL     OW27934   2.122   4.880   6.777
 9012SOL    HW127935   2.086   4.967   6.743
 9012SOL    HW227936   2.221   4.887   6.787
 9013SOL     OW27937   1.159   1.153   6.111
 9013SOL    HW127938   1.071   1.193   6.085
 9013SOL    HW227939   1.221   1.154   6.033
 9014SOL     OW27940   6.904   2.171   0.847
 9014SOL    HW127941   6.995   2.189   0.809
 9014SOL    HW227942   6.876   2.078   0.821
 9015SOL     OW27943   4.643   2.363   1.604
 9015SOL    HW127944   4.726   2.326   1.562
 9015SOL    HW227945   4.627   2.455   1.570
 9016SOL     OW27946   6.520   5.739   6.723
 9016SOL    HW127947   6.561   5.652   6.750
 9016SOL    HW227948   6.478   5.782   6.803
 9017SOL     OW27949   4.650   1.330   4.117
 9017SOL    HW127950   4.684   1.361   4.206
 9017SOL    HW227951   4.552   1.350   4.111
 9018SOL     OW27952   2.545   3.680   5.550
 9018SOL    HW127953   2.643   3.682   5.566
 9018SOL    HW227954   2.513   3.586   5.546
 9019SOL     OW27955   1.254   5.246   2.728
 9019SOL    HW127956   1.206   5.288   2.805
 9019SOL    HW227957   1.223   5.151   2.717
 9020SOL     OW27958   6.813   4.293   0.958
 9020SOL    HW127959   6.824   4.393   0.957
 9020SOL    HW227960   6.883   4.253   1.017
 9021SOL     OW27961   6.823   1.466   3.334
 9021SOL    HW127962   6.737   1.462   3.284
 9021SOL    HW227963   6.900   1.451   3.271
 9022SOL     OW27964   3.417   1.435   0.198
 9022SOL    HW127965   3.408   1.426   0.099
 9022SOL    HW227966   3.381   1.524   0.227
 9023SOL     OW27967   3.944   3.743   1.731
 9023SOL    HW127968   3.970   3.713   1.823
 9023SOL    HW227969   3.854   3.704   1.708
 9024SOL     OW27970   1.325   3.961   5.463
 9024SOL    HW127971   1.391   3.984   5.534
 9024SOL    HW227972   1.305   3.863   5.466
 9025SOL     OW27973   0.492   5.066   0.784
 9025SOL    HW127974   0.531   5.002   0.718
 9025SOL    HW227975   0.438   5.135   0.735
 9026SOL     OW27976   3.732   2.108   1.347
 9026SOL    HW127977   3.757   2.202   1.368
 9026SOL    HW227978   3.737   2.053   1.431
 9027SOL     OW27979   0.405   3.335   3.071
 9027SOL    HW127980   0.353   3.284   3.139
 9027SOL    HW227981   0.432   3.274   2.997
 9028SOL     OW27982   3.340   3.071   5.178
 9028SOL    HW127983   3.364   3.146   5.239
 9028SOL    HW227984   3.423   3.027   5.144
 9029SOL     OW27985   4.018   6.566   4.925
 9029SOL    HW127986   3.937   6.531   4.878
 9029SOL    HW227987   4.100   6.541   4.873
 9030SOL     OW27988   2.370   1.929   3.813
 9030SOL    HW127989   2.370   2.023   3.778
 9030SOL    HW227990   2.438   1.875   3.762
 9031SOL     OW27991   4.077   6.853   4.432
 9031SOL    HW127992   4.070   6.768   4.484
 9031SOL    HW227993   4.060   6.930   4.493
 9032SOL     OW27994   4.663   4.476   0.855
 9032SOL    HW127995   4.744   4.493   0.799
 9032SOL    HW227996   4.680   4.400   0.917
 9033SOL     OW27997   0.931   4.834   2.751
 9033SOL    HW127998   0.972   4.781   2.677
 9033SOL    HW227999   0.971   4.807   2.838
 9034SOL     OW28000   3.208   5.794   4.646
 9034SOL    HW128001   3.260   5.763   4.567
 9034SOL    HW228002   3.145   5.866   4.619
 9035SOL     OW28003   2.512   5.097   0.149
 9035SOL    HW128004   2.573   5.042   0.092
 9035SOL    HW228005   2.423   5.105   0.104
 9036SOL     OW28006   2.157   3.395   5.743
 9036SOL    HW128007   2.158   3.451   5.660
 9036SOL    HW228008   2.247   3.355   5.759
 9037SOL     OW28009   1.379   3.567   3.503
 9037SOL    HW128010   1.419   3.541   3.590
 9037SOL    HW228011   1.288   3.525   3.494
 9038SOL     OW28012   4.406   2.550   6.845
 9038SOL    HW128013   4.467   2.626   6.827
 9038SOL    HW228014   4.343   2.537   6.769
 9039SOL     OW28015   2.377   4.723   6.484
 9039SOL    HW128016   2.292   4.677   6.511
 9039SOL    HW228017   2.358   4.787   6.410
 9040SOL     OW28018   2.781   2.341   2.488
 9040SOL    HW128019   2.697   2.371   2.533
 9040SOL    HW228020   2.848   2.313   2.557
 9041SOL     OW28021   1.094   2.139   0.704
 9041SOL    HW128022   1.031   2.189   0.643
 9041SOL    HW228023   1.042   2.075   0.760
 9042SOL     OW28024   3.766   0.309   4.365
 9042SOL    HW128025   3.757   0.293   4.267
 9042SOL    HW228026   3.862   0.300   4.392
 9043SOL     OW28027   2.570   1.264   6.424
 9043SOL    HW128028   2.655   1.267   6.372
 9043SOL    HW228029   2.514   1.345   6.402
 9044SOL     OW28030   6.996   0.926   0.476
 9044SOL    HW128031   0.057   0.950   0.521
 9044SOL    HW228032   6.989   0.826   0.468
 9045SOL     OW28033   3.537   0.806   2.420
 9045SOL    HW128034   3.518   0.818   2.518
 9045SOL    HW228035   3.603   0.732   2.408
 9046SOL     OW28036   3.566   4.146   2.894
 9046SOL    HW128037   3.656   4.101   2.900
 9046SOL    HW228038   3.546   4.190   2.981
 9047SOL     OW28039   1.417   3.520   4.682
 9047SOL    HW128040   1.375   3.562   4.602
 9047SOL    HW228041   1.355   3.451   4.720
 9048SOL     OW28042   6.440   2.730   6.184
 9048SOL    HW128043   6.478   2.717   6.093
 9048SOL    HW228044   6.476   2.660   6.246
 9049SOL     OW28045   4.513   6.313   5.568
 9049SOL    HW128046   4.456   6.304   5.486
 9049SOL    HW228047   4.485   6.244   5.636
 9050SOL     OW28048   0.220   3.818   1.443
 9050SOL    HW128049   0.195   3.856   1.354
 9050SOL    HW228050   0.263   3.729   1.430
 9051SOL     OW28051   2.353   0.024   1.419
 9051SOL    HW128052   2.344   6.958   1.381
 9051SOL    HW228053   2.412   0.021   1.500
 9052SOL     OW28054   2.268   3.004   4.005
 9052SOL    HW128055   2.172   3.026   3.987
 9052SOL    HW228056   2.300   2.935   3.941
 9053SOL     OW28057   2.180   0.841   1.726
 9053SOL    HW128058   2.094   0.866   1.771
 9053SOL    HW228059   2.208   0.749   1.756
 9054SOL     OW28060   2.769   5.921   4.992
 9054SOL    HW128061   2.819   5.835   4.984
 9054SOL    HW228062   2.826   5.997   4.959
 9055SOL     OW28063   6.192   2.520   3.683
 9055SOL    HW128064   6.197   2.605   3.736
 9055SOL    HW228065   6.280   2.473   3.688
 9056SOL     OW28066   0.098   2.105   1.642
 9056SOL    HW128067   0.139   2.049   1.713
 9056SOL    HW228068   0.132   2.077   1.553
 9057SOL     OW28069   4.565   2.446   5.043
 9057SOL    HW128070   4.649   2.452   5.098
 9057SOL    HW228071   4.552   2.532   4.993
 9058SOL     OW28072   1.558   1.370   1.734
 9058SOL    HW128073   1.576   1.337   1.641
 9058SOL    HW228074   1.469   1.336   1.765
 9059SOL     OW28075   1.251   2.202   3.146
 9059SOL    HW128076   1.281   2.230   3.237
 9059SOL    HW228077   1.278   2.271   3.079
 9060SOL     OW28078   5.883   2.803   4.527
 9060SOL    HW128079   5.876   2.845   4.617
 9060SOL    HW228080   5.976   2.815   4.492
 9061SOL     OW28081   3.118   5.566   2.387
 9061SOL    HW128082   3.132   5.560   2.486
 9061SOL    HW228083   3.051   5.497   2.359
 9062SOL     OW28084   1.163   6.252   1.389
 9062SOL    HW128085   1.154   6.303   1.303
 9062SOL    HW228086   1.158   6.316   1.466
 9063SOL     OW28087   2.876   0.088   3.646
 9063SOL    HW128088   2.962   0.045   3.674
 9063SOL    HW228089   2.860   0.169   3.702
 9064SOL     OW28090   6.367   3.455   6.376
 9064SOL    HW128091   6.318   3.490   6.456
 9064SOL    HW228092   6.355   3.519   6.300
 9065SOL     OW28093   3.840   0.275   0.205
 9065SOL    HW128094   3.931   0.233   0.193
 9065SOL    HW228095   3.850   0.364   0.250
 9066SOL     OW28096   4.939   0.051   0.022
 9066SOL    HW128097   5.035   0.071   0.044
 9066SOL    HW228098   4.907   7.000   0.076
 9067SOL     OW28099   1.331   0.579   3.667
 9067SOL    HW128100   1.245   0.613   3.628
 9067SOL    HW228101   1.406   0.639   3.640
 9068SOL     OW28102   1.435   6.817   4.836
 9068SOL    HW128103   1.510   6.779   4.890
 9068SOL    HW228104   1.396   6.744   4.779
 9069SOL     OW28105   1.155   3.046   7.008
 9069SOL    HW128106   1.183   3.061   6.913
 9069SOL    HW228107   1.168   2.950   0.006
 9070SOL     OW28108   1.849   3.530   5.095
 9070SOL    HW128109   1.900   3.591   5.034
 9070SOL    HW228110   1.842   3.439   5.053
 9071SOL     OW28111   6.605   6.404   0.680
 9071SOL    HW128112   6.666   6.419   0.603
 9071SOL    HW228113   6.645   6.336   0.742
 9072SOL     OW28114   6.784   3.055   0.951
 9072SOL    HW128115   6.775   2.960   0.923
 9072SOL    HW228116   6.694   3.095   0.966
 9073SOL     OW28117   2.035   6.846   2.052
 9073SOL    HW128118   1.996   6.754   2.045
 9073SOL    HW228119   1.965   6.909   2.085
 9074SOL     OW28120   1.287   0.746   2.719
 9074SOL    HW128121   1.376   0.789   2.733
 9074SOL    HW228122   1.245   0.725   2.808
 9075SOL     OW28123   6.888   1.268   2.275
 9075SOL    HW128124   6.820   1.285   2.347
 9075SOL    HW228125   6.851   1.202   2.209
 9076SOL     OW28126   0.862   1.104   6.676
 9076SOL    HW128127   0.788   1.167   6.700
 9076SOL    HW228128   0.908   1.136   6.593
 9077SOL     OW28129   4.460   6.196   1.755
 9077SOL    HW128130   4.521   6.223   1.680
 9077SOL    HW228131   4.515   6.165   1.833
 9078SOL     OW28132   3.335   2.895   4.546
 9078SOL    HW128133   3.324   2.850   4.635
 9078SOL    HW228134   3.282   2.979   4.544
 9079SOL     OW28135   2.717   0.554   4.465
 9079SOL    HW128136   2.774   0.483   4.424
 9079SOL    HW228137   2.775   0.632   4.491
 9080SOL     OW28138   5.339   2.677   6.538
 9080SOL    HW128139   5.246   2.698   6.505
 9080SOL    HW228140   5.405   2.698   6.466
 9081SOL     OW28141   5.080   6.099   2.937
 9081SOL    HW128142   5.155   6.074   2.998
 9081SOL    HW228143   5.007   6.031   2.944
 9082SOL     OW28144   1.479   0.038   4.681
 9082SOL    HW128145   1.573   0.008   4.665
 9082SOL    HW228146   1.437   7.006   4.750
 9083SOL     OW28147   4.987   4.637   6.161
 9083SOL    HW128148   5.010   4.589   6.076
 9083SOL    HW228149   4.891   4.665   6.159
 9084SOL     OW28150   3.765   3.731   3.127
 9084SOL    HW128151   3.692   3.799   3.131
 9084SOL    HW228152   3.758   3.670   3.206
 9085SOL     OW28153   2.258   0.894   0.840
 9085SOL    HW128154   2.240   0.984   0.801
 9085SOL    HW228155   2.184   0.869   0.902
 9086SOL     OW28156   0.478   4.496   0.538
 9086SOL    HW128157   0.497   4.482   0.635
 9086SOL    HW228158   0.383   4.524   0.526
 9087SOL     OW28159   5.186   2.771   2.521
 9087SOL    HW128160   5.216   2.755   2.427
 9087SOL    HW228161   5.255   2.825   2.570
 9088SOL     OW28162   6.286   0.392   0.388
 9088SOL    HW128163   6.370   0.377   0.337
 9088SOL    HW228164   6.309   0.427   0.479
 9089SOL     OW28165   4.953   6.443   5.597
 9089SOL    HW128166   4.952   6.534   5.554
 9089SOL    HW228167   5.039   6.397   5.574
 9090SOL     OW28168   6.243   1.108   5.061
 9090SOL    HW128169   6.257   1.058   4.976
 9090SOL    HW228170   6.147   1.136   5.069
 9091SOL     OW28171   3.083   3.215   6.463
 9091SOL    HW128172   3.060   3.312   6.469
 9091SOL    HW228173   3.137   3.189   6.542
 9092SOL     OW28174   6.715   1.197   0.207
 9092SOL    HW128175   6.704   1.111   0.157
 9092SOL    HW228176   6.712   1.274   0.143
 9093SOL     OW28177   1.664   5.927   5.240
 9093SOL    HW128178   1.652   5.976   5.327
 9093SOL    HW228179   1.575   5.917   5.196
 9094SOL     OW28180   0.588   3.842   3.092
 9094SOL    HW128181   0.688   3.840   3.089
 9094SOL    HW228182   0.552   3.766   3.038
 9095SOL     OW28183   4.445   4.695   5.516
 9095SOL    HW128184   4.379   4.631   5.556
 9095SOL    HW228185   4.532   4.648   5.500
 9096SOL     OW28186   6.741   4.751   3.460
 9096SOL    HW128187   6.666   4.697   3.421
 9096SOL    HW228188   6.712   4.846   3.469
 9097SOL     OW28189   1.229   2.666   6.381
 9097SOL    HW128190   1.212   2.696   6.287
 9097SOL    HW228191   1.155   2.605   6.410
 9098SOL     OW28192   2.170   2.103   5.188
 9098SOL    HW128193   2.249   2.162   5.175
 9098SOL    HW228194   2.095   2.134   5.130
 9099SOL     OW28195   2.632   2.733   6.402
 9099SOL    HW128196   2.681   2.758   6.319
 9099SOL    HW228197   2.552   2.792   6.412
 9100SOL     OW28198   0.715   3.610   2.469
 9100SOL    HW128199   0.697   3.670   2.547
 9100SOL    HW228200   0.805   3.568   2.479
 9101SOL     OW28201   2.861   1.359   2.617
 9101SOL    HW128202   2.862   1.416   2.536
 9101SOL    HW228203   2.793   1.393   2.682
 9102SOL     OW28204   4.466   6.512   2.321
 9102SOL    HW128205   4.501   6.589   2.375
 9102SOL    HW228206   4.504   6.516   2.229
 9103SOL     OW28207   5.996   1.306   6.896
 9103SOL    HW128208   6.029   1.284   6.988
 9103SOL    HW228209   6.064   1.362   6.849
 9104SOL     OW28210   6.744   0.686   1.349
 9104SOL    HW128211   6.736   0.598   1.396
 9104SOL    HW228212   6.836   0.695   1.312
 9105SOL     OW28213   0.970   6.834   5.569
 9105SOL    HW128214   0.911   6.839   5.488
 9105SOL    HW228215   1.011   6.924   5.586
 9106SOL     OW28216   0.623   4.211   0.215
 9106SOL    HW128217   0.649   4.303   0.243
 9106SOL    HW228218   0.523   4.202   0.220
 9107SOL     OW28219   2.687   0.118   6.372
 9107SOL    HW128220   2.702   0.182   6.447
 9107SOL    HW228221   2.588   0.109   6.355
 9108SOL     OW28222   5.361   5.035   5.555
 9108SOL    HW128223   5.352   5.039   5.455
 9108SOL    HW228224   5.423   4.962   5.581
 9109SOL     OW28225   5.006   3.192   2.444
 9109SOL    HW128226   5.020   3.250   2.525
 9109SOL    HW228227   4.963   3.107   2.471
 9110SOL     OW28228   0.796   5.810   4.701
 9110SOL    HW128229   0.873   5.832   4.760
 9110SOL    HW228230   0.779   5.885   4.637
 9111SOL     OW28231   4.686   3.095   5.745
 9111SOL    HW128232   4.668   3.010   5.695
 9111SOL    HW228233   4.632   3.095   5.830
 9112SOL     OW28234   1.941   5.113   2.850
 9112SOL    HW128235   1.928   5.029   2.903
 9112SOL    HW228236   1.960   5.189   2.912
 9113SOL     OW28237   5.365   2.579   3.424
 9113SOL    HW128238   5.453   2.614   3.456
 9113SOL    HW228239   5.374   2.481   3.405
 9114SOL     OW28240   1.592   5.917   4.286
 9114SOL    HW128241   1.687   5.933   4.260
 9114SOL    HW228242   1.533   5.983   4.239
 9115SOL     OW28243   5.481   4.763   3.493
 9115SOL    HW128244   5.559   4.722   3.541
 9115SOL    HW228245   5.513   4.842   3.441
 9116SOL     OW28246   0.412   6.846   3.342
 9116SOL    HW128247   0.384   6.932   3.384
 9116SOL    HW228248   0.389   6.847   3.244
 9117SOL     OW28249   4.173   1.407   6.897
 9117SOL    HW128250   4.119   1.330   6.931
 9117SOL    HW228251   4.250   1.423   6.959
 9118SOL     OW28252   6.112   3.639   0.670
 9118SOL    HW128253   6.185   3.698   0.704
 9118SOL    HW228254   6.142   3.543   0.676
 9119SOL     OW28255   3.601   6.532   1.069
 9119SOL    HW128256   3.613   6.471   0.990
 9119SOL    HW228257   3.688   6.575   1.091
 9120SOL     OW28258   6.632   2.604   6.354
 9120SOL    HW128259   6.694   2.554   6.293
 9120SOL    HW228260   6.613   2.549   6.435
 9121SOL     OW28261   4.151   0.593   5.191
 9121SOL    HW128262   4.179   0.546   5.274
 9121SOL    HW228263   4.157   0.531   5.113
 9122SOL     OW28264   2.325   3.977   1.898
 9122SOL    HW128265   2.348   3.990   1.995
 9122SOL    HW228266   2.336   3.880   1.874
 9123SOL     OW28267   1.638   0.029   3.318
 9123SOL    HW128268   1.542   0.001   3.322
 9123SOL    HW228269   1.685   7.023   3.400
 9124SOL     OW28270   3.845   4.984   1.507
 9124SOL    HW128271   3.894   4.921   1.446
 9124SOL    HW228272   3.762   4.940   1.540
 9125SOL     OW28273   3.396   5.751   7.017
 9125SOL    HW128274   3.417   5.696   6.936
 9125SOL    HW228275   3.348   5.834   6.990
 9126SOL     OW28276   4.479   4.541   1.037
 9126SOL    HW128277   4.503   4.485   1.117
 9126SOL    HW228278   4.554   4.537   0.970
 9127SOL     OW28279   6.968   3.974   4.836
 9127SOL    HW128280   6.941   3.931   4.922
 9127SOL    HW228281   0.039   3.959   4.821
 9128SOL     OW28282   5.898   2.954   4.762
 9128SOL    HW128283   5.976   3.007   4.729
 9128SOL    HW228284   5.873   2.985   4.854
 9129SOL     OW28285   2.051   1.954   0.874
 9129SOL    HW128286   1.964   1.951   0.925
 9129SOL    HW228287   2.127   1.962   0.939
 9130SOL     OW28288   3.047   4.544   5.572
 9130SOL    HW128289   3.113   4.618   5.582
 9130SOL    HW228290   2.958   4.581   5.545
 9131SOL     OW28291   6.457   2.838   0.987
 9131SOL    HW128292   6.554   2.851   0.968
 9131SOL    HW228293   6.417   2.781   0.916
 9132SOL     OW28294   1.035   4.642   3.582
 9132SOL    HW128295   1.125   4.619   3.547
 9132SOL    HW228296   0.986   4.558   3.606
 9133SOL     OW28297   3.973   0.540   0.882
 9133SOL    HW128298   3.953   0.562   0.978
 9133SOL    HW228299   4.032   0.459   0.878
 9134SOL     OW28300   4.652   5.154   1.033
 9134SOL    HW128301   4.745   5.167   0.998
 9134SOL    HW228302   4.596   5.234   1.011
 9135SOL     OW28303   1.309   5.998   1.469
 9135SOL    HW128304   1.358   5.944   1.400
 9135SOL    HW228305   1.261   6.073   1.424
 9136SOL     OW28306   5.358   5.164   6.091
 9136SOL    HW128307   5.282   5.117   6.046
 9136SOL    HW228308   5.372   5.124   6.182
 9137SOL     OW28309   4.790   6.413   6.315
 9137SOL    HW128310   4.724   6.338   6.320
 9137SOL    HW228311   4.748   6.496   6.351
 9138SOL     OW28312   2.835   2.694   0.422
 9138SOL    HW128313   2.741   2.726   0.426
 9138SOL    HW228314   2.880   2.731   0.340
 9139SOL     OW28315   0.055   6.920   1.120
 9139SOL    HW128316   0.005   6.991   1.169
 9139SOL    HW228317   0.149   6.916   1.152
 9140SOL     OW28318   0.592   3.960   2.592
 9140SOL    HW128319   0.561   3.938   2.500
 9140SOL    HW228320   0.604   3.876   2.644
 9141SOL     OW28321   0.068   5.573   5.865
 9141SOL    HW128322   0.015   5.628   5.801
 9141SOL    HW228323   0.006   5.508   5.911
 9142SOL     OW28324   1.162   3.820   2.746
 9142SOL    HW128325   1.117   3.733   2.730
 9142SOL    HW228326   1.126   3.862   2.829
 9143SOL     OW28327   0.348   3.747   2.978
 9143SOL    HW128328   0.366   3.668   2.920
 9143SOL    HW228329   0.287   3.811   2.931
 9144SOL     OW28330   2.752   5.112   4.994
 9144SOL    HW128331   2.796   5.085   5.080
 9144SOL    HW228332   2.657   5.135   5.012
 9145SOL     OW28333   1.012   6.881   6.601
 9145SOL    HW128334   1.024   6.901   6.698
 9145SOL    HW228335   0.914   6.869   6.582
 9146SOL     OW28336   5.710   3.200   3.224
 9146SOL    HW128337   5.725   3.108   3.189
 9146SOL    HW228338   5.739   3.267   3.156
 9147SOL     OW28339   5.605   6.826   3.955
 9147SOL    HW128340   5.622   6.858   3.862
 9147SOL    HW228341   5.667   6.751   3.977
 9148SOL     OW28342   6.713   0.067   1.338
 9148SOL    HW128343   6.645   0.138   1.352
 9148SOL    HW228344   6.763   0.084   1.253
 9149SOL     OW28345   6.134   4.077   1.209
 9149SOL    HW128346   6.118   4.050   1.115
 9149SOL    HW228347   6.232   4.092   1.223
 9150SOL     OW28348   2.594   4.334   6.867
 9150SOL    HW128349   2.668   4.275   6.900
 9150SOL    HW228350   2.614   4.365   6.774
 9151SOL     OW28351   1.625   3.715   3.937
 9151SOL    HW128352   1.559   3.790   3.928
 9151SOL    HW228353   1.710   3.739   3.891
 9152SOL     OW28354   1.894   4.230   3.931
 9152SOL    HW128355   1.841   4.159   3.978
 9152SOL    HW228356   1.962   4.268   3.994
 9153SOL     OW28357   0.385   2.232   6.572
 9153SOL    HW128358   0.304   2.290   6.575
 9153SOL    HW228359   0.396   2.185   6.660
 9154SOL     OW28360   5.803   5.255   3.357
 9154SOL    HW128361   5.800   5.244   3.258
 9154SOL    HW228362   5.828   5.349   3.379
 9155SOL     OW28363   0.897   5.931   2.479
 9155SOL    HW128364   0.872   5.998   2.409
 9155SOL    HW228365   0.818   5.910   2.535
 9156SOL     OW28366   6.965   3.925   0.308
 9156SOL    HW128367   6.952   3.886   0.217
 9156SOL    HW228368   0.021   3.982   0.308
 9157SOL     OW28369   3.258   4.297   6.628
 9157SOL    HW128370   3.353   4.267   6.622
 9157SOL    HW228371   3.202   4.241   6.566
 9158SOL     OW28372   0.423   3.929   3.796
 9158SOL    HW128373   0.470   3.858   3.743
 9158SOL    HW228374   0.442   3.916   3.893
 9159SOL     OW28375   3.460   0.091   3.333
 9159SOL    HW128376   3.486   0.002   3.368
 9159SOL    HW228377   3.369   0.086   3.293
 9160SOL     OW28378   0.531   4.970   6.665
 9160SOL    HW128379   0.450   5.015   6.628
 9160SOL    HW228380   0.530   4.979   6.765
 9161SOL     OW28381   5.591   3.857   1.590
 9161SOL    HW128382   5.512   3.818   1.639
 9161SOL    HW228383   5.569   3.867   1.493
 9162SOL     OW28384   4.944   2.239   2.197
 9162SOL    HW128385   4.924   2.149   2.237
 9162SOL    HW228386   4.890   2.309   2.244
 9163SOL     OW28387   1.654   1.676   3.083
 9163SOL    HW128388   1.581   1.618   3.048
 9163SOL    HW228389   1.620   1.769   3.098
 9164SOL     OW28390   2.564   0.584   6.994
 9164SOL    HW128391   2.530   0.676   6.972
 9164SOL    HW228392   2.664   0.586   6.997
 9165SOL     OW28393   4.689   2.542   5.462
 9165SOL    HW128394   4.701   2.506   5.554
 9165SOL    HW228395   4.720   2.637   5.459
 9166SOL     OW28396   5.004   5.833   2.063
 9166SOL    HW128397   4.922   5.798   2.018
 9166SOL    HW228398   4.985   5.923   2.102
 9167SOL     OW28399   1.092   1.050   5.735
 9167SOL    HW128400   1.190   1.030   5.734
 9167SOL    HW228401   1.076   1.140   5.774
 9168SOL     OW28402   6.458   5.676   4.626
 9168SOL    HW128403   6.401   5.604   4.585
 9168SOL    HW228404   6.542   5.635   4.661
 9169SOL     OW28405   6.251   6.277   0.014
 9169SOL    HW128406   6.282   6.308   0.104
 9169SOL    HW228407   6.156   6.246   0.021
 9170SOL     OW28408   1.202   1.551   6.346
 9170SOL    HW128409   1.149   1.612   6.404
 9170SOL    HW228410   1.244   1.604   6.272
 9171SOL     OW28411   3.521   4.619   0.832
 9171SOL    HW128412   3.504   4.531   0.877
 9171SOL    HW228413   3.521   4.692   0.900
 9172SOL     OW28414   5.282   1.402   4.696
 9172SOL    HW128415   5.280   1.327   4.763
 9172SOL    HW228416   5.210   1.468   4.719
 9173SOL     OW28417   6.276   2.483   4.041
 9173SOL    HW128418   6.248   2.396   4.003
 9173SOL    HW228419   6.266   2.481   4.141
 9174SOL     OW28420   0.917   5.695   6.869
 9174SOL    HW128421   0.908   5.780   6.818
 9174SOL    HW228422   1.004   5.695   6.919
 9175SOL     OW28423   1.836   6.921   6.899
 9175SOL    HW128424   1.860   6.825   6.914
 9175SOL    HW228425   1.909   6.980   6.932
 9176SOL     OW28426   1.661   1.346   2.646
 9176SOL    HW128427   1.664   1.351   2.746
 9176SOL    HW228428   1.570   1.315   2.618
 9177SOL     OW28429   0.340   4.447   3.688
 9177SOL    HW128430   0.342   4.479   3.783
 9177SOL    HW228431   0.245   4.435   3.658
 9178SOL     OW28432   1.858   6.198   0.367
 9178SOL    HW128433   1.798   6.119   0.364
 9178SOL    HW228434   1.819   6.272   0.312
 9179SOL     OW28435   4.288   6.243   5.108
 9179SOL    HW128436   4.304   6.219   5.012
 9179SOL    HW228437   4.220   6.316   5.113
 9180SOL     OW28438   6.852   2.012   3.925
 9180SOL    HW128439   6.776   2.076   3.935
 9180SOL    HW228440   6.939   2.063   3.926
 9181SOL     OW28441   3.807   1.882   3.693
 9181SOL    HW128442   3.769   1.800   3.735
 9181SOL    HW228443   3.904   1.889   3.715
 9182SOL     OW28444   2.203   1.339   3.366
 9182SOL    HW128445   2.263   1.259   3.366
 9182SOL    HW228446   2.109   1.310   3.386
 9183SOL     OW28447   5.643   2.783   6.146
 9183SOL    HW128448   5.660   2.872   6.188
 9183SOL    HW228449   5.656   2.790   6.047
 9184SOL     OW28450   3.842   3.027   1.202
 9184SOL    HW128451   3.882   3.000   1.290
 9184SOL    HW228452   3.914   3.062   1.142
 9185SOL     OW28453   0.376   0.478   6.637
 9185SOL    HW128454   0.467   0.516   6.618
 9185SOL    HW228455   0.340   0.435   6.554
 9186SOL     OW28456   5.289   0.684   6.160
 9186SOL    HW128457   5.323   0.638   6.078
 9186SOL    HW228458   5.217   0.628   6.202
 9187SOL     OW28459   5.207   1.642   0.390
 9187SOL    HW128460   5.155   1.719   0.427
 9187SOL    HW228461   5.251   1.593   0.465
 9188SOL     OW28462   0.770   6.832   2.012
 9188SOL    HW128463   0.824   6.914   1.998
 9188SOL    HW228464   0.716   6.812   1.930
 9189SOL     OW28465   3.318   1.491   3.899
 9189SOL    HW128466   3.269   1.409   3.929
 9189SOL    HW228467   3.396   1.508   3.959
 9190SOL     OW28468   5.892   4.189   5.374
 9190SOL    HW128469   5.800   4.211   5.409
 9190SOL    HW228470   5.905   4.234   5.286
 9191SOL     OW28471   4.979   6.434   6.114
 9191SOL    HW128472   4.965   6.353   6.058
 9191SOL    HW228473   4.916   6.432   6.192
 9192SOL     OW28474   6.821   4.102   5.785
 9192SOL    HW128475   6.762   4.085   5.864
 9192SOL    HW228476   6.812   4.198   5.757
 9193SOL     OW28477   3.795   2.940   3.431
 9193SOL    HW128478   3.854   2.866   3.398
 9193SOL    HW228479   3.742   2.907   3.510
 9194SOL     OW28480   2.765   5.454   2.998
 9194SOL    HW128481   2.821   5.461   3.081
 9194SOL    HW228482   2.770   5.361   2.963
 9195SOL     OW28483   0.723   2.789   3.596
 9195SOL    HW128484   0.675   2.801   3.509
 9195SOL    HW228485   0.808   2.841   3.595
 9196SOL     OW28486   4.120   0.350   2.755
 9196SOL    HW128487   4.213   0.386   2.764
 9196SOL    HW228488   4.063   0.416   2.706
 9197SOL     OW28489   3.159   2.887   6.445
 9197SOL    HW128490   3.090   2.959   6.448
 9197SOL    HW228491   3.129   2.815   6.382
 9198SOL     OW28492   5.919   2.986   5.895
 9198SOL    HW128493   5.914   3.045   5.815
 9198SOL    HW228494   5.847   2.916   5.890
 9199SOL     OW28495   1.754   4.244   6.516
 9199SOL    HW128496   1.754   4.163   6.574
 9199SOL    HW228497   1.747   4.326   6.573
 9200SOL     OW28498   6.427   0.124   0.286
 9200SOL    HW128499   6.469   0.063   0.353
 9200SOL    HW228500   6.478   0.210   0.282
 9201SOL     OW28501   0.181   4.004   2.171
 9201SOL    HW128502   0.133   3.919   2.195
 9201SOL    HW228503   0.261   3.981   2.115
 9202SOL     OW28504   2.697   5.121   4.355
 9202SOL    HW128505   2.746   5.158   4.277
 9202SOL    HW228506   2.761   5.074   4.416
 9203SOL     OW28507   5.116   1.061   5.529
 9203SOL    HW128508   5.119   1.088   5.625
 9203SOL    HW228509   5.030   1.013   5.510
 9204SOL     OW28510   5.653   4.117   2.796
 9204SOL    HW128511   5.753   4.108   2.793
 9204SOL    HW228512   5.623   4.171   2.718
 9205SOL     OW28513   5.808   2.691   2.932
 9205SOL    HW128514   5.721   2.736   2.909
 9205SOL    HW228515   5.795   2.631   3.011
 9206SOL     OW28516   1.384   6.557   3.418
 9206SOL    HW128517   1.460   6.530   3.476
 9206SOL    HW228518   1.298   6.546   3.469
 9207SOL     OW28519   4.107   6.234   6.825
 9207SOL    HW128520   4.016   6.266   6.801
 9207SOL    HW228521   4.164   6.311   6.852
 9208SOL     OW28522   5.182   3.446   2.063
 9208SOL    HW128523   5.176   3.358   2.110
 9208SOL    HW228524   5.091   3.486   2.056
 9209SOL     OW28525   3.888   1.156   2.497
 9209SOL    HW128526   3.801   1.107   2.499
 9209SOL    HW228527   3.941   1.136   2.579
 9210SOL     OW28528   2.239   6.986   1.146
 9210SOL    HW128529   2.204   6.975   1.053
 9210SOL    HW228530   2.208   0.047   1.183
 9211SOL     OW28531   5.119   1.831   6.775
 9211SOL    HW128532   5.093   1.857   6.682
 9211SOL    HW228533   5.090   1.737   6.794
 9212SOL     OW28534   5.582   4.612   4.564
 9212SOL    HW128535   5.681   4.613   4.579
 9212SOL    HW228536   5.540   4.684   4.619
 9213SOL     OW28537   6.000   6.654   3.567
 9213SOL    HW128538   5.925   6.602   3.526
 9213SOL    HW228539   6.027   6.612   3.653
 9214SOL     OW28540   2.468   2.330   4.467
 9214SOL    HW128541   2.369   2.343   4.478
 9214SOL    HW228542   2.514   2.418   4.477
 9215SOL     OW28543   0.335   4.034   2.720
 9215SOL    HW128544   0.308   4.130   2.729
 9215SOL    HW228545   0.425   4.028   2.677
 9216SOL     OW28546   2.523   6.038   5.099
 9216SOL    HW128547   2.607   5.985   5.083
 9216SOL    HW228548   2.448   5.976   5.122
 9217SOL     OW28549   4.559   1.228   6.386
 9217SOL    HW128550   4.469   1.195   6.357
 9217SOL    HW228551   4.547   1.297   6.458
 9218SOL     OW28552   6.024   6.221   5.994
 9218SOL    HW128553   5.929   6.231   6.023
 9218SOL    HW228554   6.083   6.215   6.075
 9219SOL     OW28555   3.664   3.207   5.202
 9219SOL    HW128556   3.655   3.108   5.187
 9219SOL    HW228557   3.591   3.238   5.263
 9220SOL     OW28558   1.640   6.685   2.991
 9220SOL    HW128559   1.596   6.664   3.079
 9220SOL    HW228560   1.605   6.623   2.921
 9221SOL     OW28561   2.370   0.750   6.635
 9221SOL    HW128562   2.374   0.835   6.582
 9221SOL    HW228563   2.409   0.765   6.725
 9222SOL     OW28564   1.690   4.225   3.266
 9222SOL    HW128565   1.763   4.271   3.215
 9222SOL    HW228566   1.601   4.264   3.239
 9223SOL     OW28567   1.244   3.696   4.553
 9223SOL    HW128568   1.228   3.794   4.566
 9223SOL    HW228569   1.258   3.678   4.455
 9224SOL     OW28570   1.940   4.367   3.662
 9224SOL    HW128571   2.036   4.364   3.635
 9224SOL    HW228572   1.929   4.320   3.749
 9225SOL     OW28573   4.534   0.092   6.379
 9225SOL    HW128574   4.627   0.075   6.347
 9225SOL    HW228575   4.517   0.038   6.462
 9226SOL     OW28576   1.072   0.129   0.671
 9226SOL    HW128577   1.072   0.051   0.733
 9226SOL    HW228578   0.978   0.161   0.657
 9227SOL     OW28579   2.723   5.182   0.895
 9227SOL    HW128580   2.718   5.273   0.936
 9227SOL    HW228581   2.764   5.189   0.804
 9228SOL     OW28582   3.126   2.535   5.717
 9228SOL    HW128583   3.158   2.453   5.765
 9228SOL    HW228584   3.046   2.513   5.662
 9229SOL     OW28585   0.082   4.787   6.937
 9229SOL    HW128586   0.039   4.816   7.023
 9229SOL    HW228587   0.041   4.836   6.861
 9230SOL     OW28588   4.856   1.653   3.900
 9230SOL    HW128589   4.902   1.565   3.915
 9230SOL    HW228590   4.761   1.636   3.871
 9231SOL     OW28591   0.763   5.336   5.008
 9231SOL    HW128592   0.701   5.396   5.059
 9231SOL    HW228593   0.744   5.343   4.910
 9232SOL     OW28594   1.523   5.210   1.519
 9232SOL    HW128595   1.461   5.192   1.596
 9232SOL    HW228596   1.581   5.288   1.541
 9233SOL     OW28597   0.973   0.560   0.106
 9233SOL    HW128598   1.033   0.481   0.121
 9233SOL    HW228599   1.029   0.643   0.095
 9234SOL     OW28600   2.377   4.661   0.781
 9234SOL    HW128601   2.283   4.693   0.776
 9234SOL    HW228602   2.380   4.562   0.766
 9235SOL     OW28603   2.521   2.607   4.413
 9235SOL    HW128604   2.575   2.559   4.343
 9235SOL    HW228605   2.507   2.702   4.384
 9236SOL     OW28606   2.015   3.132   6.660
 9236SOL    HW128607   1.992   3.222   6.623
 9236SOL    HW228608   2.051   3.142   6.753
 9237SOL     OW28609   5.855   5.426   3.104
 9237SOL    HW128610   5.905   5.466   3.027
 9237SOL    HW228611   5.843   5.494   3.175
 9238SOL     OW28612   1.413   3.020   5.153
 9238SOL    HW128613   1.381   2.926   5.153
 9238SOL    HW228614   1.381   3.065   5.237
 9239SOL     OW28615   0.708   4.812   0.051
 9239SOL    HW128616   0.751   4.744   7.018
 9239SOL    HW228617   0.646   4.766   0.115
 9240SOL     OW28618   4.737   2.809   3.046
 9240SOL    HW128619   4.830   2.847   3.049
 9240SOL    HW228620   4.737   2.727   2.990
 9241SOL     OW28621   5.931   6.417   0.628
 9241SOL    HW128622   5.835   6.411   0.602
 9241SOL    HW228623   5.949   6.359   0.707
 9242SOL     OW28624   1.275   2.176   1.600
 9242SOL    HW128625   1.327   2.238   1.659
 9242SOL    HW228626   1.312   2.178   1.508
 9243SOL     OW28627   0.778   0.513   1.223
 9243SOL    HW128628   0.711   0.556   1.162
 9243SOL    HW228629   0.859   0.572   1.230
 9244SOL     OW28630   4.414   6.905   5.051
 9244SOL    HW128631   4.418   6.928   5.148
 9244SOL    HW228632   4.474   6.966   5.000
 9245SOL     OW28633   1.093   4.517   3.236
 9245SOL    HW128634   1.159   4.578   3.192
 9245SOL    HW228635   1.096   4.428   3.192
 9246SOL     OW28636   6.481   1.222   4.394
 9246SOL    HW128637   6.463   1.215   4.296
 9246SOL    HW228638   6.394   1.229   4.444
 9247SOL     OW28639   3.725   5.343   3.227
 9247SOL    HW128640   3.627   5.332   3.245
 9247SOL    HW228641   3.764   5.407   3.293
 9248SOL     OW28642   2.296   1.386   5.455
 9248SOL    HW128643   2.255   1.458   5.399
 9248SOL    HW228644   2.377   1.349   5.408
 9249SOL     OW28645   3.879   4.950   1.808
 9249SOL    HW128646   3.812   4.984   1.874
 9249SOL    HW228647   3.860   4.990   1.718
 9250SOL     OW28648   0.274   3.510   4.244
 9250SOL    HW128649   0.308   3.448   4.172
 9250SOL    HW228650   0.222   3.584   4.202
 9251SOL     OW28651   3.855   2.340   0.618
 9251SOL    HW128652   3.863   2.250   0.573
 9251SOL    HW228653   3.946   2.375   0.638
 9252SOL     OW28654   5.139   0.320   5.282
 9252SOL    HW128655   5.183   0.370   5.208
 9252SOL    HW228656   5.203   0.253   5.320
 9253SOL     OW28657   1.083   4.775   5.402
 9253SOL    HW128658   1.175   4.778   5.362
 9253SOL    HW228659   1.016   4.759   5.330
 9254SOL     OW28660   6.202   4.945   2.551
 9254SOL    HW128661   6.149   4.875   2.599
 9254SOL    HW228662   6.144   5.024   2.535
 9255SOL     OW28663   6.106   4.589   0.541
 9255SOL    HW128664   6.023   4.596   0.485
 9255SOL    HW228665   6.142   4.496   0.534
 9256SOL     OW28666   1.851   6.634   2.036
 9256SOL    HW128667   1.810   6.647   2.126
 9256SOL    HW228668   1.834   6.541   2.005
 9257SOL     OW28669   0.242   5.459   3.970
 9257SOL    HW128670   0.335   5.438   4.000
 9257SOL    HW228671   0.244   5.533   3.904
 9258SOL     OW28672   3.782   3.651   0.782
 9258SOL    HW128673   3.692   3.660   0.740
 9258SOL    HW228674   3.852   3.649   0.710
 9259SOL     OW28675   2.314   2.028   6.774
 9259SOL    HW128676   2.342   1.956   6.838
 9259SOL    HW228677   2.287   1.988   6.687
 9260SOL     OW28678   5.787   2.791   5.310
 9260SOL    HW128679   5.865   2.841   5.347
 9260SOL    HW228680   5.770   2.822   5.216
 9261SOL     OW28681   4.338   1.919   1.196
 9261SOL    HW128682   4.414   1.984   1.207
 9261SOL    HW228683   4.374   1.831   1.166
 9262SOL     OW28684   6.291   6.226   3.977
 9262SOL    HW128685   6.200   6.265   3.962
 9262SOL    HW228686   6.345   6.289   4.032
 9263SOL     OW28687   2.166   3.815   3.226
 9263SOL    HW128688   2.165   3.859   3.316
 9263SOL    HW228689   2.141   3.718   3.237
 9264SOL     OW28690   5.117   4.317   6.565
 9264SOL    HW128691   5.203   4.276   6.596
 9264SOL    HW228692   5.074   4.257   6.499
 9265SOL     OW28693   4.552   1.945   6.779
 9265SOL    HW128694   4.636   1.978   6.822
 9265SOL    HW228695   4.474   1.965   6.838
 9266SOL     OW28696   0.160   4.149   1.414
 9266SOL    HW128697   0.239   4.107   1.458
 9266SOL    HW228698   0.189   4.230   1.363
 9267SOL     OW28699   0.356   1.008   3.634
 9267SOL    HW128700   0.343   1.095   3.681
 9267SOL    HW228701   0.445   0.968   3.660
 9268SOL     OW28702   0.596   6.648   1.294
 9268SOL    HW128703   0.677   6.592   1.309
 9268SOL    HW228704   0.526   6.594   1.247
 9269SOL     OW28705   4.309   0.237   0.288
 9269SOL    HW128706   4.329   0.287   0.204
 9269SOL    HW228707   4.347   0.287   0.366
 9270SOL     OW28708   2.885   1.021   6.239
 9270SOL    HW128709   2.908   1.016   6.142
 9270SOL    HW228710   2.968   1.019   6.294
 9271SOL     OW28711   0.887   0.597   6.580
 9271SOL    HW128712   0.792   0.624   6.600
 9271SOL    HW228713   0.946   0.628   6.655
 9272SOL     OW28714   6.804   6.604   5.733
 9272SOL    HW128715   6.895   6.563   5.730
 9272SOL    HW228716   6.749   6.569   5.657
 9273SOL     OW28717   4.943   5.265   3.734
 9273SOL    HW128718   4.978   5.353   3.766
 9273SOL    HW228719   4.858   5.279   3.684
 9274SOL     OW28720   0.690   3.553   0.205
 9274SOL    HW128721   0.717   3.649   0.212
 9274SOL    HW228722   0.727   3.502   0.282
 9275SOL     OW28723   0.612   6.267   0.837
 9275SOL    HW128724   0.517   6.267   0.868
 9275SOL    HW228725   0.647   6.174   0.837
 9276SOL     OW28726   3.316   4.386   0.214
 9276SOL    HW128727   3.378   4.417   0.142
 9276SOL    HW228728   3.306   4.459   0.283
 9277SOL     OW28729   4.178   4.692   2.554
 9277SOL    HW128730   4.104   4.751   2.586
 9277SOL    HW228731   4.185   4.699   2.454
 9278SOL     OW28732   0.566   0.638   4.253
 9278SOL    HW128733   0.640   0.587   4.210
 9278SOL    HW228734   0.525   0.582   4.325
 9279SOL     OW28735   4.108   5.078   1.574
 9279SOL    HW128736   4.024   5.045   1.530
 9279SOL    HW228737   4.086   5.111   1.665
 9280SOL     OW28738   1.502   1.468   3.008
 9280SOL    HW128739   1.595   1.442   2.980
 9280SOL    HW228740   1.490   1.448   3.105
 9281SOL     OW28741   3.251   4.282   6.927
 9281SOL    HW128742   3.170   4.318   6.975
 9281SOL    HW228743   3.236   4.290   6.828
 9282SOL     OW28744   3.573   0.148   5.139
 9282SOL    HW128745   3.654   0.131   5.195
 9282SOL    HW228746   3.563   0.077   5.070
 9283SOL     OW28747   4.610   6.128   6.759
 9283SOL    HW128748   4.634   6.221   6.730
 9283SOL    HW228749   4.515   6.109   6.734
 9284SOL     OW28750   3.099   4.153   5.334
 9284SOL    HW128751   3.072   4.248   5.321
 9284SOL    HW228752   3.189   4.138   5.294
 9285SOL     OW28753   6.221   3.496   2.618
 9285SOL    HW128754   6.206   3.425   2.550
 9285SOL    HW228755   6.205   3.459   2.709
 9286SOL     OW28756   4.691   5.963   0.871
 9286SOL    HW128757   4.655   6.056   0.884
 9286SOL    HW228758   4.722   5.927   0.959
 9287SOL     OW28759   2.979   4.775   6.168
 9287SOL    HW128760   3.058   4.802   6.223
 9287SOL    HW228761   2.897   4.780   6.224
 9288SOL     OW28762   4.585   2.029   4.031
 9288SOL    HW128763   4.501   1.982   4.058
 9288SOL    HW228764   4.664   1.978   4.066
 9289SOL     OW28765   4.401   6.290   6.981
 9289SOL    HW128766   4.423   6.210   6.926
 9289SOL    HW228767   4.378   6.261   0.048
 9290SOL     OW28768   5.452   0.573   4.618
 9290SOL    HW128769   5.540   0.528   4.631
 9290SOL    HW228770   5.379   0.505   4.618
 9291SOL     OW28771   0.900   5.283   5.578
 9291SOL    HW128772   0.965   5.357   5.567
 9291SOL    HW228773   0.851   5.268   5.492
 9292SOL     OW28774   1.449   1.543   6.547
 9292SOL    HW128775   1.357   1.513   6.521
 9292SOL    HW228776   1.517   1.486   6.502
 9293SOL     OW28777   5.064   2.838   5.590
 9293SOL    HW128778   5.162   2.842   5.572
 9293SOL    HW228779   5.018   2.795   5.512
 9294SOL     OW28780   5.055   1.043   0.556
 9294SOL    HW128781   5.111   0.965   0.529
 9294SOL    HW228782   5.012   1.084   0.475
 9295SOL     OW28783   0.581   0.670   5.499
 9295SOL    HW128784   0.626   0.756   5.526
 9295SOL    HW228785   0.599   0.600   5.568
 9296SOL     OW28786   2.766   4.627   0.898
 9296SOL    HW128787   2.726   4.586   0.980
 9296SOL    HW228788   2.707   4.610   0.820
 9297SOL     OW28789   6.784   6.710   2.985
 9297SOL    HW128790   6.730   6.629   3.006
 9297SOL    HW228791   6.881   6.685   2.979
 9298SOL     OW28792   1.692   6.521   5.788
 9298SOL    HW128793   1.676   6.457   5.713
 9298SOL    HW228794   1.642   6.606   5.771
 9299SOL     OW28795   2.080   2.452   5.097
 9299SOL    HW128796   2.016   2.398   5.151
 9299SOL    HW228797   2.032   2.495   5.021
 9300SOL     OW28798   1.677   5.787   5.836
 9300SOL    HW128799   1.704   5.880   5.862
 9300SOL    HW228800   1.585   5.789   5.797
 9301SOL     OW28801   0.244   4.252   4.568
 9301SOL    HW128802   0.317   4.217   4.508
 9301SOL    HW228803   0.251   4.351   4.574
 9302SOL     OW28804   2.153   3.185   4.763
 9302SOL    HW128805   2.157   3.271   4.813
 9302SOL    HW228806   2.243   3.142   4.763
 9303SOL     OW28807   2.403   4.180   0.396
 9303SOL    HW128808   2.384   4.093   0.441
 9303SOL    HW228809   2.338   4.194   0.321
 9304SOL     OW28810   5.183   4.998   0.266
 9304SOL    HW128811   5.276   4.963   0.255
 9304SOL    HW228812   5.186   5.086   0.314
 9305SOL     OW28813   3.182   1.356   1.142
 9305SOL    HW128814   3.128   1.375   1.224
 9305SOL    HW228815   3.137   1.285   1.088
 9306SOL     OW28816   0.460   4.440   5.181
 9306SOL    HW128817   0.536   4.429   5.245
 9306SOL    HW228818   0.423   4.351   5.157
 9307SOL     OW28819   2.505   3.099   1.251
 9307SOL    HW128820   2.530   3.057   1.338
 9307SOL    HW228821   2.446   3.178   1.268
 9308SOL     OW28822   1.755   4.101   1.485
 9308SOL    HW128823   1.740   4.032   1.557
 9308SOL    HW228824   1.696   4.180   1.502
 9309SOL     OW28825   3.966   5.864   5.068
 9309SOL    HW128826   3.942   5.830   5.159
 9309SOL    HW228827   4.012   5.792   5.017
 9310SOL     OW28828   4.455   6.161   5.813
 9310SOL    HW128829   4.359   6.169   5.842
 9310SOL    HW228830   4.507   6.113   5.883
 9311SOL     OW28831   4.898   3.601   1.816
 9311SOL    HW128832   4.946   3.519   1.784
 9311SOL    HW228833   4.801   3.593   1.794
 9312SOL     OW28834   0.770   2.523   1.034
 9312SOL    HW128835   0.721   2.542   1.119
 9312SOL    HW228836   0.852   2.581   1.029
 9313SOL     OW28837   1.006   6.782   1.704
 9313SOL    HW128838   1.005   6.850   1.630
 9313SOL    HW228839   1.077   6.805   1.770
 9314SOL     OW28840   5.260   2.567   0.627
 9314SOL    HW128841   5.326   2.497   0.599
 9314SOL    HW228842   5.255   2.638   0.556
 9315SOL     OW28843   5.942   0.985   6.562
 9315SOL    HW128844   6.035   0.976   6.596
 9315SOL    HW228845   5.878   0.990   6.638
 9316SOL     OW28846   4.245   1.286   5.648
 9316SOL    HW128847   4.324   1.248   5.696
 9316SOL    HW228848   4.162   1.264   5.699
 9317SOL     OW28849   3.073   6.073   3.947
 9317SOL    HW128850   3.080   5.992   4.004
 9317SOL    HW228851   3.121   6.149   3.991
 9318SOL     OW28852   4.798   6.245   0.314
 9318SOL    HW128853   4.754   6.258   0.402
 9318SOL    HW228854   4.792   6.330   0.261
 9319SOL     OW28855   2.380   4.466   1.058
 9319SOL    HW128856   2.479   4.476   1.060
 9319SOL    HW228857   2.348   4.469   0.964
 9320SOL     OW28858   6.292   0.228   6.318
 9320SOL    HW128859   6.249   0.150   6.272
 9320SOL    HW228860   6.380   0.248   6.275
 9321SOL     OW28861   0.046   3.286   5.453
 9321SOL    HW128862   0.002   3.300   5.542
 9321SOL    HW228863   0.008   3.351   5.387
 9322SOL     OW28864   6.003   4.312   5.767
 9322SOL    HW128865   6.030   4.301   5.862
 9322SOL    HW228866   6.056   4.386   5.725
 9323SOL     OW28867   1.241   3.100   3.231
 9323SOL    HW128868   1.268   3.105   3.135
 9323SOL    HW228869   1.141   3.092   3.237
 9324SOL     OW28870   0.513   4.159   1.262
 9324SOL    HW128871   0.451   4.135   1.336
 9324SOL    HW228872   0.478   4.124   1.176
 9325SOL     OW28873   1.576   5.401   2.563
 9325SOL    HW128874   1.605   5.344   2.640
 9325SOL    HW228875   1.580   5.497   2.589
 9326SOL     OW28876   4.299   4.081   6.830
 9326SOL    HW128877   4.296   4.100   6.928
 9326SOL    HW228878   4.237   4.005   6.809
 9327SOL     OW28879   4.569   1.206   3.165
 9327SOL    HW128880   4.576   1.132   3.099
 9327SOL    HW228881   4.570   1.169   3.258
 9328SOL     OW28882   2.860   6.349   4.308
 9328SOL    HW128883   2.932   6.279   4.306
 9328SOL    HW228884   2.884   6.419   4.376
 9329SOL     OW28885   0.468   6.295   6.314
 9329SOL    HW128886   0.476   6.223   6.245
 9329SOL    HW228887   0.441   6.380   6.271
 9330SOL     OW28888   6.069   6.692   6.189
 9330SOL    HW128889   5.980   6.730   6.165
 9330SOL    HW228890   6.061   6.593   6.197
 9331SOL     OW28891   1.649   3.201   4.869
 9331SOL    HW128892   1.733   3.246   4.902
 9331SOL    HW228893   1.635   3.117   4.921
 9332SOL     OW28894   4.621   5.698   0.716
 9332SOL    HW128895   4.523   5.685   0.705
 9332SOL    HW228896   4.639   5.794   0.739
 9333SOL     OW28897   3.682   4.917   0.783
 9333SOL    HW128898   3.672   4.897   0.685
 9333SOL    HW228899   3.622   4.857   0.835
 9334SOL     OW28900   4.951   6.153   5.477
 9334SOL    HW128901   4.981   6.058   5.485
 9334SOL    HW228902   4.966   6.200   5.564
 9335SOL     OW28903   2.481   2.107   1.704
 9335SOL    HW128904   2.452   2.021   1.745
 9335SOL    HW228905   2.523   2.165   1.774
 9336SOL     OW28906   6.580   1.394   5.010
 9336SOL    HW128907   6.508   1.381   5.078
 9336SOL    HW228908   6.579   1.319   4.944
 9337SOL     OW28909   4.508   0.554   5.805
 9337SOL    HW128910   4.446   0.602   5.742
 9337SOL    HW228911   4.455   0.517   5.881
 9338SOL     OW28912   6.623   6.037   6.890
 9338SOL    HW128913   6.594   5.946   6.921
 9338SOL    HW228914   6.542   6.093   6.872
 9339SOL     OW28915   6.591   4.919   6.033
 9339SOL    HW128916   6.610   4.828   6.069
 9339SOL    HW228917   6.630   4.988   6.093
 9340SOL     OW28918   3.523   5.833   2.419
 9340SOL    HW128919   3.436   5.863   2.380
 9340SOL    HW228920   3.597   5.852   2.353
 9341SOL     OW28921   5.484   4.322   0.001
 9341SOL    HW128922   5.421   4.251   6.996
 9341SOL    HW228923   5.499   4.388   6.953
 9342SOL     OW28924   2.739   0.134   4.234
 9342SOL    HW128925   2.757   0.080   4.152
 9342SOL    HW228926   2.652   0.183   4.223
 9343SOL     OW28927   4.699   4.468   1.855
 9343SOL    HW128928   4.763   4.410   1.804
 9343SOL    HW228929   4.638   4.411   1.910
 9344SOL     OW28930   6.208   5.230   5.680
 9344SOL    HW128931   6.183   5.271   5.768
 9344SOL    HW228932   6.135   5.170   5.649
 9345SOL     OW28933   0.034   6.031   0.138
 9345SOL    HW128934   0.071   6.111   0.184
 9345SOL    HW228935   0.089   5.950   0.160
 9346SOL     OW28936   5.693   6.625   2.025
 9346SOL    HW128937   5.771   6.570   1.997
 9346SOL    HW228938   5.723   6.697   2.088
 9347SOL     OW28939   4.064   5.587   0.948
 9347SOL    HW128940   3.976   5.543   0.966
 9347SOL    HW228941   4.065   5.678   0.990
 9348SOL     OW28942   2.213   5.649   2.900
 9348SOL    HW128943   2.184   5.741   2.926
 9348SOL    HW228944   2.201   5.637   2.801
 9349SOL     OW28945   6.554   5.500   2.044
 9349SOL    HW128946   6.569   5.594   2.076
 9349SOL    HW228947   6.563   5.437   2.121
 9350SOL     OW28948   6.968   1.860   4.837
 9350SOL    HW128949   6.899   1.931   4.847
 9350SOL    HW228950   6.953   1.789   4.906
 9351SOL     OW28951   3.161   0.586   5.442
 9351SOL    HW128952   3.128   0.680   5.433
 9351SOL    HW228953   3.203   0.556   5.357
 9352SOL     OW28954   2.868   2.487   5.627
 9352SOL    HW128955   2.780   2.534   5.621
 9352SOL    HW228956   2.892   2.449   5.537
 9353SOL     OW28957   0.856   4.009   1.718
 9353SOL    HW128958   0.914   3.931   1.742
 9353SOL    HW228959   0.779   3.978   1.662
 9354SOL     OW28960   6.599   2.369   1.293
 9354SOL    HW128961   6.556   2.339   1.208
 9354SOL    HW228962   6.682   2.421   1.273
 9355SOL     OW28963   6.888   0.376   4.236
 9355SOL    HW128964   6.837   0.422   4.308
 9355SOL    HW228965   6.962   0.321   4.276
 9356SOL     OW28966   4.306   5.053   1.887
 9356SOL    HW128967   4.231   4.993   1.861
 9356SOL    HW228968   4.278   5.149   1.877
 9357SOL     OW28969   2.989   3.353   0.481
 9357SOL    HW128970   2.930   3.403   0.416
 9357SOL    HW228971   2.932   3.314   0.553
 9358SOL     OW28972   6.232   4.323   1.866
 9358SOL    HW128973   6.259   4.263   1.941
 9358SOL    HW228974   6.270   4.287   1.780
 9359SOL     OW28975   6.889   4.215   6.561
 9359SOL    HW128976   6.976   4.215   6.512
 9359SOL    HW228977   6.832   4.290   6.527
 9360SOL     OW28978   1.961   0.639   5.848
 9360SOL    HW128979   1.944   0.727   5.893
 9360SOL    HW228980   2.055   0.639   5.812
 9361SOL     OW28981   2.890   5.713   2.609
 9361SOL    HW128982   2.873   5.689   2.704
 9361SOL    HW228983   2.986   5.739   2.597
 9362SOL     OW28984   2.582   1.095   2.350
 9362SOL    HW128985   2.631   1.027   2.404
 9362SOL    HW228986   2.600   1.186   2.387
 9363SOL     OW28987   3.190   5.780   2.871
 9363SOL    HW128988   3.175   5.810   2.777
 9363SOL    HW228989   3.261   5.710   2.873
 9364SOL     OW28990   4.591   3.207   6.319
 9364SOL    HW128991   4.559   3.230   6.228
 9364SOL    HW228992   4.520   3.229   6.386
 9365SOL     OW28993   2.772   2.112   4.935
 9365SOL    HW128994   2.791   2.167   4.854
 9365SOL    HW228995   2.812   2.157   5.016
 9366SOL     OW28996   3.265   1.810   0.642
 9366SOL    HW128997   3.332   1.863   0.695
 9366SOL    HW228998   3.251   1.854   0.553
 9367SOL     OW28999   6.820   5.317   3.736
 9367SOL    HW129000   6.732   5.335   3.781
 9367SOL    HW229001   6.866   5.240   3.781
 9368SOL     OW29002   3.673   1.912   1.555
 9368SOL    HW129003   3.720   1.826   1.534
 9368SOL    HW229004   3.693   1.939   1.648
 9369SOL     OW29005   6.692   1.704   5.862
 9369SOL    HW129006   6.606   1.753   5.844
 9369SOL    HW229007   6.697   1.623   5.803
 9370SOL     OW29008   6.071   1.074   2.923
 9370SOL    HW129009   6.048   1.128   3.003
 9370SOL    HW229010   6.165   1.042   2.930
 9371SOL     OW29011   1.297   5.469   0.080
 9371SOL    HW129012   1.238   5.514   0.146
 9371SOL    HW229013   1.242   5.411   0.020
 9372SOL     OW29014   5.711   6.569   3.534
 9372SOL    HW129015   5.659   6.648   3.566
 9372SOL    HW229016   5.676   6.539   3.445
 9373SOL     OW29017   4.374   1.815   3.124
 9373SOL    HW129018   4.285   1.800   3.082
 9373SOL    HW229019   4.363   1.826   3.223
 9374SOL     OW29020   5.900   2.790   0.564
 9374SOL    HW129021   5.863   2.712   0.513
 9374SOL    HW229022   5.968   2.758   0.630
 9375SOL     OW29023   6.677   1.397   2.967
 9375SOL    HW129024   6.641   1.396   3.060
 9375SOL    HW229025   6.639   1.320   2.915
 9376SOL     OW29026   3.585   3.887   0.822
 9376SOL    HW129027   3.590   3.823   0.746
 9376SOL    HW229028   3.634   3.849   0.901
 9377SOL     OW29029   6.266   5.396   3.742
 9377SOL    HW129030   6.242   5.299   3.744
 9377SOL    HW229031   6.351   5.408   3.691
 9378SOL     OW29032   2.762   6.885   6.542
 9378SOL    HW129033   2.770   6.801   6.487
 9378SOL    HW229034   2.751   6.964   6.481
 9379SOL     OW29035   4.872   4.481   4.564
 9379SOL    HW129036   4.871   4.518   4.471
 9379SOL    HW229037   4.831   4.390   4.565
 9380SOL     OW29038   6.697   6.748   5.484
 9380SOL    HW129039   6.696   6.736   5.384
 9380SOL    HW229040   6.622   6.808   5.510
 9381SOL     OW29041   2.538   2.972   5.431
 9381SOL    HW129042   2.476   2.989   5.508
 9381SOL    HW229043   2.494   3.000   5.346
 9382SOL     OW29044   3.911   0.651   2.996
 9382SOL    HW129045   3.879   0.557   2.983
 9382SOL    HW229046   3.986   0.670   2.933
 9383SOL     OW29047   3.199   6.669   4.856
 9383SOL    HW129048   3.219   6.760   4.894
 9383SOL    HW229049   3.120   6.630   4.904
 9384SOL     OW29050   4.129   5.766   2.685
 9384SOL    HW129051   4.142   5.732   2.592
 9384SOL    HW229052   4.076   5.699   2.737
 9385SOL     OW29053   4.033   1.565   2.828
 9385SOL    HW129054   3.970   1.597   2.758
 9385SOL    HW229055   3.992   1.491   2.880
 9386SOL     OW29056   3.169   6.073   4.548
 9386SOL    HW129057   3.245   6.137   4.560
 9386SOL    HW229058   3.085   6.114   4.582
 9387SOL     OW29059   4.095   6.545   1.407
 9387SOL    HW129060   4.095   6.531   1.308
 9387SOL    HW229061   4.156   6.479   1.450
 9388SOL     OW29062   1.256   6.053   2.223
 9388SOL    HW129063   1.201   6.136   2.232
 9388SOL    HW229064   1.237   6.009   2.136
 9389SOL     OW29065   2.437   0.260   5.410
 9389SOL    HW129066   2.365   0.329   5.404
 9389SOL    HW229067   2.464   0.232   5.318
 9390SOL     OW29068   4.071   5.753   3.388
 9390SOL    HW129069   4.025   5.680   3.338
 9390SOL    HW229070   4.112   5.817   3.322
 9391SOL     OW29071   2.067   0.861   5.539
 9391SOL    HW129072   2.067   0.920   5.619
 9391SOL    HW229073   2.032   0.911   5.460
 9392SOL     OW29074   0.461   6.702   5.015
 9392SOL    HW129075   0.524   6.643   4.965
 9392SOL    HW229076   0.413   6.649   5.085
 9393SOL     OW29077   3.505   1.570   4.530
 9393SOL    HW129078   3.526   1.658   4.573
 9393SOL    HW229079   3.473   1.585   4.437
 9394SOL     OW29080   6.201   2.366   3.420
 9394SOL    HW129081   6.137   2.443   3.420
 9394SOL    HW229082   6.291   2.398   3.451
 9395SOL     OW29083   2.718   2.473   0.533
 9395SOL    HW129084   2.751   2.457   0.627
 9395SOL    HW229085   2.771   2.548   0.492
 9396SOL     OW29086   6.752   6.736   4.802
 9396SOL    HW129087   6.800   6.650   4.817
 9396SOL    HW229088   6.653   6.717   4.796
 9397SOL     OW29089   2.470   0.184   0.515
 9397SOL    HW129090   2.540   0.244   0.474
 9397SOL    HW229091   2.509   0.093   0.529
 9398SOL     OW29092   2.015   0.574   0.133
 9398SOL    HW129093   2.064   0.519   0.066
 9398SOL    HW229094   2.081   0.629   0.185
 9399SOL     OW29095   7.023   2.177   0.102
 9399SOL    HW129096   6.968   2.097   0.078
 9399SOL    HW229097   0.093   2.151   0.106
 9400SOL     OW29098   5.283   3.603   1.732
 9400SOL    HW129099   5.238   3.659   1.801
 9400SOL    HW229100   5.329   3.526   1.777
 9401SOL     OW29101   2.701   6.454   3.595
 9401SOL    HW129102   2.677   6.376   3.537
 9401SOL    HW229103   2.723   6.421   3.687
 9402SOL     OW29104   2.065   4.942   6.426
 9402SOL    HW129105   1.975   4.921   6.389
 9402SOL    HW229106   2.101   4.862   6.474
 9403SOL     OW29107   5.046   1.835   3.272
 9403SOL    HW129108   4.986   1.794   3.341
 9403SOL    HW229109   4.990   1.872   3.198
 9404SOL     OW29110   0.980   5.021   6.525
 9404SOL    HW129111   1.021   4.953   6.465
 9404SOL    HW229112   0.976   5.109   6.477
 9405SOL     OW29113   6.223   6.607   1.508
 9405SOL    HW129114   6.242   6.702   1.534
 9405SOL    HW229115   6.151   6.570   1.567
 9406SOL     OW29116   0.510   1.754   5.529
 9406SOL    HW129117   0.553   1.670   5.496
 9406SOL    HW229118   0.419   1.763   5.488
 9407SOL     OW29119   2.878   6.864   2.254
 9407SOL    HW129120   2.821   6.806   2.312
 9407SOL    HW229121   2.901   6.948   2.304
 9408SOL     OW29122   3.493   1.188   5.397
 9408SOL    HW129123   3.508   1.279   5.435
 9408SOL    HW229124   3.478   1.194   5.298
 9409SOL     OW29125   4.703   4.287   4.644
 9409SOL    HW129126   4.641   4.322   4.714
 9409SOL    HW229127   4.743   4.201   4.675
 9410SOL     OW29128   3.621   5.666   1.662
 9410SOL    HW129129   3.634   5.747   1.720
 9410SOL    HW229130   3.647   5.688   1.568
 9411SOL     OW29131   3.856   4.758   1.185
 9411SOL    HW129132   3.876   4.849   1.221
 9411SOL    HW229133   3.905   4.689   1.238
 9412SOL     OW29134   0.926   2.977   1.658
 9412SOL    HW129135   0.990   3.054   1.658
 9412SOL    HW229136   0.880   2.970   1.747
 9413SOL     OW29137   4.076   5.648   4.926
 9413SOL    HW129138   4.151   5.607   4.874
 9413SOL    HW229139   4.054   5.589   5.004
 9414SOL     OW29140   3.071   1.836   2.767
 9414SOL    HW129141   3.158   1.855   2.721
 9414SOL    HW229142   3.074   1.745   2.808
 9415SOL     OW29143   1.721   6.612   2.582
 9415SOL    HW129144   1.633   6.612   2.533
 9415SOL    HW229145   1.726   6.533   2.642
 9416SOL     OW29146   0.609   1.448   1.357
 9416SOL    HW129147   0.567   1.444   1.447
 9416SOL    HW229148   0.680   1.379   1.350
 9417SOL     OW29149   3.135   0.106   5.540
 9417SOL    HW129150   3.060   0.131   5.602
 9417SOL    HW229151   3.098   0.088   5.449
 9418SOL     OW29152   2.527   6.207   0.922
 9418SOL    HW129153   2.525   6.193   0.823
 9418SOL    HW229154   2.435   6.230   0.954
 9419SOL     OW29155   3.607   6.684   5.133
 9419SOL    HW129156   3.675   6.672   5.205
 9419SOL    HW229157   3.650   6.723   5.051
 9420SOL     OW29158   0.369   1.811   5.111
 9420SOL    HW129159   0.310   1.743   5.068
 9420SOL    HW229160   0.349   1.901   5.075
 9421SOL     OW29161   2.366   5.866   5.637
 9421SOL    HW129162   2.303   5.939   5.611
 9421SOL    HW229163   2.333   5.779   5.600
 9422SOL     OW29164   5.612   0.310   2.528
 9422SOL    HW129165   5.525   0.318   2.576
 9422SOL    HW229166   5.667   0.391   2.544
 9423SOL     OW29167   4.105   0.711   2.820
 9423SOL    HW129168   4.201   0.683   2.819
 9423SOL    HW229169   4.064   0.687   2.732
 9424SOL     OW29170   5.086   0.728   5.465
 9424SOL    HW129171   5.033   0.647   5.439
 9424SOL    HW229172   5.024   0.800   5.496
 9425SOL     OW29173   7.023   3.471   6.297
 9425SOL    HW129174   6.936   3.427   6.272
 9425SOL    HW229175   7.010   3.570   6.300
 9426SOL     OW29176   2.869   1.743   0.507
 9426SOL    HW129177   2.770   1.738   0.490
 9426SOL    HW229178   2.899   1.658   0.551
 9427SOL     OW29179   2.772   4.770   5.300
 9427SOL    HW129180   2.816   4.704   5.239
 9427SOL    HW229181   2.685   4.800   5.260
 9428SOL     OW29182   5.617   0.042   2.500
 9428SOL    HW129183   5.618   0.142   2.501
 9428SOL    HW229184   5.678   0.009   2.427
 9429SOL     OW29185   1.380   4.364   1.915
 9429SOL    HW129186   1.345   4.351   1.822
 9429SOL    HW229187   1.305   4.358   1.980
 9430SOL     OW29188   6.305   6.366   1.685
 9430SOL    HW129189   6.318   6.336   1.591
 9430SOL    HW229190   6.261   6.293   1.738
 9431SOL     OW29191   5.455   3.977   0.466
 9431SOL    HW129192   5.428   4.072   0.452
 9431SOL    HW229193   5.425   3.922   0.387
 9432SOL     OW29194   6.466   0.169   3.827
 9432SOL    HW129195   6.366   0.162   3.833
 9432SOL    HW229196   6.498   0.231   3.898
 9433SOL     OW29197   3.096   4.876   4.334
 9433SOL    HW129198   3.104   4.953   4.270
 9433SOL    HW229199   3.150   4.894   4.416
 9434SOL     OW29200   5.612   4.366   3.395
 9434SOL    HW129201   5.661   4.358   3.482
 9434SOL    HW229202   5.677   4.392   3.323
 9435SOL     OW29203   1.256   1.258   4.324
 9435SOL    HW129204   1.168   1.216   4.347
 9435SOL    HW229205   1.292   1.305   4.405
 9436SOL     OW29206   1.274   3.326   1.834
 9436SOL    HW129207   1.296   3.424   1.844
 9436SOL    HW229208   1.357   3.276   1.809
 9437SOL     OW29209   1.016   6.196   3.521
 9437SOL    HW129210   0.972   6.262   3.460
 9437SOL    HW229211   0.993   6.218   3.616
 9438SOL     OW29212   1.078   6.390   1.150
 9438SOL    HW129213   1.109   6.485   1.141
 9438SOL    HW229214   1.066   6.351   1.059
 9439SOL     OW29215   0.213   3.223   1.956
 9439SOL    HW129216   0.198   3.160   2.033
 9439SOL    HW229217   0.126   3.241   1.910
 9440SOL     OW29218   4.930   5.483   4.428
 9440SOL    HW129219   4.951   5.484   4.526
 9440SOL    HW229220   4.998   5.427   4.380
 9441SOL     OW29221   1.264   5.331   5.278
 9441SOL    HW129222   1.362   5.330   5.257
 9441SOL    HW229223   1.229   5.238   5.278
 9442SOL     OW29224   6.388   1.718   0.267
 9442SOL    HW129225   6.319   1.786   0.242
 9442SOL    HW229226   6.410   1.727   0.364
 9443SOL     OW29227   2.111   4.237   1.569
 9443SOL    HW129228   2.097   4.287   1.483
 9443SOL    HW229229   2.030   4.182   1.589
 9444SOL     OW29230   0.451   3.541   0.097
 9444SOL    HW129231   0.545   3.549   0.129
 9444SOL    HW229232   0.449   3.552   7.023
 9445SOL     OW29233   5.161   3.204   2.198
 9445SOL    HW129234   5.144   3.132   2.130
 9445SOL    HW229235   5.094   3.197   2.272
 9446SOL     OW29236   6.312   0.040   2.834
 9446SOL    HW129237   6.325   6.968   2.841
 9446SOL    HW229238   6.338   0.072   2.742
 9447SOL     OW29239   5.478   3.584   3.225
 9447SOL    HW129240   5.478   3.602   3.127
 9447SOL    HW229241   5.501   3.488   3.241
 9448SOL     OW29242   5.134   5.812   6.336
 9448SOL    HW129243   5.040   5.778   6.335
 9448SOL    HW229244   5.197   5.737   6.355
 9449SOL     OW29245   6.965   5.893   6.133
 9449SOL    HW129246   6.894   5.823   6.139
 9449SOL    HW229247   6.998   5.914   6.225
 9450SOL     OW29248   2.885   4.846   4.900
 9450SOL    HW129249   2.836   4.929   4.927
 9450SOL    HW229250   2.838   4.767   4.940
 9451SOL     OW29251   4.524   5.598   5.652
 9451SOL    HW129252   4.480   5.663   5.714
 9451SOL    HW229253   4.462   5.577   5.576
 9452SOL     OW29254   1.777   3.339   0.587
 9452SOL    HW129255   1.831   3.274   0.535
 9452SOL    HW229256   1.702   3.373   0.530
 9453SOL     OW29257   1.575   3.858   3.055
 9453SOL    HW129258   1.557   3.783   3.119
 9453SOL    HW229259   1.524   3.842   2.970
 9454SOL     OW29260   1.871   3.673   5.747
 9454SOL    HW129261   1.963   3.638   5.764
 9454SOL    HW229262   1.867   3.713   5.655
 9455SOL     OW29263   3.611   1.415   2.443
 9455SOL    HW129264   3.685   1.367   2.397
 9455SOL    HW229265   3.634   1.428   2.539
 9456SOL     OW29266   0.112   4.599   1.029
 9456SOL    HW129267   0.143   4.677   1.082
 9456SOL    HW229268   0.176   4.523   1.041
 9457SOL     OW29269   1.196   3.649   6.226
 9457SOL    HW129270   1.149   3.719   6.279
 9457SOL    HW229271   1.268   3.691   6.171
 9458SOL     OW29272   0.946   4.391   6.532
 9458SOL    HW129273   0.992   4.451   6.597
 9458SOL    HW229274   0.986   4.299   6.538
 9459SOL     OW29275   6.771   5.175   2.167
 9459SOL    HW129276   6.757   5.199   2.263
 9459SOL    HW229277   6.841   5.234   2.127
 9460SOL     OW29278   0.128   2.119   5.294
 9460SOL    HW129279   0.056   2.050   5.284
 9460SOL    HW229280   0.089   2.204   5.329
 9461SOL     OW29281   6.384   1.669   3.412
 9461SOL    HW129282   6.387   1.732   3.335
 9461SOL    HW229283   6.289   1.648   3.433
 9462SOL     OW29284   1.880   3.235   3.234
 9462SOL    HW129285   1.974   3.203   3.246
 9462SOL    HW229286   1.831   3.174   3.172
 9463SOL     OW29287   0.306   0.868   0.917
 9463SOL    HW129288   0.342   0.867   1.011
 9463SOL    HW229289   0.346   0.792   0.865
 9464SOL     OW29290   5.698   6.722   6.408
 9464SOL    HW129291   5.615   6.667   6.405
 9464SOL    HW229292   5.767   6.674   6.462
 9465SOL     OW29293   6.875   0.317   3.379
 9465SOL    HW129294   6.851   0.389   3.314
 9465SOL    HW229295   6.833   0.336   3.468
 9466SOL     OW29296   4.255   3.579   5.072
 9466SOL    HW129297   4.294   3.576   4.980
 9466SOL    HW229298   4.183   3.649   5.076
 9467SOL     OW29299   1.604   2.916   1.212
 9467SOL    HW129300   1.610   2.909   1.312
 9467SOL    HW229301   1.542   2.991   1.188
 9468SOL     OW29302   5.981   2.855   6.269
 9468SOL    HW129303   6.061   2.845   6.327
 9468SOL    HW229304   6.001   2.820   6.177
 9469SOL     OW29305   6.090   5.462   1.800
 9469SOL    HW129306   6.098   5.450   1.701
 9469SOL    HW229307   6.049   5.551   1.820
 9470SOL     OW29308   5.243   3.001   6.426
 9470SOL    HW129309   5.208   3.083   6.472
 9470SOL    HW229310   5.170   2.957   6.375
 9471SOL     OW29311   0.108   2.595   5.562
 9471SOL    HW129312   0.128   2.680   5.611
 9471SOL    HW229313   0.159   2.593   5.476
 9472SOL     OW29314   6.582   3.736   4.179
 9472SOL    HW129315   6.649   3.674   4.220
 9472SOL    HW229316   6.618   3.771   4.093
 9473SOL     OW29317   3.919   6.357   5.639
 9473SOL    HW129318   3.909   6.257   5.643
 9473SOL    HW229319   3.941   6.391   5.730
 9474SOL     OW29320   6.283   3.830   1.379
 9474SOL    HW129321   6.236   3.814   1.293
 9474SOL    HW229322   6.330   3.918   1.376
 9475SOL     OW29323   3.233   3.520   0.497
 9475SOL    HW129324   3.262   3.510   0.592
 9475SOL    HW229325   3.140   3.483   0.487
 9476SOL     OW29326   2.959   3.340   4.497
 9476SOL    HW129327   2.916   3.422   4.460
 9476SOL    HW229328   2.910   3.311   4.580
 9477SOL     OW29329   0.831   3.273   1.854
 9477SOL    HW129330   0.742   3.281   1.809
 9477SOL    HW229331   0.841   3.346   1.922
 9478SOL     OW29332   5.765   4.136   6.176
 9478SOL    HW129333   5.749   4.160   6.272
 9478SOL    HW229334   5.717   4.201   6.117
 9479SOL     OW29335   5.685   6.585   6.083
 9479SOL    HW129336   5.735   6.641   6.017
 9479SOL    HW229337   5.670   6.638   6.166
 9480SOL     OW29338   4.315   4.066   6.361
 9480SOL    HW129339   4.376   4.029   6.432
 9480SOL    HW229340   4.255   3.993   6.328
 9481SOL     OW29341   6.053   3.623   1.273
 9481SOL    HW129342   6.082   3.685   1.200
 9481SOL    HW229343   6.101   3.536   1.265
 9482SOL     OW29344   6.033   1.224   3.152
 9482SOL    HW129345   6.071   1.158   3.216
 9482SOL    HW229346   6.106   1.261   3.094
 9483SOL     OW29347   2.185   1.497   0.980
 9483SOL    HW129348   2.135   1.488   0.894
 9483SOL    HW229349   2.139   1.564   1.038
 9484SOL     OW29350   5.533   1.543   3.655
 9484SOL    HW129351   5.596   1.544   3.577
 9484SOL    HW229352   5.442   1.570   3.624
 9485SOL     OW29353   0.857   0.086   1.628
 9485SOL    HW129354   0.807   0.003   1.653
 9485SOL    HW229355   0.872   0.087   1.529
 9486SOL     OW29356   2.294   4.952   1.021
 9486SOL    HW129357   2.211   5.004   1.002
 9486SOL    HW229358   2.269   4.864   1.061
 9487SOL     OW29359   2.879   3.776   3.700
 9487SOL    HW129360   2.958   3.837   3.689
 9487SOL    HW229361   2.795   3.831   3.698
 9488SOL     OW29362   2.779   6.373   1.380
 9488SOL    HW129363   2.798   6.354   1.476
 9488SOL    HW229364   2.775   6.287   1.329
 9489SOL     OW29365   3.382   4.035   0.929
 9489SOL    HW129366   3.346   3.965   0.990
 9489SOL    HW229367   3.464   4.001   0.884
 9490SOL     OW29368   5.451   0.115   0.366
 9490SOL    HW129369   5.542   0.089   0.333
 9490SOL    HW229370   5.459   0.193   0.428
 9491SOL     OW29371   6.607   4.981   4.942
 9491SOL    HW129372   6.553   5.027   4.871
 9491SOL    HW229373   6.545   4.941   5.010
 9492SOL     OW29374   3.219   3.535   2.389
 9492SOL    HW129375   3.256   3.625   2.364
 9492SOL    HW229376   3.257   3.507   2.477
 9493SOL     OW29377   4.662   5.318   3.668
 9493SOL    HW129378   4.660   5.384   3.744
 9493SOL    HW229379   4.574   5.320   3.620
 9494SOL     OW29380   4.818   3.870   0.876
 9494SOL    HW129381   4.751   3.797   0.863
 9494SOL    HW229382   4.910   3.833   0.861
 9495SOL     OW29383   6.312   2.169   4.068
 9495SOL    HW129384   6.317   2.129   3.976
 9495SOL    HW229385   6.327   2.098   4.136
 9496SOL     OW29386   5.026   4.579   0.163
 9496SOL    HW129387   5.112   4.533   0.140
 9496SOL    HW229388   4.949   4.521   0.135
 9497SOL     OW29389   4.369   3.901   0.540
 9497SOL    HW129390   4.283   3.953   0.529
 9497SOL    HW229391   4.359   3.811   0.497
 9498SOL     OW29392   5.304   0.640   5.883
 9498SOL    HW129393   5.402   0.622   5.896
 9498SOL    HW229394   5.290   0.690   5.798
 9499SOL     OW29395   2.106   3.549   5.489
 9499SOL    HW129396   2.140   3.537   5.395
 9499SOL    HW229397   2.008   3.569   5.486
 9500SOL     OW29398   2.832   6.510   1.984
 9500SOL    HW129399   2.849   6.528   1.887
 9500SOL    HW229400   2.891   6.569   2.040
 9501SOL     OW29401   3.295   1.367   4.804
 9501SOL    HW129402   3.291   1.443   4.738
 9501SOL    HW229403   3.386   1.363   4.844
 9502SOL     OW29404   0.128   2.350   4.959
 9502SOL    HW129405   0.091   2.258   4.948
 9502SOL    HW229406   0.199   2.366   4.890
 9503SOL     OW29407   0.453   1.105   1.470
 9503SOL    HW129408   0.539   1.129   1.515
 9503SOL    HW229409   0.390   1.065   1.537
 9504SOL     OW29410   6.767   2.184   1.065
 9504SOL    HW129411   6.811   2.251   1.125
 9504SOL    HW229412   6.809   2.188   0.974
 9505SOL     OW29413   5.715   3.935   3.501
 9505SOL    HW129414   5.732   3.967   3.594
 9505SOL    HW229415   5.663   3.850   3.503
 9506SOL     OW29416   0.444   3.032   6.440
 9506SOL    HW129417   0.397   3.103   6.492
 9506SOL    HW229418   0.543   3.051   6.439
 9507SOL     OW29419   2.164   0.937   4.485
 9507SOL    HW129420   2.122   1.026   4.471
 9507SOL    HW229421   2.147   0.906   4.579
 9508SOL     OW29422   6.105   2.713   0.720
 9508SOL    HW129423   6.082   2.775   0.795
 9508SOL    HW229424   6.203   2.698   0.718
 9509SOL     OW29425   1.316   6.458   5.448
 9509SOL    HW129426   1.264   6.391   5.396
 9509SOL    HW229427   1.347   6.418   5.533
 9510SOL     OW29428   0.381   4.029   1.517
 9510SOL    HW129429   0.320   3.967   1.469
 9510SOL    HW229430   0.347   4.046   1.610
 9511SOL     OW29431   0.775   2.274   6.887
 9511SOL    HW129432   0.686   2.236   6.912
 9511SOL    HW229433   0.839   2.261   6.962
 9512SOL     OW29434   5.619   2.195   3.554
 9512SOL    HW129435   5.681   2.273   3.549
 9512SOL    HW229436   5.654   2.129   3.621
 9513SOL     OW29437   1.601   3.229   4.460
 9513SOL    HW129438   1.682   3.256   4.408
 9513SOL    HW229439   1.607   3.264   4.553
 9514SOL     OW29440   1.730   4.159   0.332
 9514SOL    HW129441   1.658   4.206   0.384
 9514SOL    HW229442   1.726   4.061   0.349
 9515SOL     OW29443   1.543   5.551   6.755
 9515SOL    HW129444   1.571   5.612   6.829
 9515SOL    HW229445   1.623   5.510   6.712
 9516SOL     OW29446   4.965   3.551   4.601
 9516SOL    HW129447   4.964   3.645   4.567
 9516SOL    HW229448   4.971   3.488   4.523
 9517SOL     OW29449   1.349   5.063   1.040
 9517SOL    HW129450   1.356   5.042   0.943
 9517SOL    HW229451   1.386   4.986   1.093
 9518SOL     OW29452   1.831   2.362   6.826
 9518SOL    HW129453   1.928   2.366   6.849
 9518SOL    HW229454   1.790   2.280   6.865
 9519SOL     OW29455   3.208   3.728   2.705
 9519SOL    HW129456   3.133   3.786   2.735
 9519SOL    HW229457   3.260   3.776   2.634
 9520SOL     OW29458   6.463   1.564   4.214
 9520SOL    HW129459   6.438   1.533   4.306
 9520SOL    HW229460   6.380   1.584   4.162
 9521SOL     OW29461   3.699   4.255   1.325
 9521SOL    HW129462   3.617   4.219   1.281
 9521SOL    HW229463   3.674   4.334   1.381
 9522SOL     OW29464   4.228   5.631   2.422
 9522SOL    HW129465   4.288   5.581   2.360
 9522SOL    HW229466   4.207   5.721   2.383
 9523SOL     OW29467   2.634   5.450   5.086
 9523SOL    HW129468   2.615   5.418   5.179
 9523SOL    HW229469   2.726   5.489   5.082
 9524SOL     OW29470   1.814   3.217   1.142
 9524SOL    HW129471   1.788   3.151   1.072
 9524SOL    HW229472   1.878   3.175   1.206
 9525SOL     OW29473   1.657   1.491   6.168
 9525SOL    HW129474   1.733   1.440   6.127
 9525SOL    HW229475   1.686   1.585   6.187
 9526SOL     OW29476   5.860   5.104   0.647
 9526SOL    HW129477   5.883   5.029   0.709
 9526SOL    HW229478   5.919   5.100   0.566
 9527SOL     OW29479   2.458   0.214   4.553
 9527SOL    HW129480   2.447   0.311   4.575
 9527SOL    HW229481   2.547   0.200   4.508
 9528SOL     OW29482   6.170   1.613   1.168
 9528SOL    HW129483   6.160   1.520   1.203
 9528SOL    HW229484   6.263   1.645   1.186
 9529SOL     OW29485   5.481   3.670   0.973
 9529SOL    HW129486   5.540   3.713   1.042
 9529SOL    HW229487   5.443   3.740   0.913
 9530SOL     OW29488   1.274   4.445   4.523
 9530SOL    HW129489   1.330   4.414   4.447
 9530SOL    HW229490   1.178   4.450   4.494
 9531SOL     OW29491   4.446   5.030   3.164
 9531SOL    HW129492   4.354   5.015   3.201
 9531SOL    HW229493   4.442   5.032   3.065
 9532SOL     OW29494   6.323   5.294   1.197
 9532SOL    HW129495   6.241   5.238   1.189
 9532SOL    HW229496   6.389   5.248   1.257
 9533SOL     OW29497   0.743   5.529   3.865
 9533SOL    HW129498   0.644   5.532   3.874
 9533SOL    HW229499   0.771   5.437   3.836
 9534SOL     OW29500   6.057   4.765   5.022
 9534SOL    HW129501   5.963   4.770   4.988
 9534SOL    HW229502   6.119   4.749   4.945
 9535SOL     OW29503   2.090   1.163   6.293
 9535SOL    HW129504   2.046   1.225   6.358
 9535SOL    HW229505   2.141   1.093   6.342
 9536SOL     OW29506   3.936   3.361   5.345
 9536SOL    HW129507   3.936   3.437   5.409
 9536SOL    HW229508   3.843   3.344   5.313
 9537SOL     OW29509   3.018   1.790   4.590
 9537SOL    HW129510   3.114   1.776   4.568
 9537SOL    HW229511   2.967   1.809   4.505
 9538SOL     OW29512   4.789   1.021   4.383
 9538SOL    HW129513   4.813   1.064   4.470
 9538SOL    HW229514   4.757   0.928   4.400
 9539SOL     OW29515   2.928   3.440   4.134
 9539SOL    HW129516   2.962   3.500   4.061
 9539SOL    HW229517   2.911   3.495   4.216
 9540SOL     OW29518   4.935   5.685   3.994
 9540SOL    HW129519   4.888   5.676   4.081
 9540SOL    HW229520   4.869   5.681   3.919
 9541SOL     OW29521   1.390   0.786   5.571
 9541SOL    HW129522   1.308   0.836   5.544
 9541SOL    HW229523   1.381   0.690   5.544
 9542SOL     OW29524   5.333   5.035   4.114
 9542SOL    HW129525   5.317   5.020   4.212
 9542SOL    HW229526   5.318   4.949   4.065
 9543SOL     OW29527   3.437   0.377   6.014
 9543SOL    HW129528   3.532   0.403   5.997
 9543SOL    HW229529   3.435   0.297   6.075
 9544SOL     OW29530   5.212   3.517   3.963
 9544SOL    HW129531   5.171   3.427   3.980
 9544SOL    HW229532   5.225   3.529   3.865
 9545SOL     OW29533   6.597   5.152   2.422
 9545SOL    HW129534   6.551   5.160   2.510
 9545SOL    HW229535   6.550   5.084   2.365
 9546SOL     OW29536   3.581   1.626   5.753
 9546SOL    HW129537   3.623   1.681   5.682
 9546SOL    HW229538   3.653   1.582   5.808
 9547SOL     OW29539   2.395   5.498   3.962
 9547SOL    HW129540   2.433   5.591   3.953
 9547SOL    HW229541   2.455   5.433   3.916
 9548SOL     OW29542   0.437   5.516   4.881
 9548SOL    HW129543   0.467   5.460   4.803
 9548SOL    HW229544   0.354   5.565   4.856
 9549SOL     OW29545   2.725   0.866   2.432
 9549SOL    HW129546   2.789   0.838   2.361
 9549SOL    HW229547   2.768   0.856   2.522
 9550SOL     OW29548   6.579   2.490   0.749
 9550SOL    HW129549   6.573   2.400   0.792
 9550SOL    HW229550   6.637   2.485   0.668
 9551SOL     OW29551   6.118   3.311   5.842
 9551SOL    HW129552   6.140   3.226   5.889
 9551SOL    HW229553   6.152   3.307   5.748
 9552SOL     OW29554   2.192   6.626   6.374
 9552SOL    HW129555   2.186   6.708   6.317
 9552SOL    HW229556   2.194   6.545   6.316
 9553SOL     OW29557   5.545   2.551   7.009
 9553SOL    HW129558   5.508   2.578   6.920
 9553SOL    HW229559   5.631   2.599   7.026
 9554SOL     OW29560   1.350   6.744   3.729
 9554SOL    HW129561   1.305   6.661   3.698
 9554SOL    HW229562   1.303   6.824   3.692
 9555SOL     OW29563   0.402   1.456   3.173
 9555SOL    HW129564   0.350   1.508   3.241
 9555SOL    HW229565   0.344   1.439   3.094
 9556SOL     OW29566   1.884   3.957   0.948
 9556SOL    HW129567   1.889   4.006   1.035
 9556SOL    HW229568   1.867   3.860   0.965
 9557SOL     OW29569   5.318   6.877   1.457
 9557SOL    HW129570   5.412   6.859   1.485
 9557SOL    HW229571   5.318   6.924   1.368
 9558SOL     OW29572   5.688   6.408   5.307
 9558SOL    HW129573   5.635   6.329   5.340
 9558SOL    HW229574   5.635   6.456   5.237
 9559SOL     OW29575   1.161   3.927   0.038
 9559SOL    HW129576   1.180   3.896   0.131
 9559SOL    HW229577   1.100   3.861   7.019
 9560SOL     OW29578   2.767   0.887   2.700
 9560SOL    HW129579   2.700   0.954   2.732
 9560SOL    HW229580   2.851   0.935   2.675
 9561SOL     OW29581   0.407   0.210   1.181
 9561SOL    HW129582   0.328   0.267   1.201
 9561SOL    HW229583   0.447   0.237   1.093
 9562SOL     OW29584   2.628   6.157   4.509
 9562SOL    HW129585   2.568   6.222   4.461
 9562SOL    HW229586   2.722   6.171   4.479
 9563SOL     OW29587   0.324   6.652   6.993
 9563SOL    HW129588   0.317   6.627   6.897
 9563SOL    HW229589   0.415   6.626   0.001
 9564SOL     OW29590   2.379   1.165   1.107
 9564SOL    HW129591   2.281   1.175   1.091
 9564SOL    HW229592   2.397   1.074   1.145
 9565SOL     OW29593   3.320   0.832   5.628
 9565SOL    HW129594   3.304   0.780   5.712
 9565SOL    HW229595   3.235   0.836   5.575
 9566SOL     OW29596   2.471   5.683   0.314
 9566SOL    HW129597   2.382   5.684   0.268
 9566SOL    HW229598   2.470   5.749   0.389
 9567SOL     OW29599   5.501   4.389   0.255
 9567SOL    HW129600   5.442   4.346   0.324
 9567SOL    HW229601   5.505   4.331   0.174
 9568SOL     OW29602   4.034   1.354   0.200
 9568SOL    HW129603   3.967   1.386   0.132
 9568SOL    HW229604   4.012   1.394   0.289
 9569SOL     OW29605   0.173   1.138   2.032
 9569SOL    HW129606   0.260   1.095   2.010
 9569SOL    HW229607   0.189   1.223   2.083
 9570SOL     OW29608   0.302   2.704   1.151
 9570SOL    HW129609   0.209   2.742   1.149
 9570SOL    HW229610   0.346   2.726   1.237
 9571SOL     OW29611   2.780   3.200   5.748
 9571SOL    HW129612   2.822   3.143   5.677
 9571SOL    HW229613   2.765   3.292   5.712
 9572SOL     OW29614   1.685   5.038   2.489
 9572SOL    HW129615   1.587   5.021   2.476
 9572SOL    HW229616   1.733   5.028   2.402
 9573SOL     OW29617   0.069   1.757   6.484
 9573SOL    HW129618   0.107   1.689   6.547
 9573SOL    HW229619   0.138   1.827   6.466
 9574SOL     OW29620   3.384   2.901   2.437
 9574SOL    HW129621   3.421   2.891   2.530
 9574SOL    HW229622   3.285   2.919   2.443
 9575SOL     OW29623   0.122   1.366   2.189
 9575SOL    HW129624   0.029   1.331   2.181
 9575SOL    HW229625   0.121   1.466   2.184
 9576SOL     OW29626   1.984   2.249   0.461
 9576SOL    HW129627   2.057   2.315   0.443
 9576SOL    HW229628   2.022   2.168   0.505
 9577SOL     OW29629   0.598   0.004   5.414
 9577SOL    HW129630   0.601   0.037   5.319
 9577SOL    HW229631   0.569   0.079   5.474
 9578SOL     OW29632   1.098   2.742   2.913
 9578SOL    HW129633   1.119   2.840   2.918
 9578SOL    HW229634   0.999   2.729   2.912
 9579SOL     OW29635   0.430   6.283   3.259
 9579SOL    HW129636   0.392   6.263   3.349
 9579SOL    HW229637   0.358   6.320   3.200
 9580SOL     OW29638   4.638   3.463   0.874
 9580SOL    HW129639   4.641   3.531   0.948
 9580SOL    HW229640   4.642   3.371   0.912
 9581SOL     OW29641   0.412   0.301   6.379
 9581SOL    HW129642   0.433   0.209   6.412
 9581SOL    HW229643   0.497   0.352   6.367
 9582SOL     OW29644   3.764   5.873   4.750
 9582SOL    HW129645   3.791   5.777   4.738
 9582SOL    HW229646   3.829   5.918   4.811
 9583SOL     OW29647   3.201   3.951   1.188
 9583SOL    HW129648   3.165   3.859   1.170
 9583SOL    HW229649   3.268   3.947   1.262
 9584SOL     OW29650   0.279   4.795   5.857
 9584SOL    HW129651   0.220   4.795   5.938
 9584SOL    HW229652   0.341   4.717   5.861
 9585SOL     OW29653   5.419   6.775   3.069
 9585SOL    HW129654   5.365   6.857   3.049
 9585SOL    HW229655   5.512   6.788   3.037
 9586SOL     OW29656   4.634   5.654   2.320
 9586SOL    HW129657   4.625   5.570   2.373
 9586SOL    HW229658   4.589   5.729   2.369
 9587SOL     OW29659   0.744   6.887   1.216
 9587SOL    HW129660   0.799   6.861   1.136
 9587SOL    HW229661   0.651   6.852   1.206
 9588SOL     OW29662   6.000   6.650   0.517
 9588SOL    HW129663   5.970   6.644   0.422
 9588SOL    HW229664   5.988   6.562   0.562
 9589SOL     OW29665   1.758   4.608   0.203
 9589SOL    HW129666   1.743   4.706   0.215
 9589SOL    HW229667   1.777   4.566   0.292
 9590SOL     OW29668   6.164   2.528   1.832
 9590SOL    HW129669   6.263   2.510   1.836
 9590SOL    HW229670   6.123   2.507   1.920
 9591SOL     OW29671   2.895   5.542   6.124
 9591SOL    HW129672   2.797   5.543   6.107
 9591SOL    HW229673   2.937   5.465   6.076
 9592SOL     OW29674   3.178   4.516   0.664
 9592SOL    HW129675   3.208   4.536   0.571
 9592SOL    HW229676   3.173   4.600   0.717
 9593SOL     OW29677   0.952   1.224   6.462
 9593SOL    HW129678   0.887   1.286   6.417
 9593SOL    HW229679   1.044   1.243   6.429
 9594SOL     OW29680   2.222   5.365   4.137
 9594SOL    HW129681   2.289   5.301   4.174
 9594SOL    HW229682   2.267   5.450   4.109
 9595SOL     OW29683   0.449   2.863   4.087
 9595SOL    HW129684   0.488   2.940   4.135
 9595SOL    HW229685   0.364   2.835   4.132
 9596SOL     OW29686   0.692   5.175   6.574
 9596SOL    HW129687   0.646   5.088   6.588
 9596SOL    HW229688   0.738   5.202   6.659
 9597SOL     OW29689   6.778   4.075   1.609
 9597SOL    HW129690   6.811   4.158   1.654
 9597SOL    HW229691   6.767   4.002   1.677
 9598SOL     OW29692   2.128   4.524   3.203
 9598SOL    HW129693   2.134   4.506   3.105
 9598SOL    HW229694   2.195   4.468   3.251
 9599SOL     OW29695   2.825   0.317   3.819
 9599SOL    HW129696   2.823   0.370   3.904
 9599SOL    HW229697   2.837   0.380   3.742
 9600SOL     OW29698   2.942   0.217   0.005
 9600SOL    HW129699   2.876   0.213   6.957
 9600SOL    HW229700   3.018   0.154   7.012
 9601SOL     OW29701   5.173   4.662   0.495
 9601SOL    HW129702   5.223   4.659   0.408
 9601SOL    HW229703   5.234   4.636   0.569
 9602SOL     OW29704   6.059   4.169   6.728
 9602SOL    HW129705   5.992   4.149   6.800
 9602SOL    HW229706   6.086   4.084   6.684
 9603SOL     OW29707   4.319   1.161   6.259
 9603SOL    HW129708   4.356   1.069   6.250
 9603SOL    HW229709   4.221   1.156   6.278
 9604SOL     OW29710   5.016   0.074   1.051
 9604SOL    HW129711   5.083   0.146   1.034
 9604SOL    HW229712   5.062   7.016   1.075
 9605SOL     OW29713   1.233   6.395   2.994
 9605SOL    HW129714   1.238   6.302   3.031
 9605SOL    HW229715   1.183   6.454   3.058
 9606SOL     OW29716   1.939   6.394   6.823
 9606SOL    HW129717   1.995   6.323   6.867
 9606SOL    HW229718   1.947   6.386   6.724
 9607SOL     OW29719   2.680   1.418   6.971
 9607SOL    HW129720   2.597   1.412   6.916
 9607SOL    HW229721   2.662   1.471   0.027
 9608SOL     OW29722   0.084   4.419   1.752
 9608SOL    HW129723   0.130   4.451   1.670
 9608SOL    HW229724   0.134   4.449   1.833
 9609SOL     OW29725   3.068   2.892   0.290
 9609SOL    HW129726   3.121   2.836   0.226
 9609SOL    HW229727   3.122   2.910   0.372
 9610SOL     OW29728   1.606   4.878   3.708
 9610SOL    HW129729   1.532   4.819   3.675
 9610SOL    HW229730   1.567   4.962   3.746
 9611SOL     OW29731   1.253   6.366   0.398
 9611SOL    HW129732   1.289   6.444   0.346
 9611SOL    HW229733   1.329   6.315   0.438
 9612SOL     OW29734   0.114   3.620   1.643
 9612SOL    HW129735   0.043   3.556   1.614
 9612SOL    HW229736   0.128   3.689   1.572
 9613SOL     OW29737   4.929   0.068   3.256
 9613SOL    HW129738   4.857   0.113   3.308
 9613SOL    HW229739   4.927   0.099   3.161
 9614SOL     OW29740   4.129   2.216   1.790
 9614SOL    HW129741   4.093   2.147   1.852
 9614SOL    HW229742   4.192   2.174   1.725
 9615SOL     OW29743   2.584   0.961   0.718
 9615SOL    HW129744   2.493   0.927   0.741
 9615SOL    HW229745   2.652   0.921   0.779
 9616SOL     OW29746   3.721   4.000   1.408
 9616SOL    HW129747   3.733   4.095   1.379
 9616SOL    HW229748   3.781   3.982   1.486
 9617SOL     OW29749   1.476   2.899   3.070
 9617SOL    HW129750   1.478   2.820   3.009
 9617SOL    HW229751   1.441   2.871   3.159
 9618SOL     OW29752   2.994   6.491   0.447
 9618SOL    HW129753   3.077   6.442   0.420
 9618SOL    HW229754   2.938   6.507   0.367
 9619SOL     OW29755   1.419   0.005   6.426
 9619SOL    HW129756   1.372   0.050   6.503
 9619SOL    HW229757   1.360   0.010   6.345
 9620SOL     OW29758   4.313   0.457   6.031
 9620SOL    HW129759   4.215   0.474   6.022
 9620SOL    HW229760   4.330   0.400   6.111
 9621SOL     OW29761   1.408   2.413   2.019
 9621SOL    HW129762   1.467   2.488   2.049
 9621SOL    HW229763   1.418   2.335   2.081
 9622SOL     OW29764   0.181   1.240   0.382
 9622SOL    HW129765   0.100   1.222   0.326
 9622SOL    HW229766   0.188   1.338   0.400
 9623SOL     OW29767   2.815   3.479   5.642
 9623SOL    HW129768   2.885   3.428   5.592
 9623SOL    HW229769   2.815   3.574   5.613
 9624SOL     OW29770   6.703   4.137   2.992
 9624SOL    HW129771   6.635   4.112   2.923
 9624SOL    HW229772   6.658   4.145   3.081
 9625SOL     OW29773   4.641   5.703   6.690
 9625SOL    HW129774   4.552   5.657   6.688
 9625SOL    HW229775   4.689   5.680   6.774
 9626SOL     OW29776   4.467   5.382   0.676
 9626SOL    HW129777   4.419   5.470   0.673
 9626SOL    HW229778   4.544   5.384   0.612
 9627SOL     OW29779   6.944   5.988   5.079
 9627SOL    HW129780   6.879   6.048   5.124
 9627SOL    HW229781   0.007   6.032   5.074
 9628SOL     OW29782   4.693   4.645   0.304
 9628SOL    HW129783   4.713   4.714   0.373
 9628SOL    HW229784   4.707   4.685   0.213
 9629SOL     OW29785   0.625   6.928   1.784
 9629SOL    HW129786   0.596   6.932   1.689
 9629SOL    HW229787   0.557   6.974   1.842
 9630SOL     OW29788   6.455   0.165   4.625
 9630SOL    HW129789   6.408   0.108   4.558
 9630SOL    HW229790   6.389   0.196   4.694
 9631SOL     OW29791   6.995   6.586   6.928
 9631SOL    HW129792   6.909   6.618   6.889
 9631SOL    HW229793   0.043   6.602   6.862
 9632SOL     OW29794   1.110   0.210   2.489
 9632SOL    HW129795   1.029   0.151   2.493
 9632SOL    HW229796   1.187   0.158   2.453
 9633SOL     OW29797   4.820   5.246   5.949
 9633SOL    HW129798   4.823   5.195   5.862
 9633SOL    HW229799   4.826   5.181   6.025
 9634SOL     OW29800   1.128   5.841   4.154
 9634SOL    HW129801   1.217   5.806   4.126
 9634SOL    HW229802   1.109   5.927   4.107
 9635SOL     OW29803   1.645   5.518   5.050
 9635SOL    HW129804   1.653   5.594   4.986
 9635SOL    HW229805   1.603   5.440   5.003
 9636SOL     OW29806   3.796   2.267   5.938
 9636SOL    HW129807   3.762   2.174   5.926
 9636SOL    HW229808   3.737   2.331   5.889
 9637SOL     OW29809   2.442   1.633   6.566
 9637SOL    HW129810   2.477   1.727   6.558
 9637SOL    HW229811   2.342   1.635   6.566
 9638SOL     OW29812   6.498   3.938   6.571
 9638SOL    HW129813   6.413   3.915   6.618
 9638SOL    HW229814   6.522   3.865   6.507
 9639SOL     OW29815   3.829   1.298   2.274
 9639SOL    HW129816   3.829   1.236   2.352
 9639SOL    HW229817   3.772   1.260   2.201
 9640SOL     OW29818   2.297   2.804   3.795
 9640SOL    HW129819   2.207   2.761   3.791
 9640SOL    HW229820   2.351   2.776   3.715
 9641SOL     OW29821   3.940   5.836   0.947
 9641SOL    HW129822   3.989   5.920   0.968
 9641SOL    HW229823   3.941   5.820   0.848
 9642SOL     OW29824   3.265   6.899   4.970
 9642SOL    HW129825   3.230   6.983   5.011
 9642SOL    HW229826   3.360   6.913   4.941
 9643SOL     OW29827   5.530   5.524   3.889
 9643SOL    HW129828   5.472   5.546   3.811
 9643SOL    HW229829   5.510   5.431   3.921
 9644SOL     OW29830   1.012   4.114   6.000
 9644SOL    HW129831   0.998   4.168   6.083
 9644SOL    HW229832   1.078   4.161   5.941
 9645SOL     OW29833   2.800   5.472   4.575
 9645SOL    HW129834   2.723   5.532   4.598
 9645SOL    HW229835   2.848   5.447   4.658
 9646SOL     OW29836   2.679   4.819   1.947
 9646SOL    HW129837   2.736   4.879   1.891
 9646SOL    HW229838   2.737   4.752   1.994
 9647SOL     OW29839   6.693   5.322   1.871
 9647SOL    HW129840   6.645   5.403   1.903
 9647SOL    HW229841   6.629   5.244   1.870
 9648SOL     OW29842   4.603   1.080   0.545
 9648SOL    HW129843   4.515   1.038   0.521
 9648SOL    HW229844   4.639   1.129   0.466
 9649SOL     OW29845   2.849   6.420   0.190
 9649SOL    HW129846   2.892   6.384   0.107
 9649SOL    HW229847   2.749   6.415   0.181
 9650SOL     OW29848   6.343   4.993   2.009
 9650SOL    HW129849   6.428   5.033   1.975
 9650SOL    HW229850   6.356   4.964   2.104
 9651SOL     OW29851   0.017   1.394   6.079
 9651SOL    HW129852   6.958   1.341   6.078
 9651SOL    HW229853   0.030   1.437   5.990
 9652SOL     OW29854   1.930   4.367   0.986
 9652SOL    HW129855   1.837   4.333   0.998
 9652SOL    HW229856   1.983   4.301   0.933
 9653SOL     OW29857   4.144   4.853   4.553
 9653SOL    HW129858   4.155   4.820   4.460
 9653SOL    HW229859   4.146   4.775   4.616
 9654SOL     OW29860   3.239   2.715   1.424
 9654SOL    HW129861   3.311   2.646   1.426
 9654SOL    HW229862   3.258   2.785   1.493
 9655SOL     OW29863   0.297   0.953   0.237
 9655SOL    HW129864   0.262   1.017   0.306
 9655SOL    HW229865   0.354   0.884   0.283
 9656SOL     OW29866   2.507   1.187   1.749
 9656SOL    HW129867   2.530   1.132   1.669
 9656SOL    HW229868   2.413   1.169   1.776
 9657SOL     OW29869   5.274   0.254   3.673
 9657SOL    HW129870   5.235   0.326   3.616
 9657SOL    HW229871   5.205   0.223   3.739
 9658SOL     OW29872   6.720   2.163   3.127
 9658SOL    HW129873   6.667   2.081   3.146
 9658SOL    HW229874   6.661   2.244   3.134
 9659SOL     OW29875   6.605   4.459   0.315
 9659SOL    HW129876   6.564   4.368   0.305
 9659SOL    HW229877   6.539   4.529   0.286
 9660SOL     OW29878   0.409   5.486   0.614
 9660SOL    HW129879   0.464   5.567   0.633
 9660SOL    HW229880   0.365   5.495   0.524
 9661SOL     OW29881   4.336   5.585   1.504
 9661SOL    HW129882   4.368   5.538   1.422
 9661SOL    HW229883   4.403   5.655   1.531
 9662SOL     OW29884   6.176   2.869   5.026
 9662SOL    HW129885   6.200   2.885   4.931
 9662SOL    HW229886   6.096   2.810   5.031
 9663SOL     OW29887   1.369   5.754   4.118
 9663SOL    HW129888   1.437   5.780   4.186
 9663SOL    HW229889   1.406   5.769   4.026
 9664SOL     OW29890   5.452   0.106   2.897
 9664SOL    HW129891   5.534   0.121   2.952
 9664SOL    HW229892   5.382   0.062   2.953
 9665SOL     OW29893   5.762   4.951   5.497
 9665SOL    HW129894   5.710   4.869   5.521
 9665SOL    HW229895   5.855   4.924   5.473
 9666SOL     OW29896   5.486   4.005   1.787
 9666SOL    HW129897   5.542   4.022   1.868
 9666SOL    HW229898   5.540   3.956   1.718
 9667SOL     OW29899   3.834   2.990   4.374
 9667SOL    HW129900   3.894   2.957   4.301
 9667SOL    HW229901   3.741   3.002   4.339
 9668SOL     OW29902   6.925   1.779   5.941
 9668SOL    HW129903   6.837   1.746   5.907
 9668SOL    HW229904   6.934   1.757   6.039
 9669SOL     OW29905   0.875   1.693   1.066
 9669SOL    HW129906   0.808   1.628   1.032
 9669SOL    HW229907   0.944   1.645   1.120
 9670SOL     OW29908   4.746   4.783   6.087
 9670SOL    HW129909   4.663   4.791   6.033
 9670SOL    HW229910   4.805   4.862   6.070
 9671SOL     OW29911   0.566   5.354   6.190
 9671SOL    HW129912   0.618   5.378   6.108
 9671SOL    HW229913   0.509   5.274   6.171
 9672SOL     OW29914   1.120   0.000   4.484
 9672SOL    HW129915   1.056   0.068   4.521
 9672SOL    HW229916   1.120   0.004   4.384
 9673SOL     OW29917   5.132   4.291   6.868
 9673SOL    HW129918   5.146   4.204   6.821
 9673SOL    HW229919   5.109   4.361   6.800
 9674SOL     OW29920   2.849   5.685   2.879
 9674SOL    HW129921   2.845   5.607   2.941
 9674SOL    HW229922   2.882   5.765   2.929
 9675SOL     OW29923   5.697   1.090   1.769
 9675SOL    HW129924   5.754   1.166   1.739
 9675SOL    HW229925   5.661   1.109   1.860
 9676SOL     OW29926   1.433   3.476   5.519
 9676SOL    HW129927   1.458   3.479   5.615
 9676SOL    HW229928   1.452   3.385   5.482
 9677SOL     OW29929   2.587   4.207   6.214
 9677SOL    HW129930   2.567   4.112   6.236
 9677SOL    HW229931   2.576   4.222   6.116
 9678SOL     OW29932   3.238   4.013   2.957
 9678SOL    HW129933   3.303   4.086   2.935
 9678SOL    HW229934   3.283   3.924   2.948
 9679SOL     OW29935   0.734   1.367   1.783
 9679SOL    HW129936   0.807   1.429   1.753
 9679SOL    HW229937   0.655   1.377   1.722
 9680SOL     OW29938   6.165   0.476   3.375
 9680SOL    HW129939   6.210   0.500   3.290
 9680SOL    HW229940   6.099   0.402   3.359
 9681SOL     OW29941   2.742   0.643   1.445
 9681SOL    HW129942   2.760   0.579   1.520
 9681SOL    HW229943   2.654   0.622   1.403
 9682SOL     OW29944   5.032   5.423   3.009
 9682SOL    HW129945   4.962   5.492   3.028
 9682SOL    HW229946   5.052   5.422   2.912
 9683SOL     OW29947   4.038   5.493   0.687
 9683SOL    HW129948   4.064   5.519   0.780
 9683SOL    HW229949   3.960   5.430   0.691
 9684SOL     OW29950   0.320   3.472   4.969
 9684SOL    HW129951   0.223   3.475   4.990
 9684SOL    HW229952   0.354   3.379   4.984
 9685SOL     OW29953   2.112   3.291   1.114
 9685SOL    HW129954   2.064   3.229   1.177
 9685SOL    HW229955   2.202   3.313   1.152
 9686SOL     OW29956   6.539   1.948   0.738
 9686SOL    HW129957   6.487   1.874   0.781
 9686SOL    HW229958   6.536   2.029   0.796
 9687SOL     OW29959   1.785   0.872   3.338
 9687SOL    HW129960   1.771   0.924   3.423
 9687SOL    HW229961   1.873   0.825   3.343
 9688SOL     OW29962   6.466   2.506   3.311
 9688SOL    HW129963   6.441   2.601   3.294
 9688SOL    HW229964   6.494   2.463   3.225
 9689SOL     OW29965   1.749   6.609   0.455
 9689SOL    HW129966   1.836   6.590   0.408
 9689SOL    HW229967   1.699   6.679   0.404
 9690SOL     OW29968   5.680   5.501   6.369
 9690SOL    HW129969   5.706   5.405   6.376
 9690SOL    HW229970   5.703   5.535   6.277
 9691SOL     OW29971   2.783   4.860   1.292
 9691SOL    HW129972   2.703   4.837   1.237
 9691SOL    HW229973   2.760   4.936   1.353
 9692SOL     OW29974   2.074   5.195   2.591
 9692SOL    HW129975   2.126   5.238   2.664
 9692SOL    HW229976   2.003   5.136   2.629
 9693SOL     OW29977   0.206   5.413   1.990
 9693SOL    HW129978   0.260   5.366   1.921
 9693SOL    HW229979   0.121   5.363   2.006
 9694SOL     OW29980   1.940   1.038   6.090
 9694SOL    HW129981   1.976   0.945   6.083
 9694SOL    HW229982   1.982   1.084   6.168
 9695SOL     OW29983   6.039   4.475   1.192
 9695SOL    HW129984   6.133   4.467   1.159
 9695SOL    HW229985   5.986   4.533   1.130
 9696SOL     OW29986   4.674   2.689   1.327
 9696SOL    HW129987   4.625   2.676   1.240
 9696SOL    HW229988   4.610   2.677   1.403
 9697SOL     OW29989   0.124   5.306   6.732
 9697SOL    HW129990   0.140   5.356   6.817
 9697SOL    HW229991   0.182   5.343   6.659
 9698SOL     OW29992   6.161   1.032   5.570
 9698SOL    HW129993   6.101   1.097   5.616
 9698SOL    HW229994   6.254   1.041   5.605
 9699SOL     OW29995   0.210   4.234   6.071
 9699SOL    HW129996   0.221   4.274   6.162
 9699SOL    HW229997   0.293   4.184   6.047
 9700SOL     OW29998   3.551   5.047   5.698
 9700SOL    HW129999   3.573   5.061   5.795
 9700SOL    HW230000   3.589   5.122   5.644
 9701SOL     OW30001   3.773   5.575   4.723
 9701SOL    HW130002   3.777   5.606   4.628
 9701SOL    HW230003   3.779   5.475   4.725
 9702SOL     OW30004   5.325   0.276   6.543
 9702SOL    HW130005   5.414   0.312   6.516
 9702SOL    HW230006   5.267   0.264   6.462
 9703SOL     OW30007   3.700   5.888   4.302
 9703SOL    HW130008   3.687   5.968   4.244
 9703SOL    HW230009   3.767   5.827   4.260
 9704SOL     OW30010   2.968   0.759   2.361
 9704SOL    HW130011   3.068   0.764   2.358
 9704SOL    HW230012   2.936   0.704   2.283
 9705SOL     OW30013   5.174   5.204   0.459
 9705SOL    HW130014   5.211   5.290   0.425
 9705SOL    HW230015   5.223   5.177   0.543
 9706SOL     OW30016   0.127   2.295   1.309
 9706SOL    HW130017   0.049   2.286   1.371
 9706SOL    HW230018   0.094   2.294   1.214
 9707SOL     OW30019   6.893   4.442   2.330
 9707SOL    HW130020   6.811   4.384   2.327
 9707SOL    HW230021   6.870   4.533   2.297
 9708SOL     OW30022   1.874   2.424   3.434
 9708SOL    HW130023   1.845   2.333   3.405
 9708SOL    HW230024   1.794   2.477   3.462
 9709SOL     OW30025   0.174   6.057   3.464
 9709SOL    HW130026   0.246   6.013   3.518
 9709SOL    HW230027   0.191   6.155   3.460
 9710SOL     OW30028   0.668   1.558   2.614
 9710SOL    HW130029   0.700   1.609   2.693
 9710SOL    HW230030   0.573   1.582   2.595
 9711SOL     OW30031   1.475   3.265   6.062
 9711SOL    HW130032   1.451   3.168   6.060
 9711SOL    HW230033   1.477   3.301   5.968
 9712SOL     OW30034   5.397   3.246   4.701
 9712SOL    HW130035   5.432   3.330   4.743
 9712SOL    HW230036   5.297   3.250   4.699
 9713SOL     OW30037   0.003   5.186   2.592
 9713SOL    HW130038   7.018   5.206   2.689
 9713SOL    HW230039   0.100   5.177   2.571
 9714SOL     OW30040   1.861   0.997   1.787
 9714SOL    HW130041   1.922   0.964   1.859
 9714SOL    HW230042   1.900   1.081   1.748
 9715SOL     OW30043   6.752   5.841   4.324
 9715SOL    HW130044   6.762   5.923   4.269
 9715SOL    HW230045   6.788   5.858   4.416
 9716SOL     OW30046   3.979   2.672   0.031
 9716SOL    HW130047   3.956   2.579   0.062
 9716SOL    HW230048   4.078   2.682   0.029
 9717SOL     OW30049   5.416   6.045   5.156
 9717SOL    HW130050   5.454   6.017   5.068
 9717SOL    HW230051   5.469   6.003   5.230
 9718SOL     OW30052   4.665   3.290   1.681
 9718SOL    HW130053   4.662   3.210   1.740
 9718SOL    HW230054   4.760   3.311   1.657
 9719SOL     OW30055   0.549   2.184   0.010
 9719SOL    HW130056   0.530   2.087   0.025
 9719SOL    HW230057   0.514   2.238   0.087
 9720SOL     OW30058   0.854   5.774   1.661
 9720SOL    HW130059   0.936   5.810   1.706
 9720SOL    HW230060   0.805   5.848   1.616
 9721SOL     OW30061   0.845   2.500   1.931
 9721SOL    HW130062   0.837   2.424   1.995
 9721SOL    HW230063   0.762   2.505   1.875
 9722SOL     OW30064   0.321   0.030   3.476
 9722SOL    HW130065   0.380   0.029   3.556
 9722SOL    HW230066   0.328   0.118   3.430
 9723SOL     OW30067   1.310   6.158   2.695
 9723SOL    HW130068   1.386   6.154   2.631
 9723SOL    HW230069   1.345   6.164   2.788
 9724SOL     OW30070   3.350   2.921   1.553
 9724SOL    HW130071   3.406   2.955   1.477
 9724SOL    HW230072   3.309   2.998   1.601
 9725SOL     OW30073   4.234   3.659   6.046
 9725SOL    HW130074   4.242   3.579   6.106
 9725SOL    HW230075   4.225   3.742   6.102
 9726SOL     OW30076   4.585   0.481   4.483
 9726SOL    HW130077   4.661   0.476   4.547
 9726SOL    HW230078   4.499   0.462   4.532
 9727SOL     OW30079   1.505   3.264   5.330
 9727SOL    HW130080   1.587   3.213   5.354
 9727SOL    HW230081   1.510   3.293   5.234
 9728SOL     OW30082   1.034   6.325   6.611
 9728SOL    HW130083   1.053   6.423   6.622
 9728SOL    HW230084   0.956   6.314   6.549
 9729SOL     OW30085   1.477   4.416   2.914
 9729SOL    HW130086   1.466   4.320   2.888
 9729SOL    HW230087   1.504   4.422   3.010
 9730SOL     OW30088   6.865   3.124   3.019
 9730SOL    HW130089   6.961   3.115   3.046
 9730SOL    HW230090   6.837   3.220   3.030
 9731SOL     OW30091   4.497   4.897   0.689
 9731SOL    HW130092   4.442   4.895   0.772
 9731SOL    HW230093   4.437   4.892   0.609
 9732SOL     OW30094   5.899   6.330   3.271
 9732SOL    HW130095   5.956   6.252   3.294
 9732SOL    HW230096   5.957   6.407   3.244
 9733SOL     OW30097   5.602   5.253   4.899
 9733SOL    HW130098   5.689   5.276   4.856
 9733SOL    HW230099   5.542   5.211   4.831
 9734SOL     OW30100   5.272   1.919   4.266
 9734SOL    HW130101   5.306   1.936   4.174
 9734SOL    HW230102   5.348   1.895   4.326
 9735SOL     OW30103   1.669   4.620   2.914
 9735SOL    HW130104   1.611   4.539   2.918
 9735SOL    HW230105   1.672   4.655   2.820
 9736SOL     OW30106   5.361   1.501   6.035
 9736SOL    HW130107   5.452   1.532   6.061
 9736SOL    HW230108   5.312   1.575   5.989
 9737SOL     OW30109   4.639   2.769   4.865
 9737SOL    HW130110   4.613   2.766   4.962
 9737SOL    HW230111   4.733   2.736   4.855
 9738SOL     OW30112   1.813   0.093   3.076
 9738SOL    HW130113   1.837   0.011   3.024
 9738SOL    HW230114   1.777   0.066   3.166
 9739SOL     OW30115   0.700   4.721   1.877
 9739SOL    HW130116   0.755   4.717   1.794
 9739SOL    HW230117   0.623   4.782   1.863
 9740SOL     OW30118   6.084   3.247   3.235
 9740SOL    HW130119   6.155   3.294   3.289
 9740SOL    HW230120   6.128   3.184   3.171
 9741SOL     OW30121   4.605   1.330   2.665
 9741SOL    HW130122   4.681   1.390   2.640
 9741SOL    HW230123   4.550   1.311   2.584
 9742SOL     OW30124   4.520   0.162   3.047
 9742SOL    HW130125   4.462   0.150   2.967
 9742SOL    HW230126   4.508   0.085   3.109
 9743SOL     OW30127   2.236   2.090   5.801
 9743SOL    HW130128   2.193   2.168   5.756
 9743SOL    HW230129   2.234   2.011   5.741
 9744SOL     OW30130   0.992   0.423   2.633
 9744SOL    HW130131   1.008   0.420   2.732
 9744SOL    HW230132   1.032   0.342   2.590
 9745SOL     OW30133   0.452   2.476   5.785
 9745SOL    HW130134   0.352   2.465   5.782
 9745SOL    HW230135   0.494   2.414   5.718
 9746SOL     OW30136   5.558   1.686   5.093
 9746SOL    HW130137   5.526   1.635   5.173
 9746SOL    HW230138   5.543   1.784   5.108
 9747SOL     OW30139   1.388   1.236   1.897
 9747SOL    HW130140   1.298   1.193   1.884
 9747SOL    HW230141   1.384   1.299   1.974
 9748SOL     OW30142   1.170   0.032   5.124
 9748SOL    HW130143   1.263   0.029   5.087
 9748SOL    HW230144   1.131   6.967   5.123
 9749SOL     OW30145   2.023   2.362   5.469
 9749SOL    HW130146   1.929   2.395   5.463
 9749SOL    HW230147   2.084   2.422   5.417
 9750SOL     OW30148   5.631   5.070   4.121
 9750SOL    HW130149   5.645   4.971   4.124
 9750SOL    HW230150   5.576   5.099   4.199
 9751SOL     OW30151   2.014   2.494   1.338
 9751SOL    HW130152   1.998   2.473   1.434
 9751SOL    HW230153   2.011   2.410   1.284
 9752SOL     OW30154   4.390   0.899   6.257
 9752SOL    HW130155   4.315   0.870   6.317
 9752SOL    HW230156   4.423   0.820   6.206
 9753SOL     OW30157   6.292   6.320   5.090
 9753SOL    HW130158   6.259   6.290   5.180
 9753SOL    HW230159   6.226   6.294   5.020
 9754SOL     OW30160   1.213   1.649   0.093
 9754SOL    HW130161   1.298   1.643   0.147
 9754SOL    HW230162   1.222   1.723   0.027
 9755SOL     OW30163   4.080   3.265   4.829
 9755SOL    HW130164   4.115   3.181   4.872
 9755SOL    HW230165   3.982   3.273   4.848
 9756SOL     OW30166   6.266   2.566   0.162
 9756SOL    HW130167   6.318   2.630   0.106
 9756SOL    HW230168   6.169   2.590   0.159
 9757SOL     OW30169   4.909   3.168   3.678
 9757SOL    HW130170   4.851   3.089   3.659
 9757SOL    HW230171   4.980   3.174   3.608
 9758SOL     OW30172   1.842   0.385   6.107
 9758SOL    HW130173   1.774   0.403   6.179
 9758SOL    HW230174   1.923   0.343   6.148
 9759SOL     OW30175   2.505   7.003   1.137
 9759SOL    HW130176   2.527   0.069   1.108
 9759SOL    HW230177   2.407   6.997   1.158
 9760SOL     OW30178   5.145   3.833   5.280
 9760SOL    HW130179   5.056   3.850   5.239
 9760SOL    HW230180   5.136   3.774   5.359
 9761SOL     OW30181   5.477   6.104   2.067
 9761SOL    HW130182   5.397   6.139   2.017
 9761SOL    HW230183   5.447   6.039   2.136
 9762SOL     OW30184   2.570   2.067   4.483
 9762SOL    HW130185   2.514   2.150   4.479
 9762SOL    HW230186   2.660   2.089   4.520
 9763SOL     OW30187   4.478   1.717   1.511
 9763SOL    HW130188   4.407   1.759   1.569
 9763SOL    HW230189   4.514   1.636   1.557
 9764SOL     OW30190   1.326   1.969   3.421
 9764SOL    HW130191   1.394   2.040   3.404
 9764SOL    HW230192   1.333   1.898   3.351
 9765SOL     OW30193   6.726   2.042   4.805
 9765SOL    HW130194   6.689   2.085   4.887
 9765SOL    HW230195   6.679   1.956   4.787
 9766SOL     OW30196   2.254   0.601   2.845
 9766SOL    HW130197   2.155   0.614   2.845
 9766SOL    HW230198   2.281   0.551   2.762
 9767SOL     OW30199   4.963   2.017   4.746
 9767SOL    HW130200   5.056   2.055   4.741
 9767SOL    HW230201   4.903   2.070   4.686
 9768SOL     OW30202   5.413   2.258   2.506
 9768SOL    HW130203   5.418   2.186   2.575
 9768SOL    HW230204   5.413   2.217   2.415
 9769SOL     OW30205   1.684   1.646   2.068
 9769SOL    HW130206   1.698   1.712   2.142
 9769SOL    HW230207   1.731   1.560   2.091
 9770SOL     OW30208   5.802   6.246   6.153
 9770SOL    HW130209   5.705   6.269   6.169
 9770SOL    HW230210   5.823   6.158   6.195
 9771SOL     OW30211   4.913   4.608   1.020
 9771SOL    HW130212   4.973   4.566   1.088
 9771SOL    HW230213   4.819   4.578   1.035
 9772SOL     OW30214   6.892   6.706   1.631
 9772SOL    HW130215   6.850   6.628   1.584
 9772SOL    HW230216   6.912   6.680   1.726
 9773SOL     OW30217   6.045   6.119   3.377
 9773SOL    HW130218   6.074   6.213   3.395
 9773SOL    HW230219   6.125   6.059   3.377
 9774SOL     OW30220   5.975   5.470   3.395
 9774SOL    HW130221   5.919   5.553   3.391
 9774SOL    HW230222   6.043   5.479   3.468
 9775SOL     OW30223   2.202   2.093   4.524
 9775SOL    HW130224   2.169   2.111   4.431
 9775SOL    HW230225   2.208   2.179   4.575
 9776SOL     OW30226   0.034   5.629   4.287
 9776SOL    HW130227   0.130   5.612   4.309
 9776SOL    HW230228   0.017   5.603   4.192
 9777SOL     OW30229   5.610   5.157   6.529
 9777SOL    HW130230   5.674   5.086   6.562
 9777SOL    HW230231   5.654   5.210   6.457
 9778SOL     OW30232   5.499   0.082   3.566
 9778SOL    HW130233   5.577   0.132   3.530
 9778SOL    HW230234   5.414   0.131   3.544
 9779SOL     OW30235   2.304   1.478   4.657
 9779SOL    HW130236   2.362   1.420   4.601
 9779SOL    HW230237   2.258   1.546   4.600
 9780SOL     OW30238   2.421   2.530   0.902
 9780SOL    HW130239   2.325   2.501   0.907
 9780SOL    HW230240   2.475   2.456   0.863
 9781SOL     OW30241   1.943   4.631   4.182
 9781SOL    HW130242   1.994   4.704   4.229
 9781SOL    HW230243   1.973   4.626   4.087
 9782SOL     OW30244   6.417   0.193   0.664
 9782SOL    HW130245   6.391   0.110   0.615
 9782SOL    HW230246   6.472   0.168   0.744
 9783SOL     OW30247   6.303   1.247   1.803
 9783SOL    HW130248   6.387   1.226   1.852
 9783SOL    HW230249   6.290   1.181   1.729
 9784SOL     OW30250   4.492   1.569   3.227
 9784SOL    HW130251   4.426   1.495   3.214
 9784SOL    HW230252   4.458   1.652   3.182
 9785SOL     OW30253   0.089   2.785   3.337
 9785SOL    HW130254   0.163   2.724   3.367
 9785SOL    HW230255   0.082   2.781   3.237
 9786SOL     OW30256   1.715   4.755   5.772
 9786SOL    HW130257   1.692   4.838   5.722
 9786SOL    HW230258   1.746   4.685   5.708
 9787SOL     OW30259   5.399   3.395   1.886
 9787SOL    HW130260   5.408   3.297   1.866
 9787SOL    HW230261   5.329   3.408   1.956
 9788SOL     OW30262   0.530   0.374   3.881
 9788SOL    HW130263   0.601   0.353   3.814
 9788SOL    HW230264   0.459   0.430   3.838
 9789SOL     OW30265   2.136   5.315   6.102
 9789SOL    HW130266   2.136   5.225   6.057
 9789SOL    HW230267   2.120   5.303   6.200
 9790SOL     OW30268   5.766   2.629   4.350
 9790SOL    HW130269   5.679   2.667   4.318
 9790SOL    HW230270   5.815   2.698   4.404
 9791SOL     OW30271   0.790   0.767   1.602
 9791SOL    HW130272   0.808   0.865   1.607
 9791SOL    HW230273   0.718   0.742   1.667
 9792SOL     OW30274   4.553   5.236   1.838
 9792SOL    HW130275   4.492   5.267   1.766
 9792SOL    HW230276   4.632   5.297   1.843
 9793SOL     OW30277   4.794   5.975   2.604
 9793SOL    HW130278   4.860   5.937   2.538
 9793SOL    HW230279   4.719   5.911   2.617
 9794SOL     OW30280   5.575   3.502   6.429
 9794SOL    HW130281   5.532   3.452   6.504
 9794SOL    HW230282   5.558   3.454   6.343
 9795SOL     OW30283   1.008   2.701   3.949
 9795SOL    HW130284   0.931   2.637   3.948
 9795SOL    HW230285   1.028   2.728   4.043
 9796SOL     OW30286   3.149   4.735   0.818
 9796SOL    HW130287   3.153   4.711   0.915
 9796SOL    HW230288   3.185   4.827   0.805
 9797SOL     OW30289   4.829   3.705   0.164
 9797SOL    HW130290   4.880   3.674   0.244
 9797SOL    HW230291   4.822   3.805   0.166
 9798SOL     OW30292   2.483   0.575   1.316
 9798SOL    HW130293   2.400   0.606   1.271
 9798SOL    HW230294   2.490   0.476   1.310
 9799SOL     OW30295   3.339   3.511   2.629
 9799SOL    HW130296   3.428   3.557   2.637
 9799SOL    HW230297   3.268   3.568   2.671
 9800SOL     OW30298   4.260   6.055   6.111
 9800SOL    HW130299   4.213   6.035   6.197
 9800SOL    HW230300   4.224   5.997   6.038
 9801SOL     OW30301   4.411   5.499   6.764
 9801SOL    HW130302   4.346   5.425   6.776
 9801SOL    HW230303   4.369   5.586   6.789
 9802SOL     OW30304   0.602   3.370   1.747
 9802SOL    HW130305   0.533   3.357   1.819
 9802SOL    HW230306   0.597   3.464   1.713
 9803SOL     OW30307   6.305   0.228   6.607
 9803SOL    HW130308   6.399   0.223   6.640
 9803SOL    HW230309   6.305   0.235   6.507
 9804SOL     OW30310   0.215   5.014   3.432
 9804SOL    HW130311   0.173   5.103   3.449
 9804SOL    HW230312   0.200   4.987   3.337
 9805SOL     OW30313   1.270   5.485   6.658
 9805SOL    HW130314   1.350   5.445   6.701
 9805SOL    HW230315   1.296   5.528   6.571
 9806SOL     OW30316   0.878   2.717   1.516
 9806SOL    HW130317   0.900   2.781   1.590
 9806SOL    HW230318   0.831   2.767   1.443
 9807SOL     OW30319   3.513   1.755   0.021
 9807SOL    HW130320   3.568   1.764   0.103
 9807SOL    HW230321   3.493   1.846   7.010
 9808SOL     OW30322   5.854   1.235   5.484
 9808SOL    HW130323   5.862   1.248   5.583
 9808SOL    HW230324   5.757   1.228   5.459
 9809SOL     OW30325   0.853   1.347   5.602
 9809SOL    HW130326   0.869   1.431   5.551
 9809SOL    HW230327   0.922   1.338   5.675
 9810SOL     OW30328   2.953   1.688   3.004
 9810SOL    HW130329   3.031   1.653   3.055
 9810SOL    HW230330   2.869   1.667   3.053
 9811SOL     OW30331   6.366   6.143   3.411
 9811SOL    HW130332   6.451   6.159   3.361
 9811SOL    HW230333   6.342   6.225   3.462
 9812SOL     OW30334   4.065   1.979   6.194
 9812SOL    HW130335   4.046   2.003   6.289
 9812SOL    HW230336   4.135   1.907   6.191
 9813SOL     OW30337   6.274   5.316   0.136
 9813SOL    HW130338   6.359   5.304   0.189
 9813SOL    HW230339   6.279   5.400   0.083
 9814SOL     OW30340   6.566   0.700   5.949
 9814SOL    HW130341   6.479   0.663   5.982
 9814SOL    HW230342   6.555   0.731   5.855
 9815SOL     OW30343   6.560   3.107   1.246
 9815SOL    HW130344   6.555   3.024   1.301
 9815SOL    HW230345   6.492   3.103   1.173
 9816SOL     OW30346   6.261   0.936   6.579
 9816SOL    HW130347   6.309   0.851   6.556
 9816SOL    HW230348   6.253   0.993   6.497
 9817SOL     OW30349   3.266   5.257   1.723
 9817SOL    HW130350   3.186   5.262   1.783
 9817SOL    HW230351   3.295   5.349   1.697
 9818SOL     OW30352   2.030   1.467   3.651
 9818SOL    HW130353   2.116   1.511   3.626
 9818SOL    HW230354   2.014   1.388   3.592
 9819SOL     OW30355   5.594   3.872   4.740
 9819SOL    HW130356   5.583   3.779   4.705
 9819SOL    HW230357   5.643   3.869   4.827
 9820SOL     OW30358   3.025   1.692   6.705
 9820SOL    HW130359   2.952   1.632   6.736
 9820SOL    HW230360   3.019   1.704   6.606
 9821SOL     OW30361   4.576   2.068   1.666
 9821SOL    HW130362   4.530   2.071   1.754
 9821SOL    HW230363   4.608   2.160   1.641
 9822SOL     OW30364   3.956   6.067   4.481
 9822SOL    HW130365   3.931   6.010   4.403
 9822SOL    HW230366   3.874   6.090   4.533
 9823SOL     OW30367   1.221   0.624   2.251
 9823SOL    HW130368   1.242   0.721   2.244
 9823SOL    HW230369   1.223   0.596   2.347
 9824SOL     OW30370   2.255   6.252   5.854
 9824SOL    HW130371   2.169   6.281   5.895
 9824SOL    HW230372   2.239   6.176   5.792
 9825SOL     OW30373   4.905   6.038   5.130
 9825SOL    HW130374   4.993   6.005   5.163
 9825SOL    HW230375   4.885   6.127   5.172
 9826SOL     OW30376   3.579   0.121   5.492
 9826SOL    HW130377   3.655   0.112   5.427
 9826SOL    HW230378   3.608   0.177   5.570
 9827SOL     OW30379   1.800   5.863   2.658
 9827SOL    HW130380   1.824   5.959   2.640
 9827SOL    HW230381   1.860   5.803   2.605
 9828SOL     OW30382   3.562   1.799   4.672
 9828SOL    HW130383   3.561   1.768   4.767
 9828SOL    HW230384   3.601   1.891   4.667
 9829SOL     OW30385   4.437   6.273   6.105
 9829SOL    HW130386   4.370   6.199   6.111
 9829SOL    HW230387   4.491   6.264   6.021
 9830SOL     OW30388   6.107   1.628   2.462
 9830SOL    HW130389   6.020   1.580   2.472
 9830SOL    HW230390   6.178   1.562   2.434
 9831SOL     OW30391   0.177   3.831   2.481
 9831SOL    HW130392   0.160   3.760   2.549
 9831SOL    HW230393   0.127   3.914   2.506
 9832SOL     OW30394   5.074   4.887   4.782
 9832SOL    HW130395   4.975   4.880   4.768
 9832SOL    HW230396   5.121   4.883   4.694
 9833SOL     OW30397   3.762   3.964   4.026
 9833SOL    HW130398   3.824   3.946   3.950
 9833SOL    HW230399   3.814   4.001   4.103
 9834SOL     OW30400   2.561   5.200   5.819
 9834SOL    HW130401   2.557   5.127   5.751
 9834SOL    HW230402   2.656   5.231   5.829
 9835SOL     OW30403   3.685   4.045   4.676
 9835SOL    HW130404   3.653   4.106   4.749
 9835SOL    HW230405   3.653   4.080   4.587
 9836SOL     OW30406   0.480   4.084   6.268
 9836SOL    HW130407   0.491   4.017   6.342
 9836SOL    HW230408   0.473   4.035   6.180
 9837SOL     OW30409   6.274   1.844   1.734
 9837SOL    HW130410   6.197   1.906   1.719
 9837SOL    HW230411   6.240   1.751   1.746
 9838SOL     OW30412   1.273   5.870   1.194
 9838SOL    HW130413   1.248   5.901   1.102
 9838SOL    HW230414   1.193   5.877   1.254
 9839SOL     OW30415   4.317   0.953   3.231
 9839SOL    HW130416   4.331   0.868   3.282
 9839SOL    HW230417   4.301   0.932   3.135
 9840SOL     OW30418   5.356   1.927   6.886
 9840SOL    HW130419   5.348   1.963   6.979
 9840SOL    HW230420   5.267   1.926   6.842
 9841SOL     OW30421   0.120   5.257   3.571
 9841SOL    HW130422   0.032   5.243   3.616
 9841SOL    HW230423   0.183   5.301   3.634
 9842SOL     OW30424   3.778   2.485   0.269
 9842SOL    HW130425   3.861   2.429   0.266
 9842SOL    HW230426   3.723   2.458   0.348
 9843SOL     OW30427   6.971   6.166   0.864
 9843SOL    HW130428   6.931   6.258   0.868
 9843SOL    HW230429   7.016   6.146   0.951
 9844SOL     OW30430   5.079   0.196   4.527
 9844SOL    HW130431   5.110   0.211   4.433
 9844SOL    HW230432   4.980   0.183   4.527
 9845SOL     OW30433   1.091   2.453   2.110
 9845SOL    HW130434   1.129   2.434   2.019
 9845SOL    HW230435   1.138   2.532   2.150
 9846SOL     OW30436   5.235   1.098   1.227
 9846SOL    HW130437   5.329   1.070   1.206
 9846SOL    HW230438   5.215   1.076   1.323
 9847SOL     OW30439   3.796   3.566   1.186
 9847SOL    HW130440   3.879   3.621   1.173
 9847SOL    HW230441   3.821   3.471   1.202
 9848SOL     OW30442   3.475   3.627   5.180
 9848SOL    HW130443   3.404   3.556   5.180
 9848SOL    HW230444   3.500   3.649   5.086
 9849SOL     OW30445   1.561   0.657   6.760
 9849SOL    HW130446   1.631   0.589   6.782
 9849SOL    HW230447   1.567   0.680   6.663
 9850SOL     OW30448   0.110   0.515   4.216
 9850SOL    HW130449   0.173   0.535   4.141
 9850SOL    HW230450   0.022   0.485   4.179
 9851SOL     OW30451   4.078   5.327   4.454
 9851SOL    HW130452   4.000   5.265   4.450
 9851SOL    HW230453   4.159   5.281   4.417
 9852SOL     OW30454   1.653   1.123   6.897
 9852SOL    HW130455   1.684   1.029   6.913
 9852SOL    HW230456   1.725   1.187   6.923
 9853SOL     OW30457   0.134   4.515   4.049
 9853SOL    HW130458   0.150   4.594   3.989
 9853SOL    HW230459   0.163   4.538   4.142
 9854SOL     OW30460   0.585   6.057   5.801
 9854SOL    HW130461   0.656   6.127   5.799
 9854SOL    HW230462   0.505   6.090   5.751
 9855SOL     OW30463   0.928   3.452   0.862
 9855SOL    HW130464   0.849   3.480   0.808
 9855SOL    HW230465   1.012   3.483   0.817
 9856SOL     OW30466   5.833   4.738   3.230
 9856SOL    HW130467   5.879   4.805   3.171
 9856SOL    HW230468   5.744   4.773   3.259
 9857SOL     OW30469   5.139   2.279   3.201
 9857SOL    HW130470   5.071   2.341   3.161
 9857SOL    HW230471   5.178   2.223   3.128
 9858SOL     OW30472   1.059   6.057   2.686
 9858SOL    HW130473   1.146   6.101   2.661
 9858SOL    HW230474   1.020   6.012   2.606
 9859SOL     OW30475   0.483   4.685   5.050
 9859SOL    HW130476   0.466   4.600   5.100
 9859SOL    HW230477   0.573   4.720   5.074
 9860SOL     OW30478   1.949   1.911   5.564
 9860SOL    HW130479   1.976   1.828   5.515
 9860SOL    HW230480   1.999   1.990   5.526
 9861SOL     OW30481   2.713   1.541   3.877
 9861SOL    HW130482   2.796   1.580   3.917
 9861SOL    HW230483   2.635   1.600   3.898
 9862SOL     OW30484   2.550   4.790   1.190
 9862SOL    HW130485   2.485   4.801   1.265
 9862SOL    HW230486   2.522   4.847   1.113
 9863SOL     OW30487   3.030   5.885   1.184
 9863SOL    HW130488   3.035   5.877   1.284
 9863SOL    HW230489   2.946   5.842   1.152
 9864SOL     OW30490   2.938   6.174   5.451
 9864SOL    HW130491   2.982   6.164   5.362
 9864SOL    HW230492   2.839   6.168   5.439
 9865SOL     OW30493   0.419   6.878   5.757
 9865SOL    HW130494   0.364   6.961   5.762
 9865SOL    HW230495   0.368   6.806   5.710
 9866SOL     OW30496   6.543   4.811   4.262
 9866SOL    HW130497   6.616   4.743   4.270
 9866SOL    HW230498   6.556   4.882   4.331
 9867SOL     OW30499   5.137   1.888   1.884
 9867SOL    HW130500   5.069   1.815   1.888
 9867SOL    HW230501   5.219   1.854   1.837
 9868SOL     OW30502   1.294   4.662   3.441
 9868SOL    HW130503   1.306   4.732   3.511
 9868SOL    HW230504   1.281   4.705   3.352
 9869SOL     OW30505   0.590   2.485   1.256
 9869SOL    HW130506   0.575   2.388   1.275
 9869SOL    HW230507   0.545   2.539   1.327
 9870SOL     OW30508   3.516   1.145   1.865
 9870SOL    HW130509   3.488   1.225   1.812
 9870SOL    HW230510   3.570   1.175   1.945
 9871SOL     OW30511   6.963   3.464   5.274
 9871SOL    HW130512   6.868   3.460   5.304
 9871SOL    HW230513   7.011   3.536   5.324
 9872SOL     OW30514   2.321   5.401   5.244
 9872SOL    HW130515   2.298   5.490   5.204
 9872SOL    HW230516   2.353   5.340   5.171
 9873SOL     OW30517   2.293   1.903   6.249
 9873SOL    HW130518   2.283   1.812   6.208
 9873SOL    HW230519   2.301   1.971   6.177
 9874SOL     OW30520   0.820   2.527   5.025
 9874SOL    HW130521   0.770   2.482   4.951
 9874SOL    HW230522   0.883   2.594   4.987
 9875SOL     OW30523   6.757   6.072   0.716
 9875SOL    HW130524   6.799   6.103   0.630
 9875SOL    HW230525   6.825   6.074   0.789
 9876SOL     OW30526   2.693   6.804   3.177
 9876SOL    HW130527   2.682   6.707   3.202
 9876SOL    HW230528   2.698   6.859   3.260
 9877SOL     OW30529   0.509   4.785   4.808
 9877SOL    HW130530   0.468   4.752   4.892
 9877SOL    HW230531   0.605   4.757   4.803
 9878SOL     OW30532   1.708   3.323   0.008
 9878SOL    HW130533   1.787   3.383   0.023
 9878SOL    HW230534   1.693   3.267   0.089
 9879SOL     OW30535   1.483   4.375   6.072
 9879SOL    HW130536   1.522   4.395   5.982
 9879SOL    HW230537   1.549   4.397   6.143
 9880SOL     OW30538   2.276   1.706   0.077
 9880SOL    HW130539   2.251   1.638   0.007
 9880SOL    HW230540   2.340   1.665   0.142
 9881SOL     OW30541   5.171   0.672   4.731
 9881SOL    HW130542   5.260   0.699   4.768
 9881SOL    HW230543   5.175   0.576   4.702
 9882SOL     OW30544   3.442   2.849   4.283
 9882SOL    HW130545   3.475   2.847   4.377
 9882SOL    HW230546   3.345   2.826   4.281
 9883SOL     OW30547   2.040   6.303   1.156
 9883SOL    HW130548   2.031   6.265   1.248
 9883SOL    HW230549   2.111   6.252   1.106
 9884SOL     OW30550   1.588   3.346   6.610
 9884SOL    HW130551   1.553   3.303   6.526
 9884SOL    HW230552   1.602   3.275   6.680
 9885SOL     OW30553   6.593   3.261   3.638
 9885SOL    HW130554   6.656   3.273   3.715
 9885SOL    HW230555   6.551   3.349   3.616
 9886SOL     OW30556   5.194   6.282   1.597
 9886SOL    HW130557   5.249   6.358   1.564
 9886SOL    HW230558   5.154   6.305   1.686
 9887SOL     OW30559   3.885   6.264   0.451
 9887SOL    HW130560   3.945   6.187   0.473
 9887SOL    HW230561   3.942   6.344   0.428
 9888SOL     OW30562   5.676   5.933   2.643
 9888SOL    HW130563   5.719   5.937   2.733
 9888SOL    HW230564   5.711   6.007   2.586
 9889SOL     OW30565   0.545   4.863   3.022
 9889SOL    HW130566   0.620   4.897   3.078
 9889SOL    HW230567   0.461   4.914   3.044
 9890SOL     OW30568   6.334   3.809   1.090
 9890SOL    HW130569   6.282   3.876   1.037
 9890SOL    HW230570   6.365   3.736   1.029
 9891SOL     OW30571   4.947   5.366   0.468
 9891SOL    HW130572   5.011   5.297   0.501
 9891SOL    HW230573   4.962   5.381   0.370
 9892SOL     OW30574   1.963   5.749   3.804
 9892SOL    HW130575   1.944   5.791   3.715
 9892SOL    HW230576   2.047   5.696   3.799
 9893SOL     OW30577   5.824   5.154   3.074
 9893SOL    HW130578   5.847   5.085   3.006
 9893SOL    HW230579   5.816   5.244   3.030
 9894SOL     OW30580   3.782   2.467   5.715
 9894SOL    HW130581   3.711   2.535   5.733
 9894SOL    HW230582   3.872   2.511   5.717
 9895SOL     OW30583   5.517   2.977   6.542
 9895SOL    HW130584   5.423   2.945   6.529
 9895SOL    HW230585   5.558   2.997   6.453
 9896SOL     OW30586   3.710   3.433   0.911
 9896SOL    HW130587   3.726   3.524   0.872
 9896SOL    HW230588   3.798   3.386   0.922
 9897SOL     OW30589   5.051   1.581   2.684
 9897SOL    HW130590   4.960   1.594   2.723
 9897SOL    HW230591   5.082   1.488   2.703
 9898SOL     OW30592   0.689   5.532   5.433
 9898SOL    HW130593   0.684   5.433   5.421
 9898SOL    HW230594   0.744   5.553   5.514
 9899SOL     OW30595   4.920   4.827   2.153
 9899SOL    HW130596   4.875   4.742   2.182
 9899SOL    HW230597   5.019   4.813   2.149
 9900SOL     OW30598   1.708   2.357   4.082
 9900SOL    HW130599   1.804   2.352   4.112
 9900SOL    HW230600   1.699   2.427   4.011
 9901SOL     OW30601   2.442   2.483   6.265
 9901SOL    HW130602   2.531   2.457   6.227
 9901SOL    HW230603   2.455   2.560   6.328
 9902SOL     OW30604   3.929   3.929   0.890
 9902SOL    HW130605   3.862   3.857   0.870
 9902SOL    HW230606   4.017   3.904   0.850
 9903SOL     OW30607   4.579   2.162   2.407
 9903SOL    HW130608   4.556   2.066   2.393
 9903SOL    HW230609   4.575   2.210   2.320
 9904SOL     OW30610   6.744   2.370   0.096
 9904SOL    HW130611   6.799   2.440   0.141
 9904SOL    HW230612   6.743   2.287   0.152
 9905SOL     OW30613   1.411   6.444   6.317
 9905SOL    HW130614   1.488   6.430   6.255
 9905SOL    HW230615   1.330   6.471   6.264
 9906SOL     OW30616   2.138   3.153   6.372
 9906SOL    HW130617   2.233   3.131   6.393
 9906SOL    HW230618   2.083   3.150   6.456
 9907SOL     OW30619   1.876   6.172   3.472
 9907SOL    HW130620   1.838   6.131   3.389
 9907SOL    HW230621   1.898   6.100   3.537
 9908SOL     OW30622   0.416   3.559   6.298
 9908SOL    HW130623   0.447   3.546   6.204
 9908SOL    HW230624   0.495   3.572   6.358
 9909SOL     OW30625   3.287   1.440   2.822
 9909SOL    HW130626   3.197   1.401   2.842
 9909SOL    HW230627   3.316   1.412   2.731
 9910SOL     OW30628   6.330   4.735   0.827
 9910SOL    HW130629   6.409   4.787   0.794
 9910SOL    HW230630   6.294   4.778   0.910
 9911SOL     OW30631   4.632   5.002   3.354
 9911SOL    HW130632   4.569   5.006   3.276
 9911SOL    HW230633   4.723   4.976   3.322
 9912SOL     OW30634   5.024   0.513   1.896
 9912SOL    HW130635   5.009   0.421   1.934
 9912SOL    HW230636   4.943   0.541   1.845
 9913SOL     OW30637   5.240   2.749   3.016
 9913SOL    HW130638   5.321   2.790   2.974
 9913SOL    HW230639   5.259   2.726   3.111
 9914SOL     OW30640   1.753   6.997   5.226
 9914SOL    HW130641   1.822   6.967   5.161
 9914SOL    HW230642   1.745   0.071   5.223
 9915SOL     OW30643   4.975   3.410   4.107
 9915SOL    HW130644   4.982   3.499   4.063
 9915SOL    HW230645   4.945   3.342   4.041
 9916SOL     OW30646   2.184   2.925   2.388
 9916SOL    HW130647   2.187   2.922   2.488
 9916SOL    HW230648   2.138   3.009   2.360
 9917SOL     OW30649   3.081   4.054   5.623
 9917SOL    HW130650   3.039   4.044   5.533
 9917SOL    HW230651   3.116   4.146   5.633
 9918SOL     OW30652   1.816   1.653   6.492
 9918SOL    HW130653   1.787   1.682   6.583
 9918SOL    HW230654   1.781   1.717   6.424
 9919SOL     OW30655   1.472   5.790   2.205
 9919SOL    HW130656   1.560   5.750   2.230
 9919SOL    HW230657   1.441   5.852   2.277
 9920SOL     OW30658   3.612   6.160   1.414
 9920SOL    HW130659   3.640   6.211   1.333
 9920SOL    HW230660   3.516   6.135   1.406
 9921SOL     OW30661   6.171   0.086   3.175
 9921SOL    HW130662   6.252   0.136   3.145
 9921SOL    HW230663   6.199   0.007   3.230
 9922SOL     OW30664   4.536   4.370   0.635
 9922SOL    HW130665   4.601   4.402   0.704
 9922SOL    HW230666   4.454   4.335   0.679
 9923SOL     OW30667   6.667   2.193   6.439
 9923SOL    HW130668   6.729   2.127   6.396
 9923SOL    HW230669   6.650   2.165   6.533
 9924SOL     OW30670   6.618   1.115   2.859
 9924SOL    HW130671   6.654   1.026   2.889
 9924SOL    HW230672   6.615   1.118   2.759
 9925SOL     OW30673   2.429   3.849   5.740
 9925SOL    HW130674   2.336   3.880   5.760
 9925SOL    HW230675   2.430   3.802   5.651
 9926SOL     OW30676   1.321   1.395   1.070
 9926SOL    HW130677   1.406   1.373   1.023
 9926SOL    HW230678   1.264   1.452   1.010
 9927SOL     OW30679   0.118   1.943   2.609
 9927SOL    HW130680   0.180   2.013   2.643
 9927SOL    HW230681   0.025   1.980   2.605
 9928SOL     OW30682   0.596   3.800   1.958
 9928SOL    HW130683   0.643   3.864   2.018
 9928SOL    HW230684   0.663   3.747   1.907
 9929SOL     OW30685   3.368   4.324   6.236
 9929SOL    HW130686   3.460   4.311   6.272
 9929SOL    HW230687   3.307   4.353   6.309
 9930SOL     OW30688   6.676   7.018   6.593
 9930SOL    HW130689   6.736   6.940   6.607
 9930SOL    HW230690   6.590   6.988   6.551
 9931SOL     OW30691   1.485   6.207   5.341
 9931SOL    HW130692   1.580   6.182   5.359
 9931SOL    HW230693   1.471   6.303   5.362
 9932SOL     OW30694   2.048   1.409   0.726
 9932SOL    HW130695   1.976   1.479   0.731
 9932SOL    HW230696   2.006   1.318   0.726
 9933SOL     OW30697   2.548   1.276   3.234
 9933SOL    HW130698   2.473   1.287   3.169
 9933SOL    HW230699   2.586   1.366   3.256
 9934SOL     OW30700   5.592   1.704   6.665
 9934SOL    HW130701   5.619   1.720   6.760
 9934SOL    HW230702   5.507   1.752   6.646
 9935SOL     OW30703   3.046   2.109   0.436
 9935SOL    HW130704   2.982   2.059   0.494
 9935SOL    HW230705   3.128   2.054   0.421
 9936SOL     OW30706   5.339   5.843   5.858
 9936SOL    HW130707   5.344   5.893   5.945
 9936SOL    HW230708   5.275   5.767   5.868
 9937SOL     OW30709   0.213   0.352   3.000
 9937SOL    HW130710   0.159   0.324   3.079
 9937SOL    HW230711   0.154   0.357   2.919
 9938SOL     OW30712   6.803   0.891   4.646
 9938SOL    HW130713   6.817   0.796   4.616
 9938SOL    HW230714   6.785   0.948   4.566
 9939SOL     OW30715   2.156   3.702   0.712
 9939SOL    HW130716   2.097   3.704   0.792
 9939SOL    HW230717   2.247   3.736   0.737
 9940SOL     OW30718   0.409   0.153   2.751
 9940SOL    HW130719   0.410   0.193   2.842
 9940SOL    HW230720   0.396   0.054   2.759
 9941SOL     OW30721   4.156   4.820   5.766
 9941SOL    HW130722   4.251   4.852   5.761
 9941SOL    HW230723   4.113   4.830   5.676
 9942SOL     OW30724   4.464   4.553   3.778
 9942SOL    HW130725   4.431   4.641   3.810
 9942SOL    HW230726   4.386   4.497   3.749
 9943SOL     OW30727   1.997   3.972   0.414
 9943SOL    HW130728   2.012   4.042   0.344
 9943SOL    HW230729   1.901   3.943   0.411
 9944SOL     OW30730   1.502   4.889   0.315
 9944SOL    HW130731   1.590   4.910   0.357
 9944SOL    HW230732   1.514   4.873   0.217
 9945SOL     OW30733   5.984   3.822   0.212
 9945SOL    HW130734   5.991   3.838   0.310
 9945SOL    HW230735   5.964   3.725   0.195
 9946SOL     OW30736   5.387   1.238   2.710
 9946SOL    HW130737   5.406   1.163   2.647
 9946SOL    HW230738   5.432   1.219   2.798
 9947SOL     OW30739   1.460   1.648   4.365
 9947SOL    HW130740   1.451   1.671   4.268
 9947SOL    HW230741   1.530   1.706   4.407
 9948SOL     OW30742   6.297   0.404   4.187
 9948SOL    HW130743   6.386   0.449   4.179
 9948SOL    HW230744   6.224   0.472   4.184
 9949SOL     OW30745   6.665   4.127   4.599
 9949SOL    HW130746   6.730   4.155   4.669
 9949SOL    HW230747   6.714   4.103   4.515
 9950SOL     OW30748   6.565   5.332   5.693
 9950SOL    HW130749   6.515   5.365   5.773
 9950SOL    HW230750   6.661   5.320   5.716
 9951SOL     OW30751   0.826   2.780   2.715
 9951SOL    HW130752   0.843   2.684   2.734
 9951SOL    HW230753   0.759   2.788   2.642
 9952SOL     OW30754   0.581   4.469   1.906
 9952SOL    HW130755   0.622   4.555   1.936
 9952SOL    HW230756   0.649   4.396   1.909
 9953SOL     OW30757   6.013   2.581   3.493
 9953SOL    HW130758   6.077   2.566   3.569
 9953SOL    HW230759   5.972   2.671   3.502
 9954SOL     OW30760   2.747   1.762   5.772
 9954SOL    HW130761   2.796   1.759   5.858
 9954SOL    HW230762   2.776   1.687   5.713
 9955SOL     OW30763   5.009   3.607   1.107
 9955SOL    HW130764   5.108   3.587   1.106
 9955SOL    HW230765   4.974   3.601   1.013
 9956SOL     OW30766   1.730   4.584   3.209
 9956SOL    HW130767   1.769   4.559   3.120
 9956SOL    HW230768   1.728   4.683   3.218
 9957SOL     OW30769   5.767   6.832   1.733
 9957SOL    HW130770   5.670   6.814   1.714
 9957SOL    HW230771   5.822   6.757   1.696
 9958SOL     OW30772   3.711   4.818   5.695
 9958SOL    HW130773   3.714   4.794   5.792
 9958SOL    HW230774   3.667   4.908   5.685
 9959SOL     OW30775   4.285   4.268   1.233
 9959SOL    HW130776   4.299   4.329   1.311
 9959SOL    HW230777   4.198   4.221   1.243
 9960SOL     OW30778   6.778   6.765   0.302
 9960SOL    HW130779   6.734   6.693   0.249
 9960SOL    HW230780   6.825   6.828   0.241
 9961SOL     OW30781   2.238   4.284   2.055
 9961SOL    HW130782   2.163   4.348   2.072
 9961SOL    HW230783   2.325   4.334   2.055
 9962SOL     OW30784   3.447   5.346   2.700
 9962SOL    HW130785   3.464   5.319   2.605
 9962SOL    HW230786   3.529   5.329   2.755
 9963SOL     OW30787   1.795   1.565   0.406
 9963SOL    HW130788   1.719   1.601   0.460
 9963SOL    HW230789   1.875   1.625   0.416
 9964SOL     OW30790   4.727   4.297   5.553
 9964SOL    HW130791   4.633   4.295   5.587
 9964SOL    HW230792   4.748   4.211   5.508
 9965SOL     OW30793   2.936   5.756   5.266
 9965SOL    HW130794   2.947   5.851   5.295
 9965SOL    HW230795   2.899   5.753   5.174
 9966SOL     OW30796   2.949   4.821   2.332
 9966SOL    HW130797   2.876   4.753   2.330
 9966SOL    HW230798   3.023   4.792   2.271
 9967SOL     OW30799   6.776   0.045   2.356
 9967SOL    HW130800   6.719   0.072   2.278
 9967SOL    HW230801   6.775   6.972   2.366
 9968SOL     OW30802   4.203   6.130   0.355
 9968SOL    HW130803   4.125   6.136   0.292
 9968SOL    HW230804   4.284   6.169   0.312
 9969SOL     OW30805   1.296   4.505   4.844
 9969SOL    HW130806   1.223   4.436   4.840
 9969SOL    HW230807   1.348   4.504   4.759
 9970SOL     OW30808   5.706   5.072   2.030
 9970SOL    HW130809   5.755   5.011   1.967
 9970SOL    HW230810   5.690   5.160   1.985
 9971SOL     OW30811   1.861   2.990   2.067
 9971SOL    HW130812   1.865   2.960   1.972
 9971SOL    HW230813   1.767   3.018   2.089
 9972SOL     OW30814   3.849   3.970   0.368
 9972SOL    HW130815   3.925   3.904   0.366
 9972SOL    HW230816   3.869   4.041   0.435
 9973SOL     OW30817   3.817   1.875   4.003
 9973SOL    HW130818   3.821   1.959   3.949
 9973SOL    HW230819   3.911   1.844   4.022
 9974SOL     OW30820   6.999   2.056   3.468
 9974SOL    HW130821   0.027   2.122   3.520
 9974SOL    HW230822   0.018   2.035   3.382
 9975SOL     OW30823   1.083   5.323   6.438
 9975SOL    HW130824   1.163   5.379   6.415
 9975SOL    HW230825   1.019   5.324   6.362
 9976SOL     OW30826   2.150   4.917   5.814
 9976SOL    HW130827   2.060   4.940   5.776
 9976SOL    HW230828   2.218   4.982   5.782
 9977SOL     OW30829   5.297   5.406   4.700
 9977SOL    HW130830   5.283   5.480   4.633
 9977SOL    HW230831   5.350   5.441   4.777
 9978SOL     OW30832   0.425   1.986   6.186
 9978SOL    HW130833   0.493   2.035   6.132
 9978SOL    HW230834   0.471   1.931   6.255
 9979SOL     OW30835   5.038   3.202   5.488
 9979SOL    HW130836   5.035   3.180   5.586
 9979SOL    HW230837   5.131   3.192   5.454
 9980SOL     OW30838   1.400   0.982   0.102
 9980SOL    HW130839   1.360   0.927   0.028
 9980SOL    HW230840   1.337   1.055   0.127
 9981SOL     OW30841   0.885   2.253   1.028
 9981SOL    HW130842   0.856   2.223   1.119
 9981SOL    HW230843   0.860   2.349   1.015
 9982SOL     OW30844   2.268   1.308   5.125
 9982SOL    HW130845   2.366   1.304   5.106
 9982SOL    HW230846   2.252   1.359   5.209
 9983SOL     OW30847   6.412   2.859   2.427
 9983SOL    HW130848   6.400   2.789   2.357
 9983SOL    HW230849   6.382   2.947   2.392
 9984SOL     OW30850   0.545   6.251   1.226
 9984SOL    HW130851   0.518   6.220   1.317
 9984SOL    HW230852   0.515   6.345   1.212
 9985SOL     OW30853   3.663   5.144   0.346
 9985SOL    HW130854   3.691   5.101   0.432
 9985SOL    HW230855   3.660   5.075   0.274
 9986SOL     OW30856   5.017   4.426   0.549
 9986SOL    HW130857   5.010   4.371   0.466
 9986SOL    HW230858   5.074   4.506   0.531
 9987SOL     OW30859   5.667   3.005   1.688
 9987SOL    HW130860   5.629   3.075   1.628
 9987SOL    HW230861   5.725   2.943   1.635
 9988SOL     OW30862   5.885   5.739   4.146
 9988SOL    HW130863   5.896   5.709   4.051
 9988SOL    HW230864   5.836   5.826   4.147
 9989SOL     OW30865   6.395   4.138   1.276
 9989SOL    HW130866   6.479   4.117   1.225
 9989SOL    HW230867   6.418   4.154   1.372
 9990SOL     OW30868   0.674   6.709   3.294
 9990SOL    HW130869   0.603   6.762   3.340
 9990SOL    HW230870   0.705   6.636   3.355
 9991SOL     OW30871   1.643   3.915   3.602
 9991SOL    HW130872   1.606   3.994   3.650
 9991SOL    HW230873   1.714   3.872   3.659
 9992SOL     OW30874   3.375   4.366   0.780
 9992SOL    HW130875   3.294   4.417   0.749
 9992SOL    HW230876   3.433   4.345   0.701
 9993SOL     OW30877   3.720   6.070   4.122
 9993SOL    HW130878   3.768   6.106   4.042
 9993SOL    HW230879   3.638   6.125   4.139
 9994SOL     OW30880   0.469   4.170   4.406
 9994SOL    HW130881   0.491   4.075   4.386
 9994SOL    HW230882   0.465   4.222   4.321
 9995SOL     OW30883   2.866   0.696   4.742
 9995SOL    HW130884   2.947   0.695   4.684
 9995SOL    HW230885   2.804   0.768   4.711
 9996SOL     OW30886   2.446   4.249   0.675
 9996SOL    HW130887   2.536   4.242   0.716
 9996SOL    HW230888   2.454   4.246   0.575
 9997SOL     OW30889   5.520   1.763   3.824
 9997SOL    HW130890   5.429   1.804   3.824
 9997SOL    HW230891   5.516   1.670   3.787
 9998SOL     OW30892   4.838   4.112   2.561
 9998SOL    HW130893   4.931   4.137   2.587
 9998SOL    HW230894   4.841   4.046   2.486
 9999SOL     OW30895   0.937   0.093   3.653
 9999SOL    HW130896   1.013   0.157   3.653
 9999SOL    HW230897   0.892   0.093   3.564
10000SOL     OW30898   5.391   1.834   1.739
10000SOL    HW130899   5.388   1.841   1.640
10000SOL    HW230900   5.450   1.758   1.766
10001SOL     OW30901   3.019   6.526   2.342
10001SOL    HW130902   3.037   6.617   2.381
10001SOL    HW230903   3.079   6.512   2.263
10002SOL     OW30904   2.237   1.136   0.747
10002SOL    HW130905   2.212   1.071   0.675
10002SOL    HW230906   2.336   1.150   0.747
10003SOL     OW30907   2.626   1.340   2.440
10003SOL    HW130908   2.548   1.402   2.444
10003SOL    HW230909   2.706   1.388   2.403
10004SOL     OW30910   5.152   4.699   4.953
10004SOL    HW130911   5.121   4.770   4.890
10004SOL    HW230912   5.109   4.612   4.929
10005SOL     OW30913   2.733   5.635   3.818
10005SOL    HW130914   2.816   5.661   3.867
10005SOL    HW230915   2.757   5.594   3.731
10006SOL     OW30916   5.880   0.032   5.444
10006SOL    HW130917   5.919   7.026   5.531
10006SOL    HW230918   5.954   0.064   5.385
10007SOL     OW30919   0.641   3.907   4.660
10007SOL    HW130920   0.700   3.864   4.729
10007SOL    HW230921   0.665   4.004   4.653
10008SOL     OW30922   3.583   1.845   4.118
10008SOL    HW130923   3.678   1.856   4.087
10008SOL    HW230924   3.577   1.762   4.174
10009SOL     OW30925   1.758   3.701   1.753
10009SOL    HW130926   1.804   3.616   1.729
10009SOL    HW230927   1.756   3.712   1.852
10010SOL     OW30928   2.699   5.078   6.464
10010SOL    HW130929   2.748   5.112   6.384
10010SOL    HW230930   2.761   5.023   6.519
10011SOL     OW30931   0.086   4.364   0.787
10011SOL    HW130932   0.174   4.346   0.744
10011SOL    HW230933   0.101   4.404   0.877
10012SOL     OW30934   4.864   0.875   2.248
10012SOL    HW130935   4.915   0.794   2.219
10012SOL    HW230936   4.824   0.859   2.338
10013SOL     OW30937   1.576   4.723   5.345
10013SOL    HW130938   1.606   4.747   5.253
10013SOL    HW230939   1.576   4.623   5.356
10014SOL     OW30940   0.955   6.441   2.401
10014SOL    HW130941   0.940   6.509   2.329
10014SOL    HW230942   1.039   6.464   2.451
10015SOL     OW30943   3.932   4.952   6.641
10015SOL    HW130944   3.882   4.906   6.568
10015SOL    HW230945   3.868   4.982   6.712
10016SOL     OW30946   1.733   1.658   4.890
10016SOL    HW130947   1.737   1.584   4.823
10016SOL    HW230948   1.638   1.683   4.907
10017SOL     OW30949   2.521   1.680   2.593
10017SOL    HW130950   2.441   1.626   2.566
10017SOL    HW230951   2.551   1.736   2.516
10018SOL     OW30952   6.659   3.986   5.585
10018SOL    HW130953   6.716   4.016   5.661
10018SOL    HW230954   6.564   4.015   5.601
10019SOL     OW30955   6.969   1.794   3.255
10019SOL    HW130956   6.879   1.791   3.299
10019SOL    HW230957   7.001   1.888   3.249
10020SOL     OW30958   0.315   0.981   1.696
10020SOL    HW130959   0.227   1.029   1.696
10020SOL    HW230960   0.348   0.971   1.790
10021SOL     OW30961   1.265   3.102   1.506
10021SOL    HW130962   1.196   3.133   1.572
10021SOL    HW230963   1.295   3.010   1.530
10022SOL     OW30964   2.018   6.190   7.014
10022SOL    HW130965   2.011   6.275   0.040
10022SOL    HW230966   1.940   6.132   0.009
10023SOL     OW30967   2.643   6.348   5.898
10023SOL    HW130968   2.614   6.269   5.952
10023SOL    HW230969   2.725   6.326   5.846
10024SOL     OW30970   1.470   4.793   3.066
10024SOL    HW130971   1.498   4.850   2.990
10024SOL    HW230972   1.519   4.705   3.062
10025SOL     OW30973   1.909   3.178   1.661
10025SOL    HW130974   1.960   3.264   1.652
10025SOL    HW230975   1.851   3.165   1.581
10026SOL     OW30976   4.788   1.084   2.727
10026SOL    HW130977   4.709   1.101   2.668
10026SOL    HW230978   4.778   1.136   2.812
10027SOL     OW30979   0.873   2.718   5.342
10027SOL    HW130980   0.920   2.722   5.254
10027SOL    HW230981   0.938   2.739   5.415
10028SOL     OW30982   3.265   0.680   0.980
10028SOL    HW130983   3.304   0.675   0.888
10028SOL    HW230984   3.337   0.665   1.048
10029SOL     OW30985   0.289   2.908   4.647
10029SOL    HW130986   0.191   2.902   4.663
10029SOL    HW230987   0.312   2.998   4.612
10030SOL     OW30988   2.964   6.932   5.207
10030SOL    HW130989   3.019   6.903   5.128
10030SOL    HW230990   2.926   7.022   5.189
10031SOL     OW30991   4.677   5.111   4.618
10031SOL    HW130992   4.772   5.129   4.596
10031SOL    HW230993   4.668   5.021   4.659
10032SOL     OW30994   3.637   0.542   6.251
10032SOL    HW130995   3.639   0.604   6.330
10032SOL    HW230996   3.592   0.457   6.277
10033SOL     OW30997   4.277   1.237   4.170
10033SOL    HW130998   4.178   1.232   4.159
10033SOL    HW230999   4.307   1.332   4.166
10034SOL     OW31000   2.486   0.903   3.933
10034SOL    HW131001   2.418   0.887   3.861
10034SOL    HW231002   2.502   1.001   3.942
10035SOL     OW31003   5.799   3.881   0.606
10035SOL    HW131004   5.885   3.884   0.557
10035SOL    HW231005   5.816   3.855   0.701
10036SOL     OW31006   6.477   1.089   0.537
10036SOL    HW131007   6.476   1.020   0.609
10036SOL    HW231008   6.566   1.134   0.535
10037SOL     OW31009   6.568   7.021   6.284
10037SOL    HW131010   6.651   0.045   6.260
10037SOL    HW231011   6.571   6.930   6.243
10038SOL     OW31012   4.597   6.775   6.180
10038SOL    HW131013   4.680   6.768   6.236
10038SOL    HW231014   4.523   6.814   6.234
10039SOL     OW31015   4.940   6.105   4.613
10039SOL    HW131016   4.957   6.198   4.645
10039SOL    HW231017   4.980   6.039   4.676
10040SOL     OW31018   4.299   5.932   0.175
10040SOL    HW131019   4.215   5.983   0.191
10040SOL    HW231020   4.366   5.958   0.245
10041SOL     OW31021   6.014   5.385   5.338
10041SOL    HW131022   6.055   5.349   5.254
10041SOL    HW231023   5.915   5.369   5.336
10042SOL     OW31024   0.767   1.080   4.997
10042SOL    HW131025   0.754   0.991   4.951
10042SOL    HW231026   0.845   1.074   5.059
10043SOL     OW31027   0.469   0.446   3.054
10043SOL    HW131028   0.375   0.416   3.035
10043SOL    HW231029   0.501   0.503   2.978
10044SOL     OW31030   2.511   1.788   4.436
10044SOL    HW131031   2.546   1.880   4.456
10044SOL    HW231032   2.422   1.796   4.390
10045SOL     OW31033   4.482   0.202   4.090
10045SOL    HW131034   4.536   0.148   4.025
10045SOL    HW231035   4.385   0.186   4.075
10046SOL     OW31036   0.512   1.426   1.613
10046SOL    HW131037   0.503   1.505   1.674
10046SOL    HW231038   0.436   1.363   1.629
10047SOL     OW31039   6.023   3.308   4.917
10047SOL    HW131040   6.087   3.337   4.987
10047SOL    HW231041   6.039   3.360   4.833
10048SOL     OW31042   3.663   1.748   1.837
10048SOL    HW131043   3.661   1.722   1.934
10048SOL    HW231044   3.660   1.847   1.829
10049SOL     OW31045   1.006   0.813   6.404
10049SOL    HW131046   0.999   0.726   6.453
10049SOL    HW231047   1.028   0.886   6.469
10050SOL     OW31048   6.108   2.562   5.119
10050SOL    HW131049   6.135   2.512   5.201
10050SOL    HW231050   6.041   2.508   5.068
10051SOL     OW31051   6.507   2.654   4.781
10051SOL    HW131052   6.455   2.657   4.866
10051SOL    HW231053   6.592   2.707   4.791
10052SOL     OW31054   2.170   2.540   1.794
10052SOL    HW131055   2.130   2.625   1.828
10052SOL    HW231056   2.247   2.561   1.734
10053SOL     OW31057   3.816   5.228   1.914
10053SOL    HW131058   3.725   5.186   1.915
10053SOL    HW231059   3.806   5.326   1.896
10054SOL     OW31060   4.057   6.195   5.917
10054SOL    HW131061   4.018   6.239   5.836
10054SOL    HW231062   4.018   6.104   5.927
10055SOL     OW31063   6.215   2.468   5.348
10055SOL    HW131064   6.259   2.379   5.363
10055SOL    HW231065   6.278   2.541   5.372
10056SOL     OW31066   6.047   5.273   1.021
10056SOL    HW131067   6.122   5.226   0.974
10056SOL    HW231068   6.026   5.358   0.973
10057SOL     OW31069   3.480   0.798   4.287
10057SOL    HW131070   3.456   0.705   4.313
10057SOL    HW231071   3.495   0.853   4.370
10058SOL     OW31072   0.266   3.766   4.474
10058SOL    HW131073   0.326   3.701   4.428
10058SOL    HW231074   0.297   3.779   4.568
10059SOL     OW31075   4.824   6.675   0.772
10059SOL    HW131076   4.773   6.739   0.829
10059SOL    HW231077   4.919   6.705   0.762
10060SOL     OW31078   2.422   1.443   2.194
10060SOL    HW131079   2.382   1.405   2.110
10060SOL    HW231080   2.503   1.497   2.171
10061SOL     OW31081   5.000   1.140   4.273
10061SOL    HW131082   4.979   1.121   4.177
10061SOL    HW231083   4.956   1.071   4.331
10062SOL     OW31084   6.334   6.843   4.698
10062SOL    HW131085   6.314   6.754   4.737
10062SOL    HW231086   6.429   6.867   4.718
10063SOL     OW31087   1.807   1.619   3.295
10063SOL    HW131088   1.765   1.658   3.213
10063SOL    HW231089   1.901   1.653   3.303
10064SOL     OW31090   5.495   5.633   5.746
10064SOL    HW131091   5.452   5.683   5.821
10064SOL    HW231092   5.458   5.540   5.741
10065SOL     OW31093   2.068   0.405   2.038
10065SOL    HW131094   1.990   0.465   2.021
10065SOL    HW231095   2.107   0.375   1.951
10066SOL     OW31096   1.681   1.528   4.137
10066SOL    HW131097   1.653   1.618   4.104
10066SOL    HW231098   1.739   1.484   4.069
10067SOL     OW31099   5.391   4.132   5.915
10067SOL    HW131100   5.484   4.095   5.914
10067SOL    HW231101   5.390   4.219   5.866
10068SOL     OW31102   5.371   3.052   3.890
10068SOL    HW131103   5.440   3.102   3.942
10068SOL    HW231104   5.295   3.114   3.869
10069SOL     OW31105   1.648   5.735   3.757
10069SOL    HW131106   1.694   5.694   3.835
10069SOL    HW231107   1.577   5.673   3.723
10070SOL     OW31108   0.150   0.267   4.797
10070SOL    HW131109   0.153   0.230   4.704
10070SOL    HW231110   0.150   0.367   4.793
10071SOL     OW31111   4.879   5.333   4.043
10071SOL    HW131112   4.971   5.344   4.080
10071SOL    HW231113   4.884   5.295   3.951
10072SOL     OW31114   1.078   6.353   4.389
10072SOL    HW131115   1.162   6.350   4.335
10072SOL    HW231116   1.001   6.329   4.330
10073SOL     OW31117   6.283   4.094   4.588
10073SOL    HW131118   6.328   4.182   4.577
10073SOL    HW231119   6.228   4.074   4.507
10074SOL     OW31120   0.571   0.636   5.228
10074SOL    HW131121   0.586   0.634   5.327
10074SOL    HW231122   0.645   0.587   5.182
10075SOL     OW31123   1.459   1.988   2.551
10075SOL    HW131124   1.444   2.071   2.605
10075SOL    HW231125   1.473   2.012   2.455
10076SOL     OW31126   5.754   0.463   3.348
10076SOL    HW131127   5.710   0.480   3.260
10076SOL    HW231128   5.815   0.384   3.341
10077SOL     OW31129   3.431   2.293   6.818
10077SOL    HW131130   3.333   2.291   6.834
10077SOL    HW231131   3.450   2.283   6.720
10078SOL     OW31132   6.833   6.310   4.487
10078SOL    HW131133   6.919   6.319   4.437
10078SOL    HW231134   6.768   6.258   4.432
10079SOL     OW31135   1.096   3.163   1.990
10079SOL    HW131136   1.169   3.216   1.947
10079SOL    HW231137   1.035   3.127   1.919
10080SOL     OW31138   3.399   1.858   6.487
10080SOL    HW131139   3.408   1.798   6.566
10080SOL    HW231140   3.436   1.948   6.508
10081SOL     OW31141   0.127   0.148   6.549
10081SOL    HW131142   0.028   0.146   6.558
10081SOL    HW231143   0.167   0.195   6.628
10082SOL     OW31144   6.770   3.175   2.543
10082SOL    HW131145   6.732   3.119   2.617
10082SOL    HW231146   6.819   3.253   2.583
10083SOL     OW31147   5.174   1.096   3.103
10083SOL    HW131148   5.203   1.191   3.086
10083SOL    HW231149   5.091   1.077   3.050
10084SOL     OW31150   3.733   1.025   6.349
10084SOL    HW131151   3.761   1.020   6.253
10084SOL    HW231152   3.793   0.968   6.405
10085SOL     OW31153   0.321   5.425   2.457
10085SOL    HW131154   0.234   5.463   2.489
10085SOL    HW231155   0.334   5.450   2.361
10086SOL     OW31156   6.184   5.164   1.869
10086SOL    HW131157   6.209   5.088   1.929
10086SOL    HW231158   6.227   5.249   1.903
10087SOL     OW31159   0.709   0.153   4.014
10087SOL    HW131160   0.674   0.068   4.054
10087SOL    HW231161   0.634   0.200   3.966
10088SOL     OW31162   6.756   6.665   6.781
10088SOL    HW131163   6.810   6.700   6.704
10088SOL    HW231164   6.711   6.580   6.754
10089SOL     OW31165   2.486   2.564   3.024
10089SOL    HW131166   2.437   2.578   2.938
10089SOL    HW231167   2.574   2.522   3.006
10090SOL     OW31168   0.643   4.848   1.243
10090SOL    HW131169   0.654   4.904   1.325
10090SOL    HW231170   0.729   4.845   1.193
10091SOL     OW31171   1.014   2.968   4.795
10091SOL    HW131172   0.997   3.056   4.750
10091SOL    HW231173   0.957   2.897   4.754
10092SOL     OW31174   2.026   3.343   5.211
10092SOL    HW131175   2.106   3.403   5.208
10092SOL    HW231176   1.943   3.397   5.200
10093SOL     OW31177   1.015   3.913   4.619
10093SOL    HW131178   0.985   3.934   4.713
10093SOL    HW231179   1.098   3.965   4.598
10094SOL     OW31180   2.513   6.256   1.672
10094SOL    HW131181   2.430   6.213   1.708
10094SOL    HW231182   2.503   6.356   1.677
10095SOL     OW31183   6.168   2.150   5.491
10095SOL    HW131184   6.253   2.198   5.514
10095SOL    HW231185   6.123   2.120   5.575
10096SOL     OW31186   6.377   5.281   2.223
10096SOL    HW131187   6.352   5.329   2.140
10096SOL    HW231188   6.306   5.293   2.292
10097SOL     OW31189   1.071   0.846   7.016
10097SOL    HW131190   1.094   0.933   6.972
10097SOL    HW231191   1.093   0.851   0.087
10098SOL     OW31192   1.979   7.002   5.738
10098SOL    HW131193   1.927   0.013   5.816
10098SOL    HW231194   2.040   6.930   5.770
10099SOL     OW31195   0.025   5.283   6.369
10099SOL    HW131196   6.954   5.303   6.354
10099SOL    HW231197   0.061   5.340   6.443
10100SOL     OW31198   5.271   0.003   4.288
10100SOL    HW131199   5.330   7.006   4.211
10100SOL    HW231200   5.249   0.100   4.286
10101SOL     OW31201   5.826   4.096   1.588
10101SOL    HW131202   5.797   4.023   1.526
10101SOL    HW231203   5.881   4.163   1.539
10102SOL     OW31204   2.031   0.870   3.013
10102SOL    HW131205   1.998   0.781   2.981
10102SOL    HW231206   2.012   0.940   2.944
10103SOL     OW31207   2.638   1.183   5.173
10103SOL    HW131208   2.674   1.189   5.080
10103SOL    HW231209   2.704   1.134   5.231
10104SOL     OW31210   1.326   3.119   4.573
10104SOL    HW131211   1.402   3.089   4.516
10104SOL    HW231212   1.320   3.063   4.655
10105SOL     OW31213   1.277   1.210   0.161
10105SOL    HW131214   1.281   1.284   0.228
10105SOL    HW231215   1.330   1.236   0.080
10106SOL     OW31216   4.857   5.355   0.763
10106SOL    HW131217   4.955   5.340   0.749
10106SOL    HW231218   4.841   5.452   0.780
10107SOL     OW31219   0.281   1.638   6.928
10107SOL    HW131220   0.340   1.619   7.006
10107SOL    HW231221   0.195   1.679   6.960
10108SOL     OW31222   6.524   5.930   0.146
10108SOL    HW131223   6.615   5.970   0.163
10108SOL    HW231224   6.480   5.911   0.234
10109SOL     OW31225   3.271   6.285   2.343
10109SOL    HW131226   3.260   6.348   2.420
10109SOL    HW231227   3.193   6.294   2.281
10110SOL     OW31228   4.212   6.508   4.757
10110SOL    HW131229   4.236   6.418   4.794
10110SOL    HW231230   4.294   6.552   4.721
10111SOL     OW31231   6.319   2.898   4.668
10111SOL    HW131232   6.305   2.799   4.657
10111SOL    HW231233   6.416   2.916   4.684
10112SOL     OW31234   5.639   4.577   4.939
10112SOL    HW131235   5.645   4.480   4.912
10112SOL    HW231236   5.646   4.634   4.858
10113SOL     OW31237   3.876   1.546   5.982
10113SOL    HW131238   3.792   1.535   6.035
10113SOL    HW231239   3.878   1.479   5.908
10114SOL     OW31240   5.461   0.288   0.941
10114SOL    HW131241   5.557   0.315   0.944
10114SOL    HW231242   5.454   0.191   0.918
10115SOL     OW31243   3.228   1.943   3.497
10115SOL    HW131244   3.204   1.987   3.410
10115SOL    HW231245   3.310   1.886   3.483
10116SOL     OW31246   0.953   6.634   6.861
10116SOL    HW131247   1.036   6.663   6.811
10116SOL    HW231248   0.876   6.631   6.798
10117SOL     OW31249   7.005   0.194   4.507
10117SOL    HW131250   6.986   0.106   4.464
10117SOL    HW231251   6.924   0.228   4.553
10118SOL     OW31252   0.339   5.324   3.374
10118SOL    HW131253   0.256   5.283   3.410
10118SOL    HW231254   0.415   5.260   3.384
10119SOL     OW31255   1.398   6.581   4.697
10119SOL    HW131256   1.474   6.517   4.708
10119SOL    HW231257   1.357   6.569   4.607
10120SOL     OW31258   1.012   3.689   4.225
10120SOL    HW131259   1.084   3.751   4.192
10120SOL    HW231260   0.958   3.735   4.295
10121SOL     OW31261   6.419   4.917   5.829
10121SOL    HW131262   6.485   4.893   5.899
10121SOL    HW231263   6.452   4.996   5.777
10122SOL     OW31264   5.248   2.800   0.419
10122SOL    HW131265   5.219   2.894   0.432
10122SOL    HW231266   5.344   2.790   0.443
10123SOL     OW31267   6.470   6.284   0.439
10123SOL    HW131268   6.415   6.312   0.518
10123SOL    HW231269   6.490   6.365   0.382
10124SOL     OW31270   1.642   3.589   6.778
10124SOL    HW131271   1.733   3.564   6.812
10124SOL    HW231272   1.613   3.522   6.709
10125SOL     OW31273   1.495   0.965   2.670
10125SOL    HW131274   1.454   1.053   2.645
10125SOL    HW231275   1.513   0.912   2.587
10126SOL     OW31276   0.772   0.054   6.444
10126SOL    HW131277   0.765   0.096   6.354
10126SOL    HW231278   0.740   0.119   6.513
10127SOL     OW31279   2.707   4.827   5.709
10127SOL    HW131280   2.648   4.904   5.685
10127SOL    HW231281   2.728   4.774   5.627
10128SOL     OW31282   1.083   1.572   1.205
10128SOL    HW131283   1.162   1.548   1.148
10128SOL    HW231284   1.111   1.641   1.273
10129SOL     OW31285   5.176   2.894   4.048
10129SOL    HW131286   5.255   2.891   3.986
10129SOL    HW231287   5.208   2.888   4.142
10130SOL     OW31288   2.302   4.310   2.450
10130SOL    HW131289   2.375   4.363   2.407
10130SOL    HW231290   2.284   4.228   2.397
10131SOL     OW31291   0.477   0.797   2.979
10131SOL    HW131292   0.542   0.842   3.040
10131SOL    HW231293   0.522   0.722   2.931
10132SOL     OW31294   2.538   6.792   3.840
10132SOL    HW131295   2.464   6.725   3.845
10132SOL    HW231296   2.559   6.811   3.744
10133SOL     OW31297   4.654   5.985   1.485
10133SOL    HW131298   4.649   5.935   1.571
10133SOL    HW231299   4.667   6.083   1.504
10134SOL     OW31300   6.624   6.975   3.778
10134SOL    HW131301   6.567   0.028   3.801
10134SOL    HW231302   6.714   6.985   3.819
10135SOL     OW31303   5.463   3.315   3.254
10135SOL    HW131304   5.388   3.250   3.240
10135SOL    HW231305   5.550   3.266   3.250
10136SOL     OW31306   5.738   0.408   2.824
10136SOL    HW131307   5.798   0.390   2.746
10136SOL    HW231308   5.702   0.501   2.816
10137SOL     OW31309   6.111   4.670   3.878
10137SOL    HW131310   6.068   4.705   3.961
10137SOL    HW231311   6.194   4.620   3.903
10138SOL     OW31312   5.213   2.179   0.816
10138SOL    HW131313   5.261   2.198   0.730
10138SOL    HW231314   5.126   2.229   0.817
10139SOL     OW31315   3.815   3.571   3.331
10139SOL    HW131316   3.743   3.506   3.354
10139SOL    HW231317   3.903   3.538   3.366
10140SOL     OW31318   6.765   6.170   5.653
10140SOL    HW131319   6.751   6.158   5.752
10140SOL    HW231320   6.790   6.083   5.612
10141SOL     OW31321   3.145   1.373   4.203
10141SOL    HW131322   3.155   1.324   4.116
10141SOL    HW231323   3.049   1.398   4.216
10142SOL     OW31324   6.277   6.576   4.780
10142SOL    HW131325   6.207   6.578   4.851
10142SOL    HW231326   6.356   6.525   4.814
10143SOL     OW31327   4.494   0.683   0.538
10143SOL    HW131328   4.396   0.689   0.519
10143SOL    HW231329   4.545   0.694   0.452
10144SOL     OW31330   4.136   0.191   5.997
10144SOL    HW131331   4.074   0.118   5.970
10144SOL    HW231332   4.089   0.279   5.989
10145SOL     OW31333   3.615   5.781   6.127
10145SOL    HW131334   3.607   5.732   6.040
10145SOL    HW231335   3.600   5.878   6.113
10146SOL     OW31336   4.028   5.040   4.960
10146SOL    HW131337   3.976   5.001   4.883
10146SOL    HW231338   4.051   5.135   4.940
10147SOL     OW31339   4.975   4.590   5.288
10147SOL    HW131340   4.902   4.603   5.222
10147SOL    HW231341   4.955   4.641   5.372
10148SOL     OW31342   5.964   5.397   6.671
10148SOL    HW131343   5.914   5.445   6.743
10148SOL    HW231344   6.060   5.424   6.674
10149SOL     OW31345   5.771   1.821   1.030
10149SOL    HW131346   5.692   1.806   1.089
10149SOL    HW231347   5.825   1.897   1.065
10150SOL     OW31348   4.326   3.655   0.370
10150SOL    HW131349   4.272   3.577   0.399
10150SOL    HW231350   4.416   3.624   0.339
10151SOL     OW31351   1.221   6.727   0.133
10151SOL    HW131352   1.306   6.676   0.138
10151SOL    HW231353   1.241   6.824   0.119
10152SOL     OW31354   0.909   6.547   4.978
10152SOL    HW131355   0.896   6.548   5.077
10152SOL    HW231356   0.874   6.632   4.938
10153SOL     OW31357   5.095   6.049   3.821
10153SOL    HW131358   5.121   6.141   3.849
10153SOL    HW231359   5.097   6.042   3.722
10154SOL     OW31360   6.036   0.236   4.879
10154SOL    HW131361   6.047   0.272   4.972
10154SOL    HW231362   6.056   0.138   4.878
10155SOL     OW31363   3.461   1.994   5.772
10155SOL    HW131364   3.368   1.963   5.795
10155SOL    HW231365   3.467   2.011   5.674
10156SOL     OW31366   6.407   0.739   2.234
10156SOL    HW131367   6.318   0.698   2.252
10156SOL    HW231368   6.395   0.836   2.212
10157SOL     OW31369   6.215   3.221   6.282
10157SOL    HW131370   6.283   3.293   6.266
10157SOL    HW231371   6.220   3.190   6.377
10158SOL     OW31372   5.645   3.457   0.888
10158SOL    HW131373   5.596   3.534   0.928
10158SOL    HW231374   5.613   3.443   0.794
10159SOL     OW31375   3.152   3.259   6.062
10159SOL    HW131376   3.178   3.232   6.154
10159SOL    HW231377   3.225   3.234   5.998
10160SOL     OW31378   2.167   3.296   2.258
10160SOL    HW131379   2.187   3.380   2.207
10160SOL    HW231380   2.186   3.217   2.201
10161SOL     OW31381   3.636   3.251   6.341
10161SOL    HW131382   3.584   3.176   6.381
10161SOL    HW231383   3.700   3.287   6.409
10162SOL     OW31384   3.398   4.758   0.585
10162SOL    HW131385   3.354   4.847   0.594
10162SOL    HW231386   3.413   4.718   0.675
10163SOL     OW31387   5.459   5.366   5.958
10163SOL    HW131388   5.409   5.385   5.873
10163SOL    HW231389   5.415   5.290   6.005
10164SOL     OW31390   5.606   3.155   5.024
10164SOL    HW131391   5.583   3.247   5.057
10164SOL    HW231392   5.703   3.138   5.036
10165SOL     OW31393   0.687   1.846   3.302
10165SOL    HW131394   0.645   1.839   3.212
10165SOL    HW231395   0.648   1.924   3.352
10166SOL     OW31396   3.961   1.014   1.919
10166SOL    HW131397   3.985   0.936   1.861
10166SOL    HW231398   3.938   0.982   2.011
10167SOL     OW31399   3.232   2.605   6.342
10167SOL    HW131400   3.259   2.602   6.246
10167SOL    HW231401   3.134   2.623   6.349
10168SOL     OW31402   6.208   4.165   5.470
10168SOL    HW131403   6.109   4.174   5.461
10168SOL    HW231404   6.252   4.195   5.384
10169SOL     OW31405   6.104   4.018   3.420
10169SOL    HW131406   6.053   4.000   3.504
10169SOL    HW231407   6.040   4.033   3.345
10170SOL     OW31408   1.211   5.004   5.856
10170SOL    HW131409   1.125   4.993   5.807
10170SOL    HW231410   1.287   5.003   5.791
10171SOL     OW31411   6.603   3.325   5.524
10171SOL    HW131412   6.544   3.304   5.446
10171SOL    HW231413   6.642   3.240   5.561
10172SOL     OW31414   6.531   6.496   4.863
10172SOL    HW131415   6.588   6.480   4.783
10172SOL    HW231416   6.527   6.413   4.918
10173SOL     OW31417   1.010   2.625   0.793
10173SOL    HW131418   1.089   2.565   0.801
10173SOL    HW231419   1.027   2.709   0.845
10174SOL     OW31420   5.608   5.360   2.144
10174SOL    HW131421   5.631   5.447   2.188
10174SOL    HW231422   5.583   5.293   2.213
10175SOL     OW31423   6.128   2.250   3.783
10175SOL    HW131424   6.119   2.340   3.738
10175SOL    HW231425   6.103   2.259   3.879
10176SOL     OW31426   1.479   3.060   5.587
10176SOL    HW131427   1.558   3.070   5.527
10176SOL    HW231428   1.509   3.018   5.673
10177SOL     OW31429   2.206   0.617   0.488
10177SOL    HW131430   2.233   0.621   0.391
10177SOL    HW231431   2.114   0.579   0.495
10178SOL     OW31432   6.832   1.688   5.061
10178SOL    HW131433   6.757   1.729   5.115
10178SOL    HW231434   6.892   1.637   5.122
10179SOL     OW31435   0.850   2.048   6.270
10179SOL    HW131436   0.834   2.146   6.272
10179SOL    HW231437   0.799   2.004   6.345
10180SOL     OW31438   3.981   0.690   0.118
10180SOL    HW131439   4.074   0.664   0.090
10180SOL    HW231440   3.953   0.636   0.196
10181SOL     OW31441   5.284   2.702   2.242
10181SOL    HW131442   5.272   2.603   2.248
10181SOL    HW231443   5.358   2.723   2.178
10182SOL     OW31444   5.272   1.069   1.817
10182SOL    HW131445   5.291   1.101   1.910
10182SOL    HW231446   5.209   1.132   1.773
10183SOL     OW31447   0.289   2.361   6.200
10183SOL    HW131448   0.373   2.335   6.248
10183SOL    HW231449   0.260   2.452   6.230
10184SOL     OW31450   3.564   1.107   7.018
10184SOL    HW131451   3.604   1.153   0.071
10184SOL    HW231452   3.572   1.008   0.002
10185SOL     OW31453   5.613   5.875   1.989
10185SOL    HW131454   5.553   5.954   1.978
10185SOL    HW231455   5.646   5.845   1.899
10186SOL     OW31456   6.268   3.734   3.529
10186SOL    HW131457   6.263   3.833   3.542
10186SOL    HW231458   6.282   3.688   3.617
10187SOL     OW31459   0.694   3.009   0.853
10187SOL    HW131460   0.623   2.985   0.919
10187SOL    HW231461   0.677   2.962   0.767
10188SOL     OW31462   3.482   5.833   0.894
10188SOL    HW131463   3.554   5.769   0.921
10188SOL    HW231464   3.443   5.875   0.976
10189SOL     OW31465   1.169   0.862   6.200
10189SOL    HW131466   1.175   0.962   6.196
10189SOL    HW231467   1.127   0.835   6.286
10190SOL     OW31468   4.952   3.387   1.612
10190SOL    HW131469   4.954   3.453   1.538
10190SOL    HW231470   5.011   3.309   1.589
10191SOL     OW31471   4.907   4.965   5.382
10191SOL    HW131472   4.968   4.933   5.310
10191SOL    HW231473   4.833   5.019   5.342
10192SOL     OW31474   4.438   1.730   5.966
10192SOL    HW131475   4.371   1.744   6.038
10192SOL    HW231476   4.413   1.650   5.911
10193SOL     OW31477   4.121   3.611   2.241
10193SOL    HW131478   4.087   3.633   2.332
10193SOL    HW231479   4.221   3.609   2.243
10194SOL     OW31480   5.793   5.460   5.001
10194SOL    HW131481   5.830   5.368   4.990
10194SOL    HW231482   5.789   5.506   4.912
10195SOL     OW31483   6.081   5.604   0.988
10195SOL    HW131484   6.146   5.578   0.917
10195SOL    HW231485   6.019   5.674   0.952
10196SOL     OW31486   4.136   1.723   3.880
10196SOL    HW131487   4.109   1.711   3.976
10196SOL    HW231488   4.116   1.639   3.829
10197SOL     OW31489   6.599   2.372   5.142
10197SOL    HW131490   6.607   2.410   5.050
10197SOL    HW231491   6.638   2.435   5.208
10198SOL     OW31492   3.044   0.960   1.906
10198SOL    HW131493   3.067   0.908   1.824
10198SOL    HW231494   3.059   1.057   1.889
10199SOL     OW31495   2.826   2.470   6.794
10199SOL    HW131496   2.875   2.385   6.772
10199SOL    HW231497   2.754   2.451   6.861
10200SOL     OW31498   5.309   1.483   0.572
10200SOL    HW131499   5.402   1.495   0.607
10200SOL    HW231500   5.274   1.394   0.602
10201SOL     OW31501   1.341   4.476   0.574
10201SOL    HW131502   1.346   4.478   0.674
10201SOL    HW231503   1.326   4.569   0.540
10202SOL     OW31504   3.968   3.064   0.482
10202SOL    HW131505   4.053   3.056   0.430
10202SOL    HW231506   3.955   3.158   0.512
10203SOL     OW31507   6.333   3.115   3.668
10203SOL    HW131508   6.327   3.092   3.571
10203SOL    HW231509   6.428   3.106   3.699
10204SOL     OW31510   4.799   6.573   6.967
10204SOL    HW131511   4.830   6.663   6.935
10204SOL    HW231512   4.853   6.546   0.021
10205SOL     OW31513   1.902   0.741   1.499
10205SOL    HW131514   1.835   0.724   1.426
10205SOL    HW231515   1.854   0.765   1.583
10206SOL     OW31516   0.709   0.898   0.114
10206SOL    HW131517   0.708   0.801   0.087
10206SOL    HW231518   0.641   0.948   0.060
10207SOL     OW31519   1.403   1.735   6.846
10207SOL    HW131520   1.428   1.639   6.857
10207SOL    HW231521   1.461   1.777   6.776
10208SOL     OW31522   5.738   4.415   4.095
10208SOL    HW131523   5.800   4.340   4.073
10208SOL    HW231524   5.774   4.465   4.174
10209SOL     OW31525   6.880   0.158   6.532
10209SOL    HW131526   6.842   0.238   6.486
10209SOL    HW231527   6.807   0.092   6.552
10210SOL     OW31528   4.927   6.796   2.148
10210SOL    HW131529   4.925   6.726   2.220
10210SOL    HW231530   4.836   6.836   2.138
10211SOL     OW31531   3.998   6.359   4.460
10211SOL    HW131532   4.097   6.347   4.464
10211SOL    HW231533   3.962   6.318   4.376
10212SOL     OW31534   1.148   0.321   5.547
10212SOL    HW131535   1.134   0.316   5.448
10212SOL    HW231536   1.244   0.305   5.569
10213SOL     OW31537   4.885   2.851   1.245
10213SOL    HW131538   4.855   2.854   1.150
10213SOL    HW231539   4.831   2.785   1.296
10214SOL     OW31540   0.943   1.327   2.214
10214SOL    HW131541   0.888   1.293   2.290
10214SOL    HW231542   1.035   1.289   2.220
10215SOL     OW31543   3.955   3.166   3.493
10215SOL    HW131544   3.882   3.099   3.478
10215SOL    HW231545   3.992   3.155   3.585
10216SOL     OW31546   6.952   0.658   0.983
10216SOL    HW131547   7.020   0.620   0.920
10216SOL    HW231548   6.923   0.747   0.950
10217SOL     OW31549   2.749   1.583   3.171
10217SOL    HW131550   2.813   1.513   3.141
10217SOL    HW231551   2.778   1.619   3.260
10218SOL     OW31552   1.222   1.599   1.761
10218SOL    HW131553   1.225   1.699   1.756
10218SOL    HW231554   1.291   1.560   1.700
10219SOL     OW31555   0.205   2.258   3.000
10219SOL    HW131556   0.146   2.181   3.025
10219SOL    HW231557   0.165   2.308   2.923
10220SOL     OW31558   4.166   2.559   1.354
10220SOL    HW131559   4.256   2.530   1.321
10220SOL    HW231560   4.177   2.608   1.441
10221SOL     OW31561   0.422   5.127   3.106
10221SOL    HW131562   0.461   5.166   3.022
10221SOL    HW231563   0.416   5.197   3.176
10222SOL     OW31564   3.178   3.241   5.719
10222SOL    HW131565   3.127   3.267   5.637
10222SOL    HW231566   3.271   3.279   5.713
10223SOL     OW31567   0.429   4.506   1.474
10223SOL    HW131568   0.436   4.514   1.573
10223SOL    HW231569   0.514   4.468   1.437
10224SOL     OW31570   0.018   2.888   4.067
10224SOL    HW131571   7.004   2.978   4.053
10224SOL    HW231572   0.108   2.898   4.109
10225SOL     OW31573   1.732   4.823   6.025
10225SOL    HW131574   1.641   4.809   6.064
10225SOL    HW231575   1.729   4.804   5.927
10226SOL     OW31576   2.989   0.889   7.014
10226SOL    HW131577   3.072   0.832   7.018
10226SOL    HW231578   3.003   0.972   0.042
10227SOL     OW31579   5.029   4.251   0.345
10227SOL    HW131580   4.991   4.246   0.253
10227SOL    HW231581   5.038   4.159   0.383
10228SOL     OW31582   6.520   0.059   0.906
10228SOL    HW131583   6.502   0.133   0.970
10228SOL    HW231584   6.443   7.021   0.907
10229SOL     OW31585   1.314   2.542   4.925
10229SOL    HW131586   1.232   2.584   4.887
10229SOL    HW231587   1.386   2.541   4.856
10230SOL     OW31588   6.203   5.660   2.896
10230SOL    HW131589   6.117   5.610   2.886
10230SOL    HW231590   6.245   5.636   2.983
10231SOL     OW31591   0.667   5.701   4.933
10231SOL    HW131592   0.704   5.733   4.845
10231SOL    HW231593   0.586   5.644   4.916
10232SOL     OW31594   2.753   1.265   3.924
10232SOL    HW131595   2.755   1.215   3.837
10232SOL    HW231596   2.754   1.363   3.906
10233SOL     OW31597   3.992   3.676   4.810
10233SOL    HW131598   4.046   3.617   4.750
10233SOL    HW231599   3.954   3.752   4.757
10234SOL     OW31600   6.342   0.651   1.368
10234SOL    HW131601   6.261   0.609   1.326
10234SOL    HW231602   6.336   0.751   1.359
10235SOL     OW31603   1.944   2.264   2.068
10235SOL    HW131604   1.849   2.237   2.080
10235SOL    HW231605   1.985   2.210   1.995
10236SOL     OW31606   2.385   6.528   0.779
10236SOL    HW131607   2.417   6.559   0.869
10236SOL    HW231608   2.417   6.591   0.709
10237SOL     OW31609   6.936   3.055   0.397
10237SOL    HW131610   7.008   2.986   0.385
10237SOL    HW231611   6.895   3.077   0.308
10238SOL     OW31612   4.237   4.128   1.518
10238SOL    HW131613   4.287   4.083   1.592
10238SOL    HW231614   4.296   4.195   1.473
10239SOL     OW31615   1.268   2.579   5.254
10239SOL    HW131616   1.319   2.556   5.172
10239SOL    HW231617   1.193   2.640   5.231
10240SOL     OW31618   2.580   5.756   2.596
10240SOL    HW131619   2.579   5.734   2.694
10240SOL    HW231620   2.671   5.736   2.559
10241SOL     OW31621   5.430   0.762   2.227
10241SOL    HW131622   5.378   0.845   2.207
10241SOL    HW231623   5.506   0.784   2.289
10242SOL     OW31624   6.495   1.676   0.887
10242SOL    HW131625   6.594   1.688   0.879
10242SOL    HW231626   6.469   1.588   0.849
10243SOL     OW31627   2.580   4.424   1.437
10243SOL    HW131628   2.503   4.478   1.471
10243SOL    HW231629   2.656   4.428   1.502
10244SOL     OW31630   2.687   4.219   0.771
10244SOL    HW131631   2.726   4.173   0.692
10244SOL    HW231632   2.713   4.171   0.855
10245SOL     OW31633   3.947   4.354   1.086
10245SOL    HW131634   3.955   4.365   0.987
10245SOL    HW231635   3.925   4.258   1.107
10246SOL     OW31636   3.128   4.080   4.491
10246SOL    HW131637   3.083   4.068   4.580
10246SOL    HW231638   3.199   4.149   4.499
10247SOL     OW31639   0.029   3.969   6.029
10247SOL    HW131640   0.066   4.058   6.005
10247SOL    HW231641   0.104   3.905   6.047
10248SOL     OW31642   0.852   0.141   3.143
10248SOL    HW131643   0.780   0.083   3.107
10248SOL    HW231644   0.827   0.237   3.132
10249SOL     OW31645   2.827   5.216   6.269
10249SOL    HW131646   2.736   5.241   6.235
10249SOL    HW231647   2.891   5.213   6.192
10250SOL     OW31648   6.703   3.834   0.994
10250SOL    HW131649   6.771   3.817   1.065
10250SOL    HW231650   6.729   3.913   0.940
10251SOL     OW31651   2.033   1.417   4.221
10251SOL    HW131652   2.089   1.484   4.173
10251SOL    HW231653   1.962   1.463   4.273
10252SOL     OW31654   4.447   3.536   5.878
10252SOL    HW131655   4.392   3.618   5.891
10252SOL    HW231656   4.396   3.469   5.825
10253SOL     OW31657   2.930   6.314   0.891
10253SOL    HW131658   2.928   6.244   0.962
10253SOL    HW231659   3.013   6.368   0.900
10254SOL     OW31660   4.230   1.686   5.590
10254SOL    HW131661   4.247   1.692   5.492
10254SOL    HW231662   4.261   1.770   5.634
10255SOL     OW31663   2.693   6.918   0.821
10255SOL    HW131664   2.751   6.990   0.859
10255SOL    HW231665   2.739   6.830   0.833
10256SOL     OW31666   4.262   0.749   2.524
10256SOL    HW131667   4.347   0.765   2.475
10256SOL    HW231668   4.194   0.710   2.462
10257SOL     OW31669   1.287   5.498   4.230
10257SOL    HW131670   1.318   5.588   4.200
10257SOL    HW231671   1.256   5.504   4.325
10258SOL     OW31672   3.856   1.860   3.425
10258SOL    HW131673   3.869   1.835   3.521
10258SOL    HW231674   3.837   1.958   3.418
10259SOL     OW31675   1.256   4.186   3.530
10259SOL    HW131676   1.272   4.100   3.484
10259SOL    HW231677   1.177   4.177   3.591
10260SOL     OW31678   0.580   1.387   3.671
10260SOL    HW131679   0.571   1.447   3.591
10260SOL    HW231680   0.496   1.392   3.725
10261SOL     OW31681   6.537   4.857   0.690
10261SOL    HW131682   6.567   4.949   0.668
10261SOL    HW231683   6.562   4.795   0.615
10262SOL     OW31684   3.219   6.684   6.511
10262SOL    HW131685   3.296   6.693   6.448
10262SOL    HW231686   3.139   6.648   6.462
10263SOL     OW31687   5.822   0.228   0.495
10263SOL    HW131688   5.738   0.221   0.549
10263SOL    HW231689   5.806   0.291   0.418
10264SOL     OW31690   6.623   5.521   6.884
10264SOL    HW131691   6.641   5.526   6.982
10264SOL    HW231692   6.662   5.436   6.847
10265SOL     OW31693   3.718   2.495   6.917
10265SOL    HW131694   3.704   2.518   7.013
10265SOL    HW231695   3.637   2.519   6.865
10266SOL     OW31696   3.871   3.193   3.014
10266SOL    HW131697   3.798   3.243   2.967
10266SOL    HW231698   3.909   3.249   3.087
10267SOL     OW31699   5.096   0.915   0.836
10267SOL    HW131700   5.196   0.909   0.829
10267SOL    HW231701   5.068   1.011   0.831
10268SOL     OW31702   5.695   6.652   2.369
10268SOL    HW131703   5.623   6.599   2.323
10268SOL    HW231704   5.754   6.694   2.300
10269SOL     OW31705   1.540   2.347   6.011
10269SOL    HW131706   1.475   2.414   5.975
10269SOL    HW231707   1.505   2.309   6.097
10270SOL     OW31708   3.363   5.364   3.026
10270SOL    HW131709   3.396   5.270   3.033
10270SOL    HW231710   3.264   5.366   3.039
10271SOL     OW31711   3.018   2.632   6.910
10271SOL    HW131712   3.007   2.599   7.003
10271SOL    HW231713   2.957   2.581   6.849
10272SOL     OW31714   1.405   0.996   4.394
10272SOL    HW131715   1.328   0.935   4.375
10272SOL    HW231716   1.376   1.091   4.381
10273SOL     OW31717   3.104   5.093   4.118
10273SOL    HW131718   3.021   5.146   4.136
10273SOL    HW231719   3.182   5.155   4.110
10274SOL     OW31720   1.276   4.631   5.855
10274SOL    HW131721   1.225   4.546   5.868
10274SOL    HW231722   1.234   4.684   5.782
10275SOL     OW31723   0.262   0.565   1.908
10275SOL    HW131724   0.258   0.601   1.815
10275SOL    HW231725   0.177   0.516   1.928
10276SOL     OW31726   4.653   5.943   5.853
10276SOL    HW131727   4.585   5.884   5.896
10276SOL    HW231728   4.722   5.969   5.921
10277SOL     OW31729   1.440   6.085   4.660
10277SOL    HW131730   1.511   6.051   4.599
10277SOL    HW231731   1.428   6.021   4.736
10278SOL     OW31732   1.061   1.288   3.706
10278SOL    HW131733   1.061   1.194   3.740
10278SOL    HW231734   0.980   1.336   3.741
10279SOL     OW31735   1.828   5.146   4.252
10279SOL    HW131736   1.777   5.081   4.309
10279SOL    HW231737   1.839   5.108   4.160
10280SOL     OW31738   6.160   3.007   0.042
10280SOL    HW131739   6.075   2.986   0.091
10280SOL    HW231740   6.207   2.921   0.019
10281SOL     OW31741   6.349   2.098   3.647
10281SOL    HW131742   6.387   2.055   3.728
10281SOL    HW231743   6.281   2.167   3.674
10282SOL     OW31744   5.510   3.054   3.478
10282SOL    HW131745   5.555   3.081   3.563
10282SOL    HW231746   5.555   3.098   3.400
10283SOL     OW31747   1.389   3.285   0.773
10283SOL    HW131748   1.409   3.356   0.840
10283SOL    HW231749   1.399   3.195   0.815
10284SOL     OW31750   6.302   1.934   4.849
10284SOL    HW131751   6.363   1.868   4.894
10284SOL    HW231752   6.207   1.902   4.858
10285SOL     OW31753   4.374   6.308   2.684
10285SOL    HW131754   4.408   6.402   2.682
10285SOL    HW231755   4.451   6.245   2.694
10286SOL     OW31756   3.340   0.437   3.914
10286SOL    HW131757   3.314   0.341   3.910
10286SOL    HW231758   3.410   0.451   3.984
10287SOL     OW31759   2.370   5.377   2.079
10287SOL    HW131760   2.285   5.345   2.122
10287SOL    HW231761   2.411   5.302   2.027
10288SOL     OW31762   4.078   0.004   4.227
10288SOL    HW131763   3.986   7.017   4.190
10288SOL    HW231764   4.092   6.969   4.305
10289SOL     OW31765   3.064   6.190   0.538
10289SOL    HW131766   2.983   6.188   0.595
10289SOL    HW231767   3.039   6.169   0.443
10290SOL     OW31768   3.109   2.981   2.488
10290SOL    HW131769   3.058   3.064   2.508
10290SOL    HW231770   3.048   2.912   2.451
10291SOL     OW31771   3.671   1.816   3.239
10291SOL    HW131772   3.721   1.863   3.166
10291SOL    HW231773   3.715   1.837   3.327
10292SOL     OW31774   1.027   2.221   5.716
10292SOL    HW131775   1.112   2.183   5.751
10292SOL    HW231776   1.020   2.202   5.618
10293SOL     OW31777   1.102   3.194   3.489
10293SOL    HW131778   1.070   3.112   3.442
10293SOL    HW231779   1.068   3.193   3.583
10294SOL     OW31780   4.476   1.519   2.856
10294SOL    HW131781   4.538   1.463   2.801
10294SOL    HW231782   4.399   1.463   2.887
10295SOL     OW31783   1.223   3.046   5.372
10295SOL    HW131784   1.124   3.057   5.363
10295SOL    HW231785   1.243   2.968   5.431
10296SOL     OW31786   5.222   2.079   6.068
10296SOL    HW131787   5.280   2.160   6.080
10296SOL    HW231788   5.200   2.068   5.971
10297SOL     OW31789   2.264   1.384   6.576
10297SOL    HW131790   2.284   1.400   6.479
10297SOL    HW231791   2.223   1.466   6.615
10298SOL     OW31792   1.944   4.596   1.129
10298SOL    HW131793   1.946   4.526   1.057
10298SOL    HW231794   1.899   4.558   1.210
10299SOL     OW31795   3.937   5.268   2.814
10299SOL    HW131796   3.913   5.355   2.769
10299SOL    HW231797   3.982   5.208   2.748
10300SOL     OW31798   1.623   4.367   1.777
10300SOL    HW131799   1.684   4.292   1.801
10300SOL    HW231800   1.539   4.360   1.832
10301SOL     OW31801   4.280   1.813   5.322
10301SOL    HW131802   4.219   1.832   5.245
10301SOL    HW231803   4.279   1.891   5.385
10302SOL     OW31804   2.539   5.781   4.828
10302SOL    HW131805   2.446   5.816   4.835
10302SOL    HW231806   2.603   5.846   4.868
10303SOL     OW31807   1.201   5.595   3.695
10303SOL    HW131808   1.107   5.612   3.726
10303SOL    HW231809   1.214   5.636   3.605
10304SOL     OW31810   5.815   0.263   1.089
10304SOL    HW131811   5.913   0.278   1.071
10304SOL    HW231812   5.787   0.317   1.168
10305SOL     OW31813   1.677   3.976   5.433
10305SOL    HW131814   1.620   3.896   5.422
10305SOL    HW231815   1.742   3.982   5.357
10306SOL     OW31816   5.353   5.874   0.036
10306SOL    HW131817   5.443   5.915   0.022
10306SOL    HW231818   5.294   5.897   6.985
10307SOL     OW31819   3.042   1.350   4.948
10307SOL    HW131820   3.012   1.445   4.933
10307SOL    HW231821   3.124   1.333   4.893
10308SOL     OW31822   1.788   4.169   1.894
10308SOL    HW131823   1.885   4.151   1.882
10308SOL    HW231824   1.747   4.098   1.951
10309SOL     OW31825   0.132   1.383   0.090
10309SOL    HW131826   0.049   1.331   0.070
10309SOL    HW231827   0.109   1.477   0.112
10310SOL     OW31828   2.996   4.005   0.376
10310SOL    HW131829   3.028   3.910   0.370
10310SOL    HW231830   3.072   4.067   0.353
10311SOL     OW31831   6.514   5.615   0.127
10311SOL    HW131832   6.608   5.647   0.143
10311SOL    HW231833   6.463   5.685   0.076
10312SOL     OW31834   4.858   6.400   2.233
10312SOL    HW131835   4.864   6.478   2.295
10312SOL    HW231836   4.791   6.334   2.268
10313SOL     OW31837   3.378   5.699   2.068
10313SOL    HW131838   3.396   5.797   2.077
10313SOL    HW231839   3.464   5.649   2.059
10314SOL     OW31840   6.837   0.383   0.121
10314SOL    HW131841   6.815   0.296   0.165
10314SOL    HW231842   6.827   0.458   0.186
10315SOL     OW31843   5.802   6.246   4.336
10315SOL    HW131844   5.756   6.158   4.348
10315SOL    HW231845   5.840   6.276   4.424
10316SOL     OW31846   6.581   2.832   5.971
10316SOL    HW131847   6.610   2.898   5.902
10316SOL    HW231848   6.627   2.745   5.956
10317SOL     OW31849   4.030   6.442   6.570
10317SOL    HW131850   3.976   6.375   6.620
10317SOL    HW231851   4.085   6.395   6.500
10318SOL     OW31852   4.717   0.796   6.401
10318SOL    HW131853   4.648   0.816   6.331
10318SOL    HW231854   4.714   0.866   6.473
10319SOL     OW31855   0.486   3.734   5.739
10319SOL    HW131856   0.520   3.786   5.661
10319SOL    HW231857   0.557   3.730   5.809
10320SOL     OW31858   0.688   6.394   2.480
10320SOL    HW131859   0.660   6.487   2.504
10320SOL    HW231860   0.787   6.385   2.492
10321SOL     OW31861   5.788   1.886   1.622
10321SOL    HW131862   5.734   1.934   1.553
10321SOL    HW231863   5.873   1.937   1.639
10322SOL     OW31864   4.437   5.002   4.784
10322SOL    HW131865   4.418   4.904   4.774
10322SOL    HW231866   4.361   5.054   4.746
10323SOL     OW31867   5.909   4.573   5.598
10323SOL    HW131868   6.006   4.550   5.609
10323SOL    HW231869   5.895   4.619   5.511
10324SOL     OW31870   3.727   3.011   1.896
10324SOL    HW131871   3.723   2.955   1.978
10324SOL    HW231872   3.807   3.072   1.901
10325SOL     OW31873   6.486   4.361   2.037
10325SOL    HW131874   6.500   4.312   2.123
10325SOL    HW231875   6.432   4.443   2.054
10326SOL     OW31876   5.349   4.688   6.222
10326SOL    HW131877   5.286   4.764   6.204
10326SOL    HW231878   5.435   4.725   6.258
10327SOL     OW31879   2.195   2.820   1.094
10327SOL    HW131880   2.132   2.881   1.046
10327SOL    HW231881   2.286   2.861   1.096
10328SOL     OW31882   6.353   2.793   0.320
10328SOL    HW131883   6.339   2.701   0.357
10328SOL    HW231884   6.417   2.788   0.243
10329SOL     OW31885   2.323   0.803   3.356
10329SOL    HW131886   2.390   0.850   3.298
10329SOL    HW231887   2.345   0.706   3.360
10330SOL     OW31888   4.319   1.078   2.089
10330SOL    HW131889   4.279   1.162   2.126
10330SOL    HW231890   4.259   1.001   2.108
10331SOL     OW31891   6.692   6.547   5.998
10331SOL    HW131892   6.733   6.557   5.908
10331SOL    HW231893   6.755   6.497   6.058
10332SOL     OW31894   0.122   0.398   0.201
10332SOL    HW131895   0.082   0.407   0.109
10332SOL    HW231896   0.084   0.317   0.246
10333SOL     OW31897   1.045   4.683   5.151
10333SOL    HW131898   1.022   4.600   5.202
10333SOL    HW231899   1.143   4.681   5.127
10334SOL     OW31900   3.468   0.925   4.548
10334SOL    HW131901   3.407   0.929   4.627
10334SOL    HW231902   3.530   1.004   4.549
10335SOL     OW31903   2.236   4.170   0.181
10335SOL    HW131904   2.276   4.205   0.096
10335SOL    HW231905   2.137   4.176   0.176
10336SOL     OW31906   6.177   0.036   1.157
10336SOL    HW131907   6.106   0.084   1.208
10336SOL    HW231908   6.257   0.023   1.215
10337SOL     OW31909   0.669   6.289   6.501
10337SOL    HW131910   0.596   6.307   6.435
10337SOL    HW231911   0.753   6.334   6.470
10338SOL     OW31912   1.413   6.460   2.573
10338SOL    HW131913   1.463   6.539   2.536
10338SOL    HW231914   1.347   6.428   2.505
10339SOL     OW31915   5.318   3.288   5.712
10339SOL    HW131916   5.360   3.248   5.793
10339SOL    HW231917   5.228   3.324   5.736
10340SOL     OW31918   1.571   3.578   0.172
10340SOL    HW131919   1.517   3.505   0.130
10340SOL    HW231920   1.656   3.590   0.121
10341SOL     OW31921   1.957   3.528   2.093
10341SOL    HW131922   2.051   3.523   2.058
10341SOL    HW231923   1.959   3.526   2.193
10342SOL     OW31924   2.034   6.975   4.325
10342SOL    HW131925   1.985   6.918   4.391
10342SOL    HW231926   2.111   7.021   4.371
10343SOL     OW31927   3.201   4.823   6.315
10343SOL    HW131928   3.292   4.816   6.273
10343SOL    HW231929   3.190   4.913   6.356
10344SOL     OW31930   4.376   2.989   0.538
10344SOL    HW131931   4.333   2.946   0.459
10344SOL    HW231932   4.453   3.046   0.507
10345SOL     OW31933   1.771   1.642   6.821
10345SOL    HW131934   1.736   1.718   6.767
10345SOL    HW231935   1.823   1.677   6.899
10346SOL     OW31936   0.488   5.333   1.544
10346SOL    HW131937   0.465   5.276   1.465
10346SOL    HW231938   0.583   5.318   1.569
10347SOL     OW31939   3.775   1.184   3.316
10347SOL    HW131940   3.866   1.224   3.330
10347SOL    HW231941   3.781   1.111   3.248
10348SOL     OW31942   6.724   2.759   0.263
10348SOL    HW131943   6.656   2.717   0.324
10348SOL    HW231944   6.804   2.700   0.256
10349SOL     OW31945   1.748   0.705   0.330
10349SOL    HW131946   1.675   0.636   0.332
10349SOL    HW231947   1.723   0.778   0.267
10350SOL     OW31948   2.562   5.432   5.406
10350SOL    HW131949   2.568   5.528   5.431
10350SOL    HW231950   2.475   5.415   5.359
10351SOL     OW31951   4.395   4.788   6.766
10351SOL    HW131952   4.353   4.831   6.686
10351SOL    HW231953   4.337   4.713   6.797
10352SOL     OW31954   3.434   1.097   6.379
10352SOL    HW131955   3.520   1.080   6.427
10352SOL    HW231956   3.452   1.124   6.285
10353SOL     OW31957   6.729   3.512   5.064
10353SOL    HW131958   6.655   3.551   5.118
10353SOL    HW231959   6.705   3.419   5.037
10354SOL     OW31960   5.746   2.124   2.288
10354SOL    HW131961   5.795   2.211   2.284
10354SOL    HW231962   5.731   2.090   2.195
10355SOL     OW31963   2.479   6.751   1.431
10355SOL    HW131964   2.379   6.750   1.426
10355SOL    HW231965   2.515   6.669   1.388
10356SOL     OW31966   0.313   4.992   4.757
10356SOL    HW131967   0.309   5.031   4.849
10356SOL    HW231968   0.378   4.916   4.756
10357SOL     OW31969   1.677   2.687   5.977
10357SOL    HW131970   1.622   2.681   6.061
10357SOL    HW231971   1.755   2.625   5.983
10358SOL     OW31972   0.197   2.798   3.716
10358SOL    HW131973   0.111   2.748   3.726
10358SOL    HW231974   0.273   2.741   3.747
10359SOL     OW31975   0.827   2.109   1.274
10359SOL    HW131976   0.738   2.156   1.278
10359SOL    HW231977   0.813   2.010   1.272
10360SOL     OW31978   4.693   4.773   3.005
10360SOL    HW131979   4.689   4.808   2.911
10360SOL    HW231980   4.629   4.823   3.062
10361SOL     OW31981   2.221   6.258   3.198
10361SOL    HW131982   2.310   6.238   3.157
10361SOL    HW231983   2.230   6.332   3.264
10362SOL     OW31984   1.625   4.741   5.061
10362SOL    HW131985   1.545   4.775   5.011
10362SOL    HW231986   1.691   4.704   4.996
10363SOL     OW31987   4.472   0.945   2.571
10363SOL    HW131988   4.520   0.892   2.641
10363SOL    HW231989   4.383   0.974   2.607
10364SOL     OW31990   3.253   3.142   1.746
10364SOL    HW131991   3.344   3.118   1.779
10364SOL    HW231992   3.248   3.240   1.729
10365SOL     OW31993   3.823   5.054   6.249
10365SOL    HW131994   3.750   5.073   6.184
10365SOL    HW231995   3.815   5.116   6.327
10366SOL     OW31996   2.489   0.244   4.144
10366SOL    HW131997   2.521   0.226   4.051
10366SOL    HW231998   2.413   0.310   4.141
10367SOL     OW31999   5.727   2.411   2.498
10367SOL    HW132000   5.732   2.399   2.597
10367SOL    HW232001   5.669   2.489   2.477
10368SOL     OW32002   2.086   1.866   1.307
10368SOL    HW132003   2.062   1.808   1.230
10368SOL    HW232004   2.186   1.874   1.314
10369SOL     OW32005   4.042   1.099   6.273
10369SOL    HW132006   3.974   1.115   6.202
10369SOL    HW232007   3.998   1.056   6.352
10370SOL     OW32008   4.902   1.630   4.947
10370SOL    HW132009   4.908   1.572   5.028
10370SOL    HW232010   4.888   1.725   4.975
10371SOL     OW32011   3.765   5.669   4.974
10371SOL    HW132012   3.765   5.622   4.885
10371SOL    HW232013   3.824   5.750   4.969
10372SOL     OW32014   1.943   1.216   5.850
10372SOL    HW132015   1.977   1.296   5.800
10372SOL    HW232016   1.885   1.247   5.926
10373SOL     OW32017   2.432   6.517   4.984
10373SOL    HW132018   2.499   6.529   4.911
10373SOL    HW232019   2.452   6.432   5.033
10374SOL     OW32020   3.416   1.436   3.129
10374SOL    HW132021   3.512   1.419   3.111
10374SOL    HW232022   3.361   1.403   3.052
10375SOL     OW32023   4.368   2.045   7.005
10375SOL    HW132024   4.277   2.011   6.980
10375SOL    HW232025   4.362   2.094   0.065
10376SOL     OW32026   1.172   6.547   3.595
10376SOL    HW132027   1.114   6.629   3.597
10376SOL    HW232028   1.151   6.488   3.673
10377SOL     OW32029   6.529   1.013   4.020
10377SOL    HW132030   6.482   0.998   3.933
10377SOL    HW232031   6.539   1.111   4.036
10378SOL     OW32032   6.494   0.749   5.691
10378SOL    HW132033   6.413   0.727   5.636
10378SOL    HW232034   6.572   0.763   5.630
10379SOL     OW32035   4.431   0.550   5.022
10379SOL    HW132036   4.472   0.570   4.934
10379SOL    HW232037   4.385   0.632   5.057
10380SOL     OW32038   5.779   1.038   3.284
10380SOL    HW132039   5.800   1.088   3.200
10380SOL    HW232040   5.836   1.072   3.359
10381SOL     OW32041   4.957   5.675   5.865
10381SOL    HW132042   4.939   5.752   5.926
10381SOL    HW232043   4.909   5.689   5.778
10382SOL     OW32044   2.388   4.585   6.009
10382SOL    HW132045   2.337   4.658   6.055
10382SOL    HW232046   2.483   4.586   6.040
10383SOL     OW32047   0.738   3.482   0.656
10383SOL    HW132048   0.731   3.577   0.627
10383SOL    HW232049   0.650   3.437   0.643
10384SOL     OW32050   0.347   7.001   0.462
10384SOL    HW132051   0.356   6.909   0.424
10384SOL    HW232052   0.250   7.021   0.478
10385SOL     OW32053   5.041   0.042   6.050
10385SOL    HW132054   5.008   7.012   5.975
10385SOL    HW232055   5.065   0.133   6.015
10386SOL     OW32056   6.865   3.738   5.178
10386SOL    HW132057   6.847   3.750   5.276
10386SOL    HW232058   6.789   3.687   5.136
10387SOL     OW32059   2.973   1.801   2.472
10387SOL    HW132060   3.040   1.806   2.399
10387SOL    HW232061   3.013   1.837   2.556
10388SOL     OW32062   1.066   5.560   4.074
10388SOL    HW132063   1.150   5.538   4.124
10388SOL    HW232064   1.018   5.635   4.120
10389SOL     OW32065   0.659   5.409   2.657
10389SOL    HW132066   0.568   5.368   2.647
10389SOL    HW232067   0.659   5.500   2.615
10390SOL     OW32068   1.575   4.080   2.312
10390SOL    HW132069   1.626   4.083   2.399
10390SOL    HW232070   1.595   4.161   2.259
10391SOL     OW32071   1.404   5.950   6.479
10391SOL    HW132072   1.401   6.050   6.474
10391SOL    HW232073   1.496   5.921   6.503
10392SOL     OW32074   6.691   3.896   0.343
10392SOL    HW132075   6.645   3.814   0.310
10392SOL    HW232076   6.784   3.899   0.306
10393SOL     OW32077   0.553   1.546   3.453
10393SOL    HW132078   0.650   1.551   3.430
10393SOL    HW232079   0.500   1.597   3.385
10394SOL     OW32080   2.507   6.821   6.624
10394SOL    HW132081   2.532   6.725   6.630
10394SOL    HW232082   2.588   6.875   6.599
10395SOL     OW32083   6.855   0.711   4.283
10395SOL    HW132084   6.760   0.742   4.286
10395SOL    HW232085   6.874   0.673   4.192
10396SOL     OW32086   1.109   0.660   3.526
10396SOL    HW132087   1.069   0.661   3.617
10396SOL    HW232088   1.072   0.583   3.473
10397SOL     OW32089   3.701   0.840   3.518
10397SOL    HW132090   3.682   0.757   3.466
10397SOL    HW232091   3.629   0.907   3.499
10398SOL     OW32092   6.390   2.662   0.764
10398SOL    HW132093   6.416   2.741   0.708
10398SOL    HW232094   6.467   2.598   0.770
10399SOL     OW32095   4.233   2.038   5.464
10399SOL    HW132096   4.137   2.047   5.439
10399SOL    HW232097   4.241   2.031   5.564
10400SOL     OW32098   2.975   5.907   2.974
10400SOL    HW132099   2.996   6.002   2.951
10400SOL    HW232100   3.044   5.847   2.934
10401SOL     OW32101   6.203   6.088   2.368
10401SOL    HW132102   6.131   6.089   2.437
10401SOL    HW232103   6.265   6.012   2.386
10402SOL     OW32104   0.135   2.836   5.705
10402SOL    HW132105   0.082   2.901   5.651
10402SOL    HW232106   0.103   2.838   5.800
10403SOL     OW32107   5.122   1.694   2.416
10403SOL    HW132108   5.088   1.701   2.510
10403SOL    HW232109   5.094   1.606   2.377
10404SOL     OW32110   1.152   6.752   4.446
10404SOL    HW132111   1.152   6.846   4.482
10404SOL    HW232112   1.098   6.748   4.363
10405SOL     OW32113   1.264   5.573   5.186
10405SOL    HW132114   1.244   5.476   5.200
10405SOL    HW232115   1.212   5.627   5.251
10406SOL     OW32116   1.844   5.038   5.144
10406SOL    HW132117   1.863   4.965   5.210
10406SOL    HW232118   1.746   5.061   5.148
10407SOL     OW32119   1.520   1.178   6.233
10407SOL    HW132120   1.439   1.233   6.211
10407SOL    HW232121   1.545   1.123   6.153
10408SOL     OW32122   4.747   5.141   2.740
10408SOL    HW132123   4.756   5.208   2.666
10408SOL    HW232124   4.788   5.178   2.823
10409SOL     OW32125   0.267   4.069   1.755
10409SOL    HW132126   0.278   4.007   1.833
10409SOL    HW232127   0.190   4.038   1.699
10410SOL     OW32128   5.071   0.798   1.468
10410SOL    HW132129   5.042   0.855   1.392
10410SOL    HW232130   4.990   0.765   1.517
10411SOL     OW32131   1.826   4.804   3.558
10411SOL    HW132132   1.898   4.845   3.614
10411SOL    HW232133   1.737   4.827   3.598
10412SOL     OW32134   0.892   2.143   6.670
10412SOL    HW132135   0.839   2.191   6.740
10412SOL    HW232136   0.899   2.046   6.694
10413SOL     OW32137   0.742   1.976   0.605
10413SOL    HW132138   0.727   1.941   0.698
10413SOL    HW232139   0.681   1.929   0.541
10414SOL     OW32140   5.241   6.500   6.189
10414SOL    HW132141   5.325   6.476   6.140
10414SOL    HW232142   5.162   6.473   6.136
10415SOL     OW32143   0.853   5.400   3.293
10415SOL    HW132144   0.842   5.327   3.361
10415SOL    HW232145   0.763   5.434   3.266
10416SOL     OW32146   6.435   2.261   5.615
10416SOL    HW132147   6.444   2.177   5.667
10416SOL    HW232148   6.434   2.339   5.677
10417SOL     OW32149   4.051   5.108   2.636
10417SOL    HW132150   4.149   5.126   2.643
10417SOL    HW232151   4.022   5.115   2.541
10418SOL     OW32152   6.791   3.751   5.607
10418SOL    HW132153   6.841   3.776   5.690
10418SOL    HW232154   6.718   3.817   5.592
10419SOL     OW32155   3.091   0.845   5.491
10419SOL    HW132156   3.045   0.893   5.566
10419SOL    HW232157   3.035   0.851   5.409
10420SOL     OW32158   6.452   3.177   3.078
10420SOL    HW132159   6.466   3.259   3.133
10420SOL    HW232160   6.526   3.112   3.094
10421SOL     OW32161   1.285   4.718   3.889
10421SOL    HW132162   1.261   4.648   3.821
10421SOL    HW232163   1.325   4.675   3.969
10422SOL     OW32164   6.652   3.902   4.903
10422SOL    HW132165   6.557   3.923   4.879
10422SOL    HW232166   6.711   3.922   4.825
10423SOL     OW32167   3.667   4.955   4.318
10423SOL    HW132168   3.647   4.920   4.409
10423SOL    HW232169   3.759   4.927   4.291
10424SOL     OW32170   3.782   1.352   6.683
10424SOL    HW132171   3.814   1.261   6.712
10424SOL    HW232172   3.764   1.351   6.585
10425SOL     OW32173   1.740   0.391   0.774
10425SOL    HW132174   1.804   0.466   0.790
10425SOL    HW232175   1.647   0.427   0.770
10426SOL     OW32176   5.279   2.700   5.343
10426SOL    HW132177   5.268   2.636   5.419
10426SOL    HW232178   5.377   2.711   5.323
10427SOL     OW32179   4.631   5.981   5.125
10427SOL    HW132180   4.729   5.997   5.138
10427SOL    HW232181   4.605   6.008   5.032
10428SOL     OW32182   1.419   1.440   3.258
10428SOL    HW132183   1.446   1.481   3.345
10428SOL    HW232184   1.367   1.356   3.276
10429SOL     OW32185   1.111   3.545   2.719
10429SOL    HW132186   1.088   3.555   2.816
10429SOL    HW232187   1.159   3.458   2.705
10430SOL     OW32188   4.023   6.460   3.819
10430SOL    HW132189   3.945   6.418   3.773
10430SOL    HW232190   4.088   6.494   3.750
10431SOL     OW32191   2.634   2.092   4.218
10431SOL    HW132192   2.577   2.089   4.300
10431SOL    HW232193   2.662   1.999   4.193
10432SOL     OW32194   6.887   0.004   5.913
10432SOL    HW132195   6.926   0.070   5.849
10432SOL    HW232196   6.958   6.998   5.975
10433SOL     OW32197   1.974   6.682   1.602
10433SOL    HW132198   1.911   6.703   1.677
10433SOL    HW232199   2.046   6.622   1.635
10434SOL     OW32200   4.806   0.756   6.012
10434SOL    HW132201   4.785   0.806   5.928
10434SOL    HW232202   4.876   0.805   6.064
10435SOL     OW32203   1.007   2.270   6.467
10435SOL    HW132204   0.933   2.298   6.406
10435SOL    HW232205   0.968   2.225   6.548
10436SOL     OW32206   0.421   4.184   5.088
10436SOL    HW132207   0.390   4.171   4.994
10436SOL    HW232208   0.513   4.147   5.098
10437SOL     OW32209   5.064   4.853   5.152
10437SOL    HW132210   5.001   4.924   5.122
10437SOL    HW232211   5.119   4.822   5.074
10438SOL     OW32212   6.603   6.240   6.590
10438SOL    HW132213   6.594   6.332   6.553
10438SOL    HW232214   6.589   6.242   6.689
10439SOL     OW32215   0.193   0.391   4.434
10439SOL    HW132216   0.114   0.340   4.466
10439SOL    HW232217   0.171   0.437   4.348
10440SOL     OW32218   0.577   1.517   6.885
10440SOL    HW132219   0.644   1.444   6.897
10440SOL    HW232220   0.494   1.480   6.843
10441SOL     OW32221   3.424   1.526   1.053
10441SOL    HW132222   3.430   1.602   0.988
10441SOL    HW232223   3.327   1.505   1.070
10442SOL     OW32224   2.820   1.037   5.443
10442SOL    HW132225   2.841   1.011   5.537
10442SOL    HW232226   2.732   0.998   5.416
10443SOL     OW32227   0.133   1.600   3.670
10443SOL    HW132228   0.093   1.687   3.642
10443SOL    HW232229   0.062   1.541   3.708
10444SOL     OW32230   3.639   5.351   3.624
10444SOL    HW132231   3.651   5.275   3.560
10444SOL    HW232232   3.563   5.330   3.686
10445SOL     OW32233   1.324   4.254   2.399
10445SOL    HW132234   1.263   4.199   2.343
10445SOL    HW232235   1.274   4.292   2.477
10446SOL     OW32236   1.833   3.900   5.205
10446SOL    HW132237   1.925   3.920   5.173
10446SOL    HW232238   1.781   3.855   5.132
10447SOL     OW32239   6.659   2.541   3.005
10447SOL    HW132240   6.621   2.609   3.067
10447SOL    HW232241   6.616   2.550   2.915
10448SOL     OW32242   2.446   0.167   3.217
10448SOL    HW132243   2.412   0.172   3.311
10448SOL    HW232244   2.383   0.216   3.156
10449SOL     OW32245   3.328   5.598   6.736
10449SOL    HW132246   3.321   5.649   6.651
10449SOL    HW232247   3.248   5.539   6.747
10450SOL     OW32248   6.345   0.564   6.033
10450SOL    HW132249   6.277   0.553   5.960
10450SOL    HW232250   6.382   0.474   6.058
10451SOL     OW32251   1.767   0.678   4.122
10451SOL    HW132252   1.824   0.645   4.198
10451SOL    HW232253   1.717   0.760   4.151
10452SOL     OW32254   6.758   3.769   3.654
10452SOL    HW132255   6.834   3.829   3.628
10452SOL    HW232256   6.682   3.781   3.589
10453SOL     OW32257   4.488   5.921   3.502
10453SOL    HW132258   4.457   6.014   3.518
10453SOL    HW232259   4.433   5.858   3.557
10454SOL     OW32260   6.399   1.644   6.738
10454SOL    HW132261   6.407   1.679   6.831
10454SOL    HW232262   6.456   1.699   6.677
10455SOL     OW32263   6.403   6.231   4.394
10455SOL    HW132264   6.378   6.306   4.456
10455SOL    HW232265   6.425   6.269   4.304
10456SOL     OW32266   6.911   5.240   0.008
10456SOL    HW132267   6.909   5.320   0.068
10456SOL    HW232268   6.851   5.169   0.046
10457SOL     OW32269   3.776   2.840   0.087
10457SOL    HW132270   3.869   2.815   0.061
10457SOL    HW232271   3.714   2.764   0.068
10458SOL     OW32272   6.825   6.906   6.303
10458SOL    HW132273   6.851   6.971   6.232
10458SOL    HW232274   6.780   6.827   6.261
10459SOL     OW32275   6.855   5.446   0.223
10459SOL    HW132276   6.835   5.542   0.204
10459SOL    HW232277   6.812   5.419   0.309
10460SOL     OW32278   6.874   3.846   1.207
10460SOL    HW132279   6.902   3.778   1.275
10460SOL    HW232280   6.920   3.933   1.225
10461SOL     OW32281   6.644   4.679   5.174
10461SOL    HW132282   6.743   4.676   5.164
10461SOL    HW232283   6.611   4.591   5.209
10462SOL     OW32284   5.020   1.698   1.359
10462SOL    HW132285   4.925   1.670   1.343
10462SOL    HW232286   5.038   1.784   1.312
10463SOL     OW32287   4.602   2.655   6.213
10463SOL    HW132288   4.546   2.652   6.296
10463SOL    HW232289   4.617   2.562   6.180
10464SOL     OW32290   5.443   5.268   2.960
10464SOL    HW132291   5.385   5.259   3.041
10464SOL    HW232292   5.459   5.364   2.941
10465SOL     OW32293   5.116   3.713   2.519
10465SOL    HW132294   5.019   3.704   2.499
10465SOL    HW232295   5.165   3.731   2.433
10466SOL     OW32296   5.648   4.821   6.179
10466SOL    HW132297   5.652   4.790   6.274
10466SOL    HW232298   5.664   4.920   6.176
10467SOL     OW32299   2.132   2.799   6.917
10467SOL    HW132300   2.094   2.794   6.825
10467SOL    HW232301   2.082   2.736   6.977
10468SOL     OW32302   2.690   4.608   3.839
10468SOL    HW132303   2.595   4.614   3.808
10468SOL    HW232304   2.738   4.692   3.812
10469SOL     OW32305   5.777   2.280   5.603
10469SOL    HW132306   5.876   2.292   5.613
10469SOL    HW232307   5.739   2.246   5.688
10470SOL     OW32308   2.337   2.146   4.256
10470SOL    HW132309   2.246   2.140   4.214
10470SOL    HW232310   2.346   2.234   4.302
10471SOL     OW32311   2.486   0.808   0.242
10471SOL    HW132312   2.550   0.761   0.303
10471SOL    HW232313   2.529   0.820   0.152
10472SOL     OW32314   3.688   4.526   0.618
10472SOL    HW132315   3.634   4.489   0.543
10472SOL    HW232316   3.632   4.589   0.672
10473SOL     OW32317   5.275   5.903   6.127
10473SOL    HW132318   5.319   5.988   6.152
10473SOL    HW232319   5.189   5.893   6.177
10474SOL     OW32320   5.311   0.971   4.005
10474SOL    HW132321   5.338   1.067   3.996
10474SOL    HW232322   5.316   0.927   3.916
10475SOL     OW32323   2.171   6.211   2.105
10475SOL    HW132324   2.266   6.203   2.076
10475SOL    HW232325   2.132   6.120   2.120
10476SOL     OW32326   4.002   5.898   6.561
10476SOL    HW132327   3.914   5.911   6.607
10476SOL    HW232328   4.051   5.821   6.602
10477SOL     OW32329   6.838   6.010   3.925
10477SOL    HW132330   6.829   6.109   3.937
10477SOL    HW232331   6.761   5.965   3.970
10478SOL     OW32332   6.157   0.023   0.184
10478SOL    HW132333   6.247   0.012   0.227
10478SOL    HW232334   6.094   6.981   0.221
10479SOL     OW32335   0.075   2.839   2.603
10479SOL    HW132336   0.015   2.777   2.653
10479SOL    HW232337   0.039   2.932   2.607
10480SOL     OW32338   1.567   0.108   2.449
10480SOL    HW132339   1.630   0.036   2.418
10480SOL    HW232340   1.594   0.139   2.540
10481SOL     OW32341   0.690   6.946   3.094
10481SOL    HW132342   0.738   6.874   3.143
10481SOL    HW232343   0.693   6.928   2.996
10482SOL     OW32344   6.098   4.437   4.449
10482SOL    HW132345   6.177   4.435   4.388
10482SOL    HW232346   6.125   4.409   4.541
10483SOL     OW32347   5.407   5.653   6.821
10483SOL    HW132348   5.441   5.651   6.727
10483SOL    HW232349   5.324   5.709   6.824
10484SOL     OW32350   5.851   1.368   1.011
10484SOL    HW132351   5.803   1.414   1.086
10484SOL    HW232352   5.887   1.281   1.044
10485SOL     OW32353   4.112   4.306   6.286
10485SOL    HW132354   4.193   4.247   6.276
10485SOL    HW232355   4.040   4.274   6.224
10486SOL     OW32356   6.569   2.829   0.619
10486SOL    HW132357   6.536   2.838   0.525
10486SOL    HW232358   6.661   2.867   0.626
10487SOL     OW32359   5.961   6.583   1.655
10487SOL    HW132360   5.932   6.641   1.579
10487SOL    HW232361   5.955   6.487   1.628
10488SOL     OW32362   2.807   3.142   6.462
10488SOL    HW132363   2.755   3.097   6.535
10488SOL    HW232364   2.890   3.181   6.501
10489SOL     OW32365   0.658   6.566   6.227
10489SOL    HW132366   0.747   6.603   6.254
10489SOL    HW232367   0.672   6.478   6.182
10490SOL     OW32368   6.278   1.298   3.013
10490SOL    HW132369   6.274   1.267   2.918
10490SOL    HW232370   6.266   1.398   3.016
10491SOL     OW32371   1.515   3.563   6.429
10491SOL    HW132372   1.531   3.491   6.496
10491SOL    HW232373   1.538   3.530   6.338
10492SOL     OW32374   4.782   3.729   5.339
10492SOL    HW132375   4.818   3.804   5.283
10492SOL    HW232376   4.730   3.666   5.282
10493SOL     OW32377   3.371   0.657   1.471
10493SOL    HW132378   3.276   0.626   1.463
10493SOL    HW232379   3.372   0.756   1.486
10494SOL     OW32380   5.477   2.224   4.808
10494SOL    HW132381   5.483   2.276   4.723
10494SOL    HW232382   5.514   2.132   4.793
10495SOL     OW32383   1.601   6.792   0.921
10495SOL    HW132384   1.553   6.713   0.960
10495SOL    HW232385   1.685   6.763   0.878
10496SOL     OW32386   0.335   6.749   0.353
10496SOL    HW132387   0.415   6.689   0.347
10496SOL    HW232388   0.263   6.704   0.406
10497SOL     OW32389   1.735   0.560   1.005
10497SOL    HW132390   1.724   0.617   1.086
10497SOL    HW232391   1.702   0.610   0.925
10498SOL     OW32392   2.688   6.695   0.163
10498SOL    HW132393   2.669   6.600   0.189
10498SOL    HW232394   2.776   6.699   0.116
10499SOL     OW32395   2.452   6.212   3.056
10499SOL    HW132396   2.501   6.287   3.012
10499SOL    HW232397   2.517   6.149   3.096
10500SOL     OW32398   0.372   1.213   5.634
10500SOL    HW132399   0.313   1.154   5.579
10500SOL    HW232400   0.468   1.188   5.619
10501SOL     OW32401   1.778   5.284   3.154
10501SOL    HW132402   1.797   5.247   3.244
10501SOL    HW232403   1.863   5.296   3.103
10502SOL     OW32404   3.262   6.766   1.218
10502SOL    HW132405   3.189   6.784   1.284
10502SOL    HW232406   3.316   6.687   1.248
10503SOL     OW32407   4.469   2.742   0.240
10503SOL    HW132408   4.485   2.720   0.336
10503SOL    HW232409   4.473   2.841   0.226
10504SOL     OW32410   1.708   2.664   0.328
10504SOL    HW132411   1.774   2.696   0.395
10504SOL    HW232412   1.642   2.737   0.309
10505SOL     OW32413   5.776   6.118   0.817
10505SOL    HW132414   5.830   6.198   0.842
10505SOL    HW232415   5.796   6.092   0.722
10506SOL     OW32416   0.570   4.604   6.503
10506SOL    HW132417   0.474   4.598   6.529
10506SOL    HW232418   0.614   4.514   6.514
10507SOL     OW32419   2.184   6.913   0.332
10507SOL    HW132420   2.105   6.908   0.272
10507SOL    HW232421   2.252   6.976   0.294
10508SOL     OW32422   5.797   5.716   3.818
10508SOL    HW132423   5.829   5.623   3.836
10508SOL    HW232424   5.875   5.775   3.798
10509SOL     OW32425   1.175   6.779   6.378
10509SOL    HW132426   1.124   6.813   6.457
10509SOL    HW232427   1.116   6.720   6.324
10510SOL     OW32428   5.866   5.018   5.900
10510SOL    HW132429   5.793   4.949   5.894
10510SOL    HW232430   5.938   4.997   5.834
10511SOL     OW32431   4.612   3.167   0.960
10511SOL    HW132432   4.526   3.117   0.951
10511SOL    HW232433   4.687   3.103   0.976
10512SOL     OW32434   3.729   1.321   6.409
10512SOL    HW132435   3.776   1.389   6.354
10512SOL    HW232436   3.738   1.231   6.366
10513SOL     OW32437   6.808   2.369   6.247
10513SOL    HW132438   6.835   2.293   6.188
10513SOL    HW232439   6.746   2.336   6.318
10514SOL     OW32440   6.546   4.042   0.520
10514SOL    HW132441   6.586   4.070   0.608
10514SOL    HW232442   6.613   3.990   0.468
10515SOL     OW32443   6.209   2.537   3.039
10515SOL    HW132444   6.297   2.496   3.061
10515SOL    HW232445   6.162   2.481   2.970
10516SOL     OW32446   4.707   0.990   6.587
10516SOL    HW132447   4.790   1.011   6.637
10516SOL    HW232448   4.649   1.072   6.584
10517SOL     OW32449   0.554   2.300   2.344
10517SOL    HW132450   0.474   2.287   2.286
10517SOL    HW232451   0.609   2.376   2.310
10518SOL     OW32452   0.836   5.029   6.955
10518SOL    HW132453   0.805   5.113   6.998
10518SOL    HW232454   0.780   4.953   6.987
10519SOL     OW32455   3.288   2.713   5.582
10519SOL    HW132456   3.246   2.641   5.638
10519SOL    HW232457   3.273   2.693   5.486
10520SOL     OW32458   2.603   2.890   6.942
10520SOL    HW132459   2.636   2.976   6.902
10520SOL    HW232460   2.679   2.839   6.981
10521SOL     OW32461   6.515   5.893   1.172
10521SOL    HW132462   6.592   5.950   1.143
10521SOL    HW232463   6.477   5.928   1.257
10522SOL     OW32464   6.554   0.374   0.300
10522SOL    HW132465   6.532   0.411   0.209
10522SOL    HW232466   6.625   0.429   0.343
10523SOL     OW32467   0.273   6.206   4.489
10523SOL    HW132468   0.327   6.291   4.489
10523SOL    HW232469   0.335   6.128   4.496
10524SOL     OW32470   2.087   0.469   5.154
10524SOL    HW132471   2.046   0.378   5.152
10524SOL    HW232472   2.024   0.535   5.114
10525SOL     OW32473   2.893   6.561   5.574
10525SOL    HW132474   2.860   6.615   5.652
10525SOL    HW232475   2.970   6.608   5.531
10526SOL     OW32476   0.192   0.505   2.511
10526SOL    HW132477   0.237   0.416   2.506
10526SOL    HW232478   0.215   0.548   2.599
10527SOL     OW32479   1.216   2.972   4.089
10527SOL    HW132480   1.247   3.067   4.081
10527SOL    HW232481   1.279   2.912   4.041
10528SOL     OW32482   1.129   3.809   5.176
10528SOL    HW132483   1.079   3.895   5.191
10528SOL    HW232484   1.185   3.790   5.257
10529SOL     OW32485   1.064   5.725   2.553
10529SOL    HW132486   1.032   5.722   2.648
10529SOL    HW232487   1.010   5.791   2.501
10530SOL     OW32488   2.038   1.530   6.402
10530SOL    HW132489   1.944   1.543   6.433
10530SOL    HW232490   2.094   1.498   6.478
10531SOL     OW32491   2.097   3.417   4.506
10531SOL    HW132492   2.075   3.327   4.469
10531SOL    HW232493   2.196   3.431   4.505
10532SOL     OW32494   2.345   3.213   0.661
10532SOL    HW132495   2.366   3.142   0.729
10532SOL    HW232496   2.246   3.225   0.656
10533SOL     OW32497   2.821   1.472   4.250
10533SOL    HW132498   2.733   1.518   4.240
10533SOL    HW232499   2.871   1.511   4.327
10534SOL     OW32500   0.083   5.787   0.763
10534SOL    HW132501   0.037   5.871   0.736
10534SOL    HW232502   0.031   5.742   0.836
10535SOL     OW32503   0.161   2.508   2.402
10535SOL    HW132504   0.110   2.422   2.395
10535SOL    HW232505   0.216   2.507   2.486
10536SOL     OW32506   3.783   0.109   2.754
10536SOL    HW132507   3.698   0.095   2.704
10536SOL    HW232508   3.764   0.115   2.852
10537SOL     OW32509   3.455   5.399   3.290
10537SOL    HW132510   3.422   5.331   3.356
10537SOL    HW232511   3.403   5.391   3.205
10538SOL     OW32512   4.640   3.065   6.656
10538SOL    HW132513   4.575   2.989   6.653
10538SOL    HW232514   4.707   3.055   6.582
10539SOL     OW32515   0.332   4.318   6.341
10539SOL    HW132516   0.402   4.254   6.307
10539SOL    HW232517   0.378   4.398   6.380
10540SOL     OW32518   1.388   1.023   6.028
10540SOL    HW132519   1.346   0.959   5.964
10540SOL    HW232520   1.486   1.027   6.011
10541SOL     OW32521   3.539   3.742   1.459
10541SOL    HW132522   3.635   3.713   1.464
10541SOL    HW232523   3.521   3.808   1.533
10542SOL     OW32524   6.932   1.387   0.748
10542SOL    HW132525   6.852   1.355   0.799
10542SOL    HW232526   6.916   1.378   0.650
10543SOL     OW32527   6.757   1.203   5.194
10543SOL    HW132528   6.841   1.163   5.157
10543SOL    HW232529   6.715   1.262   5.124
10544SOL     OW32530   2.298   1.217   3.100
10544SOL    HW132531   2.211   1.198   3.145
10544SOL    HW232532   2.306   1.161   3.018
10545SOL     OW32533   6.743   6.545   2.410
10545SOL    HW132534   6.749   6.453   2.449
10545SOL    HW232535   6.656   6.586   2.436
10546SOL     OW32536   1.391   0.624   5.303
10546SOL    HW132537   1.461   0.669   5.248
10546SOL    HW232538   1.300   0.649   5.268
10547SOL     OW32539   4.888   1.314   2.425
10547SOL    HW132540   4.830   1.395   2.435
10547SOL    HW232541   4.834   1.239   2.386
10548SOL     OW32542   5.152   3.929   4.850
10548SOL    HW132543   5.061   3.895   4.829
10548SOL    HW232544   5.149   3.984   4.933
10549SOL     OW32545   6.523   0.394   2.248
10549SOL    HW132546   6.450   0.376   2.182
10549SOL    HW232547   6.609   0.405   2.200
10550SOL     OW32548   4.241   6.578   4.346
10550SOL    HW132549   4.273   6.673   4.346
10550SOL    HW232550   4.190   6.560   4.261
10551SOL     OW32551   1.588   2.145   4.950
10551SOL    HW132552   1.494   2.153   4.915
10551SOL    HW232553   1.605   2.218   5.016
10552SOL     OW32554   3.664   2.089   5.123
10552SOL    HW132555   3.617   2.105   5.036
10552SOL    HW232556   3.599   2.054   5.191
10553SOL     OW32557   0.958   4.896   1.402
10553SOL    HW132558   0.873   4.929   1.445
10553SOL    HW232559   0.936   4.850   1.316
10554SOL     OW32560   5.459   4.849   6.906
10554SOL    HW132561   5.374   4.886   6.867
10554SOL    HW232562   5.480   4.896   6.991
10555SOL     OW32563   2.900   1.987   1.516
10555SOL    HW132564   2.958   2.012   1.437
10555SOL    HW232565   2.924   2.045   1.593
10556SOL     OW32566   1.963   2.975   4.863
10556SOL    HW132567   1.924   3.010   4.949
10556SOL    HW232568   1.985   3.051   4.803
10557SOL     OW32569   0.935   2.385   3.410
10557SOL    HW132570   0.896   2.296   3.386
10557SOL    HW232571   0.966   2.383   3.505
10558SOL     OW32572   3.942   0.042   5.027
10558SOL    HW132573   3.942   0.142   5.030
10558SOL    HW232574   4.034   0.009   5.046
10559SOL     OW32575   4.185   1.249   1.344
10559SOL    HW132576   4.123   1.188   1.393
10559SOL    HW232577   4.186   1.224   1.247
10560SOL     OW32578   2.117   5.628   4.905
10560SOL    HW132579   2.095   5.531   4.891
10560SOL    HW232580   2.116   5.675   4.816
10561SOL     OW32581   2.230   5.155   0.046
10561SOL    HW132582   2.229   5.255   0.051
10561SOL    HW232583   2.229   5.126   6.977
10562SOL     OW32584   4.834   0.213   0.657
10562SOL    HW132585   4.857   0.145   0.587
10562SOL    HW232586   4.917   0.243   0.704
10563SOL     OW32587   1.818   1.136   4.418
10563SOL    HW132588   1.907   1.173   4.447
10563SOL    HW232589   1.829   1.041   4.390
10564SOL     OW32590   5.982   0.009   1.481
10564SOL    HW132591   5.884   0.010   1.462
10564SOL    HW232592   6.016   6.942   1.478
10565SOL     OW32593   0.809   0.794   5.324
10565SOL    HW132594   0.758   0.878   5.342
10565SOL    HW232595   0.831   0.789   5.227
10566SOL     OW32596   3.982   3.439   6.657
10566SOL    HW132597   4.027   3.424   6.745
10566SOL    HW232598   3.915   3.367   6.641
10567SOL     OW32599   2.052   3.486   3.955
10567SOL    HW132600   1.963   3.448   3.976
10567SOL    HW232601   2.042   3.582   3.928
10568SOL     OW32602   5.631   1.172   2.021
10568SOL    HW132603   5.629   1.270   2.002
10568SOL    HW232604   5.647   1.157   2.118
10569SOL     OW32605   6.639   3.148   2.289
10569SOL    HW132606   6.687   3.218   2.237
10569SOL    HW232607   6.684   3.134   2.377
10570SOL     OW32608   1.328   4.583   2.748
10570SOL    HW132609   1.376   4.539   2.824
10570SOL    HW232610   1.230   4.575   2.762
10571SOL     OW32611   6.945   5.622   3.626
10571SOL    HW132612   6.883   5.546   3.608
10571SOL    HW232613   6.896   5.708   3.617
10572SOL     OW32614   5.802   4.030   3.265
10572SOL    HW132615   5.794   4.018   3.364
10572SOL    HW232616   5.710   4.037   3.224
10573SOL     OW32617   5.990   6.578   2.918
10573SOL    HW132618   6.012   6.676   2.920
10573SOL    HW232619   5.995   6.545   2.824
10574SOL     OW32620   1.455   1.954   3.853
10574SOL    HW132621   1.526   2.019   3.881
10574SOL    HW232622   1.490   1.895   3.781
10575SOL     OW32623   0.327   0.612   4.090
10575SOL    HW132624   0.265   0.690   4.103
10575SOL    HW232625   0.414   0.632   4.137
10576SOL     OW32626   0.810   6.903   4.835
10576SOL    HW132627   0.794   6.872   4.929
10576SOL    HW232628   0.889   6.853   4.797
10577SOL     OW32629   1.022   3.300   6.676
10577SOL    HW132630   0.998   3.297   6.773
10577SOL    HW232631   1.122   3.310   6.667
10578SOL     OW32632   6.321   0.939   4.858
10578SOL    HW132633   6.277   0.918   4.770
10578SOL    HW232634   6.420   0.936   4.847
10579SOL     OW32635   4.247   0.995   0.840
10579SOL    HW132636   4.187   0.925   0.801
10579SOL    HW232637   4.319   0.950   0.894
10580SOL     OW32638   6.656   6.364   6.828
10580SOL    HW132639   6.566   6.326   6.849
10580SOL    HW232640   6.727   6.303   6.865
10581SOL     OW32641   6.003   0.192   2.531
10581SOL    HW132642   5.953   0.114   2.492
10581SOL    HW232643   6.041   0.166   2.620
10582SOL     OW32644   3.997   4.688   6.161
10582SOL    HW132645   3.982   4.667   6.064
10582SOL    HW232646   4.072   4.631   6.196
10583SOL     OW32647   4.056   1.128   6.893
10583SOL    HW132648   4.037   1.053   6.957
10583SOL    HW232649   3.990   1.125   6.818
10584SOL     OW32650   5.296   6.461   1.309
10584SOL    HW132651   5.310   6.485   1.405
10584SOL    HW232652   5.339   6.530   1.250
10585SOL     OW32653   1.704   2.904   5.798
10585SOL    HW132654   1.786   2.906   5.741
10585SOL    HW232655   1.716   2.839   5.873
10586SOL     OW32656   1.851   6.115   5.908
10586SOL    HW132657   1.760   6.111   5.948
10586SOL    HW232658   1.912   6.052   5.955
10587SOL     OW32659   5.672   3.128   0.409
10587SOL    HW132660   5.580   3.099   0.434
10587SOL    HW232661   5.681   3.227   0.422
10588SOL     OW32662   1.184   4.273   2.084
10588SOL    HW132663   1.098   4.322   2.071
10588SOL    HW232664   1.169   4.195   2.144
10589SOL     OW32665   5.557   1.605   4.282
10589SOL    HW132666   5.581   1.509   4.296
10589SOL    HW232667   5.480   1.629   4.341
10590SOL     OW32668   1.129   6.853   2.063
10590SOL    HW132669   1.118   6.754   2.070
10590SOL    HW232670   1.039   6.895   2.045
10591SOL     OW32671   1.612   1.673   5.901
10591SOL    HW132672   1.563   1.654   5.986
10591SOL    HW232673   1.549   1.710   5.833
10592SOL     OW32674   5.067   2.156   0.105
10592SOL    HW132675   5.081   2.066   0.063
10592SOL    HW232676   4.974   2.188   0.083
10593SOL     OW32677   2.649   5.432   0.978
10593SOL    HW132678   2.687   5.445   1.070
10593SOL    HW232679   2.689   5.499   0.916
10594SOL     OW32680   5.935   2.023   3.855
10594SOL    HW132681   6.007   2.067   3.801
10594SOL    HW232682   5.970   1.938   3.895
10595SOL     OW32683   3.404   0.015   5.956
10595SOL    HW132684   3.392   0.006   5.857
10595SOL    HW232685   3.382   6.955   6.001
10596SOL     OW32686   3.956   6.833   1.875
10596SOL    HW132687   3.882   6.795   1.930
10596SOL    HW232688   3.948   6.932   1.871
10597SOL     OW32689   2.718   1.248   4.356
10597SOL    HW132690   2.748   1.337   4.321
10597SOL    HW232691   2.621   1.253   4.379
10598SOL     OW32692   2.554   2.200   6.735
10598SOL    HW132693   2.588   2.261   6.807
10598SOL    HW232694   2.495   2.130   6.776
10599SOL     OW32695   5.370   1.140   0.225
10599SOL    HW132696   5.329   1.093   0.146
10599SOL    HW232697   5.435   1.209   0.193
10600SOL     OW32698   2.112   3.092   6.918
10600SOL    HW132699   2.136   2.995   6.912
10600SOL    HW232700   2.109   3.121   7.014
10601SOL     OW32701   2.426   5.118   6.055
10601SOL    HW132702   2.334   5.079   6.057
10601SOL    HW232703   2.458   5.123   5.960
10602SOL     OW32704   5.635   1.719   2.116
10602SOL    HW132705   5.560   1.771   2.158
10602SOL    HW232706   5.717   1.776   2.112
10603SOL     OW32707   1.526   6.198   3.361
10603SOL    HW132708   1.432   6.213   3.391
10603SOL    HW232709   1.570   6.133   3.423
10604SOL     OW32710   5.876   4.617   4.589
10604SOL    HW132711   5.945   4.554   4.624
10604SOL    HW232712   5.881   4.619   4.489
10605SOL     OW32713   0.551   5.273   6.874
10605SOL    HW132714   0.556   5.290   6.776
10605SOL    HW232715   0.544   5.174   6.890
10606SOL     OW32716   6.640   0.551   1.804
10606SOL    HW132717   6.578   0.495   1.749
10606SOL    HW232718   6.588   0.608   1.867
10607SOL     OW32719   3.603   4.155   5.960
10607SOL    HW132720   3.618   4.067   6.006
10607SOL    HW232721   3.686   4.211   5.967
10608SOL     OW32722   5.912   2.083   4.827
10608SOL    HW132723   5.981   2.131   4.773
10608SOL    HW232724   5.881   2.002   4.777
10609SOL     OW32725   3.656   5.752   1.402
10609SOL    HW132726   3.719   5.823   1.372
10609SOL    HW232727   3.663   5.673   1.341
10610SOL     OW32728   1.068   4.187   6.964
10610SOL    HW132729   1.112   4.264   6.919
10610SOL    HW232730   1.134   4.113   6.975
10611SOL     OW32731   5.716   3.065   6.996
10611SOL    HW132732   5.734   3.153   0.015
10611SOL    HW232733   5.647   3.078   6.924
10612SOL     OW32734   2.586   6.871   6.284
10612SOL    HW132735   2.599   6.946   6.219
10612SOL    HW232736   2.495   6.876   6.323
10613SOL     OW32737   6.796   0.127   6.134
10613SOL    HW132738   6.811   0.084   6.044
10613SOL    HW232739   6.868   0.195   6.150
10614SOL     OW32740   7.006   1.175   3.841
10614SOL    HW132741   6.932   1.187   3.907
10614SOL    HW232742   6.985   1.227   3.759
10615SOL     OW32743   4.036   5.533   5.178
10615SOL    HW132744   4.130   5.554   5.152
10615SOL    HW232745   4.003   5.601   5.243
10616SOL     OW32746   3.237   6.380   0.396
10616SOL    HW132747   3.217   6.291   0.439
10616SOL    HW232748   3.227   6.371   0.297
10617SOL     OW32749   2.156   2.432   0.946
10617SOL    HW132750   2.160   2.333   0.927
10617SOL    HW232751   2.071   2.453   0.994
10618SOL     OW32752   6.556   2.584   0.468
10618SOL    HW132753   6.550   2.645   0.547
10618SOL    HW232754   6.488   2.511   0.476
10619SOL     OW32755   0.718   3.739   2.692
10619SOL    HW132756   0.744   3.659   2.746
10619SOL    HW232757   0.760   3.820   2.731
10620SOL     OW32758   1.084   5.745   5.702
10620SOL    HW132759   0.992   5.713   5.679
10620SOL    HW232760   1.151   5.675   5.675
10621SOL     OW32761   1.676   5.608   0.192
10621SOL    HW132762   1.675   5.581   0.288
10621SOL    HW232763   1.765   5.648   0.168
10622SOL     OW32764   4.584   0.986   2.142
10622SOL    HW132765   4.589   0.888   2.122
10622SOL    HW232766   4.494   1.022   2.117
10623SOL     OW32767   5.759   2.918   3.725
10623SOL    HW132768   5.675   2.885   3.768
10623SOL    HW232769   5.743   3.010   3.688
10624SOL     OW32770   1.023   1.360   5.242
10624SOL    HW132771   1.053   1.455   5.249
10624SOL    HW232772   0.940   1.355   5.187
10625SOL     OW32773   0.776   4.583   6.948
10625SOL    HW132774   0.814   4.567   6.857
10625SOL    HW232775   0.789   4.501   7.004
10626SOL     OW32776   1.408   2.385   1.734
10626SOL    HW132777   1.394   2.387   1.833
10626SOL    HW232778   1.396   2.476   1.696
10627SOL     OW32779   6.531   6.026   2.403
10627SOL    HW132780   6.448   5.980   2.432
10627SOL    HW232781   6.588   6.046   2.482
10628SOL     OW32782   5.934   5.159   5.578
10628SOL    HW132783   5.905   5.253   5.596
10628SOL    HW232784   5.859   5.108   5.535
10629SOL     OW32785   2.150   4.444   5.899
10629SOL    HW132786   2.063   4.473   5.938
10629SOL    HW232787   2.223   4.505   5.931
10630SOL     OW32788   6.102   0.485   3.765
10630SOL    HW132789   6.023   0.425   3.757
10630SOL    HW232790   6.175   0.452   3.704
10631SOL     OW32791   1.228   6.471   4.184
10631SOL    HW132792   1.187   6.562   4.186
10631SOL    HW232793   1.304   6.469   4.119
10632SOL     OW32794   5.867   2.170   4.460
10632SOL    HW132795   5.908   2.128   4.380
10632SOL    HW232796   5.931   2.167   4.537
10633SOL     OW32797   2.627   4.548   1.127
10633SOL    HW132798   2.709   4.523   1.178
10633SOL    HW232799   2.603   4.643   1.147
10634SOL     OW32800   2.816   5.620   0.324
10634SOL    HW132801   2.781   5.706   0.361
10634SOL    HW232802   2.880   5.579   0.390
10635SOL     OW32803   3.245   1.034   1.321
10635SOL    HW132804   3.333   0.987   1.316
10635SOL    HW232805   3.177   0.984   1.268
10636SOL     OW32806   0.708   2.007   1.564
10636SOL    HW132807   0.724   1.948   1.644
10636SOL    HW232808   0.773   1.984   1.492
10637SOL     OW32809   3.227   3.812   5.607
10637SOL    HW132810   3.170   3.888   5.638
10637SOL    HW232811   3.323   3.836   5.619
10638SOL     OW32812   0.514   6.634   3.841
10638SOL    HW132813   0.505   6.574   3.920
10638SOL    HW232814   0.448   6.607   3.771
10639SOL     OW32815   0.830   1.500   4.070
10639SOL    HW132816   0.928   1.498   4.091
10639SOL    HW232817   0.798   1.594   4.072
10640SOL     OW32818   4.308   0.335   6.681
10640SOL    HW132819   4.387   0.348   6.740
10640SOL    HW232820   4.330   0.270   6.608
10641SOL     OW32821   4.789   1.728   6.963
10641SOL    HW132822   4.692   1.732   6.987
10641SOL    HW232823   4.834   1.813   6.988
10642SOL     OW32824   0.356   2.240   1.426
10642SOL    HW132825   0.269   2.243   1.377
10642SOL    HW232826   0.384   2.334   1.449
10643SOL     OW32827   2.202   4.007   5.729
10643SOL    HW132828   2.199   4.032   5.632
10643SOL    HW232829   2.109   3.999   5.765
10644SOL     OW32830   4.603   1.785   4.360
10644SOL    HW132831   4.518   1.809   4.314
10644SOL    HW232832   4.680   1.828   4.313
10645SOL     OW32833   0.939   0.752   4.553
10645SOL    HW132834   0.876   0.678   4.529
10645SOL    HW232835   1.025   0.712   4.585
10646SOL     OW32836   0.733   2.575   6.230
10646SOL    HW132837   0.646   2.622   6.237
10646SOL    HW232838   0.808   2.642   6.230
10647SOL     OW32839   6.129   5.277   6.428
10647SOL    HW132840   6.077   5.358   6.457
10647SOL    HW232841   6.227   5.298   6.431
10648SOL     OW32842   5.199   3.639   6.882
10648SOL    HW132843   5.225   3.676   6.794
10648SOL    HW232844   5.101   3.618   6.882
10649SOL     OW32845   0.033   4.662   4.545
10649SOL    HW132846   6.987   4.661   4.614
10649SOL    HW232847   0.031   4.749   4.496
10650SOL     OW32848   1.647   6.494   3.996
10650SOL    HW132849   1.654   6.444   3.910
10650SOL    HW232850   1.733   6.543   4.012
10651SOL     OW32851   4.641   6.851   5.519
10651SOL    HW132852   4.587   6.912   5.461
10651SOL    HW232853   4.662   6.897   5.606
10652SOL     OW32854   3.458   0.342   6.393
10652SOL    HW132855   3.438   0.274   6.323
10652SOL    HW232856   3.374   0.367   6.440
10653SOL     OW32857   5.018   4.429   4.933
10653SOL    HW132858   5.030   4.411   5.031
10653SOL    HW232859   4.929   4.469   4.917
10654SOL     OW32860   3.123   0.352   1.540
10654SOL    HW132861   3.041   0.301   1.564
10654SOL    HW232862   3.170   0.381   1.624
10655SOL     OW32863   3.129   5.370   2.141
10655SOL    HW132864   3.048   5.428   2.134
10655SOL    HW232865   3.158   5.341   2.050
10656SOL     OW32866   6.406   2.438   6.773
10656SOL    HW132867   6.397   2.537   6.778
10656SOL    HW232868   6.405   2.399   6.865
10657SOL     OW32869   6.025   6.626   0.891
10657SOL    HW132870   6.106   6.572   0.916
10657SOL    HW232871   6.054   6.715   0.856
10658SOL     OW32872   0.984   4.223   5.047
10658SOL    HW132873   1.015   4.146   5.104
10658SOL    HW232874   0.910   4.192   4.987
10659SOL     OW32875   5.896   6.951   0.930
10659SOL    HW132876   5.902   7.020   0.858
10659SOL    HW232877   5.851   6.869   0.893
10660SOL     OW32878   4.901   3.736   5.914
10660SOL    HW132879   4.890   3.821   5.862
10660SOL    HW232880   4.844   3.665   5.874
10661SOL     OW32881   0.025   6.402   2.006
10661SOL    HW132882   0.002   6.494   1.975
10661SOL    HW232883   6.980   6.338   1.977
10662SOL     OW32884   6.803   1.050   0.629
10662SOL    HW132885   6.833   0.980   0.693
10662SOL    HW232886   6.842   1.032   0.539
10663SOL     OW32887   0.637   0.260   1.589
10663SOL    HW132888   0.642   0.285   1.492
10663SOL    HW232889   0.706   0.190   1.610
10664SOL     OW32890   1.984   4.033   6.857
10664SOL    HW132891   1.931   4.110   6.892
10664SOL    HW232892   2.053   4.007   6.926
10665SOL     OW32893   0.773   1.674   0.284
10665SOL    HW132894   0.765   1.597   0.348
10665SOL    HW232895   0.839   1.651   0.212
10666SOL     OW32896   3.520   5.230   6.995
10666SOL    HW132897   3.534   5.146   0.022
10666SOL    HW232898   3.585   5.231   6.919
10667SOL     OW32899   3.540   2.028   5.515
10667SOL    HW132900   3.558   1.989   5.425
10667SOL    HW232901   3.565   2.124   5.516
10668SOL     OW32902   1.560   1.890   6.372
10668SOL    HW132903   1.629   1.868   6.303
10668SOL    HW232904   1.474   1.844   6.349
10669SOL     OW32905   0.662   6.994   0.842
10669SOL    HW132906   0.630   6.909   0.883
10669SOL    HW232907   0.632   6.999   0.747
10670SOL     OW32908   5.508   4.751   5.958
10670SOL    HW132909   5.557   4.797   6.032
10670SOL    HW232910   5.483   4.658   5.987
10671SOL     OW32911   2.299   2.486   2.809
10671SOL    HW132912   2.339   2.533   2.730
10671SOL    HW232913   2.237   2.414   2.778
10672SOL     OW32914   0.319   2.622   0.492
10672SOL    HW132915   0.290   2.716   0.507
10672SOL    HW232916   0.411   2.622   0.451
10673SOL     OW32917   2.718   2.806   5.612
10673SOL    HW132918   2.812   2.803   5.645
10673SOL    HW232919   2.706   2.885   5.551
10674SOL     OW32920   4.048   3.758   0.658
10674SOL    HW132921   4.114   3.813   0.710
10674SOL    HW232922   4.054   3.782   0.561
10675SOL     OW32923   0.482   0.828   5.820
10675SOL    HW132924   0.514   0.755   5.880
10675SOL    HW232925   0.424   0.891   5.871
10676SOL     OW32926   6.097   0.453   6.442
10676SOL    HW132927   6.144   0.502   6.368
10676SOL    HW232928   6.066   0.364   6.410
10677SOL     OW32929   0.486   0.958   2.649
10677SOL    HW132930   0.466   0.881   2.710
10677SOL    HW232931   0.554   0.931   2.582
10678SOL     OW32932   3.132   5.496   2.674
10678SOL    HW132933   3.165   5.556   2.747
10678SOL    HW232934   3.172   5.405   2.685
10679SOL     OW32935   6.113   5.418   4.728
10679SOL    HW132936   6.098   5.484   4.654
10679SOL    HW232937   6.100   5.464   4.816
10680SOL     OW32938   1.443   3.081   2.319
10680SOL    HW132939   1.458   3.179   2.325
10680SOL    HW232940   1.470   3.049   2.228
10681SOL     OW32941   6.289   4.102   6.414
10681SOL    HW132942   6.196   4.070   6.394
10681SOL    HW232943   6.349   4.023   6.427
10682SOL     OW32944   1.302   1.599   2.897
10682SOL    HW132945   1.385   1.551   2.925
10682SOL    HW232946   1.245   1.537   2.842
10683SOL     OW32947   1.980   2.213   4.361
10683SOL    HW132948   2.000   2.269   4.280
10683SOL    HW232949   1.941   2.271   4.433
10684SOL     OW32950   5.692   4.180   0.423
10684SOL    HW132951   5.639   4.102   0.455
10684SOL    HW232952   5.691   4.252   0.493
10685SOL     OW32953   1.195   3.952   3.335
10685SOL    HW132954   1.232   4.022   3.275
10685SOL    HW232955   1.268   3.912   3.390
10686SOL     OW32956   3.284   6.008   6.878
10686SOL    HW132957   3.215   5.950   6.922
10686SOL    HW232958   3.240   6.067   6.811
10687SOL     OW32959   6.795   5.025   2.543
10687SOL    HW132960   6.743   5.066   2.468
10687SOL    HW232961   6.845   5.097   2.592
10688SOL     OW32962   7.026   4.333   2.515
10688SOL    HW132963   6.990   4.372   2.430
10688SOL    HW232964   0.095   4.307   2.502
10689SOL     OW32965   6.840   0.354   2.741
10689SOL    HW132966   6.782   0.361   2.660
10689SOL    HW232967   6.926   0.310   2.718
10690SOL     OW32968   3.751   5.364   2.510
10690SOL    HW132969   3.757   5.294   2.438
10690SOL    HW232970   3.839   5.411   2.518
10691SOL     OW32971   0.127   1.177   1.646
10691SOL    HW132972   0.106   1.237   1.569
10691SOL    HW232973   0.164   1.231   1.721
10692SOL     OW32974   3.336   5.965   3.799
10692SOL    HW132975   3.306   6.035   3.734
10692SOL    HW232976   3.420   5.921   3.766
10693SOL     OW32977   0.478   1.802   1.055
10693SOL    HW132978   0.383   1.800   1.022
10693SOL    HW232979   0.479   1.793   1.154
10694SOL     OW32980   3.563   6.036   1.154
10694SOL    HW132981   3.546   6.068   1.062
10694SOL    HW232982   3.634   6.092   1.197
10695SOL     OW32983   0.470   2.818   4.435
10695SOL    HW132984   0.403   2.856   4.500
10695SOL    HW232985   0.422   2.760   4.369
10696SOL     OW32986   0.085   6.042   1.420
10696SOL    HW132987   0.163   6.094   1.456
10696SOL    HW232988   0.117   5.977   1.352
10697SOL     OW32989   0.572   6.243   3.794
10697SOL    HW132990   0.608   6.150   3.801
10697SOL    HW232991   0.521   6.265   3.877
10698SOL     OW32992   2.997   0.253   3.112
10698SOL    HW132993   3.035   0.279   3.024
10698SOL    HW232994   2.902   0.284   3.119
10699SOL     OW32995   4.165   1.812   2.922
10699SOL    HW132996   4.229   1.845   2.851
10699SOL    HW232997   4.111   1.736   2.885
10700SOL     OW32998   6.903   6.431   0.946
10700SOL    HW132999   6.931   6.418   1.041
10700SOL    HW233000   6.852   6.516   0.938
10701SOL     OW33001   3.616   5.728   0.157
10701SOL    HW133002   3.542   5.783   0.119
10701SOL    HW233003   3.614   5.637   0.116
10702SOL     OW33004   6.014   2.648   0.191
10702SOL    HW133005   5.949   2.606   0.255
10702SOL    HW233006   5.986   2.742   0.173
10703SOL     OW33007   3.931   4.010   3.463
10703SOL    HW133008   3.904   4.020   3.368
10703SOL    HW233009   3.998   3.937   3.472
10704SOL     OW33010   4.860   0.121   2.211
10704SOL    HW133011   4.921   0.092   2.137
10704SOL    HW233012   4.879   0.217   2.233
10705SOL     OW33013   1.183   3.698   6.695
10705SOL    HW133014   1.198   3.601   6.678
10705SOL    HW233015   1.265   3.749   6.670
10706SOL     OW33016   4.173   0.639   1.910
10706SOL    HW133017   4.084   0.593   1.906
10706SOL    HW233018   4.245   0.570   1.926
10707SOL     OW33019   6.088   0.250   5.829
10707SOL    HW133020   6.027   0.267   5.906
10707SOL    HW233021   6.151   0.176   5.853
10708SOL     OW33022   5.047   0.815   1.094
10708SOL    HW133023   5.031   0.864   1.008
10708SOL    HW233024   5.074   0.721   1.074
10709SOL     OW33025   6.169   0.048   5.358
10709SOL    HW133026   6.246   0.111   5.364
10709SOL    HW233027   6.197   6.991   5.310
10710SOL     OW33028   6.114   5.586   3.859
10710SOL    HW133029   6.157   5.513   3.805
10710SOL    HW233030   6.179   5.621   3.925
10711SOL     OW33031   1.731   0.255   4.165
10711SOL    HW133032   1.683   0.239   4.251
10711SOL    HW233033   1.664   0.278   4.094
10712SOL     OW33034   3.903   1.515   4.863
10712SOL    HW133035   3.867   1.429   4.825
10712SOL    HW233036   3.878   1.591   4.803
10713SOL     OW33037   2.306   6.045   1.876
10713SOL    HW133038   2.232   6.006   1.932
10713SOL    HW233039   2.386   6.061   1.934
10714SOL     OW33040   0.866   5.094   4.738
10714SOL    HW133041   0.879   5.162   4.666
10714SOL    HW233042   0.860   5.140   4.827
10715SOL     OW33043   4.779   1.837   4.139
10715SOL    HW133044   4.790   1.750   4.090
10715SOL    HW233045   4.849   1.844   4.210
10716SOL     OW33046   6.604   0.819   4.344
10716SOL    HW133047   6.645   0.876   4.416
10716SOL    HW233048   6.519   0.861   4.313
10717SOL     OW33049   6.568   1.196   1.906
10717SOL    HW133050   6.586   1.099   1.890
10717SOL    HW233051   6.654   1.247   1.904
10718SOL     OW33052   6.328   5.092   6.608
10718SOL    HW133053   6.330   5.039   6.523
10718SOL    HW233054   6.327   5.190   6.587
10719SOL     OW33055   5.486   1.023   1.596
10719SOL    HW133056   5.564   1.048   1.654
10719SOL    HW233057   5.512   0.949   1.534
10720SOL     OW33058   0.197   3.975   6.606
10720SOL    HW133059   0.157   3.993   6.696
10720SOL    HW233060   0.288   3.934   6.617
10721SOL     OW33061   5.895   2.410   4.323
10721SOL    HW133062   5.838   2.492   4.329
10721SOL    HW233063   5.863   2.343   4.390
10722SOL     OW33064   6.671   3.424   0.632
10722SOL    HW133065   6.619   3.469   0.560
10722SOL    HW233066   6.764   3.405   0.600
10723SOL     OW33067   5.522   4.365   6.735
10723SOL    HW133068   5.453   4.304   6.696
10723SOL    HW233069   5.613   4.330   6.714
10724SOL     OW33070   4.188   6.332   6.359
10724SOL    HW133071   4.230   6.390   6.289
10724SOL    HW233072   4.259   6.286   6.411
10725SOL     OW33073   0.492   6.396   4.483
10725SOL    HW133074   0.521   6.329   4.414
10725SOL    HW233075   0.549   6.478   4.476
10726SOL     OW33076   5.697   0.444   4.639
10726SOL    HW133077   5.733   0.423   4.548
10726SOL    HW233078   5.720   0.369   4.702
10727SOL     OW33079   2.053   5.526   5.549
10727SOL    HW133080   2.065   5.451   5.485
10727SOL    HW233081   1.988   5.499   5.621
10728SOL     OW33082   4.637   6.393   2.907
10728SOL    HW133083   4.640   6.476   2.964
10728SOL    HW233084   4.653   6.313   2.964
10729SOL     OW33085   6.109   2.785   2.923
10729SOL    HW133086   6.039   2.717   2.943
10729SOL    HW233087   6.196   2.739   2.904
10730SOL     OW33088   1.899   6.805   2.631
10730SOL    HW133089   1.900   6.889   2.577
10730SOL    HW233090   1.831   6.742   2.595
10731SOL     OW33091   3.586   6.099   0.155
10731SOL    HW133092   3.506   6.064   0.106
10731SOL    HW233093   3.570   6.095   0.254
10732SOL     OW33094   5.808   5.980   2.877
10732SOL    HW133095   5.825   5.932   2.963
10732SOL    HW233096   5.834   6.076   2.887
10733SOL     OW33097   6.501   1.847   6.310
10733SOL    HW133098   6.448   1.763   6.302
10733SOL    HW233099   6.540   1.872   6.221
10734SOL     OW33100   1.503   0.847   6.275
10734SOL    HW133101   1.460   0.937   6.266
10734SOL    HW233102   1.598   0.853   6.243
10735SOL     OW33103   1.058   4.524   2.111
10735SOL    HW133104   1.138   4.528   2.171
10735SOL    HW233105   0.976   4.515   2.167
10736SOL     OW33106   6.924   0.653   3.675
10736SOL    HW133107   6.951   0.651   3.579
10736SOL    HW233108   7.004   0.638   3.733
10737SOL     OW33109   6.948   1.574   1.092
10737SOL    HW133110   6.883   1.502   1.071
10737SOL    HW233111   0.011   1.551   1.053
10738SOL     OW33112   2.699   0.582   2.762
10738SOL    HW133113   2.661   0.659   2.711
10738SOL    HW233114   2.789   0.607   2.797
10739SOL     OW33115   5.868   1.556   2.103
10739SOL    HW133116   5.858   1.465   2.062
10739SOL    HW233117   5.782   1.606   2.095
10740SOL     OW33118   1.607   0.121   5.814
10740SOL    HW133119   1.675   0.127   5.741
10740SOL    HW233120   1.616   0.033   5.860
10741SOL     OW33121   1.738   2.462   3.007
10741SOL    HW133122   1.728   2.469   2.908
10741SOL    HW233123   1.693   2.379   3.040
10742SOL     OW33124   6.190   5.518   2.362
10742SOL    HW133125   6.220   5.430   2.396
10742SOL    HW233126   6.133   5.563   2.431
10743SOL     OW33127   3.289   1.361   5.663
10743SOL    HW133128   3.220   1.330   5.597
10743SOL    HW233129   3.359   1.414   5.615
10744SOL     OW33130   2.837   0.511   1.035
10744SOL    HW133131   2.762   0.455   1.000
10744SOL    HW233132   2.903   0.527   0.962
10745SOL     OW33133   2.074   4.321   1.329
10745SOL    HW133134   2.143   4.389   1.305
10745SOL    HW233135   2.107   4.229   1.306
10746SOL     OW33136   2.124   6.320   0.246
10746SOL    HW133137   2.036   6.307   0.293
10746SOL    HW233138   2.178   6.388   0.296
10747SOL     OW33139   6.728   2.040   4.285
10747SOL    HW133140   6.764   2.011   4.374
10747SOL    HW233141   6.803   2.077   4.230
10748SOL     OW33142   4.162   5.173   1.274
10748SOL    HW133143   4.250   5.133   1.246
10748SOL    HW233144   4.156   5.174   1.374
10749SOL     OW33145   6.382   5.031   2.869
10749SOL    HW133146   6.287   5.053   2.890
10749SOL    HW233147   6.429   5.002   2.952
10750SOL     OW33148   4.879   3.005   4.046
10750SOL    HW133149   4.850   2.959   4.129
10750SOL    HW233150   4.976   2.986   4.029
10751SOL     OW33151   1.232   3.338   4.758
10751SOL    HW133152   1.232   3.255   4.702
10751SOL    HW233153   1.243   3.313   4.854
10752SOL     OW33154   5.710   5.905   0.266
10752SOL    HW133155   5.623   5.871   0.302
10752SOL    HW233156   5.715   6.004   0.279
10753SOL     OW33157   5.254   6.298   3.867
10753SOL    HW133158   5.211   6.378   3.824
10753SOL    HW233159   5.245   6.305   3.966
10754SOL     OW33160   1.359   2.859   1.614
10754SOL    HW133161   1.450   2.836   1.579
10754SOL    HW233162   1.320   2.781   1.662
10755SOL     OW33163   6.609   2.801   1.251
10755SOL    HW133164   6.707   2.801   1.237
10755SOL    HW233165   6.562   2.818   1.165
10756SOL     OW33166   0.010   2.884   0.739
10756SOL    HW133167   0.008   2.785   0.752
10756SOL    HW233168   6.961   2.910   0.678
10757SOL     OW33169   6.356   4.259   0.648
10757SOL    HW133170   6.453   4.274   0.626
10757SOL    HW233171   6.346   4.173   0.698
10758SOL     OW33172   0.587   6.700   6.745
10758SOL    HW133173   0.608   6.753   6.827
10758SOL    HW233174   0.621   6.606   6.756
10759SOL     OW33175   1.988   1.850   6.662
10759SOL    HW133176   1.994   1.860   6.562
10759SOL    HW233177   2.013   1.937   6.706
10760SOL     OW33178   0.708   5.955   0.058
10760SOL    HW133179   0.701   5.878   0.122
10760SOL    HW233180   0.749   6.034   0.105
10761SOL     OW33181   0.814   1.791   6.485
10761SOL    HW133182   0.780   1.722   6.550
10761SOL    HW233183   0.912   1.800   6.496
10762SOL     OW33184   4.219   0.753   5.798
10762SOL    HW133185   4.120   0.753   5.809
10762SOL    HW233186   4.259   0.818   5.863
10763SOL     OW33187   5.982   0.282   3.261
10763SOL    HW133188   6.035   0.198   3.275
10763SOL    HW233189   5.983   0.306   3.164
10764SOL     OW33190   4.211   1.422   5.086
10764SOL    HW133191   4.287   1.420   5.021
10764SOL    HW233192   4.246   1.403   5.178
10765SOL     OW33193   6.184   2.533   2.402
10765SOL    HW133194   6.101   2.586   2.422
10765SOL    HW233195   6.159   2.437   2.388
10766SOL     OW33196   1.347   4.650   7.022
10766SOL    HW133197   1.386   4.563   0.027
10766SOL    HW233198   1.248   4.640   7.011
10767SOL     OW33199   1.730   5.736   0.621
10767SOL    HW133200   1.670   5.738   0.701
10767SOL    HW233201   1.704   5.660   0.561
10768SOL     OW33202   5.652   5.777   6.891
10768SOL    HW133203   5.617   5.867   6.916
10768SOL    HW233204   5.575   5.718   6.867
10769SOL     OW33205   3.137   3.730   5.142
10769SOL    HW133206   3.166   3.636   5.126
10769SOL    HW233207   3.188   3.768   5.219
10770SOL     OW33208   5.410   6.957   4.555
10770SOL    HW133209   5.386   6.862   4.575
10770SOL    HW233210   5.357   6.989   4.476
10771SOL     OW33211   5.471   6.915   5.495
10771SOL    HW133212   5.528   6.839   5.527
10771SOL    HW233213   5.433   6.964   5.574
10772SOL     OW33214   5.477   5.733   3.270
10772SOL    HW133215   5.387   5.694   3.290
10772SOL    HW233216   5.467   5.831   3.250
10773SOL     OW33217   6.866   4.573   1.009
10773SOL    HW133218   6.841   4.593   0.914
10773SOL    HW233219   6.965   4.581   1.020
10774SOL     OW33220   1.195   2.357   0.890
10774SOL    HW133221   1.154   2.355   0.981
10774SOL    HW233222   1.138   2.307   0.826
10775SOL     OW33223   1.579   4.698   0.908
10775SOL    HW133224   1.568   4.646   0.993
10775SOL    HW233225   1.642   4.650   0.847
10776SOL     OW33226   0.068   0.996   2.985
10776SOL    HW133227   0.072   1.010   3.084
10776SOL    HW233228   0.015   1.070   2.943
10777SOL     OW33229   3.012   1.030   3.476
10777SOL    HW133230   3.098   1.042   3.525
10777SOL    HW233231   2.999   0.933   3.455
10778SOL     OW33232   6.396   6.394   4.148
10778SOL    HW133233   6.464   6.465   4.129
10778SOL    HW233234   6.315   6.434   4.190
10779SOL     OW33235   6.022   4.019   4.041
10779SOL    HW133236   5.948   4.087   4.033
10779SOL    HW233237   5.995   3.948   4.107
10780SOL     OW33238   0.692   6.005   4.518
10780SOL    HW133239   0.592   6.012   4.521
10780SOL    HW233240   0.724   6.024   4.425
10781SOL     OW33241   5.928   2.459   4.812
10781SOL    HW133242   5.898   2.439   4.905
10781SOL    HW233243   5.989   2.386   4.780
10782SOL     OW33244   0.813   3.193   5.497
10782SOL    HW133245   0.876   3.154   5.430
10782SOL    HW233246   0.730   3.136   5.501
10783SOL     OW33247   1.052   2.446   2.605
10783SOL    HW133248   1.091   2.538   2.609
10783SOL    HW233249   1.084   2.401   2.522
10784SOL     OW33250   2.892   5.987   2.662
10784SOL    HW133251   2.876   5.888   2.667
10784SOL    HW233252   2.837   6.034   2.731
10785SOL     OW33253   1.747   5.703   1.987
10785SOL    HW133254   1.657   5.675   2.019
10785SOL    HW233255   1.817   5.676   2.054
10786SOL     OW33256   4.671   1.996   2.129
10786SOL    HW133257   4.643   2.052   2.051
10786SOL    HW233258   4.660   1.899   2.107
10787SOL     OW33259   3.557   0.803   3.793
10787SOL    HW133260   3.613   0.793   3.875
10787SOL    HW233261   3.615   0.800   3.712
10788SOL     OW33262   0.676   4.466   0.337
10788SOL    HW133263   0.668   4.541   0.271
10788SOL    HW233264   0.610   4.479   0.411
10789SOL     OW33265   6.301   1.357   0.266
10789SOL    HW133266   6.392   1.395   0.281
10789SOL    HW233267   6.271   1.379   0.173
10790SOL     OW33268   0.360   2.317   4.793
10790SOL    HW133269   0.341   2.229   4.748
10790SOL    HW233270   0.455   2.319   4.823
10791SOL     OW33271   1.931   1.326   2.686
10791SOL    HW133272   1.964   1.392   2.752
10791SOL    HW233273   1.836   1.347   2.662
10792SOL     OW33274   4.015   2.141   1.437
10792SOL    HW133275   3.998   2.211   1.368
10792SOL    HW233276   3.966   2.164   1.521
10793SOL     OW33277   4.657   1.815   4.924
10793SOL    HW133278   4.673   1.777   4.833
10793SOL    HW233279   4.562   1.799   4.949
10794SOL     OW33280   4.285   3.100   1.787
10794SOL    HW133281   4.367   3.083   1.843
10794SOL    HW233282   4.241   3.184   1.817
10795SOL     OW33283   0.161   3.777   3.198
10795SOL    HW133284   0.126   3.852   3.142
10795SOL    HW233285   0.192   3.702   3.139
10796SOL     OW33286   6.134   6.369   6.656
10796SOL    HW133287   6.205   6.437   6.636
10796SOL    HW233288   6.126   6.307   6.578
10797SOL     OW33289   4.343   3.420   0.721
10797SOL    HW133290   4.329   3.382   0.812
10797SOL    HW233291   4.384   3.511   0.730
10798SOL     OW33292   3.032   7.009   6.502
10798SOL    HW133293   3.008   0.079   6.513
10798SOL    HW233294   2.950   6.956   6.482
10799SOL     OW33295   3.029   1.319   2.853
10799SOL    HW133296   2.978   1.342   2.936
10799SOL    HW233297   2.971   1.338   2.773
10800SOL     OW33298   1.249   0.165   6.600
10800SOL    HW133299   1.267   0.214   6.515
10800SOL    HW233300   1.151   0.163   6.617
10801SOL     OW33301   1.975   5.731   6.422
10801SOL    HW133302   1.963   5.830   6.429
10801SOL    HW233303   2.020   5.697   6.504
10802SOL     OW33304   0.949   3.490   4.029
10802SOL    HW133305   0.984   3.559   4.092
10802SOL    HW233306   0.869   3.446   4.069
10803SOL     OW33307   6.282   4.892   5.491
10803SOL    HW133308   6.271   4.806   5.540
10803SOL    HW233309   6.327   4.959   5.550
10804SOL     OW33310   5.830   4.509   1.879
10804SOL    HW133311   5.764   4.561   1.933
10804SOL    HW233312   5.869   4.436   1.934
10805SOL     OW33313   4.275   6.622   0.663
10805SOL    HW133314   4.350   6.685   0.640
10805SOL    HW233315   4.190   6.656   0.624
10806SOL     OW33316   5.619   3.659   0.644
10806SOL    HW133317   5.683   3.720   0.596
10806SOL    HW233318   5.554   3.714   0.696
10807SOL     OW33319   3.664   6.019   3.160
10807SOL    HW133320   3.571   6.000   3.191
10807SOL    HW233321   3.712   6.072   3.229
10808SOL     OW33322   0.481   2.923   5.966
10808SOL    HW133323   0.436   2.955   5.882
10808SOL    HW233324   0.501   3.001   6.025
10809SOL     OW33325   2.620   0.362   3.432
10809SOL    HW133326   2.693   0.295   3.416
10809SOL    HW233327   2.539   0.315   3.467
10810SOL     OW33328   0.206   1.598   5.037
10810SOL    HW133329   0.157   1.595   4.950
10810SOL    HW233330   0.163   1.535   5.101
10811SOL     OW33331   4.621   4.995   5.190
10811SOL    HW133332   4.576   5.029   5.272
10811SOL    HW233333   4.580   4.908   5.162
10812SOL     OW33334   6.335   2.945   2.677
10812SOL    HW133335   6.238   2.942   2.652
10812SOL    HW233336   6.389   2.898   2.608
10813SOL     OW33337   2.710   5.820   2.217
10813SOL    HW133338   2.676   5.912   2.239
10813SOL    HW233339   2.635   5.755   2.224
10814SOL     OW33340   2.003   6.734   5.353
10814SOL    HW133341   2.022   6.774   5.443
10814SOL    HW233342   1.996   6.806   5.284
10815SOL     OW33343   5.442   4.179   2.520
10815SOL    HW133344   5.496   4.098   2.543
10815SOL    HW233345   5.502   4.252   2.487
10816SOL     OW33346   1.536   0.844   2.097
10816SOL    HW133347   1.468   0.777   2.065
10816SOL    HW233348   1.554   0.910   2.024
10817SOL     OW33349   5.070   0.320   2.727
10817SOL    HW133350   4.980   0.359   2.709
10817SOL    HW233351   5.133   0.393   2.756
10818SOL     OW33352   4.980   2.904   6.583
10818SOL    HW133353   5.018   2.814   6.559
10818SOL    HW233354   4.956   2.953   6.499
10819SOL     OW33355   0.296   4.708   6.765
10819SOL    HW133356   0.389   4.715   6.801
10819SOL    HW233357   0.230   4.721   6.839
10820SOL     OW33358   0.239   6.385   3.972
10820SOL    HW133359   0.224   6.468   3.918
10820SOL    HW233360   0.313   6.401   4.038
10821SOL     OW33361   6.874   0.450   1.115
10821SOL    HW133362   6.893   0.539   1.074
10821SOL    HW233363   6.786   0.454   1.163
10822SOL     OW33364   1.033   3.893   2.494
10822SOL    HW133365   1.084   3.873   2.578
10822SOL    HW233366   1.059   3.827   2.423
10823SOL     OW33367   2.414   6.191   1.305
10823SOL    HW133368   2.429   6.283   1.342
10823SOL    HW233369   2.404   6.126   1.381
10824SOL     OW33370   5.103   0.622   2.725
10824SOL    HW133371   5.106   0.586   2.631
10824SOL    HW233372   5.180   0.587   2.777
10825SOL     OW33373   3.420   0.985   0.916
10825SOL    HW133374   3.402   0.901   0.968
10825SOL    HW233375   3.401   1.065   0.974
10826SOL     OW33376   7.001   3.342   2.571
10826SOL    HW133377   7.023   3.261   2.626
10826SOL    HW233378   0.057   3.397   2.558
10827SOL     OW33379   7.009   3.273   4.403
10827SOL    HW133380   0.051   3.342   4.429
10827SOL    HW233381   6.919   3.302   4.434
10828SOL     OW33382   1.472   5.711   0.407
10828SOL    HW133383   1.482   5.736   0.311
10828SOL    HW233384   1.515   5.622   0.423
10829SOL     OW33385   3.204   3.908   2.081
10829SOL    HW133386   3.157   3.877   1.998
10829SOL    HW233387   3.144   3.967   2.134
10830SOL     OW33388   5.304   2.867   4.546
10830SOL    HW133389   5.376   2.901   4.607
10830SOL    HW233390   5.224   2.926   4.554
10831SOL     OW33391   5.148   1.335   2.784
10831SOL    HW133392   5.232   1.287   2.759
10831SOL    HW233393   5.146   1.350   2.883
10832SOL     OW33394   0.842   2.260   0.614
10832SOL    HW133395   0.831   2.260   0.515
10832SOL    HW233396   0.801   2.176   0.651
10833SOL     OW33397   2.471   0.660   4.334
10833SOL    HW133398   2.543   0.629   4.396
10833SOL    HW233399   2.509   0.673   4.242
10834SOL     OW33400   0.533   2.025   5.594
10834SOL    HW133401   0.489   1.936   5.578
10834SOL    HW233402   0.606   2.039   5.527
10835SOL     OW33403   5.690   1.731   2.584
10835SOL    HW133404   5.711   1.821   2.544
10835SOL    HW233405   5.608   1.694   2.540
10836SOL     OW33406   1.587   1.761   6.642
10836SOL    HW133407   1.619   1.832   6.579
10836SOL    HW233408   1.537   1.691   6.590
10837SOL     OW33409   6.733   4.893   0.884
10837SOL    HW133410   6.680   4.869   0.965
10837SOL    HW233411   6.686   4.861   0.802
10838SOL     OW33412   5.788   6.744   6.764
10838SOL    HW133413   5.755   6.829   6.725
10838SOL    HW233414   5.876   6.720   6.722
10839SOL     OW33415   1.751   1.996   0.226
10839SOL    HW133416   1.718   1.922   0.169
10839SOL    HW233417   1.845   1.977   0.255
10840SOL     OW33418   3.634   5.041   1.948
10840SOL    HW133419   3.548   5.085   1.976
10840SOL    HW233420   3.635   4.946   1.981
10841SOL     OW33421   3.884   5.357   6.049
10841SOL    HW133422   3.954   5.393   6.111
10841SOL    HW233423   3.897   5.397   5.958
10842SOL     OW33424   6.221   3.377   1.036
10842SOL    HW133425   6.200   3.379   1.134
10842SOL    HW233426   6.320   3.366   1.024
10843SOL     OW33427   0.629   1.743   1.986
10843SOL    HW133428   0.609   1.650   1.955
10843SOL    HW233429   0.727   1.759   1.979
10844SOL     OW33430   5.174   0.448   3.210
10844SOL    HW133431   5.089   0.500   3.215
10844SOL    HW233432   5.243   0.501   3.160
10845SOL     OW33433   1.198   0.925   1.661
10845SOL    HW133434   1.108   0.883   1.670
10845SOL    HW233435   1.191   1.023   1.678
10846SOL     OW33436   4.165   1.924   1.414
10846SOL    HW133437   4.201   1.909   1.322
10846SOL    HW233438   4.098   1.998   1.412
10847SOL     OW33439   3.989   2.708   6.073
10847SOL    HW133440   4.030   2.781   6.018
10847SOL    HW233441   4.018   2.619   6.039
10848SOL     OW33442   1.222   0.716   0.291
10848SOL    HW133443   1.192   0.811   0.288
10848SOL    HW233444   1.300   0.703   0.230
10849SOL     OW33445   3.139   5.089   4.525
10849SOL    HW133446   3.052   5.108   4.481
10849SOL    HW233447   3.124   5.038   4.609
10850SOL     OW33448   5.238   6.677   0.159
10850SOL    HW133449   5.257   6.745   0.089
10850SOL    HW233450   5.259   6.715   0.249
10851SOL     OW33451   3.147   2.265   6.848
10851SOL    HW133452   3.090   2.342   6.819
10851SOL    HW233453   3.100   2.179   6.827
10852SOL     OW33454   0.348   0.898   6.708
10852SOL    HW133455   0.328   0.807   6.746
10852SOL    HW233456   0.280   0.963   6.742
10853SOL     OW33457   2.865   1.220   4.636
10853SOL    HW133458   2.939   1.153   4.624
10853SOL    HW233459   2.790   1.198   4.573
10854SOL     OW33460   6.326   6.572   6.639
10854SOL    HW133461   6.384   6.573   6.556
10854SOL    HW233462   6.366   6.632   6.708
10855SOL     OW33463   1.676   6.428   1.622
10855SOL    HW133464   1.583   6.455   1.596
10855SOL    HW233465   1.693   6.334   1.592
10856SOL     OW33466   6.146   6.952   6.921
10856SOL    HW133467   6.205   6.990   6.993
10856SOL    HW233468   6.198   6.885   6.868
10857SOL     OW33469   6.227   1.168   3.747
10857SOL    HW133470   6.323   1.194   3.747
10857SOL    HW233471   6.179   1.216   3.673
10858SOL     OW33472   1.450   3.404   7.021
10858SOL    HW133473   1.544   3.375   7.004
10858SOL    HW233474   1.423   3.472   6.953
10859SOL     OW33475   0.814   4.447   3.625
10859SOL    HW133476   0.830   4.370   3.687
10859SOL    HW233477   0.716   4.454   3.605
10860SOL     OW33478   6.226   1.914   0.199
10860SOL    HW133479   6.157   1.912   0.272
10860SOL    HW233480   6.183   1.941   0.113
10861SOL     OW33481   3.123   2.810   1.763
10861SOL    HW133482   3.137   2.818   1.862
10861SOL    HW233483   3.093   2.899   1.727
10862SOL     OW33484   3.538   2.586   5.537
10862SOL    HW133485   3.591   2.625   5.613
10862SOL    HW233486   3.440   2.592   5.558
10863SOL     OW33487   2.622   1.060   3.387
10863SOL    HW133488   2.613   1.136   3.323
10863SOL    HW233489   2.560   1.074   3.465
10864SOL     OW33490   2.469   4.437   2.010
10864SOL    HW133491   2.437   4.532   2.009
10864SOL    HW233492   2.509   4.415   1.921
10865SOL     OW33493   4.592   2.212   3.297
10865SOL    HW133494   4.520   2.147   3.272
10865SOL    HW233495   4.633   2.183   3.384
10866SOL     OW33496   7.013   4.020   2.536
10866SOL    HW133497   6.949   3.947   2.560
10866SOL    HW233498   6.971   4.081   2.468
10867SOL     OW33499   3.667   2.700   0.522
10867SOL    HW133500   3.638   2.613   0.483
10867SOL    HW233501   3.684   2.689   0.620
10868SOL     OW33502   1.277   2.071   4.019
10868SOL    HW133503   1.249   2.015   4.097
10868SOL    HW233504   1.351   2.026   3.970
10869NA      NA33505   0.226   1.998   6.044
10870NA      NA33506   4.283   4.705   5.191
10871NA      NA33507   1.322   5.402   2.543
10872NA      NA33508   5.301   4.127   3.274
10873NA      NA33509   4.363   2.372   5.166
10874NA      NA33510   2.466   5.078   0.922
10875NA      NA33511   1.079   5.351   6.677
10876NA      NA33512   3.400   4.272   1.001
10877NA      NA33513   4.629   4.997   0.854
10878NA      NA33514   3.291   1.286   6.448
10879NA      NA33515   5.621   5.735   2.161
10880NA      NA33516   1.411   6.627   5.324
10881NA      NA33517   4.538   5.017   1.742
10882NA      NA33518   3.062   3.088   6.891
   7.02623   7.02623   7.02623
