Generated by trjconv : CNT in water t=  68.00000
33518
    1C        C    1   2.847   2.771   4.744
    1C        C    2   2.898   2.719   4.865
    1C        C    3   2.837   2.764   4.982
    1C        C    4   2.851   2.775   4.258
    1C        C    5   2.901   2.722   4.379
    1C        C    6   2.846   2.771   4.500
    1C        C    7   3.011   2.638   4.623
    1C        C    8   2.897   2.721   4.622
    1C        C    9   3.078   2.601   4.741
    1C        C   10   3.009   2.632   4.861
    1C        C   11   3.176   2.489   4.972
    1C        C   12   3.053   2.555   4.970
    1C        C   13   2.849   2.771   3.769
    1C        C   14   2.902   2.722   3.891
    1C        C   15   2.850   2.773   4.012
    1C        C   16   3.015   2.642   4.134
    1C        C   17   2.902   2.727   4.135
    1C        C   18   3.076   2.605   4.256
    1C        C   19   3.015   2.639   4.379
    1C        C   20   3.209   2.559   4.502
    1C        C   21   3.074   2.602   4.502
    1C        C   22   3.279   2.531   4.621
    1C        C   23   3.210   2.547   4.743
    1C        C   24   3.411   2.480   4.863
    1C        C   25   3.270   2.505   4.865
    1C        C   26   3.488   2.471   4.979
    1C        C   27   2.845   2.768   3.279
    1C        C   28   2.902   2.725   3.401
    1C        C   29   2.857   2.774   3.525
    1C        C   30   3.014   2.635   3.646
    1C        C   31   2.904   2.724   3.648
    1C        C   32   3.076   2.600   3.768
    1C        C   33   3.019   2.642   3.891
    1C        C   34   3.206   2.546   4.013
    1C        C   35   3.077   2.604   4.013
    1C        C   36   3.276   2.531   4.135
    1C        C   37   3.209   2.557   4.257
    1C        C   38   3.414   2.505   4.379
    1C        C   39   3.276   2.535   4.380
    1C        C   40   3.485   2.498   4.500
    1C        C   41   3.417   2.499   4.624
    1C        C   42   3.629   2.478   4.741
    1C        C   43   3.487   2.471   4.743
    1C        C   44   3.703   2.482   4.862
    1C        C   45   3.627   2.470   4.979
    1C        C   46   2.834   2.752   2.792
    1C        C   47   2.888   2.708   2.915
    1C        C   48   2.841   2.764   3.036
    1C        C   49   3.011   2.634   3.158
    1C        C   50   2.896   2.716   3.157
    1C        C   51   3.074   2.598   3.279
    1C        C   52   3.013   2.637   3.401
    1C        C   53   3.205   2.547   3.522
    1C        C   54   3.074   2.600   3.523
    1C        C   55   3.271   2.525   3.644
    1C        C   56   3.207   2.547   3.768
    1C        C   57   3.413   2.501   3.891
    1C        C   58   3.273   2.524   3.891
    1C        C   59   3.485   2.493   4.011
    1C        C   60   3.414   2.504   4.133
    1C        C   61   3.624   2.503   4.254
    1C        C   62   3.483   2.498   4.256
    1C        C   63   3.696   2.507   4.375
    1C        C   64   3.627   2.496   4.498
    1C        C   65   3.833   2.537   4.617
    1C        C   66   3.699   2.492   4.619
    1C        C   67   3.898   2.561   4.740
    1C        C   68   3.838   2.525   4.862
    1C        C   69   4.050   2.585   4.974
    1C        C   70   3.920   2.532   4.975
    1C        C   71   2.820   2.728   2.308
    1C        C   72   2.883   2.693   2.429
    1C        C   73   2.833   2.751   2.547
    1C        C   74   3.004   2.625   2.669
    1C        C   75   2.887   2.705   2.669
    1C        C   76   3.066   2.591   2.792
    1C        C   77   3.006   2.631   2.913
    1C        C   78   3.201   2.545   3.035
    1C        C   79   3.070   2.597   3.035
    1C        C   80   3.272   2.525   3.155
    1C        C   81   3.205   2.545   3.278
    1C        C   82   3.412   2.499   3.400
    1C        C   83   3.273   2.523   3.400
    1C        C   84   3.480   2.491   3.524
    1C        C   85   3.409   2.496   3.646
    1C        C   86   3.623   2.498   3.765
    1C        C   87   3.482   2.492   3.768
    1C        C   88   3.695   2.503   3.887
    1C        C   89   3.626   2.497   4.010
    1C        C   90   3.832   2.548   4.130
    1C        C   91   3.696   2.510   4.132
    1C        C   92   3.899   2.571   4.252
    1C        C   93   3.833   2.543   4.374
    1C        C   94   4.025   2.631   4.497
    1C        C   95   3.902   2.561   4.496
    1C        C   96   4.084   2.670   4.619
    1C        C   97   4.024   2.627   4.739
    1C        C   98   4.190   2.763   4.857
    1C        C   99   4.095   2.656   4.858
    1C        C  100   4.206   2.843   4.971
    1C        C  101   2.817   2.727   2.069
    1C        C  102   2.988   2.591   2.186
    1C        C  103   2.872   2.675   2.187
    1C        C  104   3.060   2.569   2.307
    1C        C  105   3.004   2.619   2.427
    1C        C  106   3.197   2.531   2.549
    1C        C  107   3.069   2.591   2.549
    1C        C  108   3.267   2.512   2.670
    1C        C  109   3.198   2.540   2.790
    1C        C  110   3.407   2.500   2.910
    1C        C  111   3.268   2.524   2.912
    1C        C  112   3.478   2.495   3.032
    1C        C  113   3.412   2.504   3.157
    1C        C  114   3.624   2.499   3.277
    1C        C  115   3.483   2.495   3.278
    1C        C  116   3.691   2.510   3.401
    1C        C  117   3.621   2.493   3.522
    1C        C  118   3.831   2.538   3.642
    1C        C  119   3.693   2.508   3.643
    1C        C  120   3.895   2.569   3.764
    1C        C  121   3.830   2.544   3.887
    1C        C  122   4.026   2.632   4.010
    1C        C  123   3.900   2.567   4.007
    1C        C  124   4.086   2.672   4.131
    1C        C  125   4.026   2.632   4.253
    1C        C  126   4.192   2.763   4.373
    1C        C  127   4.085   2.670   4.375
    1C        C  128   4.239   2.820   4.494
    1C        C  129   4.187   2.768   4.614
    1C        C  130   4.325   2.930   4.737
    1C        C  131   4.242   2.815   4.735
    1C        C  132   4.354   3.000   4.856
    1C        C  133   4.283   2.959   4.970
    1C        C  134   3.174   2.471   2.079
    1C        C  135   3.038   2.502   2.085
    1C        C  136   3.260   2.478   2.190
    1C        C  137   3.191   2.514   2.308
    1C        C  138   3.403   2.476   2.425
    1C        C  139   3.264   2.501   2.428
    1C        C  140   3.477   2.473   2.545
    1C        C  141   3.407   2.491   2.666
    1C        C  142   3.617   2.485   2.785
    1C        C  143   3.476   2.483   2.788
    1C        C  144   3.685   2.504   2.907
    1C        C  145   3.619   2.501   3.032
    1C        C  146   3.830   2.533   3.154
    1C        C  147   3.692   2.504   3.153
    1C        C  148   3.896   2.564   3.276
    1C        C  149   3.828   2.546   3.398
    1C        C  150   4.023   2.628   3.518
    1C        C  151   3.899   2.560   3.520
    1C        C  152   4.080   2.668   3.641
    1C        C  153   4.020   2.634   3.764
    1C        C  154   4.188   2.764   3.884
    1C        C  155   4.080   2.674   3.886
    1C        C  156   4.238   2.816   4.006
    1C        C  157   4.192   2.765   4.129
    1C        C  158   4.335   2.920   4.250
    1C        C  159   4.246   2.811   4.252
    1C        C  160   4.373   2.983   4.371
    1C        C  161   4.328   2.930   4.493
    1C        C  162   4.432   3.114   4.612
    1C        C  163   4.364   2.990   4.616
    1C        C  164   4.464   3.182   4.732
    1C        C  165   4.434   3.116   4.854
    1C        C  166   4.518   3.317   4.971
    1C        C  167   4.476   3.185   4.969
    1C        C  168   3.474   2.437   2.069
    1C        C  169   3.400   2.461   2.185
    1C        C  170   3.618   2.462   2.303
    1C        C  171   3.476   2.462   2.305
    1C        C  172   3.691   2.481   2.422
    1C        C  173   3.619   2.478   2.544
    1C        C  174   3.826   2.534   2.663
    1C        C  175   3.691   2.493   2.664
    1C        C  176   3.889   2.559   2.787
    1C        C  177   3.822   2.538   2.909
    1C        C  178   4.019   2.621   3.030
    1C        C  179   3.893   2.558   3.030
    1C        C  180   4.083   2.663   3.149
    1C        C  181   4.022   2.627   3.272
    1C        C  182   4.197   2.745   3.396
    1C        C  183   4.083   2.662   3.395
    1C        C  184   4.247   2.798   3.517
    1C        C  185   4.191   2.756   3.640
    1C        C  186   4.333   2.917   3.759
    1C        C  187   4.240   2.810   3.761
    1C        C  188   4.375   2.975   3.881
    1C        C  189   4.329   2.924   4.004
    1C        C  190   4.441   3.101   4.125
    1C        C  191   4.377   2.975   4.127
    1C        C  192   4.463   3.173   4.244
    1C        C  193   4.438   3.109   4.368
    1C        C  194   4.504   3.312   4.490
    1C        C  195   4.463   3.177   4.489
    1C        C  196   4.523   3.383   4.611
    1C        C  197   4.511   3.316   4.734
    1C        C  198   4.548   3.534   4.848
    1C        C  199   4.530   3.392   4.853
    1C        C  200   4.582   3.617   4.960
    1C        C  201   3.613   2.415   2.070
    1C        C  202   3.826   2.505   2.178
    1C        C  203   3.692   2.457   2.182
    1C        C  204   3.896   2.538   2.298
    1C        C  205   3.828   2.515   2.419
    1C        C  206   4.016   2.621   2.539
    1C        C  207   3.892   2.554   2.539
    1C        C  208   4.075   2.653   2.664
    1C        C  209   4.015   2.622   2.788
    1C        C  210   4.191   2.745   2.903
    1C        C  211   4.078   2.660   2.908
    1C        C  212   4.246   2.794   3.024
    1C        C  213   4.193   2.750   3.147
    1C        C  214   4.332   2.904   3.271
    1C        C  215   4.245   2.792   3.272
    1C        C  216   4.369   2.967   3.391
    1C        C  217   4.331   2.912   3.516
    1C        C  218   4.431   3.103   3.635
    1C        C  219   4.367   2.977   3.636
    1C        C  220   4.465   3.165   3.757
    1C        C  221   4.442   3.099   3.880
    1C        C  222   4.494   3.305   4.001
    1C        C  223   4.467   3.166   4.002
    1C        C  224   4.512   3.376   4.121
    1C        C  225   4.498   3.310   4.245
    1C        C  226   4.520   3.521   4.363
    1C        C  227   4.513   3.380   4.367
    1C        C  228   4.518   3.595   4.483
    1C        C  229   4.529   3.524   4.605
    1C        C  230   4.509   3.741   4.722
    1C        C  231   4.533   3.601   4.724
    1C        C  232   4.496   3.814   4.842
    1C        C  233   4.542   3.751   4.958
    1C        C  234   4.020   2.606   2.058
    1C        C  235   3.893   2.547   2.062
    1C        C  236   4.084   2.645   2.176
    1C        C  237   4.020   2.607   2.297
    1C        C  238   4.196   2.732   2.417
    1C        C  239   4.081   2.650   2.417
    1C        C  240   4.244   2.784   2.540
    1C        C  241   4.187   2.740   2.661
    1C        C  242   4.334   2.900   2.782
    1C        C  243   4.239   2.796   2.780
    1C        C  244   4.374   2.962   2.903
    1C        C  245   4.333   2.905   3.025
    1C        C  246   4.435   3.089   3.145
    1C        C  247   4.371   2.963   3.149
    1C        C  248   4.454   3.157   3.267
    1C        C  249   4.431   3.094   3.392
    1C        C  250   4.492   3.302   3.511
    1C        C  251   4.456   3.166   3.511
    1C        C  252   4.512   3.371   3.633
    1C        C  253   4.505   3.301   3.755
    1C        C  254   4.517   3.513   3.875
    1C        C  255   4.510   3.372   3.877
    1C        C  256   4.519   3.586   3.996
    1C        C  257   4.522   3.517   4.120
    1C        C  258   4.489   3.730   4.239
    1C        C  259   4.517   3.592   4.240
    1C        C  260   4.464   3.801   4.358
    1C        C  261   4.481   3.731   4.480
    1C        C  262   4.425   3.936   4.604
    1C        C  263   4.479   3.805   4.600
    1C        C  264   4.395   4.005   4.723
    1C        C  265   4.434   3.941   4.842
    1C        C  266   4.316   4.127   4.956
    1C        C  267   4.394   4.012   4.957
    1C        C  268   4.254   2.779   2.058
    1C        C  269   4.190   2.738   2.176
    1C        C  270   4.345   2.887   2.298
    1C        C  271   4.248   2.784   2.296
    1C        C  272   4.381   2.948   2.420
    1C        C  273   4.335   2.892   2.542
    1C        C  274   4.443   3.082   2.658
    1C        C  275   4.379   2.956   2.660
    1C        C  276   4.467   3.151   2.779
    1C        C  277   4.441   3.086   2.901
    1C        C  278   4.497   3.291   3.021
    1C        C  279   4.467   3.153   3.023
    1C        C  280   4.506   3.362   3.142
    1C        C  281   4.489   3.294   3.265
    1C        C  282   4.514   3.507   3.386
    1C        C  283   4.500   3.366   3.385
    1C        C  284   4.512   3.580   3.507
    1C        C  285   4.514   3.513   3.632
    1C        C  286   4.486   3.723   3.749
    1C        C  287   4.514   3.584   3.753
    1C        C  288   4.469   3.791   3.871
    1C        C  289   4.494   3.725   3.993
    1C        C  290   4.423   3.927   4.113
    1C        C  291   4.473   3.795   4.114
    1C        C  292   4.394   3.994   4.234
    1C        C  293   4.421   3.936   4.360
    1C        C  294   4.319   4.121   4.477
    1C        C  295   4.391   4.000   4.482
    1C        C  296   4.280   4.184   4.597
    1C        C  297   4.323   4.128   4.720
    1C        C  298   4.203   4.315   4.835
    1C        C  299   4.279   4.193   4.838
    1C        C  300   4.171   4.403   4.943
    1C        C  301   4.342   2.886   2.057
    1C        C  302   4.464   3.066   2.175
    1C        C  303   4.393   2.941   2.175
    1C        C  304   4.475   3.141   2.294
    1C        C  305   4.443   3.075   2.415
    1C        C  306   4.504   3.282   2.535
    1C        C  307   4.473   3.144   2.535
    1C        C  308   4.519   3.355   2.654
    1C        C  309   4.500   3.288   2.777
    1C        C  310   4.521   3.500   2.898
    1C        C  311   4.517   3.359   2.899
    1C        C  312   4.519   3.573   3.019
    1C        C  313   4.519   3.503   3.141
    1C        C  314   4.488   3.714   3.261
    1C        C  315   4.512   3.575   3.262
    1C        C  316   4.476   3.785   3.383
    1C        C  317   4.491   3.720   3.507
    1C        C  318   4.422   3.925   3.623
    1C        C  319   4.468   3.791   3.626
    1C        C  320   4.389   3.989   3.745
    1C        C  321   4.423   3.925   3.867
    1C        C  322   4.323   4.111   3.987
    1C        C  323   4.397   3.990   3.989
    1C        C  324   4.278   4.168   4.108
    1C        C  325   4.323   4.116   4.231
    1C        C  326   4.187   4.281   4.349
    1C        C  327   4.282   4.177   4.352
    1C        C  328   4.138   4.336   4.470
    1C        C  329   4.185   4.288   4.594
    1C        C  330   4.023   4.430   4.710
    1C        C  331   4.141   4.351   4.712
    1C        C  332   3.969   4.489   4.827
    1C        C  333   4.047   4.469   4.942
    1C        C  334   4.551   3.263   2.063
    1C        C  335   4.528   3.125   2.061
    1C        C  336   4.538   3.347   2.174
    1C        C  337   4.515   3.278   2.295
    1C        C  338   4.525   3.494   2.410
    1C        C  339   4.521   3.353   2.414
    1C        C  340   4.526   3.566   2.532
    1C        C  341   4.533   3.496   2.654
    1C        C  342   4.489   3.707   2.772
    1C        C  343   4.519   3.569   2.774
    1C        C  344   4.479   3.778   2.893
    1C        C  345   4.494   3.713   3.017
    1C        C  346   4.423   3.914   3.137
    1C        C  347   4.470   3.781   3.138
    1C        C  348   4.394   3.981   3.258
    1C        C  349   4.430   3.919   3.379
    1C        C  350   4.315   4.103   3.497
    1C        C  351   4.392   3.984   3.499
    1C        C  352   4.272   4.161   3.619
    1C        C  353   4.313   4.108   3.743
    1C        C  354   4.176   4.266   3.864
    1C        C  355   4.277   4.168   3.866
    1C        C  356   4.119   4.312   3.985
    1C        C  357   4.175   4.265   4.106
    1C        C  358   4.007   4.395   4.231
    1C        C  359   4.127   4.319   4.227
    1C        C  360   3.946   4.434   4.352
    1C        C  361   4.016   4.409   4.472
    1C        C  362   3.824   4.511   4.592
    1C        C  363   3.954   4.456   4.589
    1C        C  364   3.759   4.543   4.713
    1C        C  365   3.838   4.541   4.829
    1C        C  366   3.626   4.592   4.946
    1C        C  367   3.763   4.571   4.944
    1C        C  368   4.511   3.562   2.053
    1C        C  369   4.531   3.488   2.171
    1C        C  370   4.498   3.705   2.284
    1C        C  371   4.519   3.566   2.288
    1C        C  372   4.477   3.773   2.406
    1C        C  373   4.494   3.704   2.528
    1C        C  374   4.419   3.905   2.647
    1C        C  375   4.473   3.774   2.649
    1C        C  376   4.389   3.970   2.769
    1C        C  377   4.427   3.910   2.891
    1C        C  378   4.324   4.096   3.008
    1C        C  379   4.400   3.977   3.012
    1C        C  380   4.274   4.151   3.128
    1C        C  381   4.315   4.098   3.252
    1C        C  382   4.171   4.255   3.376
    1C        C  383   4.270   4.155   3.374
    1C        C  384   4.122   4.310   3.497
    1C        C  385   4.176   4.265   3.619
    1C        C  386   4.004   4.389   3.740
    1C        C  387   4.119   4.307   3.741
    1C        C  388   3.941   4.424   3.861
    1C        C  389   4.000   4.388   3.985
    1C        C  390   3.815   4.484   4.109
    1C        C  391   3.946   4.429   4.109
    1C        C  392   3.746   4.514   4.228
    1C        C  393   3.818   4.494   4.348
    1C        C  394   3.614   4.546   4.470
    1C        C  395   3.753   4.525   4.470
    1C        C  396   3.545   4.557   4.593
    1C        C  397   3.618   4.554   4.713
    1C        C  398   3.406   4.547   4.840
    1C        C  399   3.545   4.569   4.834
    1C        C  400   3.333   4.522   4.958
    1C        C  401   4.510   3.701   2.046
    1C        C  402   4.456   3.913   2.163
    1C        C  403   4.495   3.778   2.163
    1C        C  404   4.411   3.974   2.283
    1C        C  405   4.437   3.908   2.405
    1C        C  406   4.324   4.093   2.521
    1C        C  407   4.395   3.971   2.524
    1C        C  408   4.276   4.146   2.643
    1C        C  409   4.315   4.090   2.767
    1C        C  410   4.174   4.251   2.885
    1C        C  411   4.271   4.149   2.888
    1C        C  412   4.120   4.295   3.008
    1C        C  413   4.172   4.249   3.131
    1C        C  414   4.001   4.378   3.255
    1C        C  415   4.117   4.297   3.252
    1C        C  416   3.936   4.413   3.375
    1C        C  417   4.001   4.383   3.497
    1C        C  418   3.810   4.478   3.617
    1C        C  419   3.939   4.421   3.618
    1C        C  420   3.744   4.506   3.739
    1C        C  421   3.809   4.475   3.861
    1C        C  422   3.612   4.535   3.984
    1C        C  423   3.750   4.504   3.985
    1C        C  424   3.540   4.537   4.105
    1C        C  425   3.607   4.537   4.230
    1C        C  426   3.395   4.545   4.354
    1C        C  427   3.536   4.549   4.352
    1C        C  428   3.328   4.539   4.478
    1C        C  429   3.404   4.552   4.597
    1C        C  430   3.194   4.514   4.720
    1C        C  431   3.334   4.541   4.719
    1C        C  432   3.120   4.496   4.840
    1C        C  433   3.199   4.488   4.956
    1C        C  434   4.374   4.119   2.046
    1C        C  435   4.434   3.992   2.049
    1C        C  436   4.298   4.159   2.160
    1C        C  437   4.331   4.091   2.280
    1C        C  438   4.182   4.250   2.398
    1C        C  439   4.281   4.149   2.399
    1C        C  440   4.124   4.293   2.520
    1C        C  441   4.176   4.245   2.642
    1C        C  442   4.004   4.376   2.761
    1C        C  443   4.121   4.297   2.762
    1C        C  444   3.943   4.405   2.885
    1C        C  445   4.000   4.370   3.010
    1C        C  446   3.813   4.473   3.128
    1C        C  447   3.940   4.410   3.131
    1C        C  448   3.745   4.499   3.249
    1C        C  449   3.810   4.477   3.373
    1C        C  450   3.603   4.525   3.495
    1C        C  451   3.742   4.498   3.495
    1C        C  452   3.534   4.542   3.616
    1C        C  453   3.606   4.536   3.738
    1C        C  454   3.399   4.540   3.862
    1C        C  455   3.540   4.541   3.862
    1C        C  456   3.328   4.530   3.984
    1C        C  457   3.398   4.541   4.107
    1C        C  458   3.191   4.507   4.234
    1C        C  459   3.329   4.537   4.230
    1C        C  460   3.121   4.488   4.355
    1C        C  461   3.190   4.510   4.477
    1C        C  462   2.996   4.433   4.601
    1C        C  463   3.122   4.496   4.600
    1C        C  464   2.927   4.397   4.719
    1C        C  465   2.987   4.443   4.839
    1C        C  466   2.802   4.333   4.957
    1C        C  467   2.905   4.427   4.956
    1C        C  468   4.118   4.279   2.036
    1C        C  469   4.183   4.244   2.155
    1C        C  470   4.005   4.370   2.275
    1C        C  471   4.124   4.291   2.276
    1C        C  472   3.940   4.403   2.396
    1C        C  473   4.006   4.371   2.516
    1C        C  474   3.814   4.463   2.642
    1C        C  475   3.944   4.407   2.638
    1C        C  476   3.745   4.486   2.763
    1C        C  477   3.814   4.462   2.884
    1C        C  478   3.607   4.513   3.002
    1C        C  479   3.747   4.492   3.005
    1C        C  480   3.537   4.522   3.125
    1C        C  481   3.606   4.522   3.248
    1C        C  482   3.395   4.523   3.374
    1C        C  483   3.536   4.528   3.371
    1C        C  484   3.325   4.524   3.497
    1C        C  485   3.392   4.543   3.619
    1C        C  486   3.187   4.500   3.741
    1C        C  487   3.324   4.536   3.743
    1C        C  488   3.123   4.479   3.865
    1C        C  489   3.192   4.495   3.988
    1C        C  490   2.999   4.418   4.111
    1C        C  491   3.126   4.480   4.112
    1C        C  492   2.939   4.381   4.234
    1C        C  493   2.993   4.428   4.356
    1C        C  494   2.832   4.295   4.480
    1C        C  495   2.936   4.391   4.480
    1C        C  496   2.772   4.250   4.599
    1C        C  497   2.811   4.315   4.719
    1C        C  498   2.664   4.163   4.841
    1C        C  499   2.753   4.272   4.840
    1C        C  500   2.598   4.112   4.953
    1C        C  501   4.002   4.355   2.038
    1C        C  502   3.813   4.464   2.154
    1C        C  503   3.938   4.399   2.155
    1C        C  504   3.744   4.479   2.276
    1C        C  505   3.806   4.449   2.400
    1C        C  506   3.604   4.509   2.518
    1C        C  507   3.742   4.477   2.522
    1C        C  508   3.533   4.513   2.640
    1C        C  509   3.606   4.513   2.761
    1C        C  510   3.392   4.524   2.883
    1C        C  511   3.533   4.519   2.882
    1C        C  512   3.324   4.517   3.006
    1C        C  513   3.395   4.526   3.128
    1C        C  514   3.188   4.491   3.252
    1C        C  515   3.326   4.521   3.251
    1C        C  516   3.120   4.467   3.374
    1C        C  517   3.187   4.493   3.496
    1C        C  518   2.997   4.405   3.621
    1C        C  519   3.121   4.474   3.619
    1C        C  520   2.941   4.368   3.745
    1C        C  521   2.999   4.411   3.867
    1C        C  522   2.834   4.283   3.995
    1C        C  523   2.938   4.378   3.990
    1C        C  524   2.784   4.233   4.117
    1C        C  525   2.832   4.289   4.238
    1C        C  526   2.696   4.128   4.361
    1C        C  527   2.781   4.241   4.360
    1C        C  528   2.650   4.073   4.483
    1C        C  529   2.685   4.139   4.603
    1C        C  530   2.578   3.958   4.729
    1C        C  531   2.636   4.088   4.725
    1C        C  532   2.537   3.897   4.850
    1C        C  533   2.527   3.991   4.958
    1C        C  534   3.615   4.545   2.037
    1C        C  535   3.749   4.504   2.036
    1C        C  536   3.535   4.533   2.155
    1C        C  537   3.606   4.510   2.276
    1C        C  538   3.392   4.515   2.394
    1C        C  539   3.533   4.519   2.397
    1C        C  540   3.321   4.505   2.516
    1C        C  541   3.392   4.510   2.639
    1C        C  542   3.182   4.486   2.766
    1C        C  543   3.321   4.510   2.761
    1C        C  544   3.116   4.462   2.888
    1C        C  545   3.187   4.480   3.009
    1C        C  546   2.997   4.391   3.132
    1C        C  547   3.122   4.458   3.132
    1C        C  548   2.939   4.354   3.255
    1C        C  549   2.997   4.398   3.376
    1C        C  550   2.828   4.276   3.507
    1C        C  551   2.936   4.367   3.500
    1C        C  552   2.777   4.227   3.629
    1C        C  553   2.830   4.281   3.749
    1C        C  554   2.696   4.122   3.872
    1C        C  555   2.785   4.232   3.873
    1C        C  556   2.660   4.060   3.994
    1C        C  557   2.701   4.119   4.115
    1C        C  558   2.596   3.940   4.244
    1C        C  559   2.659   4.066   4.239
    1C        C  560   2.570   3.876   4.367
    1C        C  561   2.589   3.946   4.488
    1C        C  562   2.525   3.746   4.614
    1C        C  563   2.559   3.883   4.611
    1C        C  564   2.512   3.674   4.735
    1C        C  565   2.514   3.755   4.852
    1C        C  566   2.532   3.543   4.977
    1C        C  567   2.521   3.682   4.971
    1C        C  568   3.324   4.475   2.038
    1C        C  569   3.394   4.511   2.154
    1C        C  570   3.179   4.477   2.280
    1C        C  571   3.319   4.505   2.274
    1C        C  572   3.110   4.460   2.402
    1C        C  573   3.183   4.477   2.521
    1C        C  574   2.989   4.399   2.643
    1C        C  575   3.114   4.463   2.644
    1C        C  576   2.932   4.357   2.766
    1C        C  577   2.993   4.392   2.888
    1C        C  578   2.825   4.264   3.014
    1C        C  579   2.934   4.355   3.011
    1C        C  580   2.777   4.216   3.138
    1C        C  581   2.828   4.267   3.259
    1C        C  582   2.696   4.111   3.382
    1C        C  583   2.779   4.225   3.385
    1C        C  584   2.661   4.053   3.506
    1C        C  585   2.692   4.114   3.629
    1C        C  586   2.594   3.929   3.754
    1C        C  587   2.654   4.057   3.753
    1C        C  588   2.571   3.864   3.878
    1C        C  589   2.599   3.933   3.998
    1C        C  590   2.535   3.735   4.127
    1C        C  591   2.573   3.871   4.123
    1C        C  592   2.524   3.667   4.250
    1C        C  593   2.534   3.739   4.371
    1C        C  594   2.511   3.530   4.495
    1C        C  595   2.518   3.671   4.494
    1C        C  596   2.515   3.461   4.618
    1C        C  597   2.516   3.532   4.740
    1C        C  598   2.532   3.322   4.862
    1C        C  599   2.525   3.463   4.863
    1C        C  600   2.522   3.241   4.976
    1C        C  601   3.193   4.431   2.043
    1C        C  602   2.981   4.391   2.157
    1C        C  603   3.114   4.445   2.158
    1C        C  604   2.923   4.352   2.281
    1C        C  605   2.987   4.390   2.401
    1C        C  606   2.821   4.264   2.526
    1C        C  607   2.925   4.359   2.524
    1C        C  608   2.773   4.211   2.648
    1C        C  609   2.826   4.264   2.768
    1C        C  610   2.684   4.108   2.895
    1C        C  611   2.775   4.216   2.891
    1C        C  612   2.646   4.047   3.016
    1C        C  613   2.687   4.107   3.137
    1C        C  614   2.588   3.925   3.263
    1C        C  615   2.649   4.052   3.262
    1C        C  616   2.559   3.864   3.388
    1C        C  617   2.595   3.928   3.508
    1C        C  618   2.524   3.730   3.636
    1C        C  619   2.565   3.865   3.632
    1C        C  620   2.515   3.661   3.758
    1C        C  621   2.528   3.730   3.881
    1C        C  622   2.512   3.523   4.009
    1C        C  623   2.522   3.664   4.005
    1C        C  624   2.506   3.453   4.131
    1C        C  625   2.510   3.527   4.251
    1C        C  626   2.531   3.317   4.376
    1C        C  627   2.512   3.457   4.374
    1C        C  628   2.545   3.247   4.499
    1C        C  629   2.528   3.321   4.618
    1C        C  630   2.592   3.117   4.741
    1C        C  631   2.549   3.252   4.740
    1C        C  632   2.613   3.045   4.862
    1C        C  633   2.554   3.105   4.978
    1C        C  634   2.776   4.303   2.052
    1C        C  635   2.891   4.383   2.047
    1C        C  636   2.744   4.227   2.165
    1C        C  637   2.809   4.267   2.284
    1C        C  638   2.675   4.104   2.409
    1C        C  639   2.761   4.217   2.407
    1C        C  640   2.638   4.045   2.531
    1C        C  641   2.685   4.100   2.652
    1C        C  642   2.582   3.917   2.776
    1C        C  643   2.644   4.044   2.775
    1C        C  644   2.552   3.854   2.899
    1C        C  645   2.577   3.923   3.019
    1C        C  646   2.523   3.721   3.147
    1C        C  647   2.557   3.858   3.143
    1C        C  648   2.508   3.655   3.271
    1C        C  649   2.523   3.727   3.391
    1C        C  650   2.502   3.518   3.516
    1C        C  651   2.512   3.659   3.514
    1C        C  652   2.508   3.450   3.640
    1C        C  653   2.509   3.520   3.763
    1C        C  654   2.532   3.312   3.889
    1C        C  655   2.511   3.452   3.887
    1C        C  656   2.548   3.243   4.011
    1C        C  657   2.527   3.313   4.131
    1C        C  658   2.602   3.117   4.255
    1C        C  659   2.547   3.247   4.255
    1C        C  660   2.628   3.052   4.378
    1C        C  661   2.596   3.116   4.499
    1C        C  662   2.709   2.935   4.623
    1C        C  663   2.628   3.051   4.621
    1C        C  664   2.751   2.876   4.744
    1C        C  665   2.695   2.928   4.864
    1C        C  666   2.743   2.866   4.981
    1C        C  667   2.679   4.021   2.054
    1C        C  668   2.681   4.101   2.169
    1C        C  669   2.590   3.905   2.289
    1C        C  670   2.642   4.037   2.289
    1C        C  671   2.550   3.848   2.411
    1C        C  672   2.573   3.919   2.531
    1C        C  673   2.514   3.717   2.656
    1C        C  674   2.554   3.853   2.654
    1C        C  675   2.505   3.648   2.779
    1C        C  676   2.517   3.717   2.901
    1C        C  677   2.503   3.509   3.028
    1C        C  678   2.509   3.650   3.026
    1C        C  679   2.503   3.440   3.151
    1C        C  680   2.493   3.514   3.270
    1C        C  681   2.523   3.307   3.400
    1C        C  682   2.500   3.446   3.394
    1C        C  683   2.547   3.239   3.522
    1C        C  684   2.530   3.311   3.643
    1C        C  685   2.605   3.115   3.766
    1C        C  686   2.548   3.244   3.766
    1C        C  687   2.630   3.049   3.888
    1C        C  688   2.596   3.110   4.011
    1C        C  689   2.713   2.936   4.137
    1C        C  690   2.632   3.051   4.134
    1C        C  691   2.755   2.879   4.260
    1C        C  692   2.712   2.938   4.381
    1C        C  693   2.757   2.881   4.502
    1C        C  694   2.629   3.890   2.054
    1C        C  695   2.525   3.699   2.175
    1C        C  696   2.581   3.828   2.171
    1C        C  697   2.505   3.633   2.299
    1C        C  698   2.515   3.711   2.416
    1C        C  699   2.485   3.501   2.540
    1C        C  700   2.493   3.642   2.538
    1C        C  701   2.499   3.435   2.664
    1C        C  702   2.498   3.507   2.786
    1C        C  703   2.522   3.296   2.907
    1C        C  704   2.503   3.436   2.907
    1C        C  705   2.539   3.231   3.031
    1C        C  706   2.530   3.301   3.154
    1C        C  707   2.597   3.106   3.280
    1C        C  708   2.548   3.238   3.279
    1C        C  709   2.629   3.041   3.401
    1C        C  710   2.601   3.109   3.521
    1C        C  711   2.709   2.929   3.649
    1C        C  712   2.635   3.049   3.645
    1C        C  713   2.760   2.881   3.771
    1C        C  714   2.714   2.935   3.894
    1C        C  715   2.757   2.879   4.016
    1C        C  716   2.452   3.498   2.061
    1C        C  717   2.489   3.633   2.057
    1C        C  718   2.464   3.418   2.179
    1C        C  719   2.477   3.494   2.299
    1C        C  720   2.501   3.285   2.421
    1C        C  721   2.481   3.424   2.422
    1C        C  722   2.534   3.221   2.543
    1C        C  723   2.523   3.296   2.663
    1C        C  724   2.589   3.095   2.790
    1C        C  725   2.540   3.227   2.785
    1C        C  726   2.617   3.033   2.914
    1C        C  727   2.587   3.098   3.036
    1C        C  728   2.701   2.921   3.157
    1C        C  729   2.620   3.036   3.159
    1C        C  730   2.749   2.872   3.280
    1C        C  731   2.709   2.924   3.405
    1C        C  732   2.755   2.872   3.528
    1C        C  733   2.484   3.191   2.068
    1C        C  734   2.481   3.276   2.180
    1C        C  735   2.575   3.082   2.303
    1C        C  736   2.516   3.211   2.302
    1C        C  737   2.605   3.017   2.425
    1C        C  738   2.582   3.088   2.544
    1C        C  739   2.693   2.911   2.669
    1C        C  740   2.611   3.026   2.668
    1C        C  741   2.740   2.857   2.790
    1C        C  742   2.695   2.916   2.911
    1C        C  743   2.743   2.866   3.034
    1C        C  744   2.544   3.066   2.070
    1C        C  745   2.682   2.894   2.186
    1C        C  746   2.606   3.013   2.184
    1C        C  747   2.724   2.833   2.306
    1C        C  748   2.683   2.899   2.425
    1C        C  749   2.738   2.855   2.547
    1C        C  750   2.729   2.834   2.068
    1C        C  751   3.654   2.296   1.992
    1C        O  752   3.676   2.180   2.036
    1C        O  753   3.677   2.313   1.855
    1C        C  754   4.602   3.042   1.963
    1C        O  755   4.560   3.021   1.846
    1C        O  756   4.738   3.015   1.983
    1C        C  757   4.442   4.209   1.950
    1C        O  758   4.546   4.273   1.981
    1C        O  759   4.419   4.190   1.813
    1C        C  760   3.579   4.628   1.919
    1C        O  761   3.592   4.751   1.938
    1C        O  762   3.612   4.589   1.789
    1C        C  763   2.873   4.491   1.946
    1C        O  764   2.888   4.472   1.822
    1C        O  765   2.787   4.599   1.964
    1C        C  766   2.348   3.470   1.960
    1C        O  767   2.378   3.465   1.837
    1C        O  768   2.213   3.477   1.994
    1C        C  769   4.716   3.602   5.022
    1C        O  770   4.745   3.576   5.142
    1C        O  771   4.831   3.624   4.945
    1C        C  772   4.268   4.482   5.021
    1C        O  773   4.274   4.482   5.147
    1C        O  774   4.359   4.569   4.960
    1C        C  775   4.149   2.504   5.049
    1C        O  776   4.167   2.382   5.021
    1C        O  777   4.132   2.509   5.188
    1C        C  778   2.880   4.529   5.060
    1C        O  779   2.806   4.627   5.032
    1C        O  780   2.946   4.533   5.184
    1C        C  781   2.465   3.024   5.064
    1C        O  782   2.360   2.971   5.018
    1C        O  783   2.484   3.031   5.201
    1C        C  784   2.410   3.996   5.049
    1C        O  785   2.289   3.997   5.013
    1C        O  786   2.421   4.040   5.182
    1C        C  787   2.961   2.388   2.031
    1C        O  788   2.884   2.403   1.933
    1C        O  789   2.914   2.280   2.105
    1C        C  790   3.180   2.398   5.089
    1C        O  791   3.147   2.278   5.067
    1C        O  792   3.200   2.441   5.220
    1C        H  793   4.276   3.018   5.059
    1C        H  794   4.194   2.799   5.068
    1C        H  795   4.517   3.121   5.044
    1C        H  796   4.566   3.349   5.062
    1C        H  797   4.536   3.794   5.056
    1C        H  798   4.437   3.987   5.052
    1C        H  799   4.253   4.143   5.041
    1C        H  800   4.015   4.527   5.026
    1C        H  801   3.815   4.581   5.037
    1C        H  802   3.580   4.620   5.039
    1C        H  803   3.377   4.561   5.047
    1C        H  804   3.149   4.492   5.051
    1C        H  805   3.876   2.534   5.072
    1C        H  806   3.679   2.450   5.070
    1C        H  807   2.981   2.531   5.045
    1C        H  808   3.439   2.499   5.070
    1C        H  809   2.824   2.698   5.065
    1C        H  810   2.736   2.923   5.072
    1C        H  811   2.483   3.283   5.066
    1C        H  812   2.538   3.491   5.070
    1C        H  813   2.490   3.735   5.058
    1C        H  814   2.615   4.163   5.046
    1C        H  815   2.791   4.293   5.056
    1C        H  816   2.660   2.827   1.986
    1C        H  817   2.806   2.651   1.995
    1C        H  818   3.216   2.455   1.982
    1C        H  819   3.434   2.474   1.977
    1C        H  820   3.832   2.559   1.976
    1C        H  821   4.083   2.571   1.979
    1C        H  822   4.243   2.724   1.967
    1C        H  823   4.349   2.938   1.963
    1C        H  824   4.584   3.310   1.972
    1C        H  825   4.447   3.517   1.980
    1C        H  826   4.566   3.746   1.967
    1C        H  827   3.805   4.527   1.948
    1C        H  828   3.991   4.412   1.948
    1C        H  829   4.154   4.244   1.942
    1C        H  830   4.438   3.946   1.953
    1C        H  831   2.637   3.842   1.959
    1C        H  832   2.746   4.039   1.972
    1C        H  833   2.729   4.273   1.961
    1C        H  834   3.374   4.489   1.945
    1C        H  835   3.163   4.366   1.964
    1C        H  836   2.495   2.997   2.004
    1C        H  837   2.477   3.228   1.968
    1C        H  838   2.544   3.655   1.968
    2V3OU   H29  839   2.811   3.543   1.097
    2V3OU   C27  840   2.779   3.494   1.193
    2V3OU   H27  841   2.721   3.561   1.260
    2V3OU   H28  842   2.726   3.397   1.173
    2V3OU   O11  843   2.907   3.468   1.251
    2V3OU   C15  844   2.919   3.392   1.366
    2V3OU   C13  845   3.050   3.374   1.416
    2V3OU   C14  846   3.072   3.269   1.507
    2V3OU   C16  847   2.969   3.187   1.551
    2V3OU    H6  848   2.987   3.102   1.618
    2V3OU   C12  849   3.209   3.228   1.546
    2V3OU    O2  850   3.232   3.112   1.585
    2V3OU   C10  851   3.323   3.309   1.503
    2V3OU    C8  852   3.454   3.267   1.522
    2V3OU   O10  853   3.485   3.154   1.590
    2V3OU   H26  854   3.399   3.113   1.606
    2V3OU    C6  855   3.563   3.347   1.474
    2V3OU    C5  856   3.535   3.464   1.405
    2V3OU    C4  857   3.703   3.294   1.470
    2V3OU    H4  858   3.720   3.223   1.556
    2V3OU    H5  859   3.709   3.228   1.379
    2V3OU    C2  860   3.815   3.398   1.467
    2V3OU    O6  861   3.799   3.473   1.588
    2V3OU   H21  862   3.757   3.551   1.547
    2V3OU    C3  863   3.780   3.499   1.358
    2V3OU    H2  864   3.864   3.572   1.345
    2V3OU    H3  865   3.776   3.439   1.263
    2V3OU   C25  866   3.948   3.326   1.444
    2V3OU    O7  867   3.987   3.288   1.333
    2V3OU   C26  868   4.031   3.288   1.565
    2V3OU   H22  869   4.062   3.384   1.614
    2V3OU   H23  870   4.118   3.226   1.535
    2V3OU    O8  871   3.955   3.209   1.654
    2V3OU   H24  872   3.931   3.264   1.730
    2V3OU    C1  873   3.643   3.563   1.374
    2V3OU    H1  874   3.619   3.619   1.279
    2V3OU    O3  875   3.657   3.653   1.485
    2V3OU   C19  876   3.616   3.789   1.478
    2V3OU    H9  877   3.520   3.802   1.419
    2V3OU    O4  878   3.716   3.848   1.397
    2V3OU   C20  879   3.847   3.873   1.446
    2V3OU   H10  880   3.894   3.770   1.455
    2V3OU   C24  881   3.607   3.850   1.618
    2V3OU   H16  882   3.540   3.784   1.678
    2V3OU   H17  883   3.551   3.945   1.598
    2V3OU   C23  884   3.746   3.871   1.678
    2V3OU   H15  885   3.792   3.769   1.701
    2V3OU    N1  886   3.737   3.948   1.801
    2V3OU   H19  887   3.806   3.924   1.870
    2V3OU   H20  888   3.648   3.933   1.844
    2V3OU   C21  889   3.847   3.942   1.583
    2V3OU   H11  890   3.950   3.923   1.625
    2V3OU    O5  891   3.829   4.082   1.584
    2V3OU   H18  892   3.779   4.100   1.666
    2V3OU   C22  893   3.912   3.947   1.330
    2V3OU   H12  894   3.859   4.044   1.311
    2V3OU   H13  895   3.902   3.889   1.235
    2V3OU   H14  896   4.022   3.958   1.349
    2V3OU   C11  897   3.159   3.468   1.389
    2V3OU    O1  898   3.135   3.577   1.334
    2V3OU    C9  899   3.297   3.423   1.421
    2V3OU    C7  900   3.401   3.500   1.371
    2V3OU    O9  901   3.383   3.617   1.301
    2V3OU   H25  902   3.287   3.629   1.308
    2V3OU   C17  903   2.814   3.308   1.408
    2V3OU    H7  904   2.709   3.339   1.408
    2V3OU   C18  905   2.841   3.206   1.498
    2V3OU    H8  906   2.754   3.147   1.531
    3SOL     OW  907   1.129   3.009   0.577
    3SOL    HW1  908   1.083   3.097   0.585
    3SOL    HW2  909   1.228   3.022   0.584
    4SOL     OW  910   5.541   0.439   1.961
    4SOL    HW1  911   5.525   0.463   2.057
    4SOL    HW2  912   5.553   0.522   1.907
    5SOL     OW  913   3.548   2.704   1.314
    5SOL    HW1  914   3.584   2.628   1.260
    5SOL    HW2  915   3.518   2.670   1.403
    6SOL     OW  916   3.100   2.005   1.271
    6SOL    HW1  917   3.019   1.958   1.234
    6SOL    HW2  918   3.078   2.101   1.287
    7SOL     OW  919   5.820   1.207   1.629
    7SOL    HW1  920   5.721   1.198   1.643
    7SOL    HW2  921   5.856   1.126   1.583
    8SOL     OW  922   2.480   1.253   4.393
    8SOL    HW1  923   2.385   1.263   4.362
    8SOL    HW2  924   2.493   1.162   4.431
    9SOL     OW  925   1.299   3.585   5.824
    9SOL    HW1  926   1.199   3.590   5.823
    9SOL    HW2  927   1.330   3.525   5.750
   10SOL     OW  928   0.383   3.782   0.171
   10SOL    HW1  929   0.418   3.794   0.079
   10SOL    HW2  930   0.390   3.869   0.221
   11SOL     OW  931   3.827   6.672   0.051
   11SOL    HW1  932   3.837   6.608   6.993
   11SOL    HW2  933   3.739   6.657   0.095
   12SOL     OW  934   5.662   6.069   2.393
   12SOL    HW1  935   5.713   6.084   2.478
   12SOL    HW2  936   5.720   6.023   2.326
   13SOL     OW  937   2.479   6.328   3.464
   13SOL    HW1  938   2.439   6.281   3.385
   13SOL    HW2  939   2.454   6.425   3.462
   14SOL     OW  940   3.160   6.337   1.288
   14SOL    HW1  941   3.149   6.436   1.285
   14SOL    HW2  942   3.183   6.303   1.196
   15SOL     OW  943   1.665   6.073   6.308
   15SOL    HW1  944   1.744   6.078   6.247
   15SOL    HW2  945   1.593   6.134   6.275
   16SOL     OW  946   6.427   1.867   6.008
   16SOL    HW1  947   6.330   1.891   5.996
   16SOL    HW2  948   6.474   1.873   5.920
   17SOL     OW  949   5.460   6.541   4.395
   17SOL    HW1  950   5.499   6.529   4.486
   17SOL    HW2  951   5.381   6.602   4.400
   18SOL     OW  952   1.580   1.265   6.816
   18SOL    HW1  953   1.494   1.255   6.766
   18SOL    HW2  954   1.625   1.350   6.787
   19SOL     OW  955   0.636   0.072   1.905
   19SOL    HW1  956   0.715   0.065   1.843
   19SOL    HW2  957   0.636   7.012   1.967
   20SOL     OW  958   3.403   1.718   4.668
   20SOL    HW1  959   3.314   1.735   4.626
   20SOL    HW2  960   3.475   1.758   4.612
   21SOL     OW  961   2.897   2.535   1.028
   21SOL    HW1  962   2.846   2.580   1.102
   21SOL    HW2  963   2.917   2.601   0.956
   22SOL     OW  964   0.900   0.364   6.113
   22SOL    HW1  965   0.995   0.348   6.083
   22SOL    HW2  966   0.844   0.386   6.033
   23SOL     OW  967   3.759   6.650   4.457
   23SOL    HW1  968   3.853   6.678   4.474
   23SOL    HW2  969   3.755   6.592   4.376
   24SOL     OW  970   4.234   1.395   4.602
   24SOL    HW1  971   4.326   1.370   4.632
   24SOL    HW2  972   4.168   1.332   4.642
   25SOL     OW  973   3.502   5.642   0.896
   25SOL    HW1  974   3.494   5.544   0.873
   25SOL    HW2  975   3.501   5.653   0.995
   26SOL     OW  976   6.466   1.484   2.487
   26SOL    HW1  977   6.450   1.476   2.388
   26SOL    HW2  978   6.446   1.577   2.516
   27SOL     OW  979   6.300   6.363   2.301
   27SOL    HW1  980   6.368   6.428   2.267
   27SOL    HW2  981   6.237   6.339   2.227
   28SOL     OW  982   3.361   0.326   0.013
   28SOL    HW1  983   3.383   0.349   0.107
   28SOL    HW2  984   3.399   0.395   6.970
   29SOL     OW  985   4.082   2.407   1.712
   29SOL    HW1  986   4.155   2.378   1.773
   29SOL    HW2  987   4.116   2.476   1.649
   30SOL     OW  988   3.824   0.361   4.460
   30SOL    HW1  989   3.758   0.286   4.462
   30SOL    HW2  990   3.785   0.441   4.506
   31SOL     OW  991   0.077   0.864   5.690
   31SOL    HW1  992   0.083   0.892   5.594
   31SOL    HW2  993   0.151   0.907   5.742
   32SOL     OW  994   0.231   1.678   1.808
   32SOL    HW1  995   0.296   1.618   1.762
   32SOL    HW2  996   0.263   1.773   1.802
   33SOL     OW  997   1.599   2.046   5.454
   33SOL    HW1  998   1.605   1.971   5.520
   33SOL    HW2  999   1.579   2.008   5.363
   34SOL     OW 1000   1.178   0.652   4.880
   34SOL    HW1 1001   1.148   0.678   4.788
   34SOL    HW2 1002   1.149   0.558   4.900
   35SOL     OW 1003   3.984   1.414   6.174
   35SOL    HW1 1004   4.000   1.318   6.150
   35SOL    HW2 1005   4.067   1.467   6.156
   36SOL     OW 1006   1.585   1.942   5.903
   36SOL    HW1 1007   1.676   1.951   5.943
   36SOL    HW2 1008   1.555   2.031   5.868
   37SOL     OW 1009   2.540   6.703   1.742
   37SOL    HW1 1010   2.580   6.627   1.794
   37SOL    HW2 1011   2.501   6.770   1.806
   38SOL     OW 1012   0.129   5.968   3.001
   38SOL    HW1 1013   0.163   5.874   2.994
   38SOL    HW2 1014   0.038   5.974   2.959
   39SOL     OW 1015   7.003   3.295   4.985
   39SOL    HW1 1016   6.958   3.220   5.033
   39SOL    HW2 1017   0.084   3.284   4.992
   40SOL     OW 1018   6.756   0.696   1.555
   40SOL    HW1 1019   6.812   0.745   1.621
   40SOL    HW2 1020   6.767   0.598   1.567
   41SOL     OW 1021   1.193   6.756   5.799
   41SOL    HW1 1022   1.285   6.746   5.838
   41SOL    HW2 1023   1.154   6.843   5.828
   42SOL     OW 1024   3.523   0.560   6.960
   42SOL    HW1 1025   3.607   0.528   7.005
   42SOL    HW2 1026   3.538   0.652   6.923
   43SOL     OW 1027   5.352   5.431   5.198
   43SOL    HW1 1028   5.342   5.383   5.111
   43SOL    HW2 1029   5.266   5.426   5.249
   44SOL     OW 1030   0.656   3.351   6.386
   44SOL    HW1 1031   0.658   3.444   6.422
   44SOL    HW2 1032   0.565   3.312   6.399
   45SOL     OW 1033   3.144   0.336   2.104
   45SOL    HW1 1034   3.133   0.288   2.016
   45SOL    HW2 1035   3.190   0.424   2.088
   46SOL     OW 1036   1.711   4.048   3.963
   46SOL    HW1 1037   1.648   4.055   4.040
   46SOL    HW2 1038   1.677   4.104   3.887
   47SOL     OW 1039   6.435   4.815   3.256
   47SOL    HW1 1040   6.482   4.834   3.170
   47SOL    HW2 1041   6.486   4.857   3.331
   48SOL     OW 1042   0.956   2.689   5.235
   48SOL    HW1 1043   0.992   2.677   5.328
   48SOL    HW2 1044   0.876   2.631   5.222
   49SOL     OW 1045   4.744   2.185   0.674
   49SOL    HW1 1046   4.750   2.184   0.774
   49SOL    HW2 1047   4.666   2.241   0.646
   50SOL     OW 1048   6.726   4.023   4.363
   50SOL    HW1 1049   6.823   4.047   4.358
   50SOL    HW2 1050   6.672   4.089   4.311
   51SOL     OW 1051   3.770   5.470   2.745
   51SOL    HW1 1052   3.687   5.526   2.737
   51SOL    HW2 1053   3.824   5.479   2.661
   52SOL     OW 1054   1.465   2.363   1.683
   52SOL    HW1 1055   1.547   2.364   1.625
   52SOL    HW2 1056   1.486   2.407   1.771
   53SOL     OW 1057   4.843   0.436   3.975
   53SOL    HW1 1058   4.820   0.493   4.053
   53SOL    HW2 1059   4.936   0.456   3.946
   54SOL     OW 1060   4.009   5.303   5.599
   54SOL    HW1 1061   4.086   5.328   5.542
   54SOL    HW2 1062   3.964   5.222   5.561
   55SOL     OW 1063   4.123   2.173   0.733
   55SOL    HW1 1064   4.154   2.267   0.717
   55SOL    HW2 1065   4.090   2.134   0.647
   56SOL     OW 1066   1.055   0.269   2.000
   56SOL    HW1 1067   0.970   0.223   2.028
   56SOL    HW2 1068   1.049   0.366   2.024
   57SOL     OW 1069   5.907   0.490   0.249
   57SOL    HW1 1070   5.809   0.475   0.264
   57SOL    HW2 1071   5.931   0.583   0.276
   58SOL     OW 1072   6.939   6.424   7.006
   58SOL    HW1 1073   6.986   6.513   7.001
   58SOL    HW2 1074   6.871   6.418   6.933
   59SOL     OW 1075   1.288   0.184   5.181
   59SOL    HW1 1076   1.222   0.112   5.162
   59SOL    HW2 1077   1.369   0.144   5.225
   60SOL     OW 1078   4.777   6.901   4.661
   60SOL    HW1 1079   4.786   6.965   4.584
   60SOL    HW2 1080   4.691   6.919   4.709
   61SOL     OW 1081   4.079   0.287   4.498
   61SOL    HW1 1082   3.982   0.310   4.487
   61SOL    HW2 1083   4.096   0.195   4.461
   62SOL     OW 1084   1.907   1.069   4.351
   62SOL    HW1 1085   1.875   1.093   4.260
   62SOL    HW2 1086   1.839   1.098   4.419
   63SOL     OW 1087   0.171   3.340   3.048
   63SOL    HW1 1088   0.199   3.251   3.083
   63SOL    HW2 1089   0.072   3.341   3.033
   64SOL     OW 1090   7.012   3.399   5.738
   64SOL    HW1 1091   0.084   3.402   5.696
   64SOL    HW2 1092   6.981   3.492   5.757
   65SOL     OW 1093   6.804   4.461   5.987
   65SOL    HW1 1094   6.744   4.537   5.961
   65SOL    HW2 1095   6.898   4.495   5.993
   66SOL     OW 1096   2.715   1.313   0.633
   66SOL    HW1 1097   2.715   1.258   0.549
   66SOL    HW2 1098   2.621   1.334   0.659
   67SOL     OW 1099   5.407   5.889   4.432
   67SOL    HW1 1100   5.426   5.987   4.439
   67SOL    HW2 1101   5.334   5.874   4.366
   68SOL     OW 1102   5.345   2.017   5.696
   68SOL    HW1 1103   5.375   1.951   5.627
   68SOL    HW2 1104   5.346   1.974   5.786
   69SOL     OW 1105   2.771   3.316   6.423
   69SOL    HW1 1106   2.845   3.281   6.479
   69SOL    HW2 1107   2.688   3.325   6.479
   70SOL     OW 1108   0.328   4.880   1.924
   70SOL    HW1 1109   0.277   4.799   1.953
   70SOL    HW2 1110   0.344   4.876   1.826
   71SOL     OW 1111   1.365   2.237   3.078
   71SOL    HW1 1112   1.380   2.200   2.987
   71SOL    HW2 1113   1.331   2.331   3.071
   72SOL     OW 1114   3.461   5.372   4.072
   72SOL    HW1 1115   3.488   5.292   4.018
   72SOL    HW2 1116   3.490   5.455   4.025
   73SOL     OW 1117   4.507   2.601   0.198
   73SOL    HW1 1118   4.448   2.604   0.279
   73SOL    HW2 1119   4.452   2.617   0.116
   74SOL     OW 1120   5.321   5.709   5.765
   74SOL    HW1 1121   5.335   5.748   5.673
   74SOL    HW2 1122   5.231   5.734   5.799
   75SOL     OW 1123   3.944   5.484   5.771
   75SOL    HW1 1124   3.866   5.534   5.736
   75SOL    HW2 1125   3.965   5.407   5.710
   76SOL     OW 1126   2.517   3.020   1.307
   76SOL    HW1 1127   2.481   3.070   1.229
   76SOL    HW2 1128   2.545   3.084   1.378
   77SOL     OW 1129   5.628   5.494   6.745
   77SOL    HW1 1130   5.535   5.510   6.714
   77SOL    HW2 1131   5.691   5.555   6.697
   78SOL     OW 1132   6.707   6.536   6.019
   78SOL    HW1 1133   6.629   6.566   6.074
   78SOL    HW2 1134   6.678   6.465   5.956
   79SOL     OW 1135   2.993   0.121   6.640
   79SOL    HW1 1136   3.034   0.036   6.609
   79SOL    HW2 1137   2.961   0.173   6.560
   80SOL     OW 1138   0.070   1.682   4.009
   80SOL    HW1 1139   0.038   1.720   3.921
   80SOL    HW2 1140   0.031   1.591   4.021
   81SOL     OW 1141   1.326   0.581   3.486
   81SOL    HW1 1142   1.326   0.639   3.567
   81SOL    HW2 1143   1.412   0.530   3.481
   82SOL     OW 1144   0.074   4.803   5.275
   82SOL    HW1 1145   0.126   4.791   5.360
   82SOL    HW2 1146   0.027   4.718   5.252
   83SOL     OW 1147   0.117   6.971   0.498
   83SOL    HW1 1148   0.149   0.044   0.525
   83SOL    HW2 1149   0.027   6.955   0.539
   84SOL     OW 1150   6.071   3.966   1.626
   84SOL    HW1 1151   6.011   4.043   1.602
   84SOL    HW2 1152   6.029   3.913   1.699
   85SOL     OW 1153   0.526   3.110   5.303
   85SOL    HW1 1154   0.508   3.013   5.322
   85SOL    HW2 1155   0.531   3.161   5.389
   86SOL     OW 1156   0.963   0.961   5.596
   86SOL    HW1 1157   0.972   0.922   5.688
   86SOL    HW2 1158   1.016   0.906   5.532
   87SOL     OW 1159   3.940   0.902   1.166
   87SOL    HW1 1160   3.864   0.967   1.163
   87SOL    HW2 1161   4.025   0.952   1.188
   88SOL     OW 1162   5.292   0.556   0.610
   88SOL    HW1 1163   5.207   0.580   0.564
   88SOL    HW2 1164   5.271   0.513   0.698
   89SOL     OW 1165   1.745   2.466   6.068
   89SOL    HW1 1166   1.654   2.453   6.028
   89SOL    HW2 1167   1.811   2.483   5.995
   90SOL     OW 1168   5.829   6.577   3.825
   90SOL    HW1 1169   5.814   6.499   3.885
   90SOL    HW2 1170   5.809   6.550   3.730
   91SOL     OW 1171   4.671   4.885   4.902
   91SOL    HW1 1172   4.599   4.860   4.966
   91SOL    HW2 1173   4.712   4.802   4.864
   92SOL     OW 1174   3.120   5.015   1.680
   92SOL    HW1 1175   3.135   5.112   1.700
   92SOL    HW2 1176   3.131   4.998   1.582
   93SOL     OW 1177   3.449   5.287   5.576
   93SOL    HW1 1178   3.475   5.207   5.630
   93SOL    HW2 1179   3.384   5.258   5.505
   94SOL     OW 1180   2.463   5.954   0.065
   94SOL    HW1 1181   2.547   5.909   0.035
   94SOL    HW2 1182   2.461   5.957   0.165
   95SOL     OW 1183   6.565   0.558   5.026
   95SOL    HW1 1184   6.504   0.620   5.077
   95SOL    HW2 1185   6.511   0.485   4.984
   96SOL     OW 1186   1.747   0.247   5.239
   96SOL    HW1 1187   1.698   0.330   5.267
   96SOL    HW2 1188   1.776   0.255   5.144
   97SOL     OW 1189   6.522   3.382   5.269
   97SOL    HW1 1190   6.610   3.386   5.223
   97SOL    HW2 1191   6.524   3.311   5.339
   98SOL     OW 1192   6.020   2.489   5.954
   98SOL    HW1 1193   6.069   2.572   5.928
   98SOL    HW2 1194   5.989   2.441   5.872
   99SOL     OW 1195   4.532   2.187   1.022
   99SOL    HW1 1196   4.589   2.105   1.025
   99SOL    HW2 1197   4.460   2.175   0.953
  100SOL     OW 1198   6.631   5.189   6.217
  100SOL    HW1 1199   6.604   5.265   6.158
  100SOL    HW2 1200   6.698   5.221   6.283
  101SOL     OW 1201   1.175   6.398   3.926
  101SOL    HW1 1202   1.217   6.454   3.997
  101SOL    HW2 1203   1.111   6.454   3.873
  102SOL     OW 1204   4.611   0.067   3.836
  102SOL    HW1 1205   4.559   0.135   3.785
  102SOL    HW2 1206   4.650   0.109   3.918
  103SOL     OW 1207   3.956   1.758   1.248
  103SOL    HW1 1208   3.934   1.854   1.261
  103SOL    HW2 1209   3.967   1.713   1.336
  104SOL     OW 1210   0.208   5.861   2.079
  104SOL    HW1 1211   0.237   5.837   1.986
  104SOL    HW2 1212   0.223   5.959   2.094
  105SOL     OW 1213   4.987   1.221   5.789
  105SOL    HW1 1214   4.978   1.122   5.787
  105SOL    HW2 1215   5.069   1.247   5.840
  106SOL     OW 1216   2.799   6.561   6.445
  106SOL    HW1 1217   2.757   6.476   6.415
  106SOL    HW2 1218   2.735   6.637   6.433
  107SOL     OW 1219   2.514   3.560   0.834
  107SOL    HW1 1220   2.533   3.469   0.871
  107SOL    HW2 1221   2.469   3.615   0.904
  108SOL     OW 1222   4.962   4.403   5.611
  108SOL    HW1 1223   5.007   4.360   5.533
  108SOL    HW2 1224   4.983   4.501   5.612
  109SOL     OW 1225   6.567   1.143   0.964
  109SOL    HW1 1226   6.570   1.099   1.054
  109SOL    HW2 1227   6.657   1.184   0.944
  110SOL     OW 1228   3.968   5.760   4.987
  110SOL    HW1 1229   3.956   5.849   5.032
  110SOL    HW2 1230   3.931   5.688   5.045
  111SOL     OW 1231   3.743   1.084   3.387
  111SOL    HW1 1232   3.738   0.995   3.432
  111SOL    HW2 1233   3.676   1.146   3.428
  112SOL     OW 1234   0.514   0.231   6.392
  112SOL    HW1 1235   0.472   0.319   6.415
  112SOL    HW2 1236   0.453   0.179   6.333
  113SOL     OW 1237   0.287   5.294   3.352
  113SOL    HW1 1238   0.206   5.335   3.312
  113SOL    HW2 1239   0.365   5.356   3.342
  114SOL     OW 1240   0.659   6.847   0.255
  114SOL    HW1 1241   0.693   6.877   0.344
  114SOL    HW2 1242   0.665   6.923   0.190
  115SOL     OW 1243   5.092   1.161   4.664
  115SOL    HW1 1244   5.130   1.093   4.726
  115SOL    HW2 1245   5.005   1.127   4.628
  116SOL     OW 1246   6.318   4.508   2.201
  116SOL    HW1 1247   6.343   4.467   2.113
  116SOL    HW2 1248   6.398   4.552   2.241
  117SOL     OW 1249   1.740   6.951   6.671
  117SOL    HW1 1250   1.786   7.011   6.606
  117SOL    HW2 1251   1.643   6.973   6.675
  118SOL     OW 1252   1.051   0.476   2.556
  118SOL    HW1 1253   0.995   0.512   2.482
  118SOL    HW2 1254   1.044   0.536   2.636
  119SOL     OW 1255   6.830   3.415   6.530
  119SOL    HW1 1256   6.853   3.318   6.520
  119SOL    HW2 1257   6.875   3.452   6.611
  120SOL     OW 1258   5.822   6.534   0.901
  120SOL    HW1 1259   5.826   6.581   0.813
  120SOL    HW2 1260   5.914   6.520   0.936
  121SOL     OW 1261   2.406   2.974   5.980
  121SOL    HW1 1262   2.497   2.942   5.953
  121SOL    HW2 1263   2.414   3.060   6.030
  122SOL     OW 1264   0.775   3.227   4.288
  122SOL    HW1 1265   0.763   3.325   4.272
  122SOL    HW2 1266   0.872   3.203   4.276
  123SOL     OW 1267   0.756   1.632   1.468
  123SOL    HW1 1268   0.735   1.678   1.382
  123SOL    HW2 1269   0.679   1.574   1.494
  124SOL     OW 1270   4.764   3.069   0.732
  124SOL    HW1 1271   4.776   3.046   0.829
  124SOL    HW2 1272   4.782   3.167   0.719
  125SOL     OW 1273   2.172   3.577   1.705
  125SOL    HW1 1274   2.097   3.512   1.700
  125SOL    HW2 1275   2.236   3.550   1.777
  126SOL     OW 1276   3.258   4.768   1.420
  126SOL    HW1 1277   3.278   4.746   1.515
  126SOL    HW2 1278   3.238   4.866   1.412
  127SOL     OW 1279   0.363   6.123   6.470
  127SOL    HW1 1280   0.374   6.108   6.372
  127SOL    HW2 1281   0.387   6.039   6.519
  128SOL     OW 1282   4.610   2.728   1.516
  128SOL    HW1 1283   4.578   2.658   1.579
  128SOL    HW2 1284   4.583   2.818   1.549
  129SOL     OW 1285   2.636   4.142   6.564
  129SOL    HW1 1286   2.668   4.088   6.641
  129SOL    HW2 1287   2.643   4.088   6.480
  130SOL     OW 1288   1.357   1.897   4.393
  130SOL    HW1 1289   1.430   1.966   4.389
  130SOL    HW2 1290   1.269   1.943   4.398
  131SOL     OW 1291   5.313   1.624   2.919
  131SOL    HW1 1292   5.217   1.620   2.947
  131SOL    HW2 1293   5.325   1.697   2.851
  132SOL     OW 1294   0.831   2.413   0.604
  132SOL    HW1 1295   0.821   2.513   0.595
  132SOL    HW2 1296   0.856   2.391   0.698
  133SOL     OW 1297   6.680   5.610   2.438
  133SOL    HW1 1298   6.602   5.590   2.379
  133SOL    HW2 1299   6.765   5.587   2.389
  134SOL     OW 1300   0.341   3.527   2.953
  134SOL    HW1 1301   0.424   3.473   2.936
  134SOL    HW2 1302   0.269   3.467   2.989
  135SOL     OW 1303   4.987   0.915   4.240
  135SOL    HW1 1304   4.919   0.983   4.266
  135SOL    HW2 1305   5.077   0.943   4.275
  136SOL     OW 1306   5.703   4.775   5.019
  136SOL    HW1 1307   5.756   4.699   4.981
  136SOL    HW2 1308   5.758   4.822   5.088
  137SOL     OW 1309   4.013   6.976   5.618
  137SOL    HW1 1310   4.109   6.998   5.638
  137SOL    HW2 1311   3.971   6.936   5.700
  138SOL     OW 1312   6.667   5.307   4.708
  138SOL    HW1 1313   6.735   5.267   4.769
  138SOL    HW2 1314   6.578   5.266   4.726
  139SOL     OW 1315   3.793   5.110   5.708
  139SOL    HW1 1316   3.773   5.202   5.675
  139SOL    HW2 1317   3.707   5.061   5.725
  140SOL     OW 1318   6.252   4.419   4.668
  140SOL    HW1 1319   6.295   4.330   4.654
  140SOL    HW2 1320   6.308   4.490   4.624
  141SOL     OW 1321   1.547   1.976   4.041
  141SOL    HW1 1322   1.561   2.032   4.123
  141SOL    HW2 1323   1.598   2.015   3.964
  142SOL     OW 1324   1.815   5.280   1.509
  142SOL    HW1 1325   1.903   5.251   1.471
  142SOL    HW2 1326   1.830   5.342   1.586
  143SOL     OW 1327   5.818   4.060   1.886
  143SOL    HW1 1328   5.750   4.102   1.946
  143SOL    HW2 1329   5.895   4.123   1.874
  144SOL     OW 1330   2.517   0.083   0.099
  144SOL    HW1 1331   2.424   0.112   0.074
  144SOL    HW2 1332   2.563   0.046   0.019
  145SOL     OW 1333   0.271   5.423   0.582
  145SOL    HW1 1334   0.261   5.376   0.670
  145SOL    HW2 1335   0.211   5.502   0.579
  146SOL     OW 1336   5.828   5.292   0.868
  146SOL    HW1 1337   5.904   5.228   0.855
  146SOL    HW2 1338   5.806   5.298   0.965
  147SOL     OW 1339   6.234   2.265   1.318
  147SOL    HW1 1340   6.296   2.187   1.329
  147SOL    HW2 1341   6.142   2.231   1.296
  148SOL     OW 1342   1.072   5.289   5.636
  148SOL    HW1 1343   1.160   5.288   5.588
  148SOL    HW2 1344   0.999   5.268   5.572
  149SOL     OW 1345   3.213   0.933   5.077
  149SOL    HW1 1346   3.227   0.923   5.176
  149SOL    HW2 1347   3.116   0.927   5.057
  150SOL     OW 1348   0.325   5.289   6.970
  150SOL    HW1 1349   0.302   5.377   6.930
  150SOL    HW2 1350   0.347   5.301   0.048
  151SOL     OW 1351   3.933   1.640   1.476
  151SOL    HW1 1352   3.943   1.717   1.538
  151SOL    HW2 1353   3.977   1.559   1.516
  152SOL     OW 1354   3.374   0.852   4.443
  152SOL    HW1 1355   3.385   0.911   4.363
  152SOL    HW2 1356   3.288   0.875   4.489
  153SOL     OW 1357   2.259   1.568   3.323
  153SOL    HW1 1358   2.221   1.661   3.329
  153SOL    HW2 1359   2.290   1.539   3.413
  154SOL     OW 1360   6.857   2.264   2.237
  154SOL    HW1 1361   6.798   2.190   2.205
  154SOL    HW2 1362   6.948   2.229   2.254
  155SOL     OW 1363   0.263   1.243   3.383
  155SOL    HW1 1364   0.338   1.204   3.330
  155SOL    HW2 1365   0.193   1.278   3.322
  156SOL     OW 1366   6.577   2.295   0.849
  156SOL    HW1 1367   6.599   2.243   0.932
  156SOL    HW2 1368   6.478   2.314   0.847
  157SOL     OW 1369   5.800   3.502   2.536
  157SOL    HW1 1370   5.744   3.497   2.619
  157SOL    HW2 1371   5.777   3.426   2.475
  158SOL     OW 1372   1.888   0.997   3.061
  158SOL    HW1 1373   1.905   1.095   3.073
  158SOL    HW2 1374   1.835   0.962   3.139
  159SOL     OW 1375   4.984   4.009   2.228
  159SOL    HW1 1376   4.956   4.053   2.142
  159SOL    HW2 1377   5.082   4.021   2.241
  160SOL     OW 1378   6.604   4.119   5.795
  160SOL    HW1 1379   6.687   4.174   5.807
  160SOL    HW2 1380   6.571   4.129   5.701
  161SOL     OW 1381   2.698   4.948   4.817
  161SOL    HW1 1382   2.751   4.921   4.897
  161SOL    HW2 1383   2.673   4.866   4.765
  162SOL     OW 1384   4.297   5.791   1.558
  162SOL    HW1 1385   4.389   5.822   1.581
  162SOL    HW2 1386   4.232   5.867   1.570
  163SOL     OW 1387   4.351   0.853   2.219
  163SOL    HW1 1388   4.327   0.937   2.170
  163SOL    HW2 1389   4.370   0.874   2.315
  164SOL     OW 1390   5.597   3.374   1.006
  164SOL    HW1 1391   5.579   3.430   0.925
  164SOL    HW2 1392   5.512   3.358   1.055
  165SOL     OW 1393   4.885   3.586   6.542
  165SOL    HW1 1394   4.949   3.659   6.518
  165SOL    HW2 1395   4.914   3.545   6.629
  166SOL     OW 1396   1.243   0.443   2.357
  166SOL    HW1 1397   1.166   0.394   2.317
  166SOL    HW2 1398   1.223   0.467   2.452
  167SOL     OW 1399   6.469   2.792   0.165
  167SOL    HW1 1400   6.449   2.790   0.067
  167SOL    HW2 1401   6.559   2.752   0.182
  168SOL     OW 1402   2.235   5.401   0.771
  168SOL    HW1 1403   2.228   5.309   0.732
  168SOL    HW2 1404   2.308   5.451   0.723
  169SOL     OW 1405   1.978   6.361   1.848
  169SOL    HW1 1406   1.879   6.354   1.847
  169SOL    HW2 1407   2.008   6.403   1.933
  170SOL     OW 1408   0.326   1.540   3.083
  170SOL    HW1 1409   0.322   1.570   3.179
  170SOL    HW2 1410   0.285   1.610   3.025
  171SOL     OW 1411   3.443   3.760   0.076
  171SOL    HW1 1412   3.523   3.709   0.046
  171SOL    HW2 1413   3.361   3.718   0.037
  172SOL     OW 1414   0.286   2.876   6.185
  172SOL    HW1 1415   0.237   2.796   6.152
  172SOL    HW2 1416   0.379   2.877   6.147
  173SOL     OW 1417   0.250   6.440   5.701
  173SOL    HW1 1418   0.194   6.520   5.718
  173SOL    HW2 1419   0.316   6.428   5.775
  174SOL     OW 1420   2.783   5.256   3.823
  174SOL    HW1 1421   2.691   5.219   3.833
  174SOL    HW2 1422   2.782   5.327   3.752
  175SOL     OW 1423   0.917   5.780   3.025
  175SOL    HW1 1424   0.899   5.705   2.961
  175SOL    HW2 1425   1.013   5.777   3.054
  176SOL     OW 1426   2.398   4.829   0.973
  176SOL    HW1 1427   2.343   4.906   0.941
  176SOL    HW2 1428   2.338   4.759   1.013
  177SOL     OW 1429   4.645   2.034   2.667
  177SOL    HW1 1430   4.656   1.951   2.612
  177SOL    HW2 1431   4.608   2.010   2.757
  178SOL     OW 1432   5.322   5.288   6.454
  178SOL    HW1 1433   5.400   5.327   6.406
  178SOL    HW2 1434   5.311   5.192   6.427
  179SOL     OW 1435   3.202   0.450   0.367
  179SOL    HW1 1436   3.152   0.519   0.313
  179SOL    HW2 1437   3.250   0.495   0.442
  180SOL     OW 1438   0.691   2.172   6.745
  180SOL    HW1 1439   0.758   2.238   6.778
  180SOL    HW2 1440   0.602   2.218   6.734
  181SOL     OW 1441   3.293   3.053   5.588
  181SOL    HW1 1442   3.257   3.083   5.677
  181SOL    HW2 1443   3.254   2.963   5.566
  182SOL     OW 1444   4.262   2.335   4.766
  182SOL    HW1 1445   4.199   2.294   4.701
  182SOL    HW2 1446   4.218   2.339   4.856
  183SOL     OW 1447   5.184   1.425   2.004
  183SOL    HW1 1448   5.139   1.338   2.021
  183SOL    HW2 1449   5.281   1.410   1.986
  184SOL     OW 1450   0.231   4.570   2.961
  184SOL    HW1 1451   0.305   4.505   2.977
  184SOL    HW2 1452   0.243   4.613   2.871
  185SOL     OW 1453   1.931   3.858   6.593
  185SOL    HW1 1454   1.997   3.837   6.521
  185SOL    HW2 1455   1.974   3.845   6.683
  186SOL     OW 1456   5.594   6.848   3.051
  186SOL    HW1 1457   5.683   6.867   3.008
  186SOL    HW2 1458   5.608   6.787   3.130
  187SOL     OW 1459   5.620   1.090   3.950
  187SOL    HW1 1460   5.673   1.108   3.867
  187SOL    HW2 1461   5.654   1.147   4.025
  188SOL     OW 1462   6.348   2.170   3.651
  188SOL    HW1 1463   6.325   2.165   3.554
  188SOL    HW2 1464   6.444   2.196   3.661
  189SOL     OW 1465   2.493   4.454   2.708
  189SOL    HW1 1466   2.446   4.494   2.629
  189SOL    HW2 1467   2.434   4.387   2.752
  190SOL     OW 1468   3.434   1.076   5.578
  190SOL    HW1 1469   3.377   1.139   5.527
  190SOL    HW2 1470   3.509   1.126   5.622
  191SOL     OW 1471   4.907   6.028   6.321
  191SOL    HW1 1472   4.996   5.983   6.317
  191SOL    HW2 1473   4.843   5.982   6.259
  192SOL     OW 1474   6.830   0.806   1.324
  192SOL    HW1 1475   6.793   0.754   1.401
  192SOL    HW2 1476   6.924   0.775   1.305
  193SOL     OW 1477   5.516   4.223   6.882
  193SOL    HW1 1478   5.594   4.234   6.943
  193SOL    HW2 1479   5.524   4.137   6.832
  194SOL     OW 1480   3.364   0.447   3.487
  194SOL    HW1 1481   3.384   0.544   3.470
  194SOL    HW2 1482   3.430   0.390   3.437
  195SOL     OW 1483   0.426   5.527   3.329
  195SOL    HW1 1484   0.379   5.615   3.340
  195SOL    HW2 1485   0.487   5.532   3.249
  196SOL     OW 1486   0.565   1.909   0.197
  196SOL    HW1 1487   0.641   1.931   0.136
  196SOL    HW2 1488   0.584   1.824   0.245
  197SOL     OW 1489   1.618   0.898   0.894
  197SOL    HW1 1490   1.589   0.804   0.905
  197SOL    HW2 1491   1.702   0.914   0.947
  198SOL     OW 1492   3.465   2.105   3.861
  198SOL    HW1 1493   3.458   2.177   3.791
  198SOL    HW2 1494   3.461   2.015   3.817
  199SOL     OW 1495   1.377   2.517   4.041
  199SOL    HW1 1496   1.311   2.517   3.965
  199SOL    HW2 1497   1.435   2.598   4.034
  200SOL     OW 1498   6.813   2.608   0.005
  200SOL    HW1 1499   6.780   2.515   0.016
  200SOL    HW2 1500   6.868   2.615   6.940
  201SOL     OW 1501   0.832   0.789   6.744
  201SOL    HW1 1502   0.755   0.793   6.808
  201SOL    HW2 1503   0.913   0.755   6.792
  202SOL     OW 1504   4.583   6.774   0.303
  202SOL    HW1 1505   4.671   6.745   0.266
  202SOL    HW2 1506   4.522   6.695   0.310
  203SOL     OW 1507   5.804   2.806   5.999
  203SOL    HW1 1508   5.839   2.713   6.011
  203SOL    HW2 1509   5.852   2.869   6.060
  204SOL     OW 1510   6.195   1.559   5.911
  204SOL    HW1 1511   6.184   1.587   5.816
  204SOL    HW2 1512   6.287   1.521   5.923
  205SOL     OW 1513   1.242   3.039   2.686
  205SOL    HW1 1514   1.156   3.018   2.639
  205SOL    HW2 1515   1.303   2.961   2.681
  206SOL     OW 1516   0.545   3.820   0.495
  206SOL    HW1 1517   0.580   3.828   0.402
  206SOL    HW2 1518   0.614   3.853   0.559
  207SOL     OW 1519   5.594   2.321   4.461
  207SOL    HW1 1520   5.690   2.301   4.483
  207SOL    HW2 1521   5.564   2.402   4.512
  208SOL     OW 1522   1.572   4.221   4.260
  208SOL    HW1 1523   1.585   4.247   4.355
  208SOL    HW2 1524   1.492   4.160   4.253
  209SOL     OW 1525   6.525   4.350   2.417
  209SOL    HW1 1526   6.514   4.446   2.441
  209SOL    HW2 1527   6.550   4.342   2.321
  210SOL     OW 1528   4.790   2.741   6.898
  210SOL    HW1 1529   4.706   2.786   6.869
  210SOL    HW2 1530   4.796   2.742   6.998
  211SOL     OW 1531   0.044   1.778   2.596
  211SOL    HW1 1532   0.131   1.815   2.629
  211SOL    HW2 1533   7.001   1.763   2.673
  212SOL     OW 1534   1.852   3.443   2.692
  212SOL    HW1 1535   1.813   3.365   2.643
  212SOL    HW2 1536   1.948   3.454   2.666
  213SOL     OW 1537   1.498   5.552   1.404
  213SOL    HW1 1538   1.526   5.456   1.394
  213SOL    HW2 1539   1.414   5.557   1.457
  214SOL     OW 1540   5.154   6.210   1.693
  214SOL    HW1 1541   5.206   6.279   1.742
  214SOL    HW2 1542   5.209   6.175   1.616
  215SOL     OW 1543   2.611   5.032   3.233
  215SOL    HW1 1544   2.585   4.963   3.301
  215SOL    HW2 1545   2.550   5.025   3.154
  216SOL     OW 1546   0.852   6.883   2.322
  216SOL    HW1 1547   0.863   6.944   2.400
  216SOL    HW2 1548   0.936   6.829   2.311
  217SOL     OW 1549   1.611   4.459   6.131
  217SOL    HW1 1550   1.542   4.455   6.203
  217SOL    HW2 1551   1.612   4.372   6.081
  218SOL     OW 1552   1.485   1.810   4.825
  218SOL    HW1 1553   1.508   1.717   4.855
  218SOL    HW2 1554   1.424   1.853   4.892
  219SOL     OW 1555   4.528   1.809   0.788
  219SOL    HW1 1556   4.617   1.771   0.814
  219SOL    HW2 1557   4.476   1.832   0.870
  220SOL     OW 1558   3.019   0.047   0.528
  220SOL    HW1 1559   2.927   0.081   0.547
  220SOL    HW2 1560   3.047   0.078   0.437
  221SOL     OW 1561   4.486   5.635   2.215
  221SOL    HW1 1562   4.438   5.548   2.210
  221SOL    HW2 1563   4.474   5.685   2.129
  222SOL     OW 1564   2.333   5.030   6.628
  222SOL    HW1 1565   2.251   5.086   6.618
  222SOL    HW2 1566   2.321   4.945   6.577
  223SOL     OW 1567   6.003   2.858   5.317
  223SOL    HW1 1568   5.908   2.835   5.296
  223SOL    HW2 1569   6.064   2.807   5.257
  224SOL     OW 1570   2.496   1.399   6.402
  224SOL    HW1 1571   2.492   1.340   6.483
  224SOL    HW2 1572   2.492   1.495   6.429
  225SOL     OW 1573   4.182   5.986   5.353
  225SOL    HW1 1574   4.248   5.992   5.428
  225SOL    HW2 1575   4.106   6.049   5.372
  226SOL     OW 1576   0.771   2.448   6.787
  226SOL    HW1 1577   0.740   2.454   6.881
  226SOL    HW2 1578   0.871   2.455   6.784
  227SOL     OW 1579   1.307   3.739   1.413
  227SOL    HW1 1580   1.284   3.663   1.351
  227SOL    HW2 1581   1.380   3.710   1.475
  228SOL     OW 1582   1.516   6.712   2.668
  228SOL    HW1 1583   1.592   6.770   2.697
  228SOL    HW2 1584   1.536   6.672   2.579
  229SOL     OW 1585   4.331   5.981   5.972
  229SOL    HW1 1586   4.391   5.965   6.051
  229SOL    HW2 1587   4.283   6.068   5.984
  230SOL     OW 1588   4.863   5.812   4.735
  230SOL    HW1 1589   4.787   5.823   4.670
  230SOL    HW2 1590   4.832   5.757   4.813
  231SOL     OW 1591   5.396   1.654   6.849
  231SOL    HW1 1592   5.456   1.712   6.905
  231SOL    HW2 1593   5.413   1.672   6.752
  232SOL     OW 1594   1.484   2.197   5.737
  232SOL    HW1 1595   1.581   2.205   5.717
  232SOL    HW2 1596   1.434   2.179   5.652
  233SOL     OW 1597   3.116   1.616   3.007
  233SOL    HW1 1598   3.212   1.639   3.021
  233SOL    HW2 1599   3.109   1.525   2.965
  234SOL     OW 1600   4.574   0.992   0.111
  234SOL    HW1 1601   4.535   0.902   0.131
  234SOL    HW2 1602   4.672   0.983   0.097
  235SOL     OW 1603   4.825   2.893   3.362
  235SOL    HW1 1604   4.916   2.935   3.366
  235SOL    HW2 1605   4.807   2.861   3.270
  236SOL     OW 1606   4.708   4.914   5.947
  236SOL    HW1 1607   4.738   5.007   5.926
  236SOL    HW2 1608   4.689   4.906   6.045
  237SOL     OW 1609   6.545   3.594   2.988
  237SOL    HW1 1610   6.485   3.609   3.066
  237SOL    HW2 1611   6.493   3.552   2.914
  238SOL     OW 1612   6.463   1.751   0.968
  238SOL    HW1 1613   6.418   1.817   1.028
  238SOL    HW2 1614   6.399   1.722   0.897
  239SOL     OW 1615   1.706   3.631   0.431
  239SOL    HW1 1616   1.617   3.586   0.437
  239SOL    HW2 1617   1.759   3.589   0.357
  240SOL     OW 1618   5.452   3.201   3.358
  240SOL    HW1 1619   5.473   3.213   3.261
  240SOL    HW2 1620   5.362   3.242   3.377
  241SOL     OW 1621   3.467   1.784   3.827
  241SOL    HW1 1622   3.370   1.782   3.805
  241SOL    HW2 1623   3.510   1.701   3.793
  242SOL     OW 1624   3.257   3.851   2.832
  242SOL    HW1 1625   3.338   3.823   2.781
  242SOL    HW2 1626   3.206   3.918   2.777
  243SOL     OW 1627   4.365   2.565   6.136
  243SOL    HW1 1628   4.346   2.565   6.038
  243SOL    HW2 1629   4.453   2.609   6.153
  244SOL     OW 1630   4.990   3.479   5.111
  244SOL    HW1 1631   4.983   3.379   5.118
  244SOL    HW2 1632   4.899   3.519   5.110
  245SOL     OW 1633   3.395   1.688   2.995
  245SOL    HW1 1634   3.388   1.681   2.895
  245SOL    HW2 1635   3.484   1.725   3.019
  246SOL     OW 1636   6.553   1.187   2.228
  246SOL    HW1 1637   6.583   1.239   2.147
  246SOL    HW2 1638   6.629   1.133   2.262
  247SOL     OW 1639   1.970   0.977   1.380
  247SOL    HW1 1640   1.895   1.023   1.333
  247SOL    HW2 1641   2.042   1.043   1.400
  248SOL     OW 1642   1.734   2.395   2.321
  248SOL    HW1 1643   1.729   2.401   2.222
  248SOL    HW2 1644   1.777   2.478   2.358
  249SOL     OW 1645   5.512   6.324   4.845
  249SOL    HW1 1646   5.504   6.401   4.907
  249SOL    HW2 1647   5.498   6.238   4.895
  250SOL     OW 1648   4.534   2.669   0.956
  250SOL    HW1 1649   4.556   2.660   1.053
  250SOL    HW2 1650   4.516   2.765   0.935
  251SOL     OW 1651   4.147   3.837   5.638
  251SOL    HW1 1652   4.185   3.926   5.615
  251SOL    HW2 1653   4.213   3.766   5.616
  252SOL     OW 1654   6.122   6.248   5.529
  252SOL    HW1 1655   6.085   6.280   5.442
  252SOL    HW2 1656   6.213   6.287   5.542
  253SOL     OW 1657   3.797   6.359   6.138
  253SOL    HW1 1658   3.746   6.381   6.221
  253SOL    HW2 1659   3.881   6.311   6.161
  254SOL     OW 1660   5.729   2.764   5.070
  254SOL    HW1 1661   5.724   2.858   5.036
  254SOL    HW2 1662   5.703   2.762   5.166
  255SOL     OW 1663   1.736   3.920   6.183
  255SOL    HW1 1664   1.769   3.842   6.235
  255SOL    HW2 1665   1.640   3.906   6.159
  256SOL     OW 1666   4.893   2.505   5.031
  256SOL    HW1 1667   4.881   2.578   4.964
  256SOL    HW2 1668   4.820   2.437   5.020
  257SOL     OW 1669   4.984   6.758   2.751
  257SOL    HW1 1670   4.894   6.784   2.786
  257SOL    HW2 1671   4.984   6.661   2.727
  258SOL     OW 1672   1.757   3.301   5.638
  258SOL    HW1 1673   1.780   3.231   5.571
  258SOL    HW2 1674   1.813   3.288   5.720
  259SOL     OW 1675   3.475   6.857   3.920
  259SOL    HW1 1676   3.559   6.834   3.871
  259SOL    HW2 1677   3.419   6.918   3.864
  260SOL     OW 1678   3.639   5.796   3.708
  260SOL    HW1 1679   3.705   5.827   3.640
  260SOL    HW2 1680   3.555   5.767   3.662
  261SOL     OW 1681   4.225   4.873   0.101
  261SOL    HW1 1682   4.163   4.900   0.175
  261SOL    HW2 1683   4.175   4.868   0.015
  262SOL     OW 1684   1.920   3.547   6.621
  262SOL    HW1 1685   1.845   3.595   6.576
  262SOL    HW2 1686   1.988   3.613   6.653
  263SOL     OW 1687   0.905   5.862   4.169
  263SOL    HW1 1688   0.974   5.824   4.231
  263SOL    HW2 1689   0.910   5.814   4.081
  264SOL     OW 1690   6.981   3.914   6.734
  264SOL    HW1 1691   0.019   3.936   6.814
  264SOL    HW2 1692   0.015   3.855   6.672
  265SOL     OW 1693   6.845   0.014   4.475
  265SOL    HW1 1694   6.876   7.002   4.565
  265SOL    HW2 1695   6.787   6.962   4.434
  266SOL     OW 1696   3.739   0.901   5.809
  266SOL    HW1 1697   3.705   0.938   5.895
  266SOL    HW2 1698   3.662   0.865   5.756
  267SOL     OW 1699   1.391   0.831   4.442
  267SOL    HW1 1700   1.414   0.746   4.396
  267SOL    HW2 1701   1.395   0.819   4.541
  268SOL     OW 1702   3.386   1.118   1.406
  268SOL    HW1 1703   3.319   1.168   1.352
  268SOL    HW2 1704   3.340   1.076   1.485
  269SOL     OW 1705   3.958   1.877   0.029
  269SOL    HW1 1706   4.022   1.947   0.059
  269SOL    HW2 1707   3.910   1.908   6.965
  270SOL     OW 1708   6.461   6.730   0.655
  270SOL    HW1 1709   6.513   6.733   0.569
  270SOL    HW2 1710   6.478   6.814   0.706
  271SOL     OW 1711   1.217   2.954   6.304
  271SOL    HW1 1712   1.163   2.942   6.221
  271SOL    HW2 1713   1.301   2.901   6.298
  272SOL     OW 1714   2.702   6.560   4.116
  272SOL    HW1 1715   2.787   6.522   4.079
  272SOL    HW2 1716   2.709   6.659   4.122
  273SOL     OW 1717   1.527   4.968   6.245
  273SOL    HW1 1718   1.479   4.882   6.225
  273SOL    HW2 1719   1.509   5.033   6.172
  274SOL     OW 1720   4.462   1.915   3.969
  274SOL    HW1 1721   4.515   1.924   4.053
  274SOL    HW2 1722   4.477   1.994   3.911
  275SOL     OW 1723   6.839   6.523   2.077
  275SOL    HW1 1724   6.796   6.485   2.159
  275SOL    HW2 1725   6.938   6.531   2.092
  276SOL     OW 1726   0.534   1.081   4.747
  276SOL    HW1 1727   0.599   1.006   4.744
  276SOL    HW2 1728   0.536   1.124   4.837
  277SOL     OW 1729   2.058   3.817   0.758
  277SOL    HW1 1730   2.034   3.914   0.750
  277SOL    HW2 1731   2.095   3.799   0.850
  278SOL     OW 1732   0.290   2.551   1.777
  278SOL    HW1 1733   0.333   2.534   1.865
  278SOL    HW2 1734   0.191   2.539   1.785
  279SOL     OW 1735   6.111   2.163   4.209
  279SOL    HW1 1736   6.101   2.257   4.241
  279SOL    HW2 1737   6.088   2.158   4.111
  280SOL     OW 1738   1.680   4.615   2.121
  280SOL    HW1 1739   1.697   4.558   2.041
  280SOL    HW2 1740   1.692   4.711   2.096
  281SOL     OW 1741   2.556   4.435   0.976
  281SOL    HW1 1742   2.564   4.519   1.030
  281SOL    HW2 1743   2.575   4.356   1.034
  282SOL     OW 1744   3.100   2.411   5.845
  282SOL    HW1 1745   3.031   2.340   5.835
  282SOL    HW2 1746   3.061   2.488   5.895
  283SOL     OW 1747   4.529   2.574   5.873
  283SOL    HW1 1748   4.588   2.507   5.918
  283SOL    HW2 1749   4.564   2.594   5.782
  284SOL     OW 1750   1.402   3.421   4.188
  284SOL    HW1 1751   1.333   3.359   4.226
  284SOL    HW2 1752   1.493   3.380   4.197
  285SOL     OW 1753   5.371   4.563   4.280
  285SOL    HW1 1754   5.408   4.474   4.310
  285SOL    HW2 1755   5.447   4.622   4.251
  286SOL     OW 1756   2.798   3.679   6.530
  286SOL    HW1 1757   2.847   3.607   6.578
  286SOL    HW2 1758   2.855   3.761   6.526
  287SOL     OW 1759   1.938   3.442   6.949
  287SOL    HW1 1760   2.012   3.480   6.893
  287SOL    HW2 1761   1.855   3.433   6.894
  288SOL     OW 1762   4.856   3.096   0.068
  288SOL    HW1 1763   4.897   3.068   6.999
  288SOL    HW2 1764   4.762   3.062   0.072
  289SOL     OW 1765   3.133   4.734   6.391
  289SOL    HW1 1766   3.139   4.777   6.301
  289SOL    HW2 1767   3.210   4.671   6.403
  290SOL     OW 1768   0.605   1.939   5.319
  290SOL    HW1 1769   0.545   1.868   5.283
  290SOL    HW2 1770   0.635   1.999   5.245
  291SOL     OW 1771   0.442   2.360   2.429
  291SOL    HW1 1772   0.445   2.413   2.345
  291SOL    HW2 1773   0.405   2.416   2.503
  292SOL     OW 1774   2.034   6.766   4.077
  292SOL    HW1 1775   2.006   6.707   4.001
  292SOL    HW2 1776   1.957   6.781   4.138
  293SOL     OW 1777   3.667   5.161   3.539
  293SOL    HW1 1778   3.627   5.238   3.490
  293SOL    HW2 1779   3.767   5.162   3.528
  294SOL     OW 1780   4.406   6.719   6.642
  294SOL    HW1 1781   4.321   6.771   6.639
  294SOL    HW2 1782   4.399   6.641   6.580
  295SOL     OW 1783   5.184   0.215   3.645
  295SOL    HW1 1784   5.128   0.281   3.595
  295SOL    HW2 1785   5.133   0.130   3.656
  296SOL     OW 1786   2.547   1.684   3.668
  296SOL    HW1 1787   2.554   1.784   3.675
  296SOL    HW2 1788   2.559   1.656   3.573
  297SOL     OW 1789   2.185   4.376   3.069
  297SOL    HW1 1790   2.206   4.352   2.974
  297SOL    HW2 1791   2.129   4.459   3.071
  298SOL     OW 1792   5.968   5.058   0.854
  298SOL    HW1 1793   5.919   5.024   0.774
  298SOL    HW2 1794   5.987   4.982   0.916
  299SOL     OW 1795   6.671   2.589   4.809
  299SOL    HW1 1796   6.703   2.502   4.774
  299SOL    HW2 1797   6.723   2.615   4.891
  300SOL     OW 1798   6.033   0.021   2.476
  300SOL    HW1 1799   6.065   0.105   2.520
  300SOL    HW2 1800   6.090   6.963   2.505
  301SOL     OW 1801   5.228   3.859   5.767
  301SOL    HW1 1802   5.178   3.906   5.694
  301SOL    HW2 1803   5.177   3.778   5.796
  302SOL     OW 1804   1.411   0.310   3.715
  302SOL    HW1 1805   1.356   0.394   3.714
  302SOL    HW2 1806   1.497   0.327   3.763
  303SOL     OW 1807   5.964   6.821   3.483
  303SOL    HW1 1808   5.975   6.745   3.548
  303SOL    HW2 1809   5.875   6.864   3.497
  304SOL     OW 1810   3.110   0.126   3.158
  304SOL    HW1 1811   3.103   0.139   3.257
  304SOL    HW2 1812   3.112   0.216   3.113
  305SOL     OW 1813   1.117   3.508   1.531
  305SOL    HW1 1814   1.085   3.519   1.625
  305SOL    HW2 1815   1.207   3.465   1.531
  306SOL     OW 1816   2.324   0.518   3.351
  306SOL    HW1 1817   2.317   0.432   3.401
  306SOL    HW2 1818   2.240   0.571   3.366
  307SOL     OW 1819   3.558   0.455   1.075
  307SOL    HW1 1820   3.501   0.520   1.024
  307SOL    HW2 1821   3.572   0.489   1.168
  308SOL     OW 1822   0.825   5.075   4.349
  308SOL    HW1 1823   0.888   5.078   4.271
  308SOL    HW2 1824   0.731   5.085   4.316
  309SOL     OW 1825   4.082   5.229   5.118
  309SOL    HW1 1826   4.058   5.217   5.022
  309SOL    HW2 1827   4.128   5.317   5.131
  310SOL     OW 1828   0.940   6.720   6.162
  310SOL    HW1 1829   0.929   6.815   6.191
  310SOL    HW2 1830   0.994   6.670   6.230
  311SOL     OW 1831   0.541   0.173   1.678
  311SOL    HW1 1832   0.542   0.132   1.769
  311SOL    HW2 1833   0.625   0.149   1.630
  312SOL     OW 1834   3.702   1.847   4.864
  312SOL    HW1 1835   3.782   1.888   4.821
  312SOL    HW2 1836   3.682   1.759   4.820
  313SOL     OW 1837   0.601   4.818   1.649
  313SOL    HW1 1838   0.595   4.757   1.571
  313SOL    HW2 1839   0.668   4.783   1.714
  314SOL     OW 1840   3.135   6.316   1.558
  314SOL    HW1 1841   3.148   6.340   1.462
  314SOL    HW2 1842   3.111   6.219   1.564
  315SOL     OW 1843   1.190   2.949   3.245
  315SOL    HW1 1844   1.134   2.931   3.326
  315SOL    HW2 1845   1.130   2.962   3.166
  316SOL     OW 1846   2.146   2.436   4.116
  316SOL    HW1 1847   2.186   2.399   4.031
  316SOL    HW2 1848   2.149   2.366   4.187
  317SOL     OW 1849   6.497   1.629   0.194
  317SOL    HW1 1850   6.526   1.720   0.223
  317SOL    HW2 1851   6.490   1.569   0.274
  318SOL     OW 1852   2.413   5.274   1.219
  318SOL    HW1 1853   2.422   5.278   1.319
  318SOL    HW2 1854   2.382   5.363   1.186
  319SOL     OW 1855   1.246   0.212   0.488
  319SOL    HW1 1856   1.301   0.230   0.407
  319SOL    HW2 1857   1.227   0.114   0.495
  320SOL     OW 1858   5.105   4.040   0.658
  320SOL    HW1 1859   5.143   3.982   0.586
  320SOL    HW2 1860   5.019   4.080   0.626
  321SOL     OW 1861   2.058   1.374   1.173
  321SOL    HW1 1862   2.126   1.339   1.108
  321SOL    HW2 1863   2.004   1.299   1.209
  322SOL     OW 1864   3.454   2.826   4.868
  322SOL    HW1 1865   3.362   2.866   4.864
  322SOL    HW2 1866   3.446   2.727   4.885
  323SOL     OW 1867   0.525   4.167   2.050
  323SOL    HW1 1868   0.517   4.135   2.145
  323SOL    HW2 1869   0.505   4.091   1.988
  324SOL     OW 1870   0.612   3.029   4.191
  324SOL    HW1 1871   0.679   3.102   4.209
  324SOL    HW2 1872   0.598   3.021   4.092
  325SOL     OW 1873   2.665   2.454   3.076
  325SOL    HW1 1874   2.747   2.510   3.084
  325SOL    HW2 1875   2.685   2.374   3.018
  326SOL     OW 1876   2.436   4.598   6.102
  326SOL    HW1 1877   2.475   4.593   6.010
  326SOL    HW2 1878   2.505   4.570   6.169
  327SOL     OW 1879   6.413   5.345   5.751
  327SOL    HW1 1880   6.328   5.293   5.764
  327SOL    HW2 1881   6.486   5.283   5.723
  328SOL     OW 1882   2.649   5.864   1.691
  328SOL    HW1 1883   2.604   5.891   1.776
  328SOL    HW2 1884   2.647   5.939   1.626
  329SOL     OW 1885   3.538   3.328   2.481
  329SOL    HW1 1886   3.537   3.331   2.581
  329SOL    HW2 1887   3.444   3.320   2.447
  330SOL     OW 1888   3.667   1.008   1.784
  330SOL    HW1 1889   3.686   1.008   1.685
  330SOL    HW2 1890   3.743   0.963   1.832
  331SOL     OW 1891   5.379   5.106   6.235
  331SOL    HW1 1892   5.333   5.018   6.222
  331SOL    HW2 1893   5.478   5.090   6.244
  332SOL     OW 1894   3.975   2.089   3.560
  332SOL    HW1 1895   4.054   2.065   3.617
  332SOL    HW2 1896   3.946   2.008   3.508
  333SOL     OW 1897   3.748   6.328   0.073
  333SOL    HW1 1898   3.706   6.343   7.002
  333SOL    HW2 1899   3.847   6.333   0.065
  334SOL     OW 1900   4.498   6.405   2.563
  334SOL    HW1 1901   4.545   6.370   2.483
  334SOL    HW2 1902   4.400   6.411   2.544
  335SOL     OW 1903   3.148   6.875   3.121
  335SOL    HW1 1904   3.107   6.964   3.104
  335SOL    HW2 1905   3.086   6.819   3.176
  336SOL     OW 1906   2.945   0.919   5.026
  336SOL    HW1 1907   2.942   0.957   4.934
  336SOL    HW2 1908   2.853   0.886   5.051
  337SOL     OW 1909   0.441   4.120   1.271
  337SOL    HW1 1910   0.534   4.152   1.287
  337SOL    HW2 1911   0.441   4.021   1.261
  338SOL     OW 1912   3.163   2.562   1.689
  338SOL    HW1 1913   3.072   2.530   1.663
  338SOL    HW2 1914   3.174   2.657   1.660
  339SOL     OW 1915   4.225   0.333   2.837
  339SOL    HW1 1916   4.322   0.324   2.816
  339SOL    HW2 1917   4.187   0.410   2.785
  340SOL     OW 1918   4.889   4.049   4.454
  340SOL    HW1 1919   4.986   4.074   4.459
  340SOL    HW2 1920   4.879   3.951   4.469
  341SOL     OW 1921   5.458   5.158   5.262
  341SOL    HW1 1922   5.426   5.249   5.233
  341SOL    HW2 1923   5.519   5.121   5.193
  342SOL     OW 1924   5.458   3.523   0.004
  342SOL    HW1 1925   5.543   3.572   7.005
  342SOL    HW2 1926   5.404   3.573   0.072
  343SOL     OW 1927   2.477   0.733   3.155
  343SOL    HW1 1928   2.448   0.731   3.059
  343SOL    HW2 1929   2.412   0.680   3.210
  344SOL     OW 1930   3.595   5.268   0.409
  344SOL    HW1 1931   3.546   5.206   0.471
  344SOL    HW2 1932   3.560   5.256   0.316
  345SOL     OW 1933   0.881   6.345   5.929
  345SOL    HW1 1934   0.936   6.261   5.928
  345SOL    HW2 1935   0.938   6.422   5.955
  346SOL     OW 1936   2.661   0.088   3.938
  346SOL    HW1 1937   2.583   0.129   3.890
  346SOL    HW2 1938   2.746   0.125   3.900
  347SOL     OW 1939   4.960   6.257   6.146
  347SOL    HW1 1940   4.965   6.192   6.222
  347SOL    HW2 1941   5.033   6.237   6.080
  348SOL     OW 1942   3.226   5.803   2.775
  348SOL    HW1 1943   3.137   5.840   2.802
  348SOL    HW2 1944   3.214   5.710   2.741
  349SOL     OW 1945   2.100   4.720   1.799
  349SOL    HW1 1946   2.082   4.644   1.862
  349SOL    HW2 1947   2.179   4.698   1.742
  350SOL     OW 1948   4.636   2.900   1.206
  350SOL    HW1 1949   4.649   2.803   1.227
  350SOL    HW2 1950   4.619   2.950   1.291
  351SOL     OW 1951   3.487   1.555   0.286
  351SOL    HW1 1952   3.481   1.558   0.186
  351SOL    HW2 1953   3.419   1.616   0.326
  352SOL     OW 1954   3.831   1.141   6.384
  352SOL    HW1 1955   3.895   1.097   6.321
  352SOL    HW2 1956   3.882   1.196   6.450
  353SOL     OW 1957   1.890   0.226   1.140
  353SOL    HW1 1958   1.952   0.203   1.065
  353SOL    HW2 1959   1.939   0.220   1.227
  354SOL     OW 1960   4.613   1.581   1.958
  354SOL    HW1 1961   4.519   1.615   1.950
  354SOL    HW2 1962   4.671   1.653   1.998
  355SOL     OW 1963   2.003   1.537   2.247
  355SOL    HW1 1964   2.000   1.511   2.344
  355SOL    HW2 1965   1.981   1.457   2.191
  356SOL     OW 1966   3.705   6.043   3.129
  356SOL    HW1 1967   3.718   5.956   3.176
  356SOL    HW2 1968   3.771   6.051   3.054
  357SOL     OW 1969   1.443   4.563   5.550
  357SOL    HW1 1970   1.416   4.477   5.506
  357SOL    HW2 1971   1.489   4.544   5.636
  358SOL     OW 1972   5.041   1.647   2.158
  358SOL    HW1 1973   5.123   1.704   2.156
  358SOL    HW2 1974   5.059   1.559   2.117
  359SOL     OW 1975   1.277   1.696   1.499
  359SOL    HW1 1976   1.342   1.714   1.426
  359SOL    HW2 1977   1.327   1.665   1.581
  360SOL     OW 1978   4.337   6.219   1.241
  360SOL    HW1 1979   4.269   6.270   1.293
  360SOL    HW2 1980   4.318   6.228   1.143
  361SOL     OW 1981   3.857   0.640   3.345
  361SOL    HW1 1982   3.866   0.702   3.267
  361SOL    HW2 1983   3.781   0.669   3.403
  362SOL     OW 1984   2.949   3.883   0.946
  362SOL    HW1 1985   2.972   3.980   0.961
  362SOL    HW2 1986   2.939   3.866   0.848
  363SOL     OW 1987   4.417   4.729   3.967
  363SOL    HW1 1988   4.476   4.797   4.011
  363SOL    HW2 1989   4.414   4.646   4.023
  364SOL     OW 1990   1.746   6.146   5.565
  364SOL    HW1 1991   1.648   6.158   5.580
  364SOL    HW2 1992   1.795   6.160   5.651
  365SOL     OW 1993   4.813   6.509   2.675
  365SOL    HW1 1994   4.766   6.524   2.588
  365SOL    HW2 1995   4.745   6.490   2.746
  366SOL     OW 1996   4.978   6.411   0.242
  366SOL    HW1 1997   5.031   6.389   0.323
  366SOL    HW2 1998   5.019   6.491   0.196
  367SOL     OW 1999   5.210   1.946   1.679
  367SOL    HW1 2000   5.145   1.915   1.609
  367SOL    HW2 2001   5.295   1.895   1.669
  368SOL     OW 2002   1.508   4.908   5.564
  368SOL    HW1 2003   1.478   4.870   5.476
  368SOL    HW2 2004   1.537   5.003   5.551
  369SOL     OW 2005   0.680   3.597   1.458
  369SOL    HW1 2006   0.750   3.614   1.389
  369SOL    HW2 2007   0.697   3.508   1.502
  370SOL     OW 2008   3.477   1.249   6.280
  370SOL    HW1 2009   3.472   1.149   6.280
  370SOL    HW2 2010   3.561   1.278   6.235
  371SOL     OW 2011   4.066   2.871   6.530
  371SOL    HW1 2012   4.134   2.798   6.539
  371SOL    HW2 2013   4.063   2.903   6.436
  372SOL     OW 2014   1.680   5.155   6.717
  372SOL    HW1 2015   1.588   5.170   6.755
  372SOL    HW2 2016   1.679   5.071   6.662
  373SOL     OW 2017   6.603   6.858   0.882
  373SOL    HW1 2018   6.669   6.912   0.935
  373SOL    HW2 2019   6.548   6.919   0.826
  374SOL     OW 2020   4.048   1.080   0.935
  374SOL    HW1 2021   4.123   1.127   0.889
  374SOL    HW2 2022   4.069   1.069   1.032
  375SOL     OW 2023   6.689   4.209   1.668
  375SOL    HW1 2024   6.649   4.118   1.676
  375SOL    HW2 2025   6.616   4.278   1.672
  376SOL     OW 2026   2.128   2.888   4.544
  376SOL    HW1 2027   2.105   2.983   4.522
  376SOL    HW2 2028   2.057   2.849   4.604
  377SOL     OW 2029   4.998   1.515   4.398
  377SOL    HW1 2030   4.985   1.467   4.485
  377SOL    HW2 2031   4.919   1.497   4.338
  378SOL     OW 2032   4.711   2.719   4.352
  378SOL    HW1 2033   4.655   2.720   4.435
  378SOL    HW2 2034   4.659   2.675   4.278
  379SOL     OW 2035   6.960   3.033   1.642
  379SOL    HW1 2036   0.021   2.973   1.636
  379SOL    HW2 2037   6.902   3.004   1.719
  380SOL     OW 2038   1.497   2.269   0.133
  380SOL    HW1 2039   1.439   2.320   0.070
  380SOL    HW2 2040   1.525   2.183   0.090
  381SOL     OW 2041   3.279   4.123   0.140
  381SOL    HW1 2042   3.204   4.182   0.167
  381SOL    HW2 2043   3.347   4.118   0.214
  382SOL     OW 2044   2.181   5.158   1.082
  382SOL    HW1 2045   2.203   5.118   0.993
  382SOL    HW2 2046   2.265   5.192   1.125
  383SOL     OW 2047   6.635   2.243   0.017
  383SOL    HW1 2048   6.732   2.255   7.017
  383SOL    HW2 2049   6.593   2.188   6.963
  384SOL     OW 2050   2.082   5.479   5.176
  384SOL    HW1 2051   2.073   5.547   5.103
  384SOL    HW2 2052   2.106   5.390   5.136
  385SOL     OW 2053   4.875   5.170   1.526
  385SOL    HW1 2054   4.869   5.097   1.458
  385SOL    HW2 2055   4.928   5.246   1.489
  386SOL     OW 2056   2.874   0.102   4.822
  386SOL    HW1 2057   2.927   0.018   4.808
  386SOL    HW2 2058   2.780   0.078   4.844
  387SOL     OW 2059   0.060   0.495   6.046
  387SOL    HW1 2060   0.056   0.443   5.961
  387SOL    HW2 2061   0.002   0.453   6.115
  388SOL     OW 2062   0.248   2.653   4.921
  388SOL    HW1 2063   0.341   2.621   4.934
  388SOL    HW2 2064   0.214   2.625   4.832
  389SOL     OW 2065   4.811   4.409   1.700
  389SOL    HW1 2066   4.737   4.476   1.701
  389SOL    HW2 2067   4.773   4.317   1.710
  390SOL     OW 2068   3.623   2.485   0.513
  390SOL    HW1 2069   3.617   2.391   0.478
  390SOL    HW2 2070   3.718   2.516   0.506
  391SOL     OW 2071   3.654   4.158   3.864
  391SOL    HW1 2072   3.739   4.123   3.827
  391SOL    HW2 2073   3.673   4.210   3.947
  392SOL     OW 2074   1.474   4.157   1.228
  392SOL    HW1 2075   1.410   4.083   1.250
  392SOL    HW2 2076   1.549   4.157   1.294
  393SOL     OW 2077   1.263   5.534   1.549
  393SOL    HW1 2078   1.223   5.599   1.613
  393SOL    HW2 2079   1.199   5.519   1.473
  394SOL     OW 2080   6.233   1.062   6.558
  394SOL    HW1 2081   6.203   1.047   6.652
  394SOL    HW2 2082   6.274   1.153   6.549
  395SOL     OW 2083   5.988   4.623   0.720
  395SOL    HW1 2084   5.999   4.593   0.814
  395SOL    HW2 2085   5.892   4.640   0.700
  396SOL     OW 2086   1.484   0.006   1.310
  396SOL    HW1 2087   1.540   0.034   1.388
  396SOL    HW2 2088   1.391   7.006   1.342
  397SOL     OW 2089   4.049   1.812   4.879
  397SOL    HW1 2090   4.053   1.861   4.792
  397SOL    HW2 2091   4.110   1.857   4.945
  398SOL     OW 2092   0.563   0.665   3.305
  398SOL    HW1 2093   0.497   0.729   3.344
  398SOL    HW2 2094   0.656   0.693   3.329
  399SOL     OW 2095   5.699   5.689   3.787
  399SOL    HW1 2096   5.654   5.774   3.760
  399SOL    HW2 2097   5.645   5.644   3.858
  400SOL     OW 2098   6.168   0.011   3.512
  400SOL    HW1 2099   6.116   6.945   3.523
  400SOL    HW2 2100   6.264   7.013   3.537
  401SOL     OW 2101   0.564   5.867   5.377
  401SOL    HW1 2102   0.482   5.922   5.361
  401SOL    HW2 2103   0.545   5.797   5.445
  402SOL     OW 2104   5.308   1.752   4.036
  402SOL    HW1 2105   5.341   1.795   4.120
  402SOL    HW2 2106   5.265   1.665   4.058
  403SOL     OW 2107   2.775   1.954   5.504
  403SOL    HW1 2108   2.801   1.863   5.537
  403SOL    HW2 2109   2.787   1.957   5.404
  404SOL     OW 2110   3.403   5.648   3.583
  404SOL    HW1 2111   3.387   5.608   3.492
  404SOL    HW2 2112   3.324   5.702   3.610
  405SOL     OW 2113   2.561   4.930   4.390
  405SOL    HW1 2114   2.593   4.882   4.308
  405SOL    HW2 2115   2.566   5.029   4.375
  406SOL     OW 2116   0.467   0.202   5.997
  406SOL    HW1 2117   0.416   0.288   5.999
  406SOL    HW2 2118   0.446   0.152   5.913
  407SOL     OW 2119   2.194   2.806   3.995
  407SOL    HW1 2120   2.103   2.774   4.021
  407SOL    HW2 2121   2.263   2.763   4.053
  408SOL     OW 2122   2.274   2.134   2.986
  408SOL    HW1 2123   2.297   2.146   3.083
  408SOL    HW2 2124   2.223   2.213   2.954
  409SOL     OW 2125   0.587   3.215   2.419
  409SOL    HW1 2126   0.507   3.216   2.480
  409SOL    HW2 2127   0.575   3.143   2.351
  410SOL     OW 2128   1.749   2.336   1.587
  410SOL    HW1 2129   1.728   2.409   1.522
  410SOL    HW2 2130   1.846   2.312   1.579
  411SOL     OW 2131   6.663   1.777   0.791
  411SOL    HW1 2132   6.754   1.742   0.814
  411SOL    HW2 2133   6.604   1.769   0.872
  412SOL     OW 2134   1.595   4.964   2.810
  412SOL    HW1 2135   1.515   5.013   2.845
  412SOL    HW2 2136   1.663   4.954   2.882
  413SOL     OW 2137   6.295   5.225   1.705
  413SOL    HW1 2138   6.392   5.199   1.707
  413SOL    HW2 2139   6.269   5.263   1.794
  414SOL     OW 2140   2.128   0.092   3.203
  414SOL    HW1 2141   2.079   0.100   3.116
  414SOL    HW2 2142   2.225   0.073   3.185
  415SOL     OW 2143   5.609   1.315   6.763
  415SOL    HW1 2144   5.620   1.216   6.772
  415SOL    HW2 2145   5.653   1.361   6.840
  416SOL     OW 2146   5.847   3.323   5.777
  416SOL    HW1 2147   5.887   3.370   5.856
  416SOL    HW2 2148   5.750   3.306   5.795
  417SOL     OW 2149   1.954   2.065   6.464
  417SOL    HW1 2150   1.958   2.147   6.407
  417SOL    HW2 2151   1.867   2.064   6.514
  418SOL     OW 2152   3.480   6.983   5.066
  418SOL    HW1 2153   3.396   6.949   5.024
  418SOL    HW2 2154   3.522   0.033   5.006
  419SOL     OW 2155   6.486   0.439   0.405
  419SOL    HW1 2156   6.446   0.519   0.360
  419SOL    HW2 2157   6.542   0.389   0.339
  420SOL     OW 2158   3.666   6.925   0.691
  420SOL    HW1 2159   3.735   6.995   0.671
  420SOL    HW2 2160   3.661   6.861   0.615
  421SOL     OW 2161   4.806   4.055   2.772
  421SOL    HW1 2162   4.728   4.063   2.710
  421SOL    HW2 2163   4.878   4.118   2.742
  422SOL     OW 2164   4.981   2.545   1.591
  422SOL    HW1 2165   5.078   2.570   1.593
  422SOL    HW2 2166   4.932   2.595   1.662
  423SOL     OW 2167   2.937   1.174   5.952
  423SOL    HW1 2168   2.902   1.246   5.891
  423SOL    HW2 2169   3.034   1.189   5.969
  424SOL     OW 2170   1.802   3.789   4.034
  424SOL    HW1 2171   1.833   3.794   4.129
  424SOL    HW2 2172   1.759   3.876   4.008
  425SOL     OW 2173   3.856   0.896   0.102
  425SOL    HW1 2174   3.937   0.873   0.155
  425SOL    HW2 2175   3.867   0.986   0.060
  426SOL     OW 2176   2.940   2.072   4.438
  426SOL    HW1 2177   2.901   2.143   4.497
  426SOL    HW2 2178   3.019   2.110   4.388
  427SOL     OW 2179   4.944   1.823   3.447
  427SOL    HW1 2180   4.995   1.787   3.526
  427SOL    HW2 2181   4.985   1.910   3.419
  428SOL     OW 2182   2.699   2.568   6.595
  428SOL    HW1 2183   2.674   2.657   6.633
  428SOL    HW2 2184   2.622   2.530   6.545
  429SOL     OW 2185   0.000   5.896   4.126
  429SOL    HW1 2186   0.059   5.826   4.087
  429SOL    HW2 2187   0.037   5.926   4.214
  430SOL     OW 2188   1.668   7.018   4.318
  430SOL    HW1 2189   1.637   0.006   4.412
  430SOL    HW2 2190   1.728   6.939   4.308
  431SOL     OW 2191   3.025   1.798   1.069
  431SOL    HW1 2192   3.014   1.871   1.002
  431SOL    HW2 2193   3.112   1.750   1.053
  432SOL     OW 2194   4.737   1.609   1.256
  432SOL    HW1 2195   4.769   1.666   1.332
  432SOL    HW2 2196   4.645   1.638   1.230
  433SOL     OW 2197   1.874   4.662   0.898
  433SOL    HW1 2198   1.967   4.629   0.916
  433SOL    HW2 2199   1.809   4.601   0.944
  434SOL     OW 2200   4.730   5.287   3.170
  434SOL    HW1 2201   4.695   5.327   3.255
  434SOL    HW2 2202   4.790   5.210   3.192
  435SOL     OW 2203   3.785   2.752   5.943
  435SOL    HW1 2204   3.866   2.702   5.914
  435SOL    HW2 2205   3.706   2.690   5.945
  436SOL     OW 2206   5.426   5.987   1.658
  436SOL    HW1 2207   5.432   6.052   1.734
  436SOL    HW2 2208   5.407   5.896   1.694
  437SOL     OW 2209   6.342   1.653   5.093
  437SOL    HW1 2210   6.349   1.561   5.130
  437SOL    HW2 2211   6.289   1.711   5.155
  438SOL     OW 2212   0.656   4.764   2.604
  438SOL    HW1 2213   0.741   4.802   2.640
  438SOL    HW2 2214   0.581   4.787   2.666
  439SOL     OW 2215   0.128   0.981   5.448
  439SOL    HW1 2216   0.198   0.932   5.395
  439SOL    HW2 2217   0.071   1.035   5.385
  440SOL     OW 2218   4.205   1.816   0.420
  440SOL    HW1 2219   4.196   1.720   0.446
  440SOL    HW2 2220   4.278   1.859   0.473
  441SOL     OW 2221   0.520   4.635   2.158
  441SOL    HW1 2222   0.438   4.663   2.108
  441SOL    HW2 2223   0.582   4.713   2.166
  442SOL     OW 2224   4.388   3.335   5.353
  442SOL    HW1 2225   4.400   3.323   5.254
  442SOL    HW2 2226   4.454   3.277   5.401
  443SOL     OW 2227   4.798   2.728   3.110
  443SOL    HW1 2228   4.862   2.795   3.074
  443SOL    HW2 2229   4.744   2.689   3.035
  444SOL     OW 2230   4.045   1.994   1.657
  444SOL    HW1 2231   3.975   1.923   1.659
  444SOL    HW2 2232   4.004   2.080   1.626
  445SOL     OW 2233   1.846   5.107   3.044
  445SOL    HW1 2234   1.884   5.028   2.995
  445SOL    HW2 2235   1.905   5.130   3.121
  446SOL     OW 2236   6.486   0.036   1.660
  446SOL    HW1 2237   6.434   6.984   1.612
  446SOL    HW2 2238   6.508   0.003   1.752
  447SOL     OW 2239   5.735   3.864   0.709
  447SOL    HW1 2240   5.734   3.932   0.782
  447SOL    HW2 2241   5.828   3.828   0.698
  448SOL     OW 2242   3.371   6.511   3.929
  448SOL    HW1 2243   3.325   6.570   3.994
  448SOL    HW2 2244   3.421   6.567   3.863
  449SOL     OW 2245   1.542   4.122   4.779
  449SOL    HW1 2246   1.529   4.027   4.806
  449SOL    HW2 2247   1.601   4.168   4.845
  450SOL     OW 2248   6.699   4.286   3.147
  450SOL    HW1 2249   6.740   4.376   3.160
  450SOL    HW2 2250   6.753   4.218   3.196
  451SOL     OW 2251   1.284   1.704   0.527
  451SOL    HW1 2252   1.243   1.626   0.478
  451SOL    HW2 2253   1.284   1.784   0.467
  452SOL     OW 2254   4.396   5.339   2.781
  452SOL    HW1 2255   4.355   5.248   2.772
  452SOL    HW2 2256   4.458   5.356   2.704
  453SOL     OW 2257   3.952   1.231   6.937
  453SOL    HW1 2258   4.043   1.226   6.978
  453SOL    HW2 2259   3.910   1.319   6.961
  454SOL     OW 2260   0.359   3.870   4.810
  454SOL    HW1 2261   0.391   3.961   4.785
  454SOL    HW2 2262   0.434   3.804   4.799
  455SOL     OW 2263   5.236   5.605   6.136
  455SOL    HW1 2264   5.217   5.507   6.134
  455SOL    HW2 2265   5.220   5.641   6.228
  456SOL     OW 2266   2.565   0.894   2.529
  456SOL    HW1 2267   2.615   0.896   2.615
  456SOL    HW2 2268   2.625   0.923   2.454
  457SOL     OW 2269   2.422   6.416   0.068
  457SOL    HW1 2270   2.502   6.359   0.046
  457SOL    HW2 2271   2.343   6.384   0.015
  458SOL     OW 2272   3.661   1.263   3.122
  458SOL    HW1 2273   3.562   1.258   3.113
  458SOL    HW2 2274   3.688   1.355   3.150
  459SOL     OW 2275   3.258   0.769   3.179
  459SOL    HW1 2276   3.286   0.846   3.237
  459SOL    HW2 2277   3.203   0.803   3.103
  460SOL     OW 2278   0.542   1.372   6.269
  460SOL    HW1 2279   0.591   1.453   6.301
  460SOL    HW2 2280   0.579   1.291   6.314
  461SOL     OW 2281   0.879   5.948   5.649
  461SOL    HW1 2282   0.849   5.895   5.570
  461SOL    HW2 2283   0.822   6.030   5.657
  462SOL     OW 2284   2.960   3.878   4.925
  462SOL    HW1 2285   2.948   3.804   4.860
  462SOL    HW2 2286   2.890   3.871   4.996
  463SOL     OW 2287   5.906   6.246   3.677
  463SOL    HW1 2288   5.843   6.209   3.745
  463SOL    HW2 2289   5.857   6.263   3.591
  464SOL     OW 2290   4.262   5.411   5.198
  464SOL    HW1 2291   4.240   5.509   5.195
  464SOL    HW2 2292   4.360   5.398   5.181
  465SOL     OW 2293   0.454   4.354   0.205
  465SOL    HW1 2294   0.542   4.310   0.187
  465SOL    HW2 2295   0.407   4.370   0.118
  466SOL     OW 2296   4.153   5.273   3.737
  466SOL    HW1 2297   4.061   5.273   3.700
  466SOL    HW2 2298   4.172   5.362   3.780
  467SOL     OW 2299   6.278   0.481   2.044
  467SOL    HW1 2300   6.260   0.559   1.984
  467SOL    HW2 2301   6.322   0.514   2.128
  468SOL     OW 2302   2.693   5.994   6.210
  468SOL    HW1 2303   2.708   6.078   6.158
  468SOL    HW2 2304   2.603   5.999   6.255
  469SOL     OW 2305   2.811   4.881   5.093
  469SOL    HW1 2306   2.734   4.895   5.155
  469SOL    HW2 2307   2.818   4.784   5.070
  470SOL     OW 2308   2.058   4.855   3.278
  470SOL    HW1 2309   2.099   4.945   3.282
  470SOL    HW2 2310   2.080   4.803   3.361
  471SOL     OW 2311   1.826   1.943   4.261
  471SOL    HW1 2312   1.762   1.996   4.316
  471SOL    HW2 2313   1.866   2.001   4.190
  472SOL     OW 2314   5.553   3.932   6.340
  472SOL    HW1 2315   5.590   3.840   6.354
  472SOL    HW2 2316   5.543   3.949   6.242
  473SOL     OW 2317   5.218   3.364   2.702
  473SOL    HW1 2318   5.191   3.277   2.661
  473SOL    HW2 2319   5.151   3.390   2.772
  474SOL     OW 2320   4.984   5.581   3.968
  474SOL    HW1 2321   4.927   5.651   4.010
  474SOL    HW2 2322   5.080   5.611   3.969
  475SOL     OW 2323   5.841   1.289   1.060
  475SOL    HW1 2324   5.837   1.388   1.047
  475SOL    HW2 2325   5.833   1.268   1.158
  476SOL     OW 2326   1.465   4.098   6.512
  476SOL    HW1 2327   1.548   4.110   6.457
  476SOL    HW2 2328   1.486   4.118   6.608
  477SOL     OW 2329   1.096   5.184   3.207
  477SOL    HW1 2330   1.172   5.249   3.211
  477SOL    HW2 2331   1.131   5.094   3.181
  478SOL     OW 2332   6.104   6.357   3.238
  478SOL    HW1 2333   6.070   6.271   3.199
  478SOL    HW2 2334   6.193   6.378   3.199
  479SOL     OW 2335   2.991   3.281   2.697
  479SOL    HW1 2336   3.069   3.341   2.711
  479SOL    HW2 2337   2.924   3.326   2.639
  480SOL     OW 2338   0.858   0.886   2.601
  480SOL    HW1 2339   0.793   0.962   2.601
  480SOL    HW2 2340   0.811   0.802   2.629
  481SOL     OW 2341   5.834   6.820   1.171
  481SOL    HW1 2342   5.815   6.723   1.154
  481SOL    HW2 2343   5.913   6.849   1.116
  482SOL     OW 2344   4.263   5.054   2.897
  482SOL    HW1 2345   4.294   5.066   2.803
  482SOL    HW2 2346   4.216   4.966   2.906
  483SOL     OW 2347   5.659   1.158   4.225
  483SOL    HW1 2348   5.757   1.176   4.234
  483SOL    HW2 2349   5.642   1.060   4.238
  484SOL     OW 2350   1.759   5.034   3.676
  484SOL    HW1 2351   1.744   5.130   3.656
  484SOL    HW2 2352   1.773   4.984   3.590
  485SOL     OW 2353   5.527   1.932   1.275
  485SOL    HW1 2354   5.438   1.968   1.248
  485SOL    HW2 2355   5.571   1.889   1.197
  486SOL     OW 2356   5.977   6.747   5.864
  486SOL    HW1 2357   5.924   6.831   5.854
  486SOL    HW2 2358   6.059   6.753   5.806
  487SOL     OW 2359   0.502   0.604   6.827
  487SOL    HW1 2360   0.451   0.548   6.893
  487SOL    HW2 2361   0.568   0.546   6.780
  488SOL     OW 2362   1.744   5.984   3.603
  488SOL    HW1 2363   1.768   5.972   3.507
  488SOL    HW2 2364   1.814   5.941   3.660
  489SOL     OW 2365   2.466   5.417   5.190
  489SOL    HW1 2366   2.406   5.337   5.197
  489SOL    HW2 2367   2.453   5.459   5.101
  490SOL     OW 2368   1.529   3.362   4.517
  490SOL    HW1 2369   1.582   3.381   4.599
  490SOL    HW2 2370   1.454   3.428   4.509
  491SOL     OW 2371   6.234   2.964   0.825
  491SOL    HW1 2372   6.257   3.037   0.890
  491SOL    HW2 2373   6.187   2.890   0.873
  492SOL     OW 2374   1.444   2.517   5.673
  492SOL    HW1 2375   1.387   2.597   5.653
  492SOL    HW2 2376   1.495   2.533   5.758
  493SOL     OW 2377   1.647   5.661   4.431
  493SOL    HW1 2378   1.659   5.565   4.406
  493SOL    HW2 2379   1.736   5.706   4.431
  494SOL     OW 2380   2.701   0.920   4.494
  494SOL    HW1 2381   2.762   0.847   4.465
  494SOL    HW2 2382   2.720   1.003   4.441
  495SOL     OW 2383   3.524   4.172   6.693
  495SOL    HW1 2384   3.424   4.170   6.688
  495SOL    HW2 2385   3.554   4.129   6.778
  496SOL     OW 2386   4.906   0.926   3.258
  496SOL    HW1 2387   4.899   1.003   3.194
  496SOL    HW2 2388   4.998   0.888   3.255
  497SOL     OW 2389   4.443   1.937   0.575
  497SOL    HW1 2390   4.480   1.887   0.654
  497SOL    HW2 2391   4.518   1.978   0.524
  498SOL     OW 2392   0.324   0.598   1.022
  498SOL    HW1 2393   0.378   0.543   1.085
  498SOL    HW2 2394   0.313   0.691   1.058
  499SOL     OW 2395   2.780   6.078   0.489
  499SOL    HW1 2396   2.866   6.105   0.446
  499SOL    HW2 2397   2.733   6.160   0.523
  500SOL     OW 2398   5.554   1.912   6.390
  500SOL    HW1 2399   5.460   1.946   6.392
  500SOL    HW2 2400   5.615   1.978   6.435
  501SOL     OW 2401   1.429   1.559   4.962
  501SOL    HW1 2402   1.519   1.524   4.987
  501SOL    HW2 2403   1.358   1.505   5.008
  502SOL     OW 2404   2.285   4.154   6.863
  502SOL    HW1 2405   2.211   4.156   6.930
  502SOL    HW2 2406   2.305   4.060   6.838
  503SOL     OW 2407   3.392   5.391   1.523
  503SOL    HW1 2408   3.393   5.441   1.610
  503SOL    HW2 2409   3.328   5.436   1.460
  504SOL     OW 2410   6.099   6.119   1.032
  504SOL    HW1 2411   6.128   6.105   0.938
  504SOL    HW2 2412   6.000   6.132   1.036
  505SOL     OW 2413   5.837   4.976   5.168
  505SOL    HW1 2414   5.816   4.967   5.266
  505SOL    HW2 2415   5.825   5.071   5.140
  506SOL     OW 2416   2.975   4.982   2.809
  506SOL    HW1 2417   3.050   4.969   2.874
  506SOL    HW2 2418   2.963   5.080   2.792
  507SOL     OW 2419   3.318   0.570   2.038
  507SOL    HW1 2420   3.402   0.615   2.069
  507SOL    HW2 2421   3.322   0.557   1.939
  508SOL     OW 2422   7.014   4.828   3.665
  508SOL    HW1 2423   0.058   4.906   3.672
  508SOL    HW2 2424   6.963   4.818   3.750
  509SOL     OW 2425   4.394   6.926   6.383
  509SOL    HW1 2426   4.321   6.894   6.323
  509SOL    HW2 2427   4.425   6.850   6.441
  510SOL     OW 2428   6.386   4.118   0.366
  510SOL    HW1 2429   6.339   4.186   0.422
  510SOL    HW2 2430   6.381   4.029   0.410
  511SOL     OW 2431   0.716   1.388   6.724
  511SOL    HW1 2432   0.733   1.290   6.731
  511SOL    HW2 2433   0.736   1.432   6.812
  512SOL     OW 2434   0.427   2.556   3.924
  512SOL    HW1 2435   0.455   2.463   3.899
  512SOL    HW2 2436   0.331   2.569   3.899
  513SOL     OW 2437   5.432   6.789   2.855
  513SOL    HW1 2438   5.507   6.818   2.914
  513SOL    HW2 2439   5.345   6.812   2.898
  514SOL     OW 2440   4.820   1.379   5.027
  514SOL    HW1 2441   4.729   1.418   5.021
  514SOL    HW2 2442   4.832   1.335   5.116
  515SOL     OW 2443   3.435   0.794   0.164
  515SOL    HW1 2444   3.512   0.837   0.211
  515SOL    HW2 2445   3.466   0.710   0.119
  516SOL     OW 2446   1.968   5.849   2.253
  516SOL    HW1 2447   2.051   5.857   2.198
  516SOL    HW2 2448   1.962   5.757   2.291
  517SOL     OW 2449   3.770   5.417   1.840
  517SOL    HW1 2450   3.798   5.337   1.893
  517SOL    HW2 2451   3.676   5.406   1.810
  518SOL     OW 2452   1.811   5.192   4.154
  518SOL    HW1 2453   1.735   5.141   4.114
  518SOL    HW2 2454   1.839   5.147   4.239
  519SOL     OW 2455   6.584   6.898   2.096
  519SOL    HW1 2456   6.518   6.885   2.023
  519SOL    HW2 2457   6.676   6.875   2.062
  520SOL     OW 2458   2.268   4.432   0.410
  520SOL    HW1 2459   2.187   4.486   0.435
  520SOL    HW2 2460   2.250   4.335   0.428
  521SOL     OW 2461   6.082   5.454   5.783
  521SOL    HW1 2462   6.058   5.366   5.744
  521SOL    HW2 2463   6.083   5.523   5.711
  522SOL     OW 2464   3.748   4.197   0.181
  522SOL    HW1 2465   3.783   4.280   0.225
  522SOL    HW2 2466   3.820   4.158   0.123
  523SOL     OW 2467   1.473   6.626   6.344
  523SOL    HW1 2468   1.515   6.554   6.289
  523SOL    HW2 2469   1.515   6.628   6.434
  524SOL     OW 2470   6.946   1.287   0.717
  524SOL    HW1 2471   6.929   1.332   0.629
  524SOL    HW2 2472   6.928   1.189   0.706
  525SOL     OW 2473   0.765   3.176   3.775
  525SOL    HW1 2474   0.819   3.252   3.738
  525SOL    HW2 2475   0.808   3.090   3.747
  526SOL     OW 2476   4.442   0.252   4.054
  526SOL    HW1 2477   4.440   0.211   4.145
  526SOL    HW2 2478   4.410   0.185   3.987
  527SOL     OW 2479   0.508   1.544   1.108
  527SOL    HW1 2480   0.518   1.581   1.201
  527SOL    HW2 2481   0.480   1.617   1.046
  528SOL     OW 2482   0.135   2.665   3.920
  528SOL    HW1 2483   0.190   2.700   3.995
  528SOL    HW2 2484   0.097   2.576   3.945
  529SOL     OW 2485   1.276   0.543   6.146
  529SOL    HW1 2486   1.364   0.535   6.100
  529SOL    HW2 2487   1.291   0.573   6.241
  530SOL     OW 2488   3.303   4.483   1.411
  530SOL    HW1 2489   3.344   4.573   1.419
  530SOL    HW2 2490   3.341   4.436   1.331
  531SOL     OW 2491   1.485   0.014   6.658
  531SOL    HW1 2492   1.415   0.017   6.730
  531SOL    HW2 2493   1.443   0.038   6.570
  532SOL     OW 2494   2.376   1.042   5.852
  532SOL    HW1 2495   2.413   1.012   5.940
  532SOL    HW2 2496   2.284   1.080   5.865
  533SOL     OW 2497   4.016   0.564   3.938
  533SOL    HW1 2498   3.954   0.519   4.002
  533SOL    HW2 2499   4.049   0.649   3.978
  534SOL     OW 2500   1.684   3.961   1.668
  534SOL    HW1 2501   1.752   3.888   1.661
  534SOL    HW2 2502   1.676   3.990   1.763
  535SOL     OW 2503   5.207   3.698   4.490
  535SOL    HW1 2504   5.204   3.605   4.525
  535SOL    HW2 2505   5.218   3.696   4.390
  536SOL     OW 2506   6.314   6.430   1.593
  536SOL    HW1 2507   6.318   6.364   1.668
  536SOL    HW2 2508   6.218   6.451   1.573
  537SOL     OW 2509   2.988   1.608   2.350
  537SOL    HW1 2510   2.933   1.691   2.365
  537SOL    HW2 2511   2.967   1.541   2.421
  538SOL     OW 2512   3.673   5.000   5.006
  538SOL    HW1 2513   3.661   4.984   4.908
  538SOL    HW2 2514   3.592   4.967   5.055
  539SOL     OW 2515   1.920   0.261   6.648
  539SOL    HW1 2516   1.929   0.354   6.614
  539SOL    HW2 2517   1.987   0.246   6.721
  540SOL     OW 2518   1.733   0.908   5.226
  540SOL    HW1 2519   1.760   0.822   5.184
  540SOL    HW2 2520   1.729   0.980   5.156
  541SOL     OW 2521   5.262   6.280   3.851
  541SOL    HW1 2522   5.348   6.331   3.843
  541SOL    HW2 2523   5.280   6.190   3.890
  542SOL     OW 2524   3.936   7.000   6.041
  542SOL    HW1 2525   4.026   0.024   6.056
  542SOL    HW2 2526   3.937   6.950   5.954
  543SOL     OW 2527   5.858   2.671   3.687
  543SOL    HW1 2528   5.910   2.742   3.734
  543SOL    HW2 2529   5.920   2.598   3.658
  544SOL     OW 2530   1.418   3.281   1.067
  544SOL    HW1 2531   1.438   3.184   1.053
  544SOL    HW2 2532   1.321   3.298   1.050
  545SOL     OW 2533   6.711   5.654   0.689
  545SOL    HW1 2534   6.625   5.701   0.672
  545SOL    HW2 2535   6.694   5.574   0.747
  546SOL     OW 2536   0.594   3.964   1.745
  546SOL    HW1 2537   0.561   4.038   1.687
  546SOL    HW2 2538   0.520   3.934   1.806
  547SOL     OW 2539   4.583   0.155   6.599
  547SOL    HW1 2540   4.532   0.234   6.634
  547SOL    HW2 2541   4.583   0.157   6.499
  548SOL     OW 2542   4.078   3.383   0.565
  548SOL    HW1 2543   3.992   3.405   0.520
  548SOL    HW2 2544   4.154   3.414   0.508
  549SOL     OW 2545   5.458   1.597   2.187
  549SOL    HW1 2546   5.416   1.685   2.163
  549SOL    HW2 2547   5.553   1.595   2.156
  550SOL     OW 2548   7.004   5.806   3.253
  550SOL    HW1 2549   6.940   5.739   3.289
  550SOL    HW2 2550   0.004   5.786   3.156
  551SOL     OW 2551   6.062   0.383   0.027
  551SOL    HW1 2552   6.001   0.412   0.101
  551SOL    HW2 2553   6.070   0.457   6.978
  552SOL     OW 2554   0.890   7.018   4.978
  552SOL    HW1 2555   0.818   0.002   5.047
  552SOL    HW2 2556   0.978   0.019   5.021
  553SOL     OW 2557   3.604   2.701   6.676
  553SOL    HW1 2558   3.594   2.607   6.642
  553SOL    HW2 2559   3.661   2.753   6.613
  554SOL     OW 2560   6.615   5.367   0.571
  554SOL    HW1 2561   6.561   5.287   0.544
  554SOL    HW2 2562   6.625   5.370   0.670
  555SOL     OW 2563   2.636   3.710   5.406
  555SOL    HW1 2564   2.710   3.652   5.372
  555SOL    HW2 2565   2.651   3.804   5.376
  556SOL     OW 2566   5.989   6.755   3.222
  556SOL    HW1 2567   5.970   6.777   3.318
  556SOL    HW2 2568   6.085   6.729   3.212
  557SOL     OW 2569   5.444   4.222   6.178
  557SOL    HW1 2570   5.514   4.250   6.244
  557SOL    HW2 2571   5.488   4.189   6.095
  558SOL     OW 2572   3.351   3.822   2.387
  558SOL    HW1 2573   3.418   3.794   2.318
  558SOL    HW2 2574   3.390   3.809   2.478
  559SOL     OW 2575   6.815   0.597   6.646
  559SOL    HW1 2576   6.745   0.554   6.589
  559SOL    HW2 2577   6.855   0.529   6.707
  560SOL     OW 2578   6.681   2.822   4.343
  560SOL    HW1 2579   6.629   2.776   4.271
  560SOL    HW2 2580   6.622   2.889   4.388
  561SOL     OW 2581   0.452   3.541   0.606
  561SOL    HW1 2582   0.407   3.623   0.638
  561SOL    HW2 2583   0.507   3.562   0.524
  562SOL     OW 2584   4.030   6.529   3.943
  562SOL    HW1 2585   3.998   6.461   3.877
  562SOL    HW2 2586   4.126   6.509   3.967
  563SOL     OW 2587   1.389   0.843   4.047
  563SOL    HW1 2588   1.392   0.937   4.010
  563SOL    HW2 2589   1.482   0.809   4.055
  564SOL     OW 2590   6.260   2.161   6.408
  564SOL    HW1 2591   6.239   2.079   6.461
  564SOL    HW2 2592   6.314   2.136   6.328
  565SOL     OW 2593   3.491   3.441   3.513
  565SOL    HW1 2594   3.397   3.457   3.485
  565SOL    HW2 2595   3.500   3.455   3.612
  566SOL     OW 2596   2.892   1.270   3.761
  566SOL    HW1 2597   2.892   1.251   3.859
  566SOL    HW2 2598   2.799   1.267   3.725
  567SOL     OW 2599   2.745   2.601   5.444
  567SOL    HW1 2600   2.733   2.663   5.522
  567SOL    HW2 2601   2.837   2.610   5.408
  568SOL     OW 2602   0.788   6.249   6.998
  568SOL    HW1 2603   0.788   6.288   6.906
  568SOL    HW2 2604   0.788   6.150   6.992
  569SOL     OW 2605   5.765   3.325   6.945
  569SOL    HW1 2606   5.823   3.325   0.009
  569SOL    HW2 2607   5.723   3.415   6.935
  570SOL     OW 2608   3.317   0.598   5.639
  570SOL    HW1 2609   3.295   0.583   5.735
  570SOL    HW2 2610   3.242   0.565   5.582
  571SOL     OW 2611   2.540   4.526   1.530
  571SOL    HW1 2612   2.490   4.594   1.584
  571SOL    HW2 2613   2.610   4.484   1.587
  572SOL     OW 2614   2.586   0.942   4.836
  572SOL    HW1 2615   2.571   0.862   4.779
  572SOL    HW2 2616   2.641   1.009   4.786
  573SOL     OW 2617   0.566   0.965   5.327
  573SOL    HW1 2618   0.610   0.940   5.412
  573SOL    HW2 2619   0.612   0.920   5.250
  574SOL     OW 2620   2.130   1.133   5.851
  574SOL    HW1 2621   2.120   1.225   5.813
  574SOL    HW2 2622   2.067   1.122   5.928
  575SOL     OW 2623   3.924   4.113   7.008
  575SOL    HW1 2624   3.852   4.051   6.978
  575SOL    HW2 2625   4.011   4.064   7.011
  576SOL     OW 2626   1.644   1.335   2.989
  576SOL    HW1 2627   1.610   1.423   2.954
  576SOL    HW2 2628   1.605   1.261   2.935
  577SOL     OW 2629   0.171   0.985   1.831
  577SOL    HW1 2630   0.234   0.970   1.908
  577SOL    HW2 2631   0.149   1.082   1.825
  578SOL     OW 2632   3.454   6.874   0.011
  578SOL    HW1 2633   3.392   6.845   6.957
  578SOL    HW2 2634   3.486   6.793   0.061
  579SOL     OW 2635   1.428   3.888   1.883
  579SOL    HW1 2636   1.488   3.821   1.839
  579SOL    HW2 2637   1.365   3.841   1.945
  580SOL     OW 2638   4.573   5.086   4.734
  580SOL    HW1 2639   4.518   5.157   4.779
  580SOL    HW2 2640   4.605   5.021   4.803
  581SOL     OW 2641   1.946   2.485   4.429
  581SOL    HW1 2642   1.936   2.419   4.503
  581SOL    HW2 2643   2.018   2.551   4.452
  582SOL     OW 2644   5.908   5.017   4.481
  582SOL    HW1 2645   5.996   4.971   4.492
  582SOL    HW2 2646   5.847   4.960   4.427
  583SOL     OW 2647   3.812   6.152   5.728
  583SOL    HW1 2648   3.729   6.111   5.691
  583SOL    HW2 2649   3.888   6.087   5.719
  584SOL     OW 2650   3.748   0.258   5.147
  584SOL    HW1 2651   3.668   0.318   5.146
  584SOL    HW2 2652   3.718   0.163   5.152
  585SOL     OW 2653   3.608   6.905   1.290
  585SOL    HW1 2654   3.533   6.896   1.224
  585SOL    HW2 2655   3.670   6.827   1.280
  586SOL     OW 2656   3.814   0.175   0.800
  586SOL    HW1 2657   3.896   0.190   0.745
  586SOL    HW2 2658   3.806   0.247   0.870
  587SOL     OW 2659   4.487   1.565   2.354
  587SOL    HW1 2660   4.533   1.485   2.315
  587SOL    HW2 2661   4.553   1.620   2.404
  588SOL     OW 2662   1.812   4.566   2.819
  588SOL    HW1 2663   1.843   4.555   2.725
  588SOL    HW2 2664   1.820   4.479   2.868
  589SOL     OW 2665   3.219   5.534   0.581
  589SOL    HW1 2666   3.284   5.508   0.652
  589SOL    HW2 2667   3.269   5.559   0.498
  590SOL     OW 2668   3.138   1.919   0.147
  590SOL    HW1 2669   3.233   1.950   0.142
  590SOL    HW2 2670   3.097   1.921   0.056
  591SOL     OW 2671   2.718   6.381   3.800
  591SOL    HW1 2672   2.623   6.410   3.793
  591SOL    HW2 2673   2.750   6.347   3.712
  592SOL     OW 2674   4.030   1.995   4.679
  592SOL    HW1 2675   4.063   2.041   4.596
  592SOL    HW2 2676   3.954   2.046   4.717
  593SOL     OW 2677   2.121   1.702   6.759
  593SOL    HW1 2678   2.150   1.798   6.765
  593SOL    HW2 2679   2.157   1.652   6.837
  594SOL     OW 2680   4.269   1.046   2.968
  594SOL    HW1 2681   4.358   1.006   2.992
  594SOL    HW2 2682   4.222   1.078   3.050
  595SOL     OW 2683   6.322   4.955   2.864
  595SOL    HW1 2684   6.382   5.029   2.834
  595SOL    HW2 2685   6.242   4.993   2.911
  596SOL     OW 2686   6.535   4.791   4.424
  596SOL    HW1 2687   6.612   4.839   4.466
  596SOL    HW2 2688   6.568   4.707   4.380
  597SOL     OW 2689   3.412   1.357   6.683
  597SOL    HW1 2690   3.415   1.278   6.744
  597SOL    HW2 2691   3.489   1.354   6.620
  598SOL     OW 2692   3.169   4.060   3.592
  598SOL    HW1 2693   3.256   4.092   3.630
  598SOL    HW2 2694   3.159   3.962   3.608
  599SOL     OW 2695   1.624   5.179   1.700
  599SOL    HW1 2696   1.622   5.266   1.750
  599SOL    HW2 2697   1.532   5.156   1.669
  600SOL     OW 2698   0.089   3.445   5.301
  600SOL    HW1 2699   7.015   3.417   5.327
  600SOL    HW2 2700   0.127   3.378   5.236
  601SOL     OW 2701   0.391   6.318   5.906
  601SOL    HW1 2702   0.472   6.371   5.931
  601SOL    HW2 2703   0.416   6.251   5.836
  602SOL     OW 2704   1.694   0.457   3.733
  602SOL    HW1 2705   1.776   0.424   3.779
  602SOL    HW2 2706   1.681   0.554   3.755
  603SOL     OW 2707   1.990   1.551   4.135
  603SOL    HW1 2708   2.052   1.534   4.211
  603SOL    HW2 2709   1.921   1.478   4.131
  604SOL     OW 2710   5.906   3.127   0.897
  604SOL    HW1 2711   5.952   3.149   0.811
  604SOL    HW2 2712   5.889   3.029   0.902
  605SOL     OW 2713   6.408   6.568   1.300
  605SOL    HW1 2714   6.429   6.485   1.353
  605SOL    HW2 2715   6.312   6.592   1.313
  606SOL     OW 2716   3.990   6.695   4.902
  606SOL    HW1 2717   3.991   6.738   4.811
  606SOL    HW2 2718   3.923   6.740   4.960
  607SOL     OW 2719   1.633   3.033   5.961
  607SOL    HW1 2720   1.699   3.022   5.887
  607SOL    HW2 2721   1.617   2.944   6.005
  608SOL     OW 2722   3.234   1.232   5.939
  608SOL    HW1 2723   3.201   1.217   5.846
  608SOL    HW2 2724   3.308   1.167   5.959
  609SOL     OW 2725   3.868   2.990   2.262
  609SOL    HW1 2726   3.788   2.930   2.253
  609SOL    HW2 2727   3.925   2.982   2.180
  610SOL     OW 2728   4.593   3.546   1.596
  610SOL    HW1 2729   4.666   3.539   1.663
  610SOL    HW2 2730   4.623   3.507   1.509
  611SOL     OW 2731   4.097   1.429   3.137
  611SOL    HW1 2732   4.097   1.401   3.041
  611SOL    HW2 2733   4.078   1.350   3.195
  612SOL     OW 2734   4.970   5.038   3.561
  612SOL    HW1 2735   5.069   5.053   3.558
  612SOL    HW2 2736   4.952   4.947   3.598
  613SOL     OW 2737   3.782   4.706   5.853
  613SOL    HW1 2738   3.821   4.619   5.823
  613SOL    HW2 2739   3.831   4.739   5.934
  614SOL     OW 2740   2.569   6.186   6.001
  614SOL    HW1 2741   2.646   6.238   6.039
  614SOL    HW2 2742   2.490   6.193   6.061
  615SOL     OW 2743   0.352   4.645   2.704
  615SOL    HW1 2744   0.394   4.736   2.704
  615SOL    HW2 2745   0.423   4.575   2.703
  616SOL     OW 2746   6.249   2.850   3.740
  616SOL    HW1 2747   6.326   2.826   3.800
  616SOL    HW2 2748   6.164   2.843   3.791
  617SOL     OW 2749   3.217   6.547   5.934
  617SOL    HW1 2750   3.292   6.490   5.967
  617SOL    HW2 2751   3.140   6.540   5.997
  618SOL     OW 2752   1.737   0.897   3.259
  618SOL    HW1 2753   1.756   0.851   3.346
  618SOL    HW2 2754   1.648   0.867   3.225
  619SOL     OW 2755   1.043   2.025   6.899
  619SOL    HW1 2756   1.043   2.114   6.853
  619SOL    HW2 2757   1.135   1.985   6.895
  620SOL     OW 2758   4.246   3.320   1.193
  620SOL    HW1 2759   4.250   3.418   1.172
  620SOL    HW2 2760   4.153   3.295   1.221
  621SOL     OW 2761   0.334   5.582   1.037
  621SOL    HW1 2762   0.266   5.649   1.065
  621SOL    HW2 2763   0.396   5.623   0.969
  622SOL     OW 2764   0.685   0.648   6.541
  622SOL    HW1 2765   0.666   0.681   6.448
  622SOL    HW2 2766   0.727   0.721   6.594
  623SOL     OW 2767   0.345   5.143   5.288
  623SOL    HW1 2768   0.438   5.178   5.285
  623SOL    HW2 2769   0.285   5.211   5.328
  624SOL     OW 2770   0.946   1.605   1.050
  624SOL    HW1 2771   0.949   1.600   0.950
  624SOL    HW2 2772   0.976   1.696   1.080
  625SOL     OW 2773   1.779   1.544   2.704
  625SOL    HW1 2774   1.848   1.599   2.752
  625SOL    HW2 2775   1.689   1.585   2.717
  626SOL     OW 2776   3.249   6.779   4.558
  626SOL    HW1 2777   3.301   6.709   4.605
  626SOL    HW2 2778   3.310   6.854   4.532
  627SOL     OW 2779   5.148   0.250   0.138
  627SOL    HW1 2780   5.186   0.166   0.176
  627SOL    HW2 2781   5.050   0.238   0.122
  628SOL     OW 2782   5.708   4.163   3.554
  628SOL    HW1 2783   5.705   4.127   3.461
  628SOL    HW2 2784   5.655   4.103   3.614
  629SOL     OW 2785   1.567   6.859   0.916
  629SOL    HW1 2786   1.609   6.837   0.828
  629SOL    HW2 2787   1.505   6.937   0.904
  630SOL     OW 2788   3.579   1.944   1.314
  630SOL    HW1 2789   3.505   1.951   1.381
  630SOL    HW2 2790   3.557   1.998   1.233
  631SOL     OW 2791   2.470   0.171   4.743
  631SOL    HW1 2792   2.463   0.230   4.824
  631SOL    HW2 2793   2.515   0.085   4.769
  632SOL     OW 2794   2.827   0.388   0.972
  632SOL    HW1 2795   2.752   0.454   0.970
  632SOL    HW2 2796   2.900   0.422   1.031
  633SOL     OW 2797   2.400   6.555   5.333
  633SOL    HW1 2798   2.369   6.465   5.362
  633SOL    HW2 2799   2.498   6.565   5.352
  634SOL     OW 2800   2.757   5.572   1.976
  634SOL    HW1 2801   2.693   5.637   2.018
  634SOL    HW2 2802   2.842   5.619   1.955
  635SOL     OW 2803   2.644   0.609   2.567
  635SOL    HW1 2804   2.662   0.707   2.578
  635SOL    HW2 2805   2.644   0.587   2.469
  636SOL     OW 2806   5.079   5.456   0.043
  636SOL    HW1 2807   5.063   5.399   0.123
  636SOL    HW2 2808   5.144   5.411   7.000
  637SOL     OW 2809   5.955   4.361   6.804
  637SOL    HW1 2810   5.981   4.437   6.864
  637SOL    HW2 2811   5.993   4.376   6.713
  638SOL     OW 2812   5.233   1.316   2.744
  638SOL    HW1 2813   5.327   1.351   2.737
  638SOL    HW2 2814   5.221   1.241   2.679
  639SOL     OW 2815   4.834   3.947   2.445
  639SOL    HW1 2816   4.779   4.030   2.453
  639SOL    HW2 2817   4.883   3.947   2.358
  640SOL     OW 2818   2.309   3.319   5.783
  640SOL    HW1 2819   2.282   3.345   5.690
  640SOL    HW2 2820   2.228   3.293   5.836
  641SOL     OW 2821   0.352   5.811   6.023
  641SOL    HW1 2822   0.432   5.751   6.028
  641SOL    HW2 2823   0.271   5.762   6.055
  642SOL     OW 2824   1.191   4.825   6.181
  642SOL    HW1 2825   1.185   4.903   6.118
  642SOL    HW2 2826   1.103   4.778   6.184
  643SOL     OW 2827   6.024   6.040   5.216
  643SOL    HW1 2828   6.028   5.941   5.203
  643SOL    HW2 2829   5.982   6.083   5.136
  644SOL     OW 2830   2.631   5.589   2.310
  644SOL    HW1 2831   2.662   5.501   2.276
  644SOL    HW2 2832   2.531   5.591   2.312
  645SOL     OW 2833   6.643   2.793   2.970
  645SOL    HW1 2834   6.602   2.872   3.016
  645SOL    HW2 2835   6.742   2.802   2.971
  646SOL     OW 2836   1.258   2.296   4.465
  646SOL    HW1 2837   1.253   2.320   4.368
  646SOL    HW2 2838   1.233   2.200   4.476
  647SOL     OW 2839   5.546   3.021   0.228
  647SOL    HW1 2840   5.521   3.006   0.324
  647SOL    HW2 2841   5.464   3.013   0.171
  648SOL     OW 2842   4.834   2.124   3.756
  648SOL    HW1 2843   4.914   2.163   3.711
  648SOL    HW2 2844   4.798   2.189   3.822
  649SOL     OW 2845   4.541   4.454   2.231
  649SOL    HW1 2846   4.534   4.368   2.181
  649SOL    HW2 2847   4.620   4.451   2.292
  650SOL     OW 2848   5.247   3.706   0.602
  650SOL    HW1 2849   5.198   3.631   0.647
  650SOL    HW2 2850   5.333   3.724   0.651
  651SOL     OW 2851   0.955   6.376   6.344
  651SOL    HW1 2852   1.000   6.349   6.429
  651SOL    HW2 2853   0.865   6.332   6.339
  652SOL     OW 2854   5.101   1.703   2.464
  652SOL    HW1 2855   5.180   1.761   2.483
  652SOL    HW2 2856   5.059   1.732   2.378
  653SOL     OW 2857   3.438   4.901   2.977
  653SOL    HW1 2858   3.528   4.897   2.934
  653SOL    HW2 2859   3.382   4.826   2.944
  654SOL     OW 2860   6.496   5.593   6.701
  654SOL    HW1 2861   6.453   5.513   6.743
  654SOL    HW2 2862   6.479   5.593   6.603
  655SOL     OW 2863   0.235   1.169   0.049
  655SOL    HW1 2864   0.323   1.207   0.020
  655SOL    HW2 2865   0.210   1.093   7.007
  656SOL     OW 2866   2.167   5.940   1.558
  656SOL    HW1 2867   2.144   5.960   1.463
  656SOL    HW2 2868   2.120   6.005   1.618
  657SOL     OW 2869   3.768   1.490   6.796
  657SOL    HW1 2870   3.670   1.469   6.800
  657SOL    HW2 2871   3.804   1.501   6.888
  658SOL     OW 2872   4.060   5.260   5.947
  658SOL    HW1 2873   4.114   5.203   5.885
  658SOL    HW2 2874   4.018   5.335   5.895
  659SOL     OW 2875   3.295   0.173   5.703
  659SOL    HW1 2876   3.276   0.236   5.628
  659SOL    HW2 2877   3.380   0.201   5.748
  660SOL     OW 2878   3.665   5.770   3.242
  660SOL    HW1 2879   3.739   5.704   3.258
  660SOL    HW2 2880   3.577   5.726   3.256
  661SOL     OW 2881   6.173   5.888   2.815
  661SOL    HW1 2882   6.247   5.867   2.751
  661SOL    HW2 2883   6.201   5.964   2.874
  662SOL     OW 2884   3.954   1.283   0.665
  662SOL    HW1 2885   4.037   1.239   0.701
  662SOL    HW2 2886   3.900   1.215   0.616
  663SOL     OW 2887   1.816   4.658   4.687
  663SOL    HW1 2888   1.840   4.754   4.669
  663SOL    HW2 2889   1.840   4.636   4.781
  664SOL     OW 2890   5.466   0.562   6.691
  664SOL    HW1 2891   5.517   0.488   6.734
  664SOL    HW2 2892   5.450   0.636   6.757
  665SOL     OW 2893   1.504   4.421   2.244
  665SOL    HW1 2894   1.568   4.494   2.221
  665SOL    HW2 2895   1.410   4.456   2.237
  666SOL     OW 2896   4.467   1.276   1.164
  666SOL    HW1 2897   4.511   1.341   1.225
  666SOL    HW2 2898   4.370   1.297   1.157
  667SOL     OW 2899   1.129   0.065   2.327
  667SOL    HW1 2900   1.061   0.136   2.312
  667SOL    HW2 2901   1.171   0.039   2.240
  668SOL     OW 2902   5.483   3.767   0.740
  668SOL    HW1 2903   5.450   3.852   0.782
  668SOL    HW2 2904   5.581   3.776   0.722
  669SOL     OW 2905   4.875   1.895   2.405
  669SOL    HW1 2906   4.781   1.866   2.422
  669SOL    HW2 2907   4.888   1.911   2.307
  670SOL     OW 2908   3.227   2.101   3.345
  670SOL    HW1 2909   3.218   2.013   3.299
  670SOL    HW2 2910   3.309   2.100   3.403
  671SOL     OW 2911   2.432   6.304   1.541
  671SOL    HW1 2912   2.515   6.356   1.563
  671SOL    HW2 2913   2.355   6.338   1.595
  672SOL     OW 2914   0.952   7.014   2.555
  672SOL    HW1 2915   0.966   0.007   2.653
  672SOL    HW2 2916   1.020   0.049   2.505
  673SOL     OW 2917   5.906   0.170   6.882
  673SOL    HW1 2918   5.965   0.158   6.802
  673SOL    HW2 2919   5.908   0.266   6.910
  674SOL     OW 2920   5.099   0.491   3.809
  674SOL    HW1 2921   5.153   0.441   3.741
  674SOL    HW2 2922   5.043   0.559   3.762
  675SOL     OW 2923   0.490   3.927   3.341
  675SOL    HW1 2924   0.397   3.952   3.370
  675SOL    HW2 2925   0.543   4.010   3.324
  676SOL     OW 2926   2.490   6.551   6.102
  676SOL    HW1 2927   2.465   6.461   6.137
  676SOL    HW2 2928   2.424   6.579   6.032
  677SOL     OW 2929   5.636   1.770   1.065
  677SOL    HW1 2930   5.599   1.807   0.979
  677SOL    HW2 2931   5.568   1.712   1.109
  678SOL     OW 2932   0.843   5.018   3.689
  678SOL    HW1 2933   0.908   4.944   3.704
  678SOL    HW2 2934   0.829   5.069   3.774
  679SOL     OW 2935   4.515   1.876   5.535
  679SOL    HW1 2936   4.510   1.896   5.437
  679SOL    HW2 2937   4.430   1.903   5.580
  680SOL     OW 2938   6.511   6.175   4.052
  680SOL    HW1 2939   6.514   6.164   4.152
  680SOL    HW2 2940   6.436   6.237   4.028
  681SOL     OW 2941   4.877   4.421   3.052
  681SOL    HW1 2942   4.788   4.445   3.014
  681SOL    HW2 2943   4.865   4.358   3.129
  682SOL     OW 2944   0.223   1.472   2.714
  682SOL    HW1 2945   0.164   1.508   2.642
  682SOL    HW2 2946   0.205   1.520   2.800
  683SOL     OW 2947   3.469   4.275   1.254
  683SOL    HW1 2948   3.439   4.187   1.219
  683SOL    HW2 2949   3.518   4.262   1.341
  684SOL     OW 2950   6.374   1.425   5.562
  684SOL    HW1 2951   6.438   1.350   5.576
  684SOL    HW2 2952   6.425   1.507   5.533
  685SOL     OW 2953   2.816   6.845   2.965
  685SOL    HW1 2954   2.896   6.834   2.906
  685SOL    HW2 2955   2.792   6.757   3.005
  686SOL     OW 2956   3.736   0.410   4.900
  686SOL    HW1 2957   3.763   0.361   4.983
  686SOL    HW2 2958   3.756   0.507   4.911
  687SOL     OW 2959   0.002   1.544   3.419
  687SOL    HW1 2960   6.946   1.492   3.461
  687SOL    HW2 2961   0.067   1.571   3.490
  688SOL     OW 2962   5.729   1.502   6.984
  688SOL    HW1 2963   5.761   1.535   6.896
  688SOL    HW2 2964   5.806   1.498   0.030
  689SOL     OW 2965   1.653   5.679   6.684
  689SOL    HW1 2966   1.626   5.774   6.668
  689SOL    HW2 2967   1.609   5.620   6.616
  690SOL     OW 2968   5.627   3.677   3.352
  690SOL    HW1 2969   5.582   3.740   3.289
  690SOL    HW2 2970   5.618   3.710   3.446
  691SOL     OW 2971   6.102   1.417   1.372
  691SOL    HW1 2972   6.007   1.394   1.351
  691SOL    HW2 2973   6.141   1.346   1.431
  692SOL     OW 2974   1.813   0.333   5.001
  692SOL    HW1 2975   1.766   0.374   4.923
  692SOL    HW2 2976   1.909   0.363   5.001
  693SOL     OW 2977   5.959   5.596   2.942
  693SOL    HW1 2978   6.016   5.646   3.006
  693SOL    HW2 2979   5.863   5.615   2.962
  694SOL     OW 2980   4.383   5.981   5.056
  694SOL    HW1 2981   4.440   5.901   5.035
  694SOL    HW2 2982   4.426   6.034   5.129
  695SOL     OW 2983   4.524   6.836   3.808
  695SOL    HW1 2984   4.556   6.931   3.811
  695SOL    HW2 2985   4.529   6.796   3.899
  696SOL     OW 2986   5.649   4.095   2.625
  696SOL    HW1 2987   5.638   4.006   2.581
  696SOL    HW2 2988   5.724   4.092   2.690
  697SOL     OW 2989   1.015   6.293   2.168
  697SOL    HW1 2990   1.002   6.195   2.180
  697SOL    HW2 2991   1.042   6.311   2.073
  698SOL     OW 2992   5.693   6.292   6.745
  698SOL    HW1 2993   5.748   6.272   6.664
  698SOL    HW2 2994   5.597   6.269   6.727
  699SOL     OW 2995   3.155   3.394   1.075
  699SOL    HW1 2996   3.114   3.413   1.165
  699SOL    HW2 2997   3.156   3.478   1.021
  700SOL     OW 2998   4.003   6.954   4.674
  700SOL    HW1 2999   3.962   6.962   4.583
  700SOL    HW2 3000   3.957   7.016   4.738
  701SOL     OW 3001   4.625   5.249   1.601
  701SOL    HW1 3002   4.707   5.201   1.569
  701SOL    HW2 3003   4.558   5.252   1.526
  702SOL     OW 3004   4.079   0.790   4.630
  702SOL    HW1 3005   4.170   0.821   4.601
  702SOL    HW2 3006   4.041   0.729   4.560
  703SOL     OW 3007   2.511   2.481   6.838
  703SOL    HW1 3008   2.452   2.472   6.757
  703SOL    HW2 3009   2.602   2.511   6.810
  704SOL     OW 3010   3.292   2.038   5.496
  704SOL    HW1 3011   3.280   2.131   5.462
  704SOL    HW2 3012   3.379   2.031   5.544
  705SOL     OW 3013   0.286   6.967   5.146
  705SOL    HW1 3014   0.348   6.962   5.068
  705SOL    HW2 3015   0.250   6.875   5.166
  706SOL     OW 3016   3.734   1.400   4.462
  706SOL    HW1 3017   3.787   1.428   4.542
  706SOL    HW2 3018   3.732   1.301   4.456
  707SOL     OW 3019   2.872   5.140   4.275
  707SOL    HW1 3020   2.961   5.160   4.234
  707SOL    HW2 3021   2.833   5.225   4.312
  708SOL     OW 3022   5.239   6.002   3.966
  708SOL    HW1 3023   5.207   6.054   4.045
  708SOL    HW2 3024   5.162   5.953   3.925
  709SOL     OW 3025   2.303   0.530   1.051
  709SOL    HW1 3026   2.332   0.434   1.043
  709SOL    HW2 3027   2.203   0.535   1.046
  710SOL     OW 3028   5.125   3.370   1.854
  710SOL    HW1 3029   5.133   3.369   1.754
  710SOL    HW2 3030   5.057   3.302   1.883
  711SOL     OW 3031   0.169   1.670   0.388
  711SOL    HW1 3032   0.162   1.640   0.483
  711SOL    HW2 3033   0.209   1.596   0.333
  712SOL     OW 3034   4.837   4.191   6.923
  712SOL    HW1 3035   4.751   4.223   6.961
  712SOL    HW2 3036   4.871   4.114   6.976
  713SOL     OW 3037   4.666   3.503   5.727
  713SOL    HW1 3038   4.664   3.596   5.762
  713SOL    HW2 3039   4.682   3.505   5.628
  714SOL     OW 3040   5.596   5.841   3.280
  714SOL    HW1 3041   5.696   5.827   3.278
  714SOL    HW2 3042   5.557   5.807   3.194
  715SOL     OW 3043   6.283   4.550   5.288
  715SOL    HW1 3044   6.368   4.597   5.311
  715SOL    HW2 3045   6.264   4.480   5.356
  716SOL     OW 3046   2.790   2.116   3.499
  716SOL    HW1 3047   2.780   2.082   3.593
  716SOL    HW2 3048   2.715   2.179   3.478
  717SOL     OW 3049   5.133   4.966   4.196
  717SOL    HW1 3050   5.144   5.051   4.247
  717SOL    HW2 3051   5.056   4.914   4.234
  718SOL     OW 3052   5.426   2.437   5.178
  718SOL    HW1 3053   5.525   2.424   5.187
  718SOL    HW2 3054   5.381   2.409   5.262
  719SOL     OW 3055   4.876   7.001   3.815
  719SOL    HW1 3056   4.777   7.013   3.807
  719SOL    HW2 3057   4.899   6.904   3.811
  720SOL     OW 3058   2.777   1.165   0.964
  720SOL    HW1 3059   2.834   1.221   0.905
  720SOL    HW2 3060   2.686   1.155   0.923
  721SOL     OW 3061   6.788   2.417   1.780
  721SOL    HW1 3062   6.790   2.449   1.875
  721SOL    HW2 3063   6.716   2.465   1.730
  722SOL     OW 3064   4.964   6.186   0.459
  722SOL    HW1 3065   5.044   6.247   0.466
  722SOL    HW2 3066   4.982   6.116   0.390
  723SOL     OW 3067   2.338   0.579   4.681
  723SOL    HW1 3068   2.367   0.673   4.694
  723SOL    HW2 3069   2.414   0.524   4.647
  724SOL     OW 3070   0.940   2.031   4.130
  724SOL    HW1 3071   0.893   1.971   4.195
  724SOL    HW2 3072   0.909   2.011   4.037
  725SOL     OW 3073   1.822   4.322   2.966
  725SOL    HW1 3074   1.889   4.281   3.028
  725SOL    HW2 3075   1.730   4.310   3.004
  726SOL     OW 3076   1.804   3.616   1.030
  726SOL    HW1 3077   1.854   3.624   1.117
  726SOL    HW2 3078   1.820   3.525   0.992
  727SOL     OW 3079   3.761   5.270   4.811
  727SOL    HW1 3080   3.671   5.283   4.769
  727SOL    HW2 3081   3.798   5.182   4.782
  728SOL     OW 3082   6.472   3.227   3.595
  728SOL    HW1 3083   6.506   3.237   3.502
  728SOL    HW2 3084   6.543   3.184   3.652
  729SOL     OW 3085   0.263   4.209   0.781
  729SOL    HW1 3086   0.288   4.256   0.866
  729SOL    HW2 3087   0.323   4.131   0.768
  730SOL     OW 3088   3.960   1.191   3.232
  730SOL    HW1 3089   3.925   1.179   3.139
  730SOL    HW2 3090   3.889   1.168   3.298
  731SOL     OW 3091   4.472   4.834   4.481
  731SOL    HW1 3092   4.470   4.745   4.527
  731SOL    HW2 3093   4.484   4.906   4.549
  732SOL     OW 3094   3.738   1.059   5.215
  732SOL    HW1 3095   3.819   1.102   5.255
  732SOL    HW2 3096   3.764   0.972   5.172
  733SOL     OW 3097   6.316   5.287   3.194
  733SOL    HW1 3098   6.368   5.359   3.241
  733SOL    HW2 3099   6.238   5.328   3.146
  734SOL     OW 3100   6.246   6.818   2.546
  734SOL    HW1 3101   6.213   6.745   2.485
  734SOL    HW2 3102   6.221   6.796   2.640
  735SOL     OW 3103   4.709   0.116   2.073
  735SOL    HW1 3104   4.716   0.038   2.135
  735SOL    HW2 3105   4.633   0.175   2.101
  736SOL     OW 3106   2.091   1.232   3.850
  736SOL    HW1 3107   2.151   1.211   3.773
  736SOL    HW2 3108   2.060   1.326   3.843
  737SOL     OW 3109   3.643   0.951   6.435
  737SOL    HW1 3110   3.600   0.963   6.525
  737SOL    HW2 3111   3.695   1.033   6.411
  738SOL     OW 3112   2.519   4.779   0.429
  738SOL    HW1 3113   2.477   4.777   0.520
  738SOL    HW2 3114   2.528   4.686   0.394
  739SOL     OW 3115   2.397   6.580   3.492
  739SOL    HW1 3116   2.354   6.649   3.434
  739SOL    HW2 3117   2.370   6.595   3.587
  740SOL     OW 3118   4.963   3.171   2.967
  740SOL    HW1 3119   4.915   3.169   2.879
  740SOL    HW2 3120   4.988   3.265   2.989
  741SOL     OW 3121   2.840   0.712   2.940
  741SOL    HW1 3122   2.807   0.698   3.033
  741SOL    HW2 3123   2.813   0.634   2.882
  742SOL     OW 3124   2.399   6.041   1.646
  742SOL    HW1 3125   2.336   5.970   1.615
  742SOL    HW2 3126   2.415   6.107   1.572
  743SOL     OW 3127   0.320   6.501   3.197
  743SOL    HW1 3128   0.361   6.538   3.114
  743SOL    HW2 3129   0.226   6.532   3.205
  744SOL     OW 3130   5.175   1.850   6.867
  744SOL    HW1 3131   5.114   1.926   6.887
  744SOL    HW2 3132   5.226   1.825   6.950
  745SOL     OW 3133   2.232   6.612   4.706
  745SOL    HW1 3134   2.320   6.569   4.685
  745SOL    HW2 3135   2.172   6.607   4.626
  746SOL     OW 3136   0.570   4.996   5.110
  746SOL    HW1 3137   0.556   5.093   5.130
  746SOL    HW2 3138   0.514   4.941   5.173
  747SOL     OW 3139   4.810   5.773   2.499
  747SOL    HW1 3140   4.804   5.678   2.467
  747SOL    HW2 3141   4.772   5.834   2.430
  748SOL     OW 3142   5.283   5.068   1.650
  748SOL    HW1 3143   5.346   5.079   1.727
  748SOL    HW2 3144   5.189   5.084   1.681
  749SOL     OW 3145   4.915   4.290   4.946
  749SOL    HW1 3146   4.910   4.201   4.991
  749SOL    HW2 3147   4.872   4.286   4.856
  750SOL     OW 3148   2.507   1.973   2.104
  750SOL    HW1 3149   2.434   2.033   2.136
  750SOL    HW2 3150   2.469   1.902   2.045
  751SOL     OW 3151   3.598   0.537   0.699
  751SOL    HW1 3152   3.543   0.547   0.617
  751SOL    HW2 3153   3.666   0.465   0.685
  752SOL     OW 3154   3.574   2.511   5.462
  752SOL    HW1 3155   3.482   2.532   5.428
  752SOL    HW2 3156   3.575   2.417   5.496
  753SOL     OW 3157   3.564   3.787   3.967
  753SOL    HW1 3158   3.470   3.787   3.933
  753SOL    HW2 3159   3.568   3.839   4.053
  754SOL     OW 3160   5.611   0.444   0.268
  754SOL    HW1 3161   5.591   0.451   0.366
  754SOL    HW2 3162   5.581   0.355   0.234
  755SOL     OW 3163   4.374   4.322   5.330
  755SOL    HW1 3164   4.340   4.377   5.254
  755SOL    HW2 3165   4.357   4.225   5.311
  756SOL     OW 3166   2.223   4.934   6.045
  756SOL    HW1 3167   2.152   4.916   6.114
  756SOL    HW2 3168   2.179   4.951   5.956
  757SOL     OW 3169   2.433   6.190   1.870
  757SOL    HW1 3170   2.427   6.146   1.781
  757SOL    HW2 3171   2.348   6.239   1.889
  758SOL     OW 3172   4.969   0.688   4.392
  758SOL    HW1 3173   4.994   0.778   4.356
  758SOL    HW2 3174   5.047   0.626   4.386
  759SOL     OW 3175   0.905   3.427   3.697
  759SOL    HW1 3176   0.834   3.494   3.674
  759SOL    HW2 3177   0.946   3.393   3.612
  760SOL     OW 3178   6.847   5.143   3.235
  760SOL    HW1 3179   6.780   5.171   3.303
  760SOL    HW2 3180   6.898   5.223   3.203
  761SOL     OW 3181   4.662   4.909   6.218
  761SOL    HW1 3182   4.749   4.952   6.193
  761SOL    HW2 3183   4.587   4.970   6.196
  762SOL     OW 3184   3.384   6.306   3.479
  762SOL    HW1 3185   3.362   6.348   3.392
  762SOL    HW2 3186   3.303   6.259   3.515
  763SOL     OW 3187   5.398   0.330   0.489
  763SOL    HW1 3188   5.388   0.410   0.547
  763SOL    HW2 3189   5.330   0.262   0.513
  764SOL     OW 3190   5.263   6.397   5.715
  764SOL    HW1 3191   5.197   6.438   5.652
  764SOL    HW2 3192   5.214   6.351   5.789
  765SOL     OW 3193   6.480   0.044   0.367
  765SOL    HW1 3194   6.498   6.964   0.371
  765SOL    HW2 3195   6.552   0.093   0.415
  766SOL     OW 3196   2.665   2.204   4.296
  766SOL    HW1 3197   2.671   2.114   4.253
  766SOL    HW2 3198   2.697   2.198   4.391
  767SOL     OW 3199   6.583   5.337   4.376
  767SOL    HW1 3200   6.581   5.238   4.366
  767SOL    HW2 3201   6.678   5.369   4.368
  768SOL     OW 3202   1.582   5.184   3.086
  768SOL    HW1 3203   1.556   5.201   3.181
  768SOL    HW2 3204   1.673   5.143   3.084
  769SOL     OW 3205   3.166   2.067   5.749
  769SOL    HW1 3206   3.071   2.097   5.737
  769SOL    HW2 3207   3.204   2.041   5.660
  770SOL     OW 3208   1.188   5.009   5.959
  770SOL    HW1 3209   1.233   4.953   5.889
  770SOL    HW2 3210   1.110   5.056   5.919
  771SOL     OW 3211   1.366   5.125   2.948
  771SOL    HW1 3212   1.444   5.166   2.996
  771SOL    HW2 3213   1.356   5.029   2.976
  772SOL     OW 3214   5.784   4.174   0.418
  772SOL    HW1 3215   5.791   4.231   0.500
  772SOL    HW2 3216   5.874   4.134   0.397
  773SOL     OW 3217   2.010   4.056   3.960
  773SOL    HW1 3218   2.088   4.042   4.021
  773SOL    HW2 3219   1.926   4.065   4.015
  774SOL     OW 3220   2.192   0.964   3.373
  774SOL    HW1 3221   2.205   1.039   3.309
  774SOL    HW2 3222   2.272   0.956   3.433
  775SOL     OW 3223   1.438   4.801   3.062
  775SOL    HW1 3224   1.477   4.834   3.148
  775SOL    HW2 3225   1.488   4.720   3.032
  776SOL     OW 3226   2.635   5.273   5.918
  776SOL    HW1 3227   2.556   5.284   5.977
  776SOL    HW2 3228   2.676   5.363   5.900
  777SOL     OW 3229   2.298   3.817   5.945
  777SOL    HW1 3230   2.243   3.869   6.010
  777SOL    HW2 3231   2.241   3.750   5.898
  778SOL     OW 3232   2.882   5.680   6.817
  778SOL    HW1 3233   2.879   5.600   6.877
  778SOL    HW2 3234   2.965   5.678   6.763
  779SOL     OW 3235   6.013   2.767   2.671
  779SOL    HW1 3236   6.038   2.743   2.577
  779SOL    HW2 3237   5.930   2.718   2.697
  780SOL     OW 3238   6.963   2.445   4.968
  780SOL    HW1 3239   6.911   2.407   4.891
  780SOL    HW2 3240   6.901   2.496   5.028
  781SOL     OW 3241   0.219   4.805   6.893
  781SOL    HW1 3242   0.291   4.817   6.825
  781SOL    HW2 3243   0.137   4.768   6.849
  782SOL     OW 3244   1.896   3.549   4.946
  782SOL    HW1 3245   1.809   3.531   4.990
  782SOL    HW2 3246   1.940   3.628   4.989
  783SOL     OW 3247   6.298   4.991   6.907
  783SOL    HW1 3248   6.271   5.063   6.844
  783SOL    HW2 3249   6.366   4.932   6.864
  784SOL     OW 3250   2.182   5.879   0.454
  784SOL    HW1 3251   2.147   5.959   0.503
  784SOL    HW2 3252   2.245   5.828   0.512
  785SOL     OW 3253   0.553   1.218   3.907
  785SOL    HW1 3254   0.552   1.121   3.882
  785SOL    HW2 3255   0.470   1.262   3.874
  786SOL     OW 3256   5.806   0.458   4.056
  786SOL    HW1 3257   5.874   0.389   4.082
  786SOL    HW2 3258   5.820   0.485   3.961
  787SOL     OW 3259   2.116   0.056   1.255
  787SOL    HW1 3260   2.190   7.012   1.232
  787SOL    HW2 3261   2.047   0.054   1.182
  788SOL     OW 3262   1.952   2.717   1.770
  788SOL    HW1 3263   2.040   2.745   1.730
  788SOL    HW2 3264   1.957   2.623   1.801
  789SOL     OW 3265   4.161   4.757   2.701
  789SOL    HW1 3266   4.258   4.739   2.723
  789SOL    HW2 3267   4.137   4.709   2.617
  790SOL     OW 3268   0.489   3.078   2.076
  790SOL    HW1 3269   0.438   3.042   2.153
  790SOL    HW2 3270   0.572   3.024   2.062
  791SOL     OW 3271   2.757   6.867   4.088
  791SOL    HW1 3272   2.843   6.830   4.053
  791SOL    HW2 3273   2.724   6.938   4.025
  792SOL     OW 3274   2.290   0.228   0.372
  792SOL    HW1 3275   2.254   0.320   0.391
  792SOL    HW2 3276   2.388   0.225   0.392
  793SOL     OW 3277   2.273   6.172   4.422
  793SOL    HW1 3278   2.269   6.178   4.322
  793SOL    HW2 3279   2.361   6.136   4.450
  794SOL     OW 3280   3.092   3.058   2.561
  794SOL    HW1 3281   3.171   3.019   2.609
  794SOL    HW2 3282   3.033   3.105   2.627
  795SOL     OW 3283   4.864   0.980   5.855
  795SOL    HW1 3284   4.891   0.888   5.823
  795SOL    HW2 3285   4.769   0.979   5.883
  796SOL     OW 3286   0.232   2.498   0.500
  796SOL    HW1 3287   0.197   2.544   0.418
  796SOL    HW2 3288   0.162   2.498   0.571
  797SOL     OW 3289   3.376   6.900   1.123
  797SOL    HW1 3290   3.385   6.970   1.052
  797SOL    HW2 3291   3.287   6.854   1.113
  798SOL     OW 3292   5.148   5.554   1.432
  798SOL    HW1 3293   5.106   5.463   1.436
  798SOL    HW2 3294   5.139   5.598   1.521
  799SOL     OW 3295   2.577   2.767   5.927
  799SOL    HW1 3296   2.620   2.753   6.017
  799SOL    HW2 3297   2.612   2.700   5.862
  800SOL     OW 3298   5.433   2.817   3.332
  800SOL    HW1 3299   5.506   2.883   3.316
  800SOL    HW2 3300   5.415   2.812   3.431
  801SOL     OW 3301   1.929   5.891   6.424
  801SOL    HW1 3302   1.981   5.835   6.487
  801SOL    HW2 3303   1.835   5.902   6.458
  802SOL     OW 3304   4.751   2.212   6.738
  802SOL    HW1 3305   4.834   2.163   6.766
  802SOL    HW2 3306   4.736   2.290   6.799
  803SOL     OW 3307   2.244   1.719   4.380
  803SOL    HW1 3308   2.259   1.785   4.306
  803SOL    HW2 3309   2.323   1.717   4.440
  804SOL     OW 3310   5.048   0.589   2.788
  804SOL    HW1 3311   5.003   0.618   2.872
  804SOL    HW2 3312   5.077   0.493   2.797
  805SOL     OW 3313   3.313   0.647   3.831
  805SOL    HW1 3314   3.327   0.704   3.750
  805SOL    HW2 3315   3.216   0.626   3.840
  806SOL     OW 3316   2.994   6.368   5.249
  806SOL    HW1 3317   2.930   6.393   5.322
  806SOL    HW2 3318   3.047   6.448   5.223
  807SOL     OW 3319   1.209   6.330   5.929
  807SOL    HW1 3320   1.301   6.367   5.943
  807SOL    HW2 3321   1.141   6.397   5.957
  808SOL     OW 3322   5.228   2.762   6.011
  808SOL    HW1 3323   5.207   2.668   5.985
  808SOL    HW2 3324   5.327   2.772   6.025
  809SOL     OW 3325   2.800   5.614   0.180
  809SOL    HW1 3326   2.884   5.602   0.234
  809SOL    HW2 3327   2.799   5.548   0.105
  810SOL     OW 3328   3.129   3.878   0.215
  810SOL    HW1 3329   3.065   3.825   0.160
  810SOL    HW2 3330   3.184   3.936   0.155
  811SOL     OW 3331   6.368   5.432   4.532
  811SOL    HW1 3332   6.445   5.422   4.470
  811SOL    HW2 3333   6.377   5.367   4.608
  812SOL     OW 3334   0.992   3.781   1.504
  812SOL    HW1 3335   0.950   3.695   1.534
  812SOL    HW2 3336   1.091   3.771   1.504
  813SOL     OW 3337   1.745   1.280   5.381
  813SOL    HW1 3338   1.749   1.316   5.474
  813SOL    HW2 3339   1.821   1.216   5.367
  814SOL     OW 3340   0.537   4.457   2.750
  814SOL    HW1 3341   0.636   4.474   2.748
  814SOL    HW2 3342   0.511   4.422   2.840
  815SOL     OW 3343   4.288   1.978   4.738
  815SOL    HW1 3344   4.196   2.003   4.709
  815SOL    HW2 3345   4.297   1.878   4.739
  816SOL     OW 3346   5.735   3.891   6.798
  816SOL    HW1 3347   5.820   3.840   6.786
  816SOL    HW2 3348   5.663   3.848   6.742
  817SOL     OW 3349   0.668   4.984   6.703
  817SOL    HW1 3350   0.634   4.999   6.796
  817SOL    HW2 3351   0.756   5.031   6.692
  818SOL     OW 3352   0.205   2.311   4.991
  818SOL    HW1 3353   0.266   2.323   4.913
  818SOL    HW2 3354   0.126   2.372   4.982
  819SOL     OW 3355   4.784   3.324   1.759
  819SOL    HW1 3356   4.805   3.422   1.759
  819SOL    HW2 3357   4.804   3.286   1.850
  820SOL     OW 3358   2.574   2.149   5.317
  820SOL    HW1 3359   2.541   2.186   5.404
  820SOL    HW2 3360   2.506   2.087   5.278
  821SOL     OW 3361   5.181   3.239   6.719
  821SOL    HW1 3362   5.235   3.249   6.803
  821SOL    HW2 3363   5.238   3.261   6.640
  822SOL     OW 3364   0.300   4.872   3.436
  822SOL    HW1 3365   0.256   4.961   3.443
  822SOL    HW2 3366   0.308   4.846   3.340
  823SOL     OW 3367   1.660   2.871   4.761
  823SOL    HW1 3368   1.747   2.869   4.712
  823SOL    HW2 3369   1.585   2.882   4.697
  824SOL     OW 3370   4.824   0.002   6.621
  824SOL    HW1 3371   4.898   0.058   6.656
  824SOL    HW2 3372   4.745   0.059   6.600
  825SOL     OW 3373   6.283   6.209   1.210
  825SOL    HW1 3374   6.218   6.158   1.154
  825SOL    HW2 3375   6.262   6.194   1.307
  826SOL     OW 3376   3.398   2.240   0.372
  826SOL    HW1 3377   3.341   2.273   0.297
  826SOL    HW2 3378   3.367   2.149   0.400
  827SOL     OW 3379   3.773   3.692   5.004
  827SOL    HW1 3380   3.732   3.742   4.928
  827SOL    HW2 3381   3.767   3.747   5.087
  828SOL     OW 3382   0.287   6.430   6.271
  828SOL    HW1 3383   0.255   6.402   6.361
  828SOL    HW2 3384   0.213   6.475   6.221
  829SOL     OW 3385   3.658   3.513   2.295
  829SOL    HW1 3386   3.594   3.575   2.250
  829SOL    HW2 3387   3.608   3.450   2.353
  830SOL     OW 3388   6.614   4.479   6.812
  830SOL    HW1 3389   6.521   4.444   6.827
  830SOL    HW2 3390   6.674   4.448   6.886
  831SOL     OW 3391   5.083   1.172   2.086
  831SOL    HW1 3392   5.078   1.221   2.173
  831SOL    HW2 3393   4.993   1.174   2.042
  832SOL     OW 3394   3.063   1.780   5.164
  832SOL    HW1 3395   3.118   1.749   5.086
  832SOL    HW2 3396   3.049   1.879   5.158
  833SOL     OW 3397   4.024   2.912   0.218
  833SOL    HW1 3398   4.017   2.815   0.197
  833SOL    HW2 3399   3.938   2.958   0.195
  834SOL     OW 3400   5.906   2.466   0.743
  834SOL    HW1 3401   5.999   2.503   0.744
  834SOL    HW2 3402   5.893   2.408   0.824
  835SOL     OW 3403   0.031   0.267   4.713
  835SOL    HW1 3404   0.123   0.274   4.752
  835SOL    HW2 3405   7.004   0.356   4.718
  836SOL     OW 3406   4.916   0.714   5.092
  836SOL    HW1 3407   5.005   0.696   5.049
  836SOL    HW2 3408   4.843   0.684   5.031
  837SOL     OW 3409   1.561   0.216   6.999
  837SOL    HW1 3410   1.588   0.301   6.954
  837SOL    HW2 3411   1.518   0.237   0.069
  838SOL     OW 3412   1.124   5.567   3.593
  838SOL    HW1 3413   1.218   5.574   3.626
  838SOL    HW2 3414   1.105   5.472   3.566
  839SOL     OW 3415   1.256   2.296   0.479
  839SOL    HW1 3416   1.327   2.231   0.452
  839SOL    HW2 3417   1.262   2.312   0.578
  840SOL     OW 3418   4.530   5.117   0.639
  840SOL    HW1 3419   4.617   5.165   0.629
  840SOL    HW2 3420   4.526   5.072   0.728
  841SOL     OW 3421   2.676   5.173   6.832
  841SOL    HW1 3422   2.619   5.206   6.757
  841SOL    HW2 3423   2.626   5.106   6.886
  842SOL     OW 3424   3.825   5.349   1.009
  842SOL    HW1 3425   3.868   5.297   1.082
  842SOL    HW2 3426   3.843   5.304   0.921
  843SOL     OW 3427   1.460   0.267   2.268
  843SOL    HW1 3428   1.406   0.337   2.314
  843SOL    HW2 3429   1.462   0.184   2.323
  844SOL     OW 3430   6.838   0.444   1.656
  844SOL    HW1 3431   6.902   0.507   1.700
  844SOL    HW2 3432   6.833   0.359   1.710
  845SOL     OW 3433   3.125   1.715   2.702
  845SOL    HW1 3434   3.119   1.747   2.608
  845SOL    HW2 3435   3.041   1.738   2.751
  846SOL     OW 3436   2.661   2.274   0.719
  846SOL    HW1 3437   2.760   2.279   0.731
  846SOL    HW2 3438   2.615   2.303   0.803
  847SOL     OW 3439   2.744   3.670   1.503
  847SOL    HW1 3440   2.667   3.671   1.567
  847SOL    HW2 3441   2.741   3.752   1.446
  848SOL     OW 3442   6.401   6.453   0.098
  848SOL    HW1 3443   6.425   6.547   0.122
  848SOL    HW2 3444   6.305   6.449   0.070
  849SOL     OW 3445   5.904   3.325   6.665
  849SOL    HW1 3446   5.928   3.360   6.575
  849SOL    HW2 3447   5.864   3.398   6.720
  850SOL     OW 3448   1.145   1.060   4.773
  850SOL    HW1 3449   1.122   1.148   4.731
  850SOL    HW2 3450   1.088   1.046   4.854
  851SOL     OW 3451   5.588   3.272   5.839
  851SOL    HW1 3452   5.580   3.213   5.919
  851SOL    HW2 3453   5.515   3.250   5.774
  852SOL     OW 3454   0.430   3.912   1.972
  852SOL    HW1 3455   0.495   3.864   2.030
  852SOL    HW2 3456   0.351   3.941   2.026
  853SOL     OW 3457   3.172   3.181   0.871
  853SOL    HW1 3458   3.215   3.222   0.790
  853SOL    HW2 3459   3.168   3.249   0.944
  854SOL     OW 3460   6.004   6.256   5.782
  854SOL    HW1 3461   6.038   6.256   5.688
  854SOL    HW2 3462   5.908   6.226   5.783
  855SOL     OW 3463   5.924   1.484   0.165
  855SOL    HW1 3464   5.854   1.529   0.221
  855SOL    HW2 3465   5.960   1.405   0.214
  856SOL     OW 3466   2.161   5.200   2.128
  856SOL    HW1 3467   2.248   5.248   2.141
  856SOL    HW2 3468   2.163   5.115   2.180
  857SOL     OW 3469   0.108   5.822   4.783
  857SOL    HW1 3470   0.158   5.743   4.817
  857SOL    HW2 3471   0.023   5.833   4.835
  858SOL     OW 3472   4.412   4.064   6.909
  858SOL    HW1 3473   4.465   4.015   6.840
  858SOL    HW2 3474   4.461   4.147   6.935
  859SOL     OW 3475   5.252   5.893   5.265
  859SOL    HW1 3476   5.179   5.961   5.273
  859SOL    HW2 3477   5.341   5.939   5.267
  860SOL     OW 3478   4.654   2.618   6.207
  860SOL    HW1 3479   4.642   2.581   6.300
  860SOL    HW2 3480   4.752   2.621   6.185
  861SOL     OW 3481   1.926   5.302   2.058
  861SOL    HW1 3482   1.843   5.268   2.104
  861SOL    HW2 3483   2.006   5.261   2.100
  862SOL     OW 3484   0.543   4.144   3.871
  862SOL    HW1 3485   0.611   4.088   3.824
  862SOL    HW2 3486   0.583   4.232   3.896
  863SOL     OW 3487   6.029   0.668   1.640
  863SOL    HW1 3488   5.987   0.606   1.706
  863SOL    HW2 3489   6.032   0.624   1.550
  864SOL     OW 3490   5.745   6.503   3.573
  864SOL    HW1 3491   5.658   6.520   3.527
  864SOL    HW2 3492   5.809   6.460   3.509
  865SOL     OW 3493   1.536   6.073   4.990
  865SOL    HW1 3494   1.451   6.120   4.965
  865SOL    HW2 3495   1.523   5.974   4.984
  866SOL     OW 3496   3.518   0.138   1.691
  866SOL    HW1 3497   3.493   0.053   1.646
  866SOL    HW2 3498   3.591   0.121   1.757
  867SOL     OW 3499   5.893   2.342   5.764
  867SOL    HW1 3500   5.810   2.319   5.815
  867SOL    HW2 3501   5.919   2.265   5.707
  868SOL     OW 3502   0.329   2.487   1.467
  868SOL    HW1 3503   0.249   2.529   1.509
  868SOL    HW2 3504   0.340   2.394   1.501
  869SOL     OW 3505   0.142   3.854   3.521
  869SOL    HW1 3506   0.161   3.846   3.619
  869SOL    HW2 3507   0.183   3.938   3.486
  870SOL     OW 3508   3.678   5.317   2.184
  870SOL    HW1 3509   3.651   5.413   2.173
  870SOL    HW2 3510   3.596   5.259   2.188
  871SOL     OW 3511   4.911   1.625   3.236
  871SOL    HW1 3512   4.879   1.671   3.319
  871SOL    HW2 3513   4.997   1.667   3.206
  872SOL     OW 3514   1.145   2.479   4.625
  872SOL    HW1 3515   1.179   2.414   4.557
  872SOL    HW2 3516   1.209   2.556   4.632
  873SOL     OW 3517   4.380   0.070   5.998
  873SOL    HW1 3518   4.472   0.089   5.965
  873SOL    HW2 3519   4.372   6.991   6.022
  874SOL     OW 3520   5.061   3.333   1.561
  874SOL    HW1 3521   5.080   3.277   1.481
  874SOL    HW2 3522   4.963   3.336   1.578
  875SOL     OW 3523   4.584   5.566   1.511
  875SOL    HW1 3524   4.609   5.472   1.536
  875SOL    HW2 3525   4.486   5.570   1.491
  876SOL     OW 3526   6.773   0.247   0.767
  876SOL    HW1 3527   6.808   0.340   0.754
  876SOL    HW2 3528   6.750   0.233   0.863
  877SOL     OW 3529   2.126   3.684   6.770
  877SOL    HW1 3530   2.180   3.602   6.751
  877SOL    HW2 3531   2.058   3.664   6.840
  878SOL     OW 3532   3.690   6.476   4.248
  878SOL    HW1 3533   3.604   6.432   4.276
  878SOL    HW2 3534   3.669   6.561   4.200
  879SOL     OW 3535   5.832   0.104   0.176
  879SOL    HW1 3536   5.847   0.074   0.082
  879SOL    HW2 3537   5.910   0.159   0.206
  880SOL     OW 3538   2.991   3.199   2.331
  880SOL    HW1 3539   3.041   3.140   2.394
  880SOL    HW2 3540   2.909   3.234   2.377
  881SOL     OW 3541   4.631   1.764   0.111
  881SOL    HW1 3542   4.726   1.732   0.101
  881SOL    HW2 3543   4.631   1.862   0.129
  882SOL     OW 3544   1.698   2.826   4.280
  882SOL    HW1 3545   1.682   2.743   4.335
  882SOL    HW2 3546   1.796   2.849   4.282
  883SOL     OW 3547   2.662   0.262   3.323
  883SOL    HW1 3548   2.733   0.325   3.355
  883SOL    HW2 3549   2.704   0.174   3.301
  884SOL     OW 3550   3.965   3.592   5.411
  884SOL    HW1 3551   4.062   3.601   5.391
  884SOL    HW2 3552   3.934   3.500   5.388
  885SOL     OW 3553   4.315   2.761   6.589
  885SOL    HW1 3554   4.304   2.671   6.548
  885SOL    HW2 3555   4.412   2.779   6.604
  886SOL     OW 3556   3.441   0.794   6.621
  886SOL    HW1 3557   3.497   0.803   6.704
  886SOL    HW2 3558   3.500   0.776   6.543
  887SOL     OW 3559   5.082   1.413   5.165
  887SOL    HW1 3560   4.991   1.387   5.134
  887SOL    HW2 3561   5.108   1.500   5.124
  888SOL     OW 3562   6.732   6.381   2.817
  888SOL    HW1 3563   6.715   6.473   2.780
  888SOL    HW2 3564   6.674   6.315   2.770
  889SOL     OW 3565   0.984   3.873   6.890
  889SOL    HW1 3566   0.890   3.852   6.860
  889SOL    HW2 3567   1.037   3.788   6.893
  890SOL     OW 3568   2.334   5.191   4.115
  890SOL    HW1 3569   2.298   5.214   4.025
  890SOL    HW2 3570   2.400   5.261   4.144
  891SOL     OW 3571   4.564   5.788   1.967
  891SOL    HW1 3572   4.545   5.883   1.993
  891SOL    HW2 3573   4.592   5.784   1.872
  892SOL     OW 3574   2.946   4.740   0.902
  892SOL    HW1 3575   3.012   4.795   0.851
  892SOL    HW2 3576   2.966   4.744   0.999
  893SOL     OW 3577   1.868   6.103   2.468
  893SOL    HW1 3578   1.913   6.131   2.553
  893SOL    HW2 3579   1.896   6.011   2.444
  894SOL     OW 3580   0.959   4.275   1.233
  894SOL    HW1 3581   1.044   4.300   1.278
  894SOL    HW2 3582   0.939   4.341   1.160
  895SOL     OW 3583   0.325   5.840   4.233
  895SOL    HW1 3584   0.396   5.836   4.163
  895SOL    HW2 3585   0.344   5.915   4.296
  896SOL     OW 3586   0.585   0.447   6.212
  896SOL    HW1 3587   0.587   0.374   6.280
  896SOL    HW2 3588   0.566   0.534   6.257
  897SOL     OW 3589   4.843   0.731   0.108
  897SOL    HW1 3590   4.744   0.748   0.101
  897SOL    HW2 3591   4.876   0.692   0.022
  898SOL     OW 3592   4.343   6.485   3.307
  898SOL    HW1 3593   4.356   6.387   3.322
  898SOL    HW2 3594   4.309   6.527   3.391
  899SOL     OW 3595   0.022   4.795   0.534
  899SOL    HW1 3596   0.052   4.811   0.629
  899SOL    HW2 3597   0.102   4.770   0.478
  900SOL     OW 3598   5.340   5.335   0.993
  900SOL    HW1 3599   5.295   5.285   0.919
  900SOL    HW2 3600   5.439   5.335   0.978
  901SOL     OW 3601   1.328   0.766   2.683
  901SOL    HW1 3602   1.347   0.670   2.667
  901SOL    HW2 3603   1.237   0.789   2.647
  902SOL     OW 3604   6.198   3.450   1.785
  902SOL    HW1 3605   6.184   3.364   1.735
  902SOL    HW2 3606   6.165   3.441   1.878
  903SOL     OW 3607   0.027   2.155   1.062
  903SOL    HW1 3608   0.000   2.059   1.062
  903SOL    HW2 3609   6.973   2.209   1.105
  904SOL     OW 3610   3.035   1.207   1.873
  904SOL    HW1 3611   2.986   1.253   1.799
  904SOL    HW2 3612   2.975   1.140   1.916
  905SOL     OW 3613   5.936   2.787   6.367
  905SOL    HW1 3614   6.013   2.832   6.414
  905SOL    HW2 3615   5.972   2.723   6.299
  906SOL     OW 3616   5.662   3.192   6.241
  906SOL    HW1 3617   5.677   3.094   6.251
  906SOL    HW2 3618   5.735   3.242   6.288
  907SOL     OW 3619   5.045   3.930   6.574
  907SOL    HW1 3620   4.975   3.908   6.643
  907SOL    HW2 3621   5.041   3.862   6.500
  908SOL     OW 3622   1.472   4.571   2.925
  908SOL    HW1 3623   1.392   4.566   2.865
  908SOL    HW2 3624   1.555   4.555   2.871
  909SOL     OW 3625   5.366   5.475   6.671
  909SOL    HW1 3626   5.352   5.425   6.586
  909SOL    HW2 3627   5.292   5.454   6.735
  910SOL     OW 3628   2.659   4.738   1.033
  910SOL    HW1 3629   2.568   4.761   0.999
  910SOL    HW2 3630   2.728   4.774   0.971
  911SOL     OW 3631   0.867   5.062   6.000
  911SOL    HW1 3632   0.832   5.074   6.093
  911SOL    HW2 3633   0.921   5.142   5.975
  912SOL     OW 3634   5.235   1.419   3.901
  912SOL    HW1 3635   5.173   1.342   3.889
  912SOL    HW2 3636   5.224   1.457   3.993
  913SOL     OW 3637   5.544   6.581   2.749
  913SOL    HW1 3638   5.634   6.597   2.709
  913SOL    HW2 3639   5.509   6.666   2.789
  914SOL     OW 3640   3.209   6.988   6.520
  914SOL    HW1 3641   3.229   6.897   6.484
  914SOL    HW2 3642   3.235   0.039   6.453
  915SOL     OW 3643   5.299   5.812   0.909
  915SOL    HW1 3644   5.376   5.873   0.930
  915SOL    HW2 3645   5.226   5.865   0.865
  916SOL     OW 3646   1.873   2.561   2.475
  916SOL    HW1 3647   1.925   2.516   2.548
  916SOL    HW2 3648   1.935   2.619   2.421
  917SOL     OW 3649   6.844   6.418   0.745
  917SOL    HW1 3650   6.852   6.345   0.677
  917SOL    HW2 3651   6.919   6.410   0.810
  918SOL     OW 3652   2.512   5.543   0.370
  918SOL    HW1 3653   2.582   5.582   0.310
  918SOL    HW2 3654   2.542   5.454   0.404
  919SOL     OW 3655   5.764   1.790   5.135
  919SOL    HW1 3656   5.712   1.818   5.055
  919SOL    HW2 3657   5.710   1.809   5.218
  920SOL     OW 3658   3.042   5.235   2.307
  920SOL    HW1 3659   3.051   5.158   2.370
  920SOL    HW2 3660   2.945   5.252   2.288
  921SOL     OW 3661   4.537   5.426   5.147
  921SOL    HW1 3662   4.555   5.519   5.178
  921SOL    HW2 3663   4.546   5.421   5.048
  922SOL     OW 3664   3.811   2.983   3.805
  922SOL    HW1 3665   3.891   2.996   3.864
  922SOL    HW2 3666   3.741   2.931   3.853
  923SOL     OW 3667   2.302   3.649   5.360
  923SOL    HW1 3668   2.272   3.739   5.328
  923SOL    HW2 3669   2.361   3.659   5.440
  924SOL     OW 3670   6.883   3.404   2.233
  924SOL    HW1 3671   6.876   3.441   2.140
  924SOL    HW2 3672   6.943   3.324   2.232
  925SOL     OW 3673   0.305   1.949   0.369
  925SOL    HW1 3674   0.273   1.860   0.335
  925SOL    HW2 3675   0.404   1.955   0.358
  926SOL     OW 3676   1.925   2.095   1.932
  926SOL    HW1 3677   1.859   2.060   1.865
  926SOL    HW2 3678   1.982   2.165   1.889
  927SOL     OW 3679   6.512   3.448   4.356
  927SOL    HW1 3680   6.480   3.409   4.443
  927SOL    HW2 3681   6.507   3.548   4.361
  928SOL     OW 3682   4.098   4.907   6.345
  928SOL    HW1 3683   4.082   4.997   6.305
  928SOL    HW2 3684   4.101   4.839   6.272
  929SOL     OW 3685   0.237   1.763   4.942
  929SOL    HW1 3686   0.193   1.829   4.882
  929SOL    HW2 3687   0.287   1.696   4.887
  930SOL     OW 3688   4.978   5.103   5.323
  930SOL    HW1 3689   4.897   5.060   5.364
  930SOL    HW2 3690   4.949   5.175   5.260
  931SOL     OW 3691   6.556   1.455   3.002
  931SOL    HW1 3692   6.478   1.394   2.992
  931SOL    HW2 3693   6.617   1.420   3.073
  932SOL     OW 3694   3.652   0.825   3.491
  932SOL    HW1 3695   3.679   0.819   3.587
  932SOL    HW2 3696   3.582   0.756   3.472
  933SOL     OW 3697   1.366   5.612   2.226
  933SOL    HW1 3698   1.457   5.601   2.268
  933SOL    HW2 3699   1.366   5.693   2.168
  934SOL     OW 3700   1.840   3.491   0.224
  934SOL    HW1 3701   1.931   3.467   0.192
  934SOL    HW2 3702   1.788   3.533   0.150
  935SOL     OW 3703   5.904   2.585   4.509
  935SOL    HW1 3704   5.899   2.684   4.524
  935SOL    HW2 3705   5.872   2.538   4.591
  936SOL     OW 3706   1.684   6.790   6.087
  936SOL    HW1 3707   1.755   6.789   6.158
  936SOL    HW2 3708   1.690   6.705   6.034
  937SOL     OW 3709   3.745   2.144   6.236
  937SOL    HW1 3710   3.760   2.241   6.215
  937SOL    HW2 3711   3.832   2.095   6.231
  938SOL     OW 3712   6.125   5.694   4.320
  938SOL    HW1 3713   6.028   5.716   4.330
  938SOL    HW2 3714   6.174   5.723   4.401
  939SOL     OW 3715   0.622   6.438   6.000
  939SOL    HW1 3716   0.610   6.530   5.962
  939SOL    HW2 3717   0.719   6.413   5.995
  940SOL     OW 3718   2.047   4.713   0.043
  940SOL    HW1 3719   2.143   4.720   0.016
  940SOL    HW2 3720   1.989   4.747   6.987
  941SOL     OW 3721   3.418   6.982   0.434
  941SOL    HW1 3722   3.412   0.053   0.480
  941SOL    HW2 3723   3.514   6.959   0.419
  942SOL     OW 3724   0.015   5.355   0.858
  942SOL    HW1 3725   7.007   5.259   0.855
  942SOL    HW2 3726   6.977   5.407   0.794
  943SOL     OW 3727   3.258   6.002   1.775
  943SOL    HW1 3728   3.163   6.007   1.742
  943SOL    HW2 3729   3.313   5.949   1.711
  944SOL     OW 3730   6.237   6.610   3.927
  944SOL    HW1 3731   6.215   6.641   3.834
  944SOL    HW2 3732   6.197   6.673   3.993
  945SOL     OW 3733   0.902   4.601   0.017
  945SOL    HW1 3734   0.979   4.665   0.025
  945SOL    HW2 3735   0.931   4.520   6.985
  946SOL     OW 3736   5.255   1.857   4.787
  946SOL    HW1 3737   5.191   1.883   4.715
  946SOL    HW2 3738   5.347   1.889   4.762
  947SOL     OW 3739   3.603   4.165   4.161
  947SOL    HW1 3740   3.506   4.148   4.149
  947SOL    HW2 3741   3.654   4.079   4.148
  948SOL     OW 3742   4.237   0.440   3.105
  948SOL    HW1 3743   4.249   0.354   3.055
  948SOL    HW2 3744   4.314   0.501   3.087
  949SOL     OW 3745   3.548   6.975   5.789
  949SOL    HW1 3746   3.469   6.916   5.809
  949SOL    HW2 3747   3.585   7.012   5.874
  950SOL     OW 3748   6.708   0.015   2.621
  950SOL    HW1 3749   6.739   0.090   2.680
  950SOL    HW2 3750   6.611   7.018   2.635
  951SOL     OW 3751   1.914   6.729   2.932
  951SOL    HW1 3752   1.869   6.815   2.909
  951SOL    HW2 3753   1.869   6.653   2.885
  952SOL     OW 3754   3.566   1.044   2.905
  952SOL    HW1 3755   3.666   1.051   2.898
  952SOL    HW2 3756   3.542   1.009   2.995
  953SOL     OW 3757   6.982   4.647   5.733
  953SOL    HW1 3758   6.960   4.659   5.829
  953SOL    HW2 3759   0.064   4.649   5.721
  954SOL     OW 3760   4.818   6.033   2.245
  954SOL    HW1 3761   4.830   6.031   2.146
  954SOL    HW2 3762   4.727   5.997   2.269
  955SOL     OW 3763   2.135   4.677   0.661
  955SOL    HW1 3764   2.125   4.775   0.678
  955SOL    HW2 3765   2.114   4.626   0.745
  956SOL     OW 3766   4.522   0.627   0.849
  956SOL    HW1 3767   4.466   0.560   0.897
  956SOL    HW2 3768   4.591   0.663   0.912
  957SOL     OW 3769   6.046   1.013   3.096
  957SOL    HW1 3770   6.002   0.964   3.020
  957SOL    HW2 3771   5.979   1.031   3.168
  958SOL     OW 3772   5.136   7.016   1.402
  958SOL    HW1 3773   5.125   0.097   1.416
  958SOL    HW2 3774   5.046   6.975   1.384
  959SOL     OW 3775   5.051   6.611   3.404
  959SOL    HW1 3776   4.994   6.678   3.452
  959SOL    HW2 3777   5.118   6.573   3.468
  960SOL     OW 3778   1.839   6.377   6.388
  960SOL    HW1 3779   1.852   6.380   6.487
  960SOL    HW2 3780   1.926   6.357   6.343
  961SOL     OW 3781   3.678   0.378   3.216
  961SOL    HW1 3782   3.661   0.437   3.137
  961SOL    HW2 3783   3.775   0.383   3.241
  962SOL     OW 3784   6.635   0.752   4.820
  962SOL    HW1 3785   6.628   0.701   4.906
  962SOL    HW2 3786   6.610   0.692   4.744
  963SOL     OW 3787   5.699   2.657   1.025
  963SOL    HW1 3788   5.629   2.633   1.092
  963SOL    HW2 3789   5.687   2.601   0.943
  964SOL     OW 3790   4.150   5.327   4.731
  964SOL    HW1 3791   4.092   5.395   4.776
  964SOL    HW2 3792   4.136   5.238   4.774
  965SOL     OW 3793   5.721   2.035   3.412
  965SOL    HW1 3794   5.632   2.003   3.379
  965SOL    HW2 3795   5.781   2.053   3.335
  966SOL     OW 3796   4.634   0.817   4.309
  966SOL    HW1 3797   4.684   0.787   4.389
  966SOL    HW2 3798   4.583   0.740   4.270
  967SOL     OW 3799   4.307   4.240   6.413
  967SOL    HW1 3800   4.373   4.257   6.340
  967SOL    HW2 3801   4.354   4.201   6.492
  968SOL     OW 3802   3.796   0.730   1.506
  968SOL    HW1 3803   3.807   0.830   1.508
  968SOL    HW2 3804   3.703   0.707   1.477
  969SOL     OW 3805   3.236   4.649   5.913
  969SOL    HW1 3806   3.199   4.563   5.948
  969SOL    HW2 3807   3.183   4.678   5.833
  970SOL     OW 3808   5.045   0.115   5.863
  970SOL    HW1 3809   4.989   0.079   5.938
  970SOL    HW2 3810   5.139   0.083   5.874
  971SOL     OW 3811   5.874   3.641   3.762
  971SOL    HW1 3812   5.935   3.569   3.729
  971SOL    HW2 3813   5.914   3.730   3.741
  972SOL     OW 3814   0.281   2.646   0.265
  972SOL    HW1 3815   0.256   2.562   0.217
  972SOL    HW2 3816   0.232   2.723   0.225
  973SOL     OW 3817   0.261   3.623   5.661
  973SOL    HW1 3818   0.333   3.691   5.652
  973SOL    HW2 3819   0.172   3.667   5.649
  974SOL     OW 3820   0.422   4.462   2.333
  974SOL    HW1 3821   0.343   4.513   2.368
  974SOL    HW2 3822   0.474   4.521   2.272
  975SOL     OW 3823   3.150   0.269   2.492
  975SOL    HW1 3824   3.209   0.346   2.467
  975SOL    HW2 3825   3.079   0.257   2.423
  976SOL     OW 3826   0.035   3.230   3.488
  976SOL    HW1 3827   0.134   3.238   3.477
  976SOL    HW2 3828   0.008   3.135   3.475
  977SOL     OW 3829   6.371   0.973   2.164
  977SOL    HW1 3830   6.416   1.051   2.208
  977SOL    HW2 3831   6.389   0.976   2.066
  978SOL     OW 3832   5.426   3.161   1.505
  978SOL    HW1 3833   5.455   3.071   1.539
  978SOL    HW2 3834   5.434   3.228   1.579
  979SOL     OW 3835   0.338   4.175   6.977
  979SOL    HW1 3836   0.336   4.144   0.054
  979SOL    HW2 3837   0.270   4.247   6.963
  980SOL     OW 3838   3.896   0.828   4.826
  980SOL    HW1 3839   3.819   0.883   4.792
  980SOL    HW2 3840   3.931   0.771   4.752
  981SOL     OW 3841   0.267   6.827   5.511
  981SOL    HW1 3842   0.270   6.761   5.587
  981SOL    HW2 3843   0.197   6.896   5.529
  982SOL     OW 3844   6.461   1.352   6.242
  982SOL    HW1 3845   6.533   1.286   6.262
  982SOL    HW2 3846   6.389   1.309   6.188
  983SOL     OW 3847   0.652   4.325   3.245
  983SOL    HW1 3848   0.675   4.340   3.149
  983SOL    HW2 3849   0.734   4.295   3.295
  984SOL     OW 3850   0.715   3.568   3.591
  984SOL    HW1 3851   0.687   3.598   3.682
  984SOL    HW2 3852   0.653   3.605   3.523
  985SOL     OW 3853   6.629   5.411   5.016
  985SOL    HW1 3854   6.639   5.397   5.115
  985SOL    HW2 3855   6.582   5.332   4.976
  986SOL     OW 3856   4.450   5.233   1.405
  986SOL    HW1 3857   4.384   5.286   1.351
  986SOL    HW2 3858   4.400   5.176   1.470
  987SOL     OW 3859   4.677   4.275   4.793
  987SOL    HW1 3860   4.623   4.287   4.876
  987SOL    HW2 3861   4.701   4.178   4.783
  988SOL     OW 3862   2.638   4.700   2.172
  988SOL    HW1 3863   2.693   4.751   2.237
  988SOL    HW2 3864   2.698   4.648   2.111
  989SOL     OW 3865   1.363   2.006   1.113
  989SOL    HW1 3866   1.367   2.079   1.182
  989SOL    HW2 3867   1.362   1.917   1.159
  990SOL     OW 3868   3.589   6.909   4.520
  990SOL    HW1 3869   3.607   6.937   4.614
  990SOL    HW2 3870   3.653   6.837   4.494
  991SOL     OW 3871   0.211   5.396   3.956
  991SOL    HW1 3872   0.254   5.485   3.947
  991SOL    HW2 3873   0.217   5.365   4.051
  992SOL     OW 3874   0.092   2.264   0.167
  992SOL    HW1 3875   0.152   2.342   0.150
  992SOL    HW2 3876   0.132   2.182   0.127
  993SOL     OW 3877   1.157   5.001   0.541
  993SOL    HW1 3878   1.111   5.080   0.582
  993SOL    HW2 3879   1.090   4.946   0.491
  994SOL     OW 3880   3.178   6.673   0.183
  994SOL    HW1 3881   3.230   6.589   0.170
  994SOL    HW2 3882   3.185   6.701   0.279
  995SOL     OW 3883   6.458   4.061   6.010
  995SOL    HW1 3884   6.530   4.047   5.943
  995SOL    HW2 3885   6.399   4.136   5.980
  996SOL     OW 3886   4.306   6.185   4.062
  996SOL    HW1 3887   4.225   6.130   4.081
  996SOL    HW2 3888   4.382   6.153   4.118
  997SOL     OW 3889   1.133   6.606   3.452
  997SOL    HW1 3890   1.128   6.521   3.399
  997SOL    HW2 3891   1.228   6.635   3.460
  998SOL     OW 3892   4.677   0.215   6.163
  998SOL    HW1 3893   4.646   0.127   6.198
  998SOL    HW2 3894   4.720   0.268   6.236
  999SOL     OW 3895   4.936   3.335   2.591
  999SOL    HW1 3896   4.901   3.262   2.649
  999SOL    HW2 3897   4.912   3.316   2.496
 1000SOL     OW 3898   5.282   2.440   1.654
 1000SOL    HW1 3899   5.318   2.470   1.566
 1000SOL    HW2 3900   5.351   2.455   1.725
 1001SOL     OW 3901   2.789   6.683   2.392
 1001SOL    HW1 3902   2.845   6.763   2.414
 1001SOL    HW2 3903   2.700   6.693   2.435
 1002SOL     OW 3904   4.567   2.618   1.233
 1002SOL    HW1 3905   4.541   2.522   1.221
 1002SOL    HW2 3906   4.545   2.647   1.326
 1003SOL     OW 3907   0.770   0.310   3.296
 1003SOL    HW1 3908   0.802   0.304   3.391
 1003SOL    HW2 3909   0.757   0.218   3.259
 1004SOL     OW 3910   5.210   1.197   4.389
 1004SOL    HW1 3911   5.178   1.211   4.483
 1004SOL    HW2 3912   5.300   1.239   4.378
 1005SOL     OW 3913   1.149   4.869   2.212
 1005SOL    HW1 3914   1.225   4.808   2.193
 1005SOL    HW2 3915   1.082   4.863   2.138
 1006SOL     OW 3916   2.398   3.973   1.787
 1006SOL    HW1 3917   2.466   3.907   1.755
 1006SOL    HW2 3918   2.325   3.924   1.836
 1007SOL     OW 3919   4.595   0.768   6.349
 1007SOL    HW1 3920   4.524   0.820   6.395
 1007SOL    HW2 3921   4.675   0.827   6.332
 1008SOL     OW 3922   0.819   5.078   4.994
 1008SOL    HW1 3923   0.868   5.019   4.930
 1008SOL    HW2 3924   0.755   5.023   5.048
 1009SOL     OW 3925   6.933   5.879   6.124
 1009SOL    HW1 3926   6.967   5.951   6.062
 1009SOL    HW2 3927   6.834   5.888   6.133
 1010SOL     OW 3928   3.028   3.817   0.460
 1010SOL    HW1 3929   3.075   3.836   0.374
 1010SOL    HW2 3930   3.094   3.816   0.535
 1011SOL     OW 3931   6.936   5.682   2.944
 1011SOL    HW1 3932   6.990   5.645   2.867
 1011SOL    HW2 3933   6.918   5.779   2.928
 1012SOL     OW 3934   5.288   6.536   3.030
 1012SOL    HW1 3935   5.200   6.492   3.010
 1012SOL    HW2 3936   5.290   6.627   2.989
 1013SOL     OW 3937   6.927   0.296   6.503
 1013SOL    HW1 3938   6.939   0.198   6.488
 1013SOL    HW2 3939   6.836   0.314   6.539
 1014SOL     OW 3940   1.129   4.484   5.306
 1014SOL    HW1 3941   1.142   4.507   5.402
 1014SOL    HW2 3942   1.038   4.514   5.277
 1015SOL     OW 3943   2.132   6.280   0.227
 1015SOL    HW1 3944   2.052   6.223   0.244
 1015SOL    HW2 3945   2.104   6.363   0.178
 1016SOL     OW 3946   6.418   4.058   1.033
 1016SOL    HW1 3947   6.417   4.158   1.024
 1016SOL    HW2 3948   6.508   4.028   1.065
 1017SOL     OW 3949   2.405   1.772   1.977
 1017SOL    HW1 3950   2.433   1.676   1.973
 1017SOL    HW2 3951   2.310   1.777   2.007
 1018SOL     OW 3952   6.160   6.335   4.751
 1018SOL    HW1 3953   6.146   6.354   4.654
 1018SOL    HW2 3954   6.158   6.237   4.766
 1019SOL     OW 3955   6.748   3.966   0.882
 1019SOL    HW1 3956   6.847   3.977   0.875
 1019SOL    HW2 3957   6.720   3.976   0.977
 1020SOL     OW 3958   5.145   1.255   0.427
 1020SOL    HW1 3959   5.139   1.253   0.527
 1020SOL    HW2 3960   5.241   1.269   0.400
 1021SOL     OW 3961   1.345   6.545   0.803
 1021SOL    HW1 3962   1.365   6.575   0.896
 1021SOL    HW2 3963   1.376   6.451   0.792
 1022SOL     OW 3964   2.426   5.669   6.334
 1022SOL    HW1 3965   2.386   5.578   6.350
 1022SOL    HW2 3966   2.497   5.686   6.403
 1023SOL     OW 3967   0.618   1.441   3.205
 1023SOL    HW1 3968   0.522   1.463   3.218
 1023SOL    HW2 3969   0.659   1.507   3.141
 1024SOL     OW 3970   1.307   1.853   4.043
 1024SOL    HW1 3971   1.309   1.780   4.111
 1024SOL    HW2 3972   1.393   1.904   4.046
 1025SOL     OW 3973   5.089   4.246   0.281
 1025SOL    HW1 3974   5.134   4.189   0.213
 1025SOL    HW2 3975   5.138   4.239   0.368
 1026SOL     OW 3976   2.929   2.860   1.645
 1026SOL    HW1 3977   3.012   2.873   1.700
 1026SOL    HW2 3978   2.950   2.806   1.564
 1027SOL     OW 3979   0.457   6.630   0.487
 1027SOL    HW1 3980   0.551   6.647   0.515
 1027SOL    HW2 3981   0.399   6.618   0.568
 1028SOL     OW 3982   1.447   6.188   2.958
 1028SOL    HW1 3983   1.416   6.163   2.867
 1028SOL    HW2 3984   1.461   6.105   3.013
 1029SOL     OW 3985   1.005   1.221   5.590
 1029SOL    HW1 3986   0.921   1.258   5.550
 1029SOL    HW2 3987   0.996   1.122   5.600
 1030SOL     OW 3988   3.770   3.524   0.961
 1030SOL    HW1 3989   3.759   3.458   0.887
 1030SOL    HW2 3990   3.685   3.574   0.974
 1031SOL     OW 3991   3.745   3.267   1.097
 1031SOL    HW1 3992   3.662   3.211   1.101
 1031SOL    HW2 3993   3.722   3.358   1.063
 1032SOL     OW 3994   1.975   1.484   0.177
 1032SOL    HW1 3995   2.023   1.411   0.128
 1032SOL    HW2 3996   1.876   1.473   0.165
 1033SOL     OW 3997   0.426   6.829   2.654
 1033SOL    HW1 3998   0.411   6.871   2.565
 1033SOL    HW2 3999   0.486   6.750   2.644
 1034SOL     OW 4000   3.132   0.618   4.935
 1034SOL    HW1 4001   3.114   0.618   5.034
 1034SOL    HW2 4002   3.180   0.702   4.910
 1035SOL     OW 4003   1.679   1.466   0.231
 1035SOL    HW1 4004   1.627   1.502   0.154
 1035SOL    HW2 4005   1.635   1.383   0.265
 1036SOL     OW 4006   4.928   1.190   1.021
 1036SOL    HW1 4007   4.891   1.258   1.084
 1036SOL    HW2 4008   4.886   1.202   0.931
 1037SOL     OW 4009   1.708   3.422   1.683
 1037SOL    HW1 4010   1.733   3.519   1.689
 1037SOL    HW2 4011   1.711   3.392   1.588
 1038SOL     OW 4012   2.265   5.971   6.902
 1038SOL    HW1 4013   2.343   5.977   6.965
 1038SOL    HW2 4014   2.197   6.039   6.927
 1039SOL     OW 4015   3.680   3.804   2.873
 1039SOL    HW1 4016   3.764   3.820   2.821
 1039SOL    HW2 4017   3.650   3.890   2.914
 1040SOL     OW 4018   3.713   2.124   3.562
 1040SOL    HW1 4019   3.810   2.105   3.548
 1040SOL    HW2 4020   3.696   2.139   3.660
 1041SOL     OW 4021   6.266   5.855   6.543
 1041SOL    HW1 4022   6.223   5.945   6.550
 1041SOL    HW2 4023   6.359   5.859   6.579
 1042SOL     OW 4024   5.382   4.570   3.418
 1042SOL    HW1 4025   5.474   4.574   3.455
 1042SOL    HW2 4026   5.373   4.492   3.356
 1043SOL     OW 4027   2.784   1.953   3.699
 1043SOL    HW1 4028   2.731   1.930   3.617
 1043SOL    HW2 4029   2.789   1.873   3.759
 1044SOL     OW 4030   5.995   4.905   1.553
 1044SOL    HW1 4031   5.997   4.833   1.483
 1044SOL    HW2 4032   5.940   4.981   1.519
 1045SOL     OW 4033   2.404   0.753   1.659
 1045SOL    HW1 4034   2.480   0.701   1.620
 1045SOL    HW2 4035   2.424   0.851   1.652
 1046SOL     OW 4036   3.331   1.944   1.465
 1046SOL    HW1 4037   3.352   1.986   1.553
 1046SOL    HW2 4038   3.282   2.009   1.407
 1047SOL     OW 4039   3.397   6.855   3.456
 1047SOL    HW1 4040   3.395   6.926   3.385
 1047SOL    HW2 4041   3.372   6.896   3.544
 1048SOL     OW 4042   1.096   6.534   2.524
 1048SOL    HW1 4043   1.143   6.492   2.447
 1048SOL    HW2 4044   1.157   6.597   2.571
 1049SOL     OW 4045   3.969   6.142   5.267
 1049SOL    HW1 4046   3.907   6.188   5.331
 1049SOL    HW2 4047   4.030   6.209   5.226
 1050SOL     OW 4048   2.457   6.480   3.801
 1050SOL    HW1 4049   2.420   6.390   3.822
 1050SOL    HW2 4050   2.416   6.548   3.861
 1051SOL     OW 4051   1.317   0.964   5.924
 1051SOL    HW1 4052   1.246   1.034   5.919
 1051SOL    HW2 4053   1.380   0.975   5.847
 1052SOL     OW 4054   3.692   1.082   6.962
 1052SOL    HW1 4055   3.762   1.111   6.896
 1052SOL    HW2 4056   3.685   1.149   0.017
 1053SOL     OW 4057   5.205   1.671   4.460
 1053SOL    HW1 4058   5.124   1.621   4.429
 1053SOL    HW2 4059   5.177   1.740   4.527
 1054SOL     OW 4060   4.304   5.355   6.171
 1054SOL    HW1 4061   4.228   5.291   6.184
 1054SOL    HW2 4062   4.309   5.416   6.250
 1055SOL     OW 4063   4.585   5.786   6.501
 1055SOL    HW1 4064   4.537   5.698   6.499
 1055SOL    HW2 4065   4.519   5.860   6.491
 1056SOL     OW 4066   2.923   3.668   0.106
 1056SOL    HW1 4067   2.888   3.576   0.123
 1056SOL    HW2 4068   2.852   3.735   0.129
 1057SOL     OW 4069   2.924   3.039   0.091
 1057SOL    HW1 4070   2.875   3.126   0.083
 1057SOL    HW2 4071   2.860   2.964   0.073
 1058SOL     OW 4072   2.973   2.165   2.337
 1058SOL    HW1 4073   2.888   2.116   2.353
 1058SOL    HW2 4074   2.957   2.238   2.270
 1059SOL     OW 4075   2.230   6.397   1.692
 1059SOL    HW1 4076   2.137   6.368   1.716
 1059SOL    HW2 4077   2.277   6.430   1.774
 1060SOL     OW 4078   6.303   0.753   5.905
 1060SOL    HW1 4079   6.364   0.832   5.913
 1060SOL    HW2 4080   6.208   0.784   5.908
 1061SOL     OW 4081   0.053   3.652   6.221
 1061SOL    HW1 4082   0.028   3.579   6.157
 1061SOL    HW2 4083   0.021   3.739   6.184
 1062SOL     OW 4084   3.403   6.116   4.469
 1062SOL    HW1 4085   3.332   6.184   4.454
 1062SOL    HW2 4086   3.400   6.084   4.564
 1063SOL     OW 4087   3.770   6.797   5.040
 1063SOL    HW1 4088   3.755   6.871   5.105
 1063SOL    HW2 4089   3.697   6.730   5.048
 1064SOL     OW 4090   1.431   3.453   0.149
 1064SOL    HW1 4091   1.384   3.366   0.166
 1064SOL    HW2 4092   1.364   3.523   0.126
 1065SOL     OW 4093   5.733   0.656   4.688
 1065SOL    HW1 4094   5.718   0.568   4.732
 1065SOL    HW2 4095   5.776   0.719   4.753
 1066SOL     OW 4096   5.244   6.680   0.862
 1066SOL    HW1 4097   5.335   6.698   0.900
 1066SOL    HW2 4098   5.250   6.607   0.794
 1067SOL     OW 4099   2.692   1.440   0.295
 1067SOL    HW1 4100   2.691   1.346   0.330
 1067SOL    HW2 4101   2.770   1.489   0.334
 1068SOL     OW 4102   6.813   3.133   1.413
 1068SOL    HW1 4103   6.727   3.183   1.425
 1068SOL    HW2 4104   6.848   3.105   1.503
 1069SOL     OW 4105   5.961   3.462   2.214
 1069SOL    HW1 4106   6.041   3.523   2.219
 1069SOL    HW2 4107   5.965   3.396   2.289
 1070SOL     OW 4108   0.982   0.284   2.341
 1070SOL    HW1 4109   0.965   0.312   2.436
 1070SOL    HW2 4110   0.914   0.328   2.281
 1071SOL     OW 4111   0.313   3.198   6.074
 1071SOL    HW1 4112   0.331   3.100   6.062
 1071SOL    HW2 4113   0.230   3.223   6.025
 1072SOL     OW 4114   1.739   1.742   2.153
 1072SOL    HW1 4115   1.676   1.763   2.228
 1072SOL    HW2 4116   1.804   1.673   2.183
 1073SOL     OW 4117   5.223   2.509   3.043
 1073SOL    HW1 4118   5.209   2.566   3.124
 1073SOL    HW2 4119   5.141   2.455   3.026
 1074SOL     OW 4120   2.862   5.034   1.660
 1074SOL    HW1 4121   2.957   5.021   1.687
 1074SOL    HW2 4122   2.805   4.963   1.703
 1075SOL     OW 4123   6.289   4.287   6.092
 1075SOL    HW1 4124   6.319   4.372   6.049
 1075SOL    HW2 4125   6.200   4.260   6.055
 1076SOL     OW 4126   1.632   4.534   5.044
 1076SOL    HW1 4127   1.612   4.515   5.141
 1076SOL    HW2 4128   1.723   4.576   5.037
 1077SOL     OW 4129   6.835   6.811   0.150
 1077SOL    HW1 4130   6.813   6.761   0.233
 1077SOL    HW2 4131   6.771   6.787   0.078
 1078SOL     OW 4132   6.477   6.895   4.953
 1078SOL    HW1 4133   6.541   6.955   4.905
 1078SOL    HW2 4134   6.440   6.828   4.889
 1079SOL     OW 4135   0.961   6.865   1.877
 1079SOL    HW1 4136   0.947   6.806   1.797
 1079SOL    HW2 4137   0.886   6.850   1.942
 1080SOL     OW 4138   3.843   6.287   6.738
 1080SOL    HW1 4139   3.756   6.324   6.771
 1080SOL    HW2 4140   3.890   6.240   6.813
 1081SOL     OW 4141   6.498   6.674   4.026
 1081SOL    HW1 4142   6.522   6.578   4.039
 1081SOL    HW2 4143   6.410   6.681   3.979
 1082SOL     OW 4144   4.329   6.922   6.954
 1082SOL    HW1 4145   4.399   6.962   7.013
 1082SOL    HW2 4146   4.321   6.824   6.972
 1083SOL     OW 4147   5.577   4.546   2.143
 1083SOL    HW1 4148   5.520   4.502   2.074
 1083SOL    HW2 4149   5.559   4.505   2.233
 1084SOL     OW 4150   6.169   0.796   5.615
 1084SOL    HW1 4151   6.247   0.834   5.665
 1084SOL    HW2 4152   6.163   0.839   5.525
 1085SOL     OW 4153   2.129   3.851   4.549
 1085SOL    HW1 4154   2.116   3.942   4.509
 1085SOL    HW2 4155   2.146   3.860   4.647
 1086SOL     OW 4156   5.876   5.373   0.613
 1086SOL    HW1 4157   5.835   5.347   0.701
 1086SOL    HW2 4158   5.831   5.456   0.579
 1087SOL     OW 4159   4.244   0.198   5.646
 1087SOL    HW1 4160   4.338   0.188   5.678
 1087SOL    HW2 4161   4.240   0.177   5.548
 1088SOL     OW 4162   6.699   5.271   3.423
 1088SOL    HW1 4163   6.761   5.302   3.496
 1088SOL    HW2 4164   6.644   5.347   3.391
 1089SOL     OW 4165   6.092   4.653   4.137
 1089SOL    HW1 4166   6.130   4.606   4.057
 1089SOL    HW2 4167   6.161   4.713   4.176
 1090SOL     OW 4168   5.051   2.327   5.227
 1090SOL    HW1 4169   4.969   2.380   5.205
 1090SOL    HW2 4170   5.062   2.321   5.326
 1091SOL     OW 4171   2.199   2.579   3.143
 1091SOL    HW1 4172   2.185   2.657   3.203
 1091SOL    HW2 4173   2.293   2.581   3.107
 1092SOL     OW 4174   0.090   5.639   0.648
 1092SOL    HW1 4175   0.004   5.611   0.604
 1092SOL    HW2 4176   0.070   5.700   0.725
 1093SOL     OW 4177   1.638   0.577   3.031
 1093SOL    HW1 4178   1.619   0.649   2.965
 1093SOL    HW2 4179   1.733   0.547   3.021
 1094SOL     OW 4180   0.241   0.661   3.202
 1094SOL    HW1 4181   0.326   0.629   3.244
 1094SOL    HW2 4182   0.164   0.642   3.262
 1095SOL     OW 4183   5.366   3.048   0.859
 1095SOL    HW1 4184   5.425   2.982   0.907
 1095SOL    HW2 4185   5.337   3.009   0.772
 1096SOL     OW 4186   2.369   5.866   1.897
 1096SOL    HW1 4187   2.312   5.796   1.854
 1096SOL    HW2 4188   2.401   5.930   1.827
 1097SOL     OW 4189   2.479   5.802   4.565
 1097SOL    HW1 4190   2.543   5.810   4.641
 1097SOL    HW2 4191   2.387   5.828   4.595
 1098SOL     OW 4192   6.038   3.957   0.563
 1098SOL    HW1 4193   6.027   4.009   0.478
 1098SOL    HW2 4194   6.041   4.020   0.641
 1099SOL     OW 4195   4.838   0.299   5.962
 1099SOL    HW1 4196   4.777   0.263   6.033
 1099SOL    HW2 4197   4.922   0.333   6.004
 1100SOL     OW 4198   4.023   1.757   4.368
 1100SOL    HW1 4199   4.031   1.746   4.467
 1100SOL    HW2 4200   3.983   1.674   4.329
 1101SOL     OW 4201   4.728   3.012   6.352
 1101SOL    HW1 4202   4.698   3.055   6.437
 1101SOL    HW2 4203   4.758   3.082   6.287
 1102SOL     OW 4204   2.749   0.684   3.192
 1102SOL    HW1 4205   2.652   0.704   3.185
 1102SOL    HW2 4206   2.790   0.744   3.262
 1103SOL     OW 4207   3.222   6.486   0.452
 1103SOL    HW1 4208   3.279   6.426   0.396
 1103SOL    HW2 4209   3.266   6.576   0.459
 1104SOL     OW 4210   0.543   2.723   3.502
 1104SOL    HW1 4211   0.447   2.738   3.524
 1104SOL    HW2 4212   0.596   2.715   3.587
 1105SOL     OW 4213   5.064   1.302   6.173
 1105SOL    HW1 4214   5.160   1.332   6.175
 1105SOL    HW2 4215   5.054   1.218   6.227
 1106SOL     OW 4216   6.589   1.371   0.707
 1106SOL    HW1 4217   6.590   1.388   0.806
 1106SOL    HW2 4218   6.650   1.295   0.686
 1107SOL     OW 4219   1.080   1.199   6.576
 1107SOL    HW1 4220   1.075   1.104   6.547
 1107SOL    HW2 4221   1.020   1.255   6.518
 1108SOL     OW 4222   2.231   0.578   4.224
 1108SOL    HW1 4223   2.318   0.605   4.265
 1108SOL    HW2 4224   2.231   0.479   4.209
 1109SOL     OW 4225   4.692   2.342   5.030
 1109SOL    HW1 4226   4.647   2.388   5.107
 1109SOL    HW2 4227   4.624   2.320   4.960
 1110SOL     OW 4228   2.396   0.690   2.419
 1110SOL    HW1 4229   2.437   0.773   2.457
 1110SOL    HW2 4230   2.305   0.710   2.383
 1111SOL     OW 4231   5.720   4.188   6.146
 1111SOL    HW1 4232   5.769   4.122   6.203
 1111SOL    HW2 4233   5.700   4.147   6.057
 1112SOL     OW 4234   5.326   0.971   2.405
 1112SOL    HW1 4235   5.413   0.980   2.356
 1112SOL    HW2 4236   5.327   0.885   2.457
 1113SOL     OW 4237   5.850   3.884   2.126
 1113SOL    HW1 4238   5.909   3.840   2.194
 1113SOL    HW2 4239   5.844   3.982   2.145
 1114SOL     OW 4240   3.483   3.876   4.442
 1114SOL    HW1 4241   3.471   3.963   4.490
 1114SOL    HW2 4242   3.484   3.801   4.509
 1115SOL     OW 4243   2.776   4.353   5.580
 1115SOL    HW1 4244   2.850   4.355   5.513
 1115SOL    HW2 4245   2.689   4.370   5.535
 1116SOL     OW 4246   4.551   6.929   6.752
 1116SOL    HW1 4247   4.539   7.011   6.696
 1116SOL    HW2 4248   4.492   6.857   6.717
 1117SOL     OW 4249   2.150   2.554   1.405
 1117SOL    HW1 4250   2.064   2.603   1.419
 1117SOL    HW2 4251   2.198   2.545   1.492
 1118SOL     OW 4252   4.178   6.411   0.050
 1118SOL    HW1 4253   4.209   6.505   0.032
 1118SOL    HW2 4254   4.204   6.384   0.143
 1119SOL     OW 4255   3.320   5.158   3.610
 1119SOL    HW1 4256   3.374   5.240   3.629
 1119SOL    HW2 4257   3.380   5.086   3.575
 1120SOL     OW 4258   6.556   3.391   1.202
 1120SOL    HW1 4259   6.485   3.385   1.272
 1120SOL    HW2 4260   6.613   3.471   1.219
 1121SOL     OW 4261   6.931   4.624   5.011
 1121SOL    HW1 4262   6.899   4.689   4.942
 1121SOL    HW2 4263   7.008   4.572   4.975
 1122SOL     OW 4264   5.497   2.449   1.903
 1122SOL    HW1 4265   5.431   2.441   1.977
 1122SOL    HW2 4266   5.587   2.416   1.933
 1123SOL     OW 4267   4.321   1.377   3.723
 1123SOL    HW1 4268   4.346   1.419   3.636
 1123SOL    HW2 4269   4.325   1.446   3.795
 1124SOL     OW 4270   2.016   2.154   4.525
 1124SOL    HW1 4271   2.102   2.199   4.498
 1124SOL    HW2 4272   2.012   2.063   4.483
 1125SOL     OW 4273   1.748   3.450   3.536
 1125SOL    HW1 4274   1.759   3.547   3.559
 1125SOL    HW2 4275   1.785   3.434   3.444
 1126SOL     OW 4276   4.042   4.936   4.551
 1126SOL    HW1 4277   4.109   4.889   4.610
 1126SOL    HW2 4278   4.090   4.997   4.489
 1127SOL     OW 4279   6.316   6.844   2.229
 1127SOL    HW1 4280   6.328   6.935   2.269
 1127SOL    HW2 4281   6.287   6.781   2.301
 1128SOL     OW 4282   5.166   0.862   4.553
 1128SOL    HW1 4283   5.217   0.902   4.628
 1128SOL    HW2 4284   5.227   0.805   4.497
 1129SOL     OW 4285   1.298   0.897   0.525
 1129SOL    HW1 4286   1.386   0.943   0.514
 1129SOL    HW2 4287   1.311   0.811   0.574
 1130SOL     OW 4288   2.194   4.656   2.157
 1130SOL    HW1 4289   2.273   4.606   2.191
 1130SOL    HW2 4290   2.150   4.603   2.084
 1131SOL     OW 4291   1.402   5.452   4.135
 1131SOL    HW1 4292   1.375   5.528   4.076
 1131SOL    HW2 4293   1.444   5.380   4.079
 1132SOL     OW 4294   2.287   1.568   2.530
 1132SOL    HW1 4295   2.292   1.469   2.546
 1132SOL    HW2 4296   2.332   1.589   2.443
 1133SOL     OW 4297   0.946   6.996   6.196
 1133SOL    HW1 4298   0.863   0.035   6.192
 1133SOL    HW2 4299   1.012   0.011   6.128
 1134SOL     OW 4300   3.447   6.241   1.737
 1134SOL    HW1 4301   3.500   6.217   1.819
 1134SOL    HW2 4302   3.386   6.164   1.714
 1135SOL     OW 4303   1.640   5.698   3.248
 1135SOL    HW1 4304   1.610   5.698   3.344
 1135SOL    HW2 4305   1.654   5.792   3.218
 1136SOL     OW 4306   1.749   5.372   2.331
 1136SOL    HW1 4307   1.729   5.293   2.388
 1136SOL    HW2 4308   1.835   5.414   2.360
 1137SOL     OW 4309   1.008   5.478   5.026
 1137SOL    HW1 4310   1.005   5.392   5.078
 1137SOL    HW2 4311   1.065   5.544   5.075
 1138SOL     OW 4312   2.094   3.194   4.660
 1138SOL    HW1 4313   2.104   3.133   4.739
 1138SOL    HW2 4314   2.124   3.286   4.686
 1139SOL     OW 4315   2.451   4.968   4.995
 1139SOL    HW1 4316   2.391   4.889   5.003
 1139SOL    HW2 4317   2.510   4.957   4.915
 1140SOL     OW 4318   2.148   2.142   1.295
 1140SOL    HW1 4319   2.224   2.134   1.359
 1140SOL    HW2 4320   2.142   2.058   1.240
 1141SOL     OW 4321   6.969   4.714   6.268
 1141SOL    HW1 4322   6.871   4.731   6.278
 1141SOL    HW2 4323   7.017   4.747   6.349
 1142SOL     OW 4324   1.918   6.171   2.191
 1142SOL    HW1 4325   1.910   6.116   2.275
 1142SOL    HW2 4326   1.847   6.144   2.126
 1143SOL     OW 4327   1.079   3.836   1.841
 1143SOL    HW1 4328   1.061   3.906   1.772
 1143SOL    HW2 4329   1.144   3.770   1.804
 1144SOL     OW 4330   5.742   4.624   0.593
 1144SOL    HW1 4331   5.670   4.569   0.636
 1144SOL    HW2 4332   5.701   4.699   0.542
 1145SOL     OW 4333   5.865   0.002   0.725
 1145SOL    HW1 4334   5.821   0.018   0.637
 1145SOL    HW2 4335   5.851   0.082   0.784
 1146SOL     OW 4336   1.153   1.068   1.451
 1146SOL    HW1 4337   1.077   1.132   1.459
 1146SOL    HW2 4338   1.172   1.051   1.354
 1147SOL     OW 4339   2.109   6.489   1.152
 1147SOL    HW1 4340   2.125   6.583   1.182
 1147SOL    HW2 4341   2.029   6.452   1.199
 1148SOL     OW 4342   4.159   5.938   3.224
 1148SOL    HW1 4343   4.223   5.905   3.293
 1148SOL    HW2 4344   4.134   6.033   3.245
 1149SOL     OW 4345   4.662   3.303   1.451
 1149SOL    HW1 4346   4.582   3.263   1.408
 1149SOL    HW2 4347   4.692   3.245   1.527
 1150SOL     OW 4348   1.660   3.479   0.733
 1150SOL    HW1 4349   1.723   3.450   0.806
 1150SOL    HW2 4350   1.708   3.478   0.645
 1151SOL     OW 4351   6.589   5.341   4.091
 1151SOL    HW1 4352   6.610   5.243   4.089
 1151SOL    HW2 4353   6.593   5.373   4.186
 1152SOL     OW 4354   3.427   6.528   6.213
 1152SOL    HW1 4355   3.515   6.553   6.253
 1152SOL    HW2 4356   3.385   6.454   6.266
 1153SOL     OW 4357   5.742   6.819   1.599
 1153SOL    HW1 4358   5.716   6.743   1.659
 1153SOL    HW2 4359   5.750   6.903   1.653
 1154SOL     OW 4360   2.065   2.901   0.871
 1154SOL    HW1 4361   1.979   2.851   0.854
 1154SOL    HW2 4362   2.102   2.873   0.960
 1155SOL     OW 4363   2.838   6.533   4.714
 1155SOL    HW1 4364   2.803   6.439   4.714
 1155SOL    HW2 4365   2.925   6.536   4.664
 1156SOL     OW 4366   2.752   1.870   3.346
 1156SOL    HW1 4367   2.789   1.962   3.362
 1156SOL    HW2 4368   2.826   1.807   3.325
 1157SOL     OW 4369   3.437   1.160   6.835
 1157SOL    HW1 4370   3.357   1.101   6.844
 1157SOL    HW2 4371   3.513   1.121   6.889
 1158SOL     OW 4372   5.724   4.268   2.862
 1158SOL    HW1 4373   5.782   4.334   2.909
 1158SOL    HW2 4374   5.777   4.221   2.791
 1159SOL     OW 4375   6.584   4.933   1.010
 1159SOL    HW1 4376   6.562   4.991   1.089
 1159SOL    HW2 4377   6.582   4.837   1.037
 1160SOL     OW 4378   5.696   1.949   0.376
 1160SOL    HW1 4379   5.671   2.010   0.301
 1160SOL    HW2 4380   5.785   1.907   0.356
 1161SOL     OW 4381   6.981   5.137   1.292
 1161SOL    HW1 4382   6.978   5.047   1.336
 1161SOL    HW2 4383   6.978   5.126   1.193
 1162SOL     OW 4384   3.210   2.126   4.843
 1162SOL    HW1 4385   3.235   2.166   4.755
 1162SOL    HW2 4386   3.214   2.195   4.914
 1163SOL     OW 4387   5.916   2.993   1.467
 1163SOL    HW1 4388   5.934   3.070   1.527
 1163SOL    HW2 4389   5.858   3.023   1.391
 1164SOL     OW 4390   4.042   2.580   5.725
 1164SOL    HW1 4391   3.947   2.552   5.710
 1164SOL    HW2 4392   4.044   2.677   5.747
 1165SOL     OW 4393   4.006   6.486   3.276
 1165SOL    HW1 4394   3.947   6.424   3.328
 1165SOL    HW2 4395   3.950   6.546   3.220
 1166SOL     OW 4396   3.363   4.892   6.034
 1166SOL    HW1 4397   3.366   4.811   5.976
 1166SOL    HW2 4398   3.362   4.974   5.976
 1167SOL     OW 4399   5.077   4.515   2.426
 1167SOL    HW1 4400   5.092   4.570   2.344
 1167SOL    HW2 4401   5.136   4.548   2.500
 1168SOL     OW 4402   6.564   0.446   2.676
 1168SOL    HW1 4403   6.534   0.486   2.763
 1168SOL    HW2 4404   6.653   0.403   2.688
 1169SOL     OW 4405   4.841   1.257   5.255
 1169SOL    HW1 4406   4.834   1.322   5.331
 1169SOL    HW2 4407   4.826   1.165   5.289
 1170SOL     OW 4408   4.879   5.892   3.309
 1170SOL    HW1 4409   4.848   5.977   3.353
 1170SOL    HW2 4410   4.868   5.816   3.373
 1171SOL     OW 4411   0.402   5.938   0.958
 1171SOL    HW1 4412   0.423   5.938   1.056
 1171SOL    HW2 4413   0.440   5.856   0.916
 1172SOL     OW 4414   6.918   3.402   6.855
 1172SOL    HW1 4415   6.936   3.415   6.952
 1172SOL    HW2 4416   6.935   3.489   6.807
 1173SOL     OW 4417   3.854   1.656   0.524
 1173SOL    HW1 4418   3.875   1.743   0.569
 1173SOL    HW2 4419   3.786   1.672   0.452
 1174SOL     OW 4420   2.504   4.190   0.629
 1174SOL    HW1 4421   2.567   4.147   0.695
 1174SOL    HW2 4422   2.554   4.212   0.545
 1175SOL     OW 4423   3.241   3.017   4.216
 1175SOL    HW1 4424   3.267   3.020   4.119
 1175SOL    HW2 4425   3.296   2.948   4.263
 1176SOL     OW 4426   5.462   3.513   5.929
 1176SOL    HW1 4427   5.380   3.503   5.873
 1176SOL    HW2 4428   5.517   3.431   5.922
 1177SOL     OW 4429   0.287   1.881   4.279
 1177SOL    HW1 4430   0.352   1.836   4.219
 1177SOL    HW2 4431   0.194   1.860   4.249
 1178SOL     OW 4432   3.834   5.820   0.659
 1178SOL    HW1 4433   3.893   5.788   0.733
 1178SOL    HW2 4434   3.748   5.769   0.662
 1179SOL     OW 4435   1.795   5.832   0.223
 1179SOL    HW1 4436   1.698   5.807   0.220
 1179SOL    HW2 4437   1.839   5.786   0.300
 1180SOL     OW 4438   3.307   6.175   0.531
 1180SOL    HW1 4439   3.334   6.251   0.591
 1180SOL    HW2 4440   3.387   6.144   0.479
 1181SOL     OW 4441   0.126   6.354   0.476
 1181SOL    HW1 4442   0.180   6.374   0.394
 1181SOL    HW2 4443   0.075   6.435   0.503
 1182SOL     OW 4444   4.419   4.690   2.781
 1182SOL    HW1 4445   4.381   4.702   2.873
 1182SOL    HW2 4446   4.502   4.745   2.772
 1183SOL     OW 4447   2.488   3.156   5.672
 1183SOL    HW1 4448   2.550   3.229   5.701
 1183SOL    HW2 4449   2.394   3.182   5.692
 1184SOL     OW 4450   0.781   6.756   5.697
 1184SOL    HW1 4451   0.775   6.766   5.796
 1184SOL    HW2 4452   0.699   6.793   5.654
 1185SOL     OW 4453   6.843   1.274   6.865
 1185SOL    HW1 4454   6.747   1.263   6.842
 1185SOL    HW2 4455   6.853   1.341   6.938
 1186SOL     OW 4456   5.846   6.147   4.680
 1186SOL    HW1 4457   5.827   6.242   4.702
 1186SOL    HW2 4458   5.762   6.094   4.686
 1187SOL     OW 4459   5.871   0.451   6.273
 1187SOL    HW1 4460   5.908   0.487   6.359
 1187SOL    HW2 4461   5.907   0.359   6.258
 1188SOL     OW 4462   2.590   0.188   6.304
 1188SOL    HW1 4463   2.649   0.135   6.245
 1188SOL    HW2 4464   2.629   0.192   6.396
 1189SOL     OW 4465   5.255   3.636   3.381
 1189SOL    HW1 4466   5.312   3.683   3.315
 1189SOL    HW2 4467   5.297   3.642   3.472
 1190SOL     OW 4468   1.905   5.927   3.348
 1190SOL    HW1 4469   1.873   5.965   3.261
 1190SOL    HW2 4470   2.005   5.934   3.353
 1191SOL     OW 4471   3.857   6.000   2.900
 1191SOL    HW1 4472   3.907   5.915   2.916
 1191SOL    HW2 4473   3.902   6.053   2.828
 1192SOL     OW 4474   5.818   5.986   3.507
 1192SOL    HW1 4475   5.754   6.061   3.522
 1192SOL    HW2 4476   5.910   6.013   3.537
 1193SOL     OW 4477   6.862   5.246   4.073
 1193SOL    HW1 4478   6.810   5.161   4.061
 1193SOL    HW2 4479   6.850   5.279   4.166
 1194SOL     OW 4480   3.805   0.677   1.104
 1194SOL    HW1 4481   3.837   0.600   1.160
 1194SOL    HW2 4482   3.845   0.762   1.139
 1195SOL     OW 4483   5.541   2.376   3.692
 1195SOL    HW1 4484   5.448   2.385   3.728
 1195SOL    HW2 4485   5.603   2.434   3.745
 1196SOL     OW 4486   6.299   6.109   5.259
 1196SOL    HW1 4487   6.332   6.202   5.242
 1196SOL    HW2 4488   6.200   6.107   5.248
 1197SOL     OW 4489   2.411   5.980   0.328
 1197SOL    HW1 4490   2.431   6.066   0.374
 1197SOL    HW2 4491   2.318   5.950   0.352
 1198SOL     OW 4492   1.339   2.911   0.117
 1198SOL    HW1 4493   1.243   2.932   0.135
 1198SOL    HW2 4494   1.373   2.850   0.189
 1199SOL     OW 4495   5.424   3.900   1.568
 1199SOL    HW1 4496   5.430   3.931   1.663
 1199SOL    HW2 4497   5.380   3.971   1.513
 1200SOL     OW 4498   3.016   3.064   2.095
 1200SOL    HW1 4499   2.925   3.025   2.084
 1200SOL    HW2 4500   3.020   3.116   2.180
 1201SOL     OW 4501   2.204   1.900   4.691
 1201SOL    HW1 4502   2.173   1.909   4.596
 1201SOL    HW2 4503   2.189   1.987   4.739
 1202SOL     OW 4504   0.498   5.380   5.658
 1202SOL    HW1 4505   0.441   5.322   5.717
 1202SOL    HW2 4506   0.449   5.400   5.573
 1203SOL     OW 4507   4.915   5.959   5.374
 1203SOL    HW1 4508   4.947   6.032   5.434
 1203SOL    HW2 4509   4.938   5.981   5.279
 1204SOL     OW 4510   2.189   6.799   3.035
 1204SOL    HW1 4511   2.268   6.762   2.986
 1204SOL    HW2 4512   2.106   6.782   2.981
 1205SOL     OW 4513   5.174   4.313   2.263
 1205SOL    HW1 4514   5.270   4.288   2.280
 1205SOL    HW2 4515   5.146   4.383   2.328
 1206SOL     OW 4516   3.104   3.159   4.830
 1206SOL    HW1 4517   3.045   3.178   4.751
 1206SOL    HW2 4518   3.167   3.235   4.844
 1207SOL     OW 4519   1.220   6.422   2.299
 1207SOL    HW1 4520   1.140   6.393   2.246
 1207SOL    HW2 4521   1.291   6.455   2.237
 1208SOL     OW 4522   3.283   4.268   5.961
 1208SOL    HW1 4523   3.195   4.220   5.968
 1208SOL    HW2 4524   3.333   4.235   5.881
 1209SOL     OW 4525   4.039   6.374   5.712
 1209SOL    HW1 4526   4.017   6.471   5.723
 1209SOL    HW2 4527   3.970   6.331   5.655
 1210SOL     OW 4528   3.503   0.770   2.735
 1210SOL    HW1 4529   3.593   0.743   2.770
 1210SOL    HW2 4530   3.480   0.862   2.769
 1211SOL     OW 4531   1.068   3.307   6.951
 1211SOL    HW1 4532   1.069   3.276   0.028
 1211SOL    HW2 4533   0.982   3.279   6.907
 1212SOL     OW 4534   1.572   6.856   0.394
 1212SOL    HW1 4535   1.511   6.777   0.405
 1212SOL    HW2 4536   1.552   6.901   0.307
 1213SOL     OW 4537   5.453   2.804   1.415
 1213SOL    HW1 4538   5.481   2.736   1.347
 1213SOL    HW2 4539   5.487   2.894   1.388
 1214SOL     OW 4540   7.003   2.254   1.502
 1214SOL    HW1 4541   6.926   2.315   1.520
 1214SOL    HW2 4542   0.040   2.290   1.427
 1215SOL     OW 4543   1.359   5.676   3.962
 1215SOL    HW1 4544   1.405   5.747   3.910
 1215SOL    HW2 4545   1.302   5.718   4.033
 1216SOL     OW 4546   4.512   5.990   1.177
 1216SOL    HW1 4547   4.433   6.044   1.204
 1216SOL    HW2 4548   4.534   6.009   1.081
 1217SOL     OW 4549   2.989   4.153   6.848
 1217SOL    HW1 4550   2.938   4.190   6.925
 1217SOL    HW2 4551   3.083   4.131   6.878
 1218SOL     OW 4552   1.809   4.649   3.758
 1218SOL    HW1 4553   1.743   4.616   3.691
 1218SOL    HW2 4554   1.875   4.576   3.778
 1219SOL     OW 4555   4.359   6.188   2.288
 1219SOL    HW1 4556   4.323   6.282   2.283
 1219SOL    HW2 4557   4.457   6.190   2.304
 1220SOL     OW 4558   1.053   4.779   2.704
 1220SOL    HW1 4559   1.142   4.783   2.660
 1220SOL    HW2 4560   1.010   4.691   2.686
 1221SOL     OW 4561   5.190   4.177   6.107
 1221SOL    HW1 4562   5.280   4.194   6.148
 1221SOL    HW2 4563   5.119   4.187   6.176
 1222SOL     OW 4564   6.395   0.131   6.543
 1222SOL    HW1 4565   6.362   0.224   6.524
 1222SOL    HW2 4566   6.429   0.125   6.636
 1223SOL     OW 4567   3.403   6.619   0.845
 1223SOL    HW1 4568   3.325   6.604   0.905
 1223SOL    HW2 4569   3.480   6.655   0.898
 1224SOL     OW 4570   3.383   0.226   2.253
 1224SOL    HW1 4571   3.419   0.309   2.296
 1224SOL    HW2 4572   3.283   0.230   2.252
 1225SOL     OW 4573   2.595   4.223   6.088
 1225SOL    HW1 4574   2.593   4.318   6.117
 1225SOL    HW2 4575   2.635   4.217   5.996
 1226SOL     OW 4576   1.896   4.946   0.994
 1226SOL    HW1 4577   1.887   4.848   0.972
 1226SOL    HW2 4578   1.974   4.959   1.055
 1227SOL     OW 4579   0.502   3.902   6.136
 1227SOL    HW1 4580   0.569   3.932   6.068
 1227SOL    HW2 4581   0.516   3.804   6.155
 1228SOL     OW 4582   3.495   1.541   6.178
 1228SOL    HW1 4583   3.408   1.491   6.170
 1228SOL    HW2 4584   3.570   1.481   6.152
 1229SOL     OW 4585   3.347   4.033   6.354
 1229SOL    HW1 4586   3.253   4.007   6.330
 1229SOL    HW2 4587   3.381   4.098   6.286
 1230SOL     OW 4588   4.550   6.633   3.440
 1230SOL    HW1 4589   4.550   6.733   3.447
 1230SOL    HW2 4590   4.462   6.601   3.407
 1231SOL     OW 4591   1.288   4.947   4.520
 1231SOL    HW1 4592   1.192   4.954   4.547
 1231SOL    HW2 4593   1.327   4.863   4.558
 1232SOL     OW 4594   1.852   1.935   4.719
 1232SOL    HW1 4595   1.896   1.987   4.646
 1232SOL    HW2 4596   1.761   1.972   4.737
 1233SOL     OW 4597   0.617   2.770   4.312
 1233SOL    HW1 4598   0.612   2.772   4.412
 1233SOL    HW2 4599   0.595   2.860   4.276
 1234SOL     OW 4600   6.523   4.236   4.235
 1234SOL    HW1 4601   6.473   4.155   4.205
 1234SOL    HW2 4602   6.462   4.296   4.287
 1235SOL     OW 4603   0.129   5.685   3.963
 1235SOL    HW1 4604   0.048   5.628   3.948
 1235SOL    HW2 4605   0.116   5.773   3.916
 1236SOL     OW 4606   5.022   0.922   6.638
 1236SOL    HW1 4607   5.032   0.830   6.599
 1236SOL    HW2 4608   5.092   0.982   6.600
 1237SOL     OW 4609   2.990   4.511   6.685
 1237SOL    HW1 4610   3.085   4.539   6.671
 1237SOL    HW2 4611   2.978   4.417   6.653
 1238SOL     OW 4612   1.432   1.407   1.516
 1238SOL    HW1 4613   1.354   1.395   1.455
 1238SOL    HW2 4614   1.516   1.411   1.461
 1239SOL     OW 4615   0.241   6.796   6.048
 1239SOL    HW1 4616   0.327   6.843   6.069
 1239SOL    HW2 4617   0.212   6.742   6.127
 1240SOL     OW 4618   4.166   5.921   2.144
 1240SOL    HW1 4619   4.145   6.014   2.117
 1240SOL    HW2 4620   4.164   5.914   2.244
 1241SOL     OW 4621   6.680   3.110   3.722
 1241SOL    HW1 4622   6.757   3.160   3.762
 1241SOL    HW2 4623   6.713   3.043   3.656
 1242SOL     OW 4624   2.361   3.620   6.254
 1242SOL    HW1 4625   2.456   3.616   6.224
 1242SOL    HW2 4626   2.331   3.716   6.256
 1243SOL     OW 4627   3.175   5.161   5.715
 1243SOL    HW1 4628   3.249   5.170   5.781
 1243SOL    HW2 4629   3.184   5.233   5.646
 1244SOL     OW 4630   0.693   1.040   2.853
 1244SOL    HW1 4631   0.704   1.104   2.929
 1244SOL    HW2 4632   0.715   1.087   2.767
 1245SOL     OW 4633   3.008   2.972   6.154
 1245SOL    HW1 4634   3.086   2.934   6.103
 1245SOL    HW2 4635   2.997   3.068   6.131
 1246SOL     OW 4636   1.312   6.757   2.143
 1246SOL    HW1 4637   1.262   6.730   2.061
 1246SOL    HW2 4638   1.246   6.775   2.217
 1247SOL     OW 4639   1.402   6.639   6.996
 1247SOL    HW1 4640   1.327   6.701   0.003
 1247SOL    HW2 4641   1.411   6.637   6.897
 1248SOL     OW 4642   1.799   6.255   3.426
 1248SOL    HW1 4643   1.735   6.298   3.490
 1248SOL    HW2 4644   1.749   6.224   3.345
 1249SOL     OW 4645   6.312   3.201   3.209
 1249SOL    HW1 4646   6.326   3.115   3.257
 1249SOL    HW2 4647   6.353   3.196   3.118
 1250SOL     OW 4648   1.037   3.924   4.391
 1250SOL    HW1 4649   1.083   3.888   4.472
 1250SOL    HW2 4650   0.978   4.001   4.417
 1251SOL     OW 4651   3.334   6.670   5.736
 1251SOL    HW1 4652   3.297   6.758   5.709
 1251SOL    HW2 4653   3.286   6.637   5.818
 1252SOL     OW 4654   3.331   3.230   6.372
 1252SOL    HW1 4655   3.301   3.143   6.411
 1252SOL    HW2 4656   3.430   3.238   6.380
 1253SOL     OW 4657   4.361   6.212   3.305
 1253SOL    HW1 4658   4.420   6.182   3.381
 1253SOL    HW2 4659   4.380   6.157   3.224
 1254SOL     OW 4660   6.347   2.173   2.657
 1254SOL    HW1 4661   6.429   2.206   2.703
 1254SOL    HW2 4662   6.292   2.120   2.721
 1255SOL     OW 4663   6.274   0.017   0.540
 1255SOL    HW1 4664   6.202   0.087   0.540
 1255SOL    HW2 4665   6.343   0.041   0.471
 1256SOL     OW 4666   4.228   1.838   4.072
 1256SOL    HW1 4667   4.321   1.846   4.036
 1256SOL    HW2 4668   4.175   1.919   4.047
 1257SOL     OW 4669   6.358   1.267   4.360
 1257SOL    HW1 4670   6.391   1.300   4.449
 1257SOL    HW2 4671   6.423   1.199   4.325
 1258SOL     OW 4672   0.115   6.353   3.935
 1258SOL    HW1 4673   0.041   6.307   3.886
 1258SOL    HW2 4674   0.200   6.301   3.923
 1259SOL     OW 4675   3.938   2.240   5.509
 1259SOL    HW1 4676   3.892   2.158   5.474
 1259SOL    HW2 4677   4.026   2.251   5.464
 1260SOL     OW 4678   0.309   1.665   5.542
 1260SOL    HW1 4679   0.354   1.640   5.457
 1260SOL    HW2 4680   0.226   1.717   5.522
 1261SOL     OW 4681   6.219   3.681   0.822
 1261SOL    HW1 4682   6.253   3.776   0.824
 1261SOL    HW2 4683   6.285   3.621   0.867
 1262SOL     OW 4684   5.020   6.321   2.735
 1262SOL    HW1 4685   4.945   6.382   2.708
 1262SOL    HW2 4686   5.013   6.236   2.682
 1263SOL     OW 4687   6.701   2.249   3.183
 1263SOL    HW1 4688   6.745   2.330   3.222
 1263SOL    HW2 4689   6.605   2.269   3.165
 1264SOL     OW 4690   0.878   2.970   5.205
 1264SOL    HW1 4691   0.845   2.941   5.295
 1264SOL    HW2 4692   0.887   2.890   5.145
 1265SOL     OW 4693   5.650   6.750   5.717
 1265SOL    HW1 4694   5.605   6.661   5.713
 1265SOL    HW2 4695   5.594   6.813   5.771
 1266SOL     OW 4696   2.071   1.689   5.950
 1266SOL    HW1 4697   2.093   1.778   5.911
 1266SOL    HW2 4698   2.050   1.624   5.877
 1267SOL     OW 4699   3.646   0.042   2.782
 1267SOL    HW1 4700   3.629   6.962   2.790
 1267SOL    HW2 4701   3.561   0.088   2.755
 1268SOL     OW 4702   4.058   2.847   5.827
 1268SOL    HW1 4703   4.032   2.933   5.869
 1268SOL    HW2 4704   4.156   2.832   5.839
 1269SOL     OW 4705   5.791   1.976   4.198
 1269SOL    HW1 4706   5.804   2.073   4.218
 1269SOL    HW2 4707   5.731   1.967   4.118
 1270SOL     OW 4708   6.320   5.423   2.741
 1270SOL    HW1 4709   6.310   5.330   2.775
 1270SOL    HW2 4710   6.400   5.465   2.783
 1271SOL     OW 4711   1.824   1.174   1.173
 1271SOL    HW1 4712   1.768   1.224   1.240
 1271SOL    HW2 4713   1.815   1.216   1.083
 1272SOL     OW 4714   6.296   2.628   6.483
 1272SOL    HW1 4715   6.355   2.555   6.446
 1272SOL    HW2 4716   6.233   2.589   6.549
 1273SOL     OW 4717   1.170   4.566   5.568
 1273SOL    HW1 4718   1.137   4.660   5.567
 1273SOL    HW2 4719   1.270   4.566   5.569
 1274SOL     OW 4720   6.874   4.944   3.040
 1274SOL    HW1 4721   6.859   5.006   3.117
 1274SOL    HW2 4722   6.942   4.875   3.065
 1275SOL     OW 4723   2.252   1.250   3.286
 1275SOL    HW1 4724   2.227   1.347   3.282
 1275SOL    HW2 4725   2.172   1.194   3.264
 1276SOL     OW 4726   5.415   4.874   3.510
 1276SOL    HW1 4727   5.369   4.803   3.562
 1276SOL    HW2 4728   5.484   4.919   3.567
 1277SOL     OW 4729   0.269   5.840   0.578
 1277SOL    HW1 4730   0.201   5.773   0.608
 1277SOL    HW2 4731   0.360   5.800   0.583
 1278SOL     OW 4732   1.212   5.754   3.067
 1278SOL    HW1 4733   1.236   5.808   3.148
 1278SOL    HW2 4734   1.275   5.676   3.060
 1279SOL     OW 4735   2.695   2.767   1.675
 1279SOL    HW1 4736   2.632   2.843   1.663
 1279SOL    HW2 4737   2.787   2.794   1.646
 1280SOL     OW 4738   2.377   1.881   4.194
 1280SOL    HW1 4739   2.345   1.974   4.173
 1280SOL    HW2 4740   2.477   1.878   4.186
 1281SOL     OW 4741   5.287   6.392   5.094
 1281SOL    HW1 4742   5.197   6.387   5.138
 1281SOL    HW2 4743   5.326   6.483   5.108
 1282SOL     OW 4744   0.834   3.137   1.475
 1282SOL    HW1 4745   0.900   3.168   1.407
 1282SOL    HW2 4746   0.804   3.044   1.451
 1283SOL     OW 4747   6.606   2.873   4.782
 1283SOL    HW1 4748   6.595   2.777   4.807
 1283SOL    HW2 4749   6.703   2.894   4.771
 1284SOL     OW 4750   3.945   2.208   1.858
 1284SOL    HW1 4751   3.997   2.278   1.810
 1284SOL    HW2 4752   3.851   2.238   1.870
 1285SOL     OW 4753   4.500   1.324   4.661
 1285SOL    HW1 4754   4.494   1.244   4.601
 1285SOL    HW2 4755   4.578   1.381   4.633
 1286SOL     OW 4756   5.341   1.418   0.862
 1286SOL    HW1 4757   5.382   1.362   0.790
 1286SOL    HW2 4758   5.389   1.506   0.866
 1287SOL     OW 4759   6.814   4.783   4.837
 1287SOL    HW1 4760   6.826   4.847   4.761
 1287SOL    HW2 4761   6.718   4.754   4.842
 1288SOL     OW 4762   4.983   4.820   6.820
 1288SOL    HW1 4763   4.999   4.851   6.914
 1288SOL    HW2 4764   5.066   4.836   6.766
 1289SOL     OW 4765   6.961   7.014   1.332
 1289SOL    HW1 4766   6.918   0.026   1.417
 1289SOL    HW2 4767   6.903   6.944   1.289
 1290SOL     OW 4768   1.124   6.300   5.289
 1290SOL    HW1 4769   1.218   6.319   5.320
 1290SOL    HW2 4770   1.100   6.364   5.216
 1291SOL     OW 4771   6.414   4.927   3.651
 1291SOL    HW1 4772   6.490   4.992   3.658
 1291SOL    HW2 4773   6.347   4.961   3.584
 1292SOL     OW 4774   0.643   6.667   1.833
 1292SOL    HW1 4775   0.658   6.673   1.734
 1292SOL    HW2 4776   0.553   6.628   1.851
 1293SOL     OW 4777   4.851   1.055   0.077
 1293SOL    HW1 4778   4.904   0.985   0.028
 1293SOL    HW2 4779   4.842   1.029   0.173
 1294SOL     OW 4780   2.033   4.435   5.058
 1294SOL    HW1 4781   2.000   4.358   5.002
 1294SOL    HW2 4782   2.133   4.430   5.065
 1295SOL     OW 4783   6.458   4.407   0.762
 1295SOL    HW1 4784   6.529   4.340   0.786
 1295SOL    HW2 4785   6.489   4.462   0.685
 1296SOL     OW 4786   5.184   0.374   5.880
 1296SOL    HW1 4787   5.263   0.375   5.819
 1296SOL    HW2 4788   5.134   0.288   5.868
 1297SOL     OW 4789   0.328   0.463   1.550
 1297SOL    HW1 4790   0.291   0.383   1.598
 1297SOL    HW2 4791   0.270   0.542   1.567
 1298SOL     OW 4792   5.061   0.880   2.333
 1298SOL    HW1 4793   5.131   0.930   2.283
 1298SOL    HW2 4794   5.068   0.782   2.312
 1299SOL     OW 4795   0.871   3.168   4.024
 1299SOL    HW1 4796   0.937   3.094   4.037
 1299SOL    HW2 4797   0.831   3.161   3.933
 1300SOL     OW 4798   0.451   5.747   1.479
 1300SOL    HW1 4799   0.369   5.726   1.424
 1300SOL    HW2 4800   0.449   5.843   1.506
 1301SOL     OW 4801   6.979   0.295   0.151
 1301SOL    HW1 4802   6.934   0.373   0.108
 1301SOL    HW2 4803   0.014   0.326   0.230
 1302SOL     OW 4804   6.433   6.683   5.427
 1302SOL    HW1 4805   6.367   6.655   5.496
 1302SOL    HW2 4806   6.389   6.742   5.360
 1303SOL     OW 4807   3.007   6.069   1.568
 1303SOL    HW1 4808   2.916   6.091   1.602
 1303SOL    HW2 4809   3.026   5.972   1.585
 1304SOL     OW 4810   0.320   0.517   0.776
 1304SOL    HW1 4811   0.333   0.531   0.874
 1304SOL    HW2 4812   0.271   0.431   0.760
 1305SOL     OW 4813   4.548   3.959   6.166
 1305SOL    HW1 4814   4.470   3.957   6.104
 1305SOL    HW2 4815   4.540   3.885   6.232
 1306SOL     OW 4816   3.243   6.055   4.116
 1306SOL    HW1 4817   3.313   5.989   4.144
 1306SOL    HW2 4818   3.258   6.082   4.021
 1307SOL     OW 4819   2.459   2.664   3.361
 1307SOL    HW1 4820   2.441   2.641   3.265
 1307SOL    HW2 4821   2.540   2.615   3.393
 1308SOL     OW 4822   0.112   4.034   6.412
 1308SOL    HW1 4823   0.191   4.011   6.355
 1308SOL    HW2 4824   0.071   3.951   6.448
 1309SOL     OW 4825   5.892   4.640   6.654
 1309SOL    HW1 4826   5.869   4.546   6.680
 1309SOL    HW2 4827   5.958   4.639   6.579
 1310SOL     OW 4828   1.564   4.402   3.362
 1310SOL    HW1 4829   1.599   4.318   3.404
 1310SOL    HW2 4830   1.514   4.378   3.278
 1311SOL     OW 4831   5.884   4.953   0.550
 1311SOL    HW1 4832   5.976   4.917   0.563
 1311SOL    HW2 4833   5.828   4.886   0.501
 1312SOL     OW 4834   2.810   1.429   5.873
 1312SOL    HW1 4835   2.794   1.486   5.953
 1312SOL    HW2 4836   2.727   1.376   5.852
 1313SOL     OW 4837   6.613   5.574   1.890
 1313SOL    HW1 4838   6.533   5.537   1.842
 1313SOL    HW2 4839   6.668   5.499   1.925
 1314SOL     OW 4840   2.542   1.969   5.001
 1314SOL    HW1 4841   2.606   1.980   5.076
 1314SOL    HW2 4842   2.551   2.045   4.937
 1315SOL     OW 4843   6.372   0.685   2.738
 1315SOL    HW1 4844   6.354   0.621   2.812
 1315SOL    HW2 4845   6.330   0.773   2.758
 1316SOL     OW 4846   5.290   0.430   6.528
 1316SOL    HW1 4847   5.341   0.510   6.560
 1316SOL    HW2 4848   5.307   0.353   6.590
 1317SOL     OW 4849   3.445   3.274   5.809
 1317SOL    HW1 4850   3.366   3.305   5.756
 1317SOL    HW2 4851   3.526   3.325   5.779
 1318SOL     OW 4852   1.928   1.797   6.420
 1318SOL    HW1 4853   1.952   1.886   6.458
 1318SOL    HW2 4854   1.896   1.808   6.326
 1319SOL     OW 4855   6.703   0.092   0.541
 1319SOL    HW1 4856   6.712   0.162   0.612
 1319SOL    HW2 4857   6.762   0.014   0.563
 1320SOL     OW 4858   3.466   3.266   6.081
 1320SOL    HW1 4859   3.466   3.360   6.115
 1320SOL    HW2 4860   3.434   3.265   5.987
 1321SOL     OW 4861   6.954   2.542   0.496
 1321SOL    HW1 4862   6.995   2.622   0.453
 1321SOL    HW2 4863   6.983   2.537   0.591
 1322SOL     OW 4864   3.239   2.356   0.092
 1322SOL    HW1 4865   3.215   2.398   0.005
 1322SOL    HW2 4866   3.249   2.257   0.080
 1323SOL     OW 4867   3.933   6.349   1.241
 1323SOL    HW1 4868   3.844   6.391   1.263
 1323SOL    HW2 4869   3.954   6.365   1.145
 1324SOL     OW 4870   2.317   4.321   6.502
 1324SOL    HW1 4871   2.404   4.366   6.483
 1324SOL    HW2 4872   2.243   4.388   6.495
 1325SOL     OW 4873   2.905   5.766   5.397
 1325SOL    HW1 4874   2.955   5.684   5.370
 1325SOL    HW2 4875   2.928   5.789   5.492
 1326SOL     OW 4876   4.778   1.850   4.808
 1326SOL    HW1 4877   4.804   1.920   4.874
 1326SOL    HW2 4878   4.721   1.891   4.736
 1327SOL     OW 4879   5.151   5.618   2.490
 1327SOL    HW1 4880   5.110   5.587   2.575
 1327SOL    HW2 4881   5.168   5.716   2.494
 1328SOL     OW 4882   1.701   2.656   5.874
 1328SOL    HW1 4883   1.708   2.697   5.783
 1328SOL    HW2 4884   1.785   2.674   5.925
 1329SOL     OW 4885   1.003   2.823   3.964
 1329SOL    HW1 4886   0.953   2.736   3.954
 1329SOL    HW2 4887   1.095   2.813   3.926
 1330SOL     OW 4888   5.707   3.200   2.874
 1330SOL    HW1 4889   5.802   3.229   2.870
 1330SOL    HW2 4890   5.703   3.100   2.864
 1331SOL     OW 4891   4.518   2.131   3.802
 1331SOL    HW1 4892   4.540   2.123   3.705
 1331SOL    HW2 4893   4.514   2.227   3.827
 1332SOL     OW 4894   2.292   5.435   0.234
 1332SOL    HW1 4895   2.242   5.520   0.217
 1332SOL    HW2 4896   2.382   5.457   0.272
 1333SOL     OW 4897   2.968   3.771   3.115
 1333SOL    HW1 4898   2.996   3.865   3.095
 1333SOL    HW2 4899   2.949   3.761   3.212
 1334SOL     OW 4900   6.781   3.666   1.547
 1334SOL    HW1 4901   6.832   3.585   1.575
 1334SOL    HW2 4902   6.804   3.742   1.608
 1335SOL     OW 4903   0.707   3.638   3.081
 1335SOL    HW1 4904   0.677   3.641   2.986
 1335SOL    HW2 4905   0.748   3.726   3.106
 1336SOL     OW 4906   1.977   0.042   5.629
 1336SOL    HW1 4907   1.892   0.076   5.589
 1336SOL    HW2 4908   2.047   0.113   5.624
 1337SOL     OW 4909   0.032   0.273   3.101
 1337SOL    HW1 4910   0.011   0.181   3.067
 1337SOL    HW2 4911   0.108   0.268   3.166
 1338SOL     OW 4912   6.558   4.099   4.881
 1338SOL    HW1 4913   6.596   4.060   4.796
 1338SOL    HW2 4914   6.466   4.134   4.863
 1339SOL     OW 4915   6.635   0.297   0.212
 1339SOL    HW1 4916   6.589   0.339   0.134
 1339SOL    HW2 4917   6.647   0.199   0.195
 1340SOL     OW 4918   4.018   2.647   1.325
 1340SOL    HW1 4919   4.000   2.732   1.373
 1340SOL    HW2 4920   4.097   2.658   1.264
 1341SOL     OW 4921   5.268   5.677   0.065
 1341SOL    HW1 4922   5.198   5.607   0.053
 1341SOL    HW2 4923   5.259   5.719   0.155
 1342SOL     OW 4924   1.973   6.085   1.710
 1342SOL    HW1 4925   1.909   6.029   1.763
 1342SOL    HW2 4926   1.971   6.179   1.743
 1343SOL     OW 4927   6.039   6.109   3.177
 1343SOL    HW1 4928   5.972   6.061   3.122
 1343SOL    HW2 4929   6.087   6.044   3.236
 1344SOL     OW 4930   0.638   0.864   4.637
 1344SOL    HW1 4931   0.674   0.915   4.558
 1344SOL    HW2 4932   0.713   0.824   4.688
 1345SOL     OW 4933   0.583   6.413   0.058
 1345SOL    HW1 4934   0.660   6.352   0.037
 1345SOL    HW2 4935   0.533   6.377   0.137
 1346SOL     OW 4936   3.298   4.985   4.982
 1346SOL    HW1 4937   3.340   4.963   5.070
 1346SOL    HW2 4938   3.245   5.068   4.989
 1347SOL     OW 4939   1.366   0.117   6.423
 1347SOL    HW1 4940   1.294   0.186   6.416
 1347SOL    HW2 4941   1.349   0.044   6.356
 1348SOL     OW 4942   0.381   6.488   5.315
 1348SOL    HW1 4943   0.450   6.418   5.335
 1348SOL    HW2 4944   0.304   6.477   5.378
 1349SOL     OW 4945   4.972   3.069   3.882
 1349SOL    HW1 4946   4.986   3.120   3.797
 1349SOL    HW2 4947   4.888   3.014   3.874
 1350SOL     OW 4948   4.258   4.366   6.704
 1350SOL    HW1 4949   4.242   4.465   6.699
 1350SOL    HW2 4950   4.240   4.335   6.798
 1351SOL     OW 4951   0.694   2.913   5.794
 1351SOL    HW1 4952   0.773   2.853   5.785
 1351SOL    HW2 4953   0.708   2.994   5.736
 1352SOL     OW 4954   6.996   0.627   2.286
 1352SOL    HW1 4955   7.002   0.726   2.301
 1352SOL    HW2 4956   0.054   0.598   2.228
 1353SOL     OW 4957   0.614   0.827   0.482
 1353SOL    HW1 4958   0.685   0.801   0.417
 1353SOL    HW2 4959   0.524   0.814   0.440
 1354SOL     OW 4960   4.875   5.409   2.750
 1354SOL    HW1 4961   4.814   5.423   2.828
 1354SOL    HW2 4962   4.834   5.343   2.687
 1355SOL     OW 4963   5.192   2.902   5.770
 1355SOL    HW1 4964   5.150   2.837   5.707
 1355SOL    HW2 4965   5.160   2.883   5.863
 1356SOL     OW 4966   2.443   3.273   0.324
 1356SOL    HW1 4967   2.483   3.327   0.398
 1356SOL    HW2 4968   2.484   3.182   0.323
 1357SOL     OW 4969   1.864   3.116   5.456
 1357SOL    HW1 4970   1.908   3.191   5.408
 1357SOL    HW2 4971   1.812   3.060   5.391
 1358SOL     OW 4972   2.255   6.988   0.415
 1358SOL    HW1 4973   2.240   6.931   0.334
 1358SOL    HW2 4974   2.292   0.058   0.386
 1359SOL     OW 4975   6.613   4.431   1.183
 1359SOL    HW1 4976   6.673   4.355   1.207
 1359SOL    HW2 4977   6.566   4.464   1.265
 1360SOL     OW 4978   2.085   2.379   0.200
 1360SOL    HW1 4979   2.023   2.435   0.255
 1360SOL    HW2 4980   2.033   2.313   0.146
 1361SOL     OW 4981   6.930   4.407   5.155
 1361SOL    HW1 4982   6.901   4.333   5.095
 1361SOL    HW2 4983   6.895   4.494   5.120
 1362SOL     OW 4984   3.347   3.297   3.078
 1362SOL    HW1 4985   3.289   3.378   3.077
 1362SOL    HW2 4986   3.300   3.223   3.125
 1363SOL     OW 4987   1.094   6.102   4.446
 1363SOL    HW1 4988   1.091   6.077   4.349
 1363SOL    HW2 4989   1.109   6.020   4.501
 1364SOL     OW 4990   4.471   4.290   0.588
 1364SOL    HW1 4991   4.533   4.364   0.613
 1364SOL    HW2 4992   4.489   4.210   0.644
 1365SOL     OW 4993   6.475   3.407   6.639
 1365SOL    HW1 4994   6.568   3.375   6.656
 1365SOL    HW2 4995   6.416   3.328   6.620
 1366SOL     OW 4996   2.827   6.813   5.380
 1366SOL    HW1 4997   2.815   6.911   5.367
 1366SOL    HW2 4998   2.916   6.795   5.421
 1367SOL     OW 4999   2.697   1.351   1.903
 1367SOL    HW1 5000   2.684   1.340   2.001
 1367SOL    HW2 5001   2.772   1.415   1.887
 1368SOL     OW 5002   5.629   6.106   3.301
 1368SOL    HW1 5003   5.587   6.146   3.382
 1368SOL    HW2 5004   5.620   6.006   3.305
 1369SOL     OW 5005   1.113   0.995   2.847
 1369SOL    HW1 5006   1.119   1.073   2.909
 1369SOL    HW2 5007   1.186   1.000   2.779
 1370SOL     OW 5008   2.319   0.427   1.635
 1370SOL    HW1 5009   2.287   0.344   1.588
 1370SOL    HW2 5010   2.409   0.452   1.600
 1371SOL     OW 5011   3.739   0.281   6.837
 1371SOL    HW1 5012   3.696   0.212   6.895
 1371SOL    HW2 5013   3.670   0.323   6.778
 1372SOL     OW 5014   3.091   2.019   2.045
 1372SOL    HW1 5015   3.097   2.040   1.947
 1372SOL    HW2 5016   3.040   2.092   2.091
 1373SOL     OW 5017   1.392   5.926   0.270
 1373SOL    HW1 5018   1.369   6.018   0.302
 1373SOL    HW2 5019   1.470   5.930   0.208
 1374SOL     OW 5020   5.227   4.057   0.135
 1374SOL    HW1 5021   5.304   4.108   0.174
 1374SOL    HW2 5022   5.262   3.982   0.079
 1375SOL     OW 5023   0.884   4.560   5.248
 1375SOL    HW1 5024   0.835   4.475   5.267
 1375SOL    HW2 5025   0.825   4.622   5.198
 1376SOL     OW 5026   4.302   1.476   2.540
 1376SOL    HW1 5027   4.365   1.510   2.471
 1376SOL    HW2 5028   4.348   1.407   2.596
 1377SOL     OW 5029   0.985   4.790   4.428
 1377SOL    HW1 5030   0.964   4.874   4.478
 1377SOL    HW2 5031   0.937   4.791   4.340
 1378SOL     OW 5032   1.649   2.947   6.773
 1378SOL    HW1 5033   1.636   2.948   6.674
 1378SOL    HW2 5034   1.677   3.038   6.805
 1379SOL     OW 5035   4.054   5.864   1.308
 1379SOL    HW1 5036   3.982   5.918   1.266
 1379SOL    HW2 5037   4.093   5.914   1.386
 1380SOL     OW 5038   6.048   6.138   2.740
 1380SOL    HW1 5039   6.016   6.212   2.799
 1380SOL    HW2 5040   6.046   6.052   2.790
 1381SOL     OW 5041   5.871   6.988   1.352
 1381SOL    HW1 5042   5.864   6.916   1.283
 1381SOL    HW2 5043   5.859   6.950   1.443
 1382SOL     OW 5044   0.172   5.047   6.536
 1382SOL    HW1 5045   0.126   5.123   6.491
 1382SOL    HW2 5046   0.183   5.067   6.633
 1383SOL     OW 5047   2.618   0.540   0.148
 1383SOL    HW1 5048   2.666   0.628   0.144
 1383SOL    HW2 5049   2.603   0.507   0.055
 1384SOL     OW 5050   2.380   2.210   2.162
 1384SOL    HW1 5051   2.338   2.273   2.096
 1384SOL    HW2 5052   2.478   2.227   2.166
 1385SOL     OW 5053   5.512   2.858   4.048
 1385SOL    HW1 5054   5.465   2.771   4.036
 1385SOL    HW2 5055   5.468   2.928   3.992
 1386SOL     OW 5056   2.085   2.685   3.724
 1386SOL    HW1 5057   2.091   2.716   3.819
 1386SOL    HW2 5058   2.165   2.718   3.674
 1387SOL     OW 5059   2.553   0.736   4.690
 1387SOL    HW1 5060   2.590   0.796   4.619
 1387SOL    HW2 5061   2.561   0.641   4.661
 1388SOL     OW 5062   6.092   1.251   4.339
 1388SOL    HW1 5063   6.191   1.252   4.326
 1388SOL    HW2 5064   6.069   1.279   4.432
 1389SOL     OW 5065   6.521   0.647   4.098
 1389SOL    HW1 5066   6.483   0.571   4.046
 1389SOL    HW2 5067   6.452   0.684   4.160
 1390SOL     OW 5068   4.476   2.344   2.110
 1390SOL    HW1 5069   4.522   2.414   2.165
 1390SOL    HW2 5070   4.507   2.253   2.139
 1391SOL     OW 5071   6.051   1.543   4.831
 1391SOL    HW1 5072   6.148   1.566   4.835
 1391SOL    HW2 5073   5.999   1.625   4.807
 1392SOL     OW 5074   4.407   6.351   5.299
 1392SOL    HW1 5075   4.471   6.274   5.297
 1392SOL    HW2 5076   4.398   6.384   5.393
 1393SOL     OW 5077   4.673   0.330   6.840
 1393SOL    HW1 5078   4.595   0.285   6.884
 1393SOL    HW2 5079   4.753   0.270   6.844
 1394SOL     OW 5080   4.046   0.437   3.695
 1394SOL    HW1 5081   4.057   0.471   3.788
 1394SOL    HW2 5082   4.084   0.344   3.689
 1395SOL     OW 5083   0.739   5.093   2.425
 1395SOL    HW1 5084   0.743   4.997   2.452
 1395SOL    HW2 5085   0.764   5.101   2.329
 1396SOL     OW 5086   1.568   1.707   3.734
 1396SOL    HW1 5087   1.649   1.668   3.777
 1396SOL    HW2 5088   1.489   1.647   3.751
 1397SOL     OW 5089   0.876   5.295   5.419
 1397SOL    HW1 5090   0.785   5.253   5.417
 1397SOL    HW2 5091   0.939   5.243   5.362
 1398SOL     OW 5092   2.093   6.721   6.542
 1398SOL    HW1 5093   2.104   6.699   6.445
 1398SOL    HW2 5094   2.141   6.807   6.562
 1399SOL     OW 5095   3.892   0.134   6.393
 1399SOL    HW1 5096   3.832   0.159   6.318
 1399SOL    HW2 5097   3.901   0.211   6.456
 1400SOL     OW 5098   6.969   1.294   5.060
 1400SOL    HW1 5099   6.900   1.353   5.102
 1400SOL    HW2 5100   6.960   1.296   4.961
 1401SOL     OW 5101   5.500   0.181   2.139
 1401SOL    HW1 5102   5.415   0.174   2.190
 1401SOL    HW2 5103   5.515   0.277   2.113
 1402SOL     OW 5104   6.719   4.719   2.007
 1402SOL    HW1 5105   6.815   4.692   1.998
 1402SOL    HW2 5106   6.695   4.725   2.104
 1403SOL     OW 5107   3.192   3.504   6.049
 1403SOL    HW1 5108   3.110   3.550   6.082
 1403SOL    HW2 5109   3.194   3.411   6.083
 1404SOL     OW 5110   4.111   6.774   0.485
 1404SOL    HW1 5111   4.094   6.711   0.409
 1404SOL    HW2 5112   4.209   6.780   0.502
 1405SOL     OW 5113   0.827   3.417   0.428
 1405SOL    HW1 5114   0.761   3.357   0.383
 1405SOL    HW2 5115   0.794   3.440   0.520
 1406SOL     OW 5116   2.226   2.926   0.256
 1406SOL    HW1 5117   2.140   2.959   0.296
 1406SOL    HW2 5118   2.208   2.849   0.196
 1407SOL     OW 5119   0.579   2.708   1.055
 1407SOL    HW1 5120   0.550   2.632   1.113
 1407SOL    HW2 5121   0.529   2.791   1.081
 1408SOL     OW 5122   5.341   6.611   0.533
 1408SOL    HW1 5123   5.389   6.574   0.454
 1408SOL    HW2 5124   5.362   6.555   0.614
 1409SOL     OW 5125   6.370   1.908   5.732
 1409SOL    HW1 5126   6.398   2.003   5.745
 1409SOL    HW2 5127   6.270   1.901   5.738
 1410SOL     OW 5128   3.114   0.203   6.955
 1410SOL    HW1 5129   3.131   0.119   6.903
 1410SOL    HW2 5130   3.193   0.224   7.011
 1411SOL     OW 5131   3.864   4.992   6.468
 1411SOL    HW1 5132   3.827   4.921   6.528
 1411SOL    HW2 5133   3.940   4.953   6.415
 1412SOL     OW 5134   2.786   2.075   0.014
 1412SOL    HW1 5135   2.706   2.021   0.036
 1412SOL    HW2 5136   2.833   2.103   0.098
 1413SOL     OW 5137   2.048   1.563   5.369
 1413SOL    HW1 5138   2.025   1.660   5.359
 1413SOL    HW2 5139   2.094   1.549   5.457
 1414SOL     OW 5140   0.997   4.890   1.967
 1414SOL    HW1 5141   0.998   4.990   1.969
 1414SOL    HW2 5142   1.071   4.857   1.908
 1415SOL     OW 5143   3.487   1.764   5.005
 1415SOL    HW1 5144   3.534   1.780   5.093
 1415SOL    HW2 5145   3.547   1.793   4.930
 1416SOL     OW 5146   4.038   0.149   5.010
 1416SOL    HW1 5147   3.963   0.192   5.060
 1416SOL    HW2 5148   4.081   0.216   4.949
 1417SOL     OW 5149   3.199   3.379   4.140
 1417SOL    HW1 5150   3.201   3.446   4.215
 1417SOL    HW2 5151   3.127   3.313   4.156
 1418SOL     OW 5152   3.263   3.804   6.043
 1418SOL    HW1 5153   3.238   3.823   5.948
 1418SOL    HW2 5154   3.285   3.707   6.053
 1419SOL     OW 5155   1.008   5.990   2.235
 1419SOL    HW1 5156   0.917   6.009   2.272
 1419SOL    HW2 5157   1.000   5.930   2.156
 1420SOL     OW 5158   3.058   5.969   3.325
 1420SOL    HW1 5159   3.034   5.885   3.274
 1420SOL    HW2 5160   3.131   6.017   3.276
 1421SOL     OW 5161   1.855   5.404   6.915
 1421SOL    HW1 5162   1.944   5.450   6.920
 1421SOL    HW2 5163   1.840   5.371   6.822
 1422SOL     OW 5164   1.471   3.200   6.911
 1422SOL    HW1 5165   1.427   3.121   6.868
 1422SOL    HW2 5166   1.426   3.220   6.998
 1423SOL     OW 5167   3.840   0.627   4.981
 1423SOL    HW1 5168   3.855   0.720   4.948
 1423SOL    HW2 5169   3.923   0.595   5.028
 1424SOL     OW 5170   6.591   2.581   1.113
 1424SOL    HW1 5171   6.632   2.664   1.075
 1424SOL    HW2 5172   6.576   2.514   1.040
 1425SOL     OW 5173   5.429   0.357   3.553
 1425SOL    HW1 5174   5.363   0.285   3.574
 1425SOL    HW2 5175   5.515   0.316   3.523
 1426SOL     OW 5176   4.314   0.633   0.193
 1426SOL    HW1 5177   4.337   0.612   0.098
 1426SOL    HW2 5178   4.305   0.547   0.244
 1427SOL     OW 5179   1.072   0.807   4.411
 1427SOL    HW1 5180   1.077   0.855   4.323
 1427SOL    HW2 5181   1.117   0.718   4.403
 1428SOL     OW 5182   2.134   3.841   3.816
 1428SOL    HW1 5183   2.076   3.899   3.874
 1428SOL    HW2 5184   2.144   3.751   3.859
 1429SOL     OW 5185   5.756   0.046   1.714
 1429SOL    HW1 5186   5.683   0.102   1.755
 1429SOL    HW2 5187   5.820   0.018   1.785
 1430SOL     OW 5188   2.057   4.099   4.466
 1430SOL    HW1 5189   1.979   4.127   4.409
 1430SOL    HW2 5190   2.127   4.170   4.463
 1431SOL     OW 5191   3.459   1.196   0.695
 1431SOL    HW1 5192   3.446   1.175   0.598
 1431SOL    HW2 5193   3.370   1.191   0.742
 1432SOL     OW 5194   4.512   6.628   2.763
 1432SOL    HW1 5195   4.511   6.540   2.716
 1432SOL    HW2 5196   4.504   6.614   2.861
 1433SOL     OW 5197   3.291   1.554   3.675
 1433SOL    HW1 5198   3.231   1.515   3.744
 1433SOL    HW2 5199   3.387   1.536   3.700
 1434SOL     OW 5200   5.301   4.316   0.697
 1434SOL    HW1 5201   5.315   4.267   0.610
 1434SOL    HW2 5202   5.369   4.389   0.704
 1435SOL     OW 5203   0.608   6.846   4.310
 1435SOL    HW1 5204   0.615   6.762   4.256
 1435SOL    HW2 5205   0.623   6.825   4.407
 1436SOL     OW 5206   5.673   0.741   0.480
 1436SOL    HW1 5207   5.748   0.684   0.513
 1436SOL    HW2 5208   5.595   0.683   0.455
 1437SOL     OW 5209   4.585   1.430   0.240
 1437SOL    HW1 5210   4.517   1.502   0.230
 1437SOL    HW2 5211   4.675   1.464   0.211
 1438SOL     OW 5212   2.394   6.860   2.475
 1438SOL    HW1 5213   2.387   6.782   2.537
 1438SOL    HW2 5214   2.344   6.938   2.515
 1439SOL     OW 5215   0.823   5.159   6.293
 1439SOL    HW1 5216   0.742   5.180   6.238
 1439SOL    HW2 5217   0.886   5.237   6.291
 1440SOL     OW 5218   4.083   3.323   2.399
 1440SOL    HW1 5219   4.039   3.361   2.317
 1440SOL    HW2 5220   4.015   3.273   2.453
 1441SOL     OW 5221   6.336   2.193   5.900
 1441SOL    HW1 5222   6.332   2.266   5.969
 1441SOL    HW2 5223   6.273   2.120   5.925
 1442SOL     OW 5224   5.437   6.204   0.223
 1442SOL    HW1 5225   5.456   6.131   0.288
 1442SOL    HW2 5226   5.447   6.169   0.130
 1443SOL     OW 5227   1.230   2.441   3.564
 1443SOL    HW1 5228   1.166   2.495   3.508
 1443SOL    HW2 5229   1.286   2.384   3.504
 1444SOL     OW 5230   5.186   6.231   4.892
 1444SOL    HW1 5231   5.223   6.141   4.871
 1444SOL    HW2 5232   5.251   6.281   4.950
 1445SOL     OW 5233   6.400   1.911   0.082
 1445SOL    HW1 5234   6.450   1.919   0.168
 1445SOL    HW2 5235   6.458   1.944   0.007
 1446SOL     OW 5236   3.976   5.670   1.509
 1446SOL    HW1 5237   4.001   5.690   1.603
 1446SOL    HW2 5238   4.016   5.739   1.448
 1447SOL     OW 5239   6.379   1.074   4.920
 1447SOL    HW1 5240   6.473   1.045   4.937
 1447SOL    HW2 5241   6.379   1.169   4.889
 1448SOL     OW 5242   5.650   0.465   6.882
 1448SOL    HW1 5243   5.638   0.555   6.925
 1448SOL    HW2 5244   5.743   0.457   6.847
 1449SOL     OW 5245   4.493   5.440   1.163
 1449SOL    HW1 5246   4.468   5.531   1.131
 1449SOL    HW2 5247   4.412   5.381   1.163
 1450SOL     OW 5248   6.302   1.850   3.471
 1450SOL    HW1 5249   6.275   1.788   3.544
 1450SOL    HW2 5250   6.223   1.871   3.414
 1451SOL     OW 5251   1.520   6.470   1.576
 1451SOL    HW1 5252   1.611   6.483   1.616
 1451SOL    HW2 5253   1.456   6.441   1.647
 1452SOL     OW 5254   3.559   0.446   5.451
 1452SOL    HW1 5255   3.588   0.355   5.420
 1452SOL    HW2 5256   3.479   0.437   5.509
 1453SOL     OW 5257   4.912   4.725   4.170
 1453SOL    HW1 5258   4.884   4.768   4.256
 1453SOL    HW2 5259   4.963   4.641   4.190
 1454SOL     OW 5260   4.765   4.310   0.804
 1454SOL    HW1 5261   4.744   4.399   0.763
 1454SOL    HW2 5262   4.783   4.243   0.733
 1455SOL     OW 5263   1.986   2.455   1.878
 1455SOL    HW1 5264   2.000   2.363   1.841
 1455SOL    HW2 5265   2.074   2.492   1.908
 1456SOL     OW 5266   6.037   4.963   4.993
 1456SOL    HW1 5267   6.038   4.889   4.926
 1456SOL    HW2 5268   5.966   4.946   5.061
 1457SOL     OW 5269   2.146   0.436   3.954
 1457SOL    HW1 5270   2.069   0.475   3.902
 1457SOL    HW2 5271   2.232   0.458   3.908
 1458SOL     OW 5272   0.003   5.675   0.329
 1458SOL    HW1 5273   7.002   5.595   0.272
 1458SOL    HW2 5274   6.997   5.654   0.424
 1459SOL     OW 5275   2.736   7.011   1.203
 1459SOL    HW1 5276   2.686   0.079   1.204
 1459SOL    HW2 5277   2.807   7.012   1.273
 1460SOL     OW 5278   0.917   6.910   6.940
 1460SOL    HW1 5279   0.916   6.886   6.842
 1460SOL    HW2 5280   0.973   6.843   6.989
 1461SOL     OW 5281   4.480   5.699   2.543
 1461SOL    HW1 5282   4.578   5.680   2.549
 1461SOL    HW2 5283   4.464   5.798   2.549
 1462SOL     OW 5284   5.528   0.032   5.370
 1462SOL    HW1 5285   5.601   6.992   5.407
 1462SOL    HW2 5286   5.550   0.128   5.387
 1463SOL     OW 5287   0.961   2.044   6.089
 1463SOL    HW1 5288   0.880   1.987   6.084
 1463SOL    HW2 5289   0.934   2.140   6.098
 1464SOL     OW 5290   0.730   0.971   1.458
 1464SOL    HW1 5291   0.785   0.927   1.387
 1464SOL    HW2 5292   0.764   0.946   1.548
 1465SOL     OW 5293   0.559   1.057   4.329
 1465SOL    HW1 5294   0.613   1.088   4.251
 1465SOL    HW2 5295   0.514   1.135   4.371
 1466SOL     OW 5296   5.880   5.212   4.899
 1466SOL    HW1 5297   5.827   5.154   4.837
 1466SOL    HW2 5298   5.949   5.157   4.945
 1467SOL     OW 5299   6.122   3.670   3.588
 1467SOL    HW1 5300   6.155   3.739   3.653
 1467SOL    HW2 5301   6.193   3.600   3.575
 1468SOL     OW 5302   4.993   0.071   2.229
 1468SOL    HW1 5303   4.930   0.038   2.300
 1468SOL    HW2 5304   4.996   0.171   2.233
 1469SOL     OW 5305   0.682   0.759   2.119
 1469SOL    HW1 5306   0.749   0.826   2.152
 1469SOL    HW2 5307   0.603   0.807   2.082
 1470SOL     OW 5308   6.836   0.583   3.289
 1470SOL    HW1 5309   6.838   0.500   3.235
 1470SOL    HW2 5310   6.927   0.603   3.325
 1471SOL     OW 5311   5.870   0.423   1.486
 1471SOL    HW1 5312   5.941   0.481   1.448
 1471SOL    HW2 5313   5.847   0.350   1.421
 1472SOL     OW 5314   4.679   5.532   4.618
 1472SOL    HW1 5315   4.597   5.491   4.579
 1472SOL    HW2 5316   4.748   5.461   4.632
 1473SOL     OW 5317   6.341   3.649   3.190
 1473SOL    HW1 5318   6.288   3.576   3.234
 1473SOL    HW2 5319   6.281   3.726   3.170
 1474SOL     OW 5320   5.114   5.350   3.085
 1474SOL    HW1 5321   5.163   5.389   3.163
 1474SOL    HW2 5322   5.047   5.416   3.052
 1475SOL     OW 5323   6.198   0.495   3.542
 1475SOL    HW1 5324   6.278   0.553   3.555
 1475SOL    HW2 5325   6.150   0.521   3.458
 1476SOL     OW 5326   0.198   2.670   1.102
 1476SOL    HW1 5327   0.218   2.685   1.005
 1476SOL    HW2 5328   0.191   2.758   1.149
 1477SOL     OW 5329   2.292   6.254   3.829
 1477SOL    HW1 5330   2.365   6.192   3.859
 1477SOL    HW2 5331   2.217   6.251   3.895
 1478SOL     OW 5332   0.280   3.808   1.548
 1478SOL    HW1 5333   0.196   3.862   1.562
 1478SOL    HW2 5334   0.304   3.762   1.633
 1479SOL     OW 5335   1.116   5.632   0.666
 1479SOL    HW1 5336   1.042   5.691   0.634
 1479SOL    HW2 5337   1.117   5.548   0.612
 1480SOL     OW 5338   2.620   0.814   0.094
 1480SOL    HW1 5339   2.573   0.804   0.006
 1480SOL    HW2 5340   2.714   0.846   0.078
 1481SOL     OW 5341   0.568   3.698   6.516
 1481SOL    HW1 5342   0.561   3.678   6.418
 1481SOL    HW2 5343   0.664   3.717   6.539
 1482SOL     OW 5344   5.368   0.671   6.203
 1482SOL    HW1 5345   5.460   0.631   6.204
 1482SOL    HW2 5346   5.300   0.598   6.196
 1483SOL     OW 5347   6.586   2.020   6.443
 1483SOL    HW1 5348   6.607   1.927   6.412
 1483SOL    HW2 5349   6.545   2.072   6.369
 1484SOL     OW 5350   6.377   6.937   3.150
 1484SOL    HW1 5351   6.345   6.846   3.178
 1484SOL    HW2 5352   6.319   6.971   3.075
 1485SOL     OW 5353   5.839   2.824   4.086
 1485SOL    HW1 5354   5.854   2.922   4.072
 1485SOL    HW2 5355   5.756   2.796   4.038
 1486SOL     OW 5356   5.717   2.297   1.976
 1486SOL    HW1 5357   5.737   2.326   2.069
 1486SOL    HW2 5358   5.653   2.220   1.978
 1487SOL     OW 5359   6.818   0.984   5.905
 1487SOL    HW1 5360   6.916   0.965   5.913
 1487SOL    HW2 5361   6.804   1.063   5.846
 1488SOL     OW 5362   5.344   1.860   4.311
 1488SOL    HW1 5363   5.343   1.952   4.349
 1488SOL    HW2 5364   5.295   1.798   4.372
 1489SOL     OW 5365   3.794   5.754   4.183
 1489SOL    HW1 5366   3.713   5.762   4.124
 1489SOL    HW2 5367   3.874   5.788   4.133
 1490SOL     OW 5368   2.469   2.671   1.470
 1490SOL    HW1 5369   2.541   2.685   1.538
 1490SOL    HW2 5370   2.384   2.710   1.502
 1491SOL     OW 5371   0.491   2.608   5.417
 1491SOL    HW1 5372   0.496   2.705   5.439
 1491SOL    HW2 5373   0.425   2.593   5.343
 1492SOL     OW 5374   5.755   2.804   1.330
 1492SOL    HW1 5375   5.711   2.716   1.310
 1492SOL    HW2 5376   5.853   2.790   1.342
 1493SOL     OW 5377   5.980   1.882   5.254
 1493SOL    HW1 5378   5.975   1.814   5.327
 1493SOL    HW2 5379   5.896   1.881   5.201
 1494SOL     OW 5380   6.116   1.415   4.568
 1494SOL    HW1 5381   6.088   1.440   4.661
 1494SOL    HW2 5382   6.100   1.493   4.508
 1495SOL     OW 5383   1.126   3.762   2.879
 1495SOL    HW1 5384   1.141   3.665   2.859
 1495SOL    HW2 5385   1.212   3.812   2.872
 1496SOL     OW 5386   1.116   0.897   2.504
 1496SOL    HW1 5387   1.147   0.991   2.489
 1496SOL    HW2 5388   1.017   0.897   2.517
 1497SOL     OW 5389   5.133   5.344   5.580
 1497SOL    HW1 5390   5.073   5.389   5.647
 1497SOL    HW2 5391   5.122   5.389   5.491
 1498SOL     OW 5392   2.233   5.279   0.502
 1498SOL    HW1 5393   2.136   5.254   0.500
 1498SOL    HW2 5394   2.257   5.328   0.418
 1499SOL     OW 5395   1.128   4.338   4.421
 1499SOL    HW1 5396   1.148   4.430   4.454
 1499SOL    HW2 5397   1.182   4.271   4.473
 1500SOL     OW 5398   4.140   6.584   5.371
 1500SOL    HW1 5399   4.082   6.627   5.302
 1500SOL    HW2 5400   4.155   6.488   5.348
 1501SOL     OW 5401   3.950   0.592   0.049
 1501SOL    HW1 5402   3.998   0.507   0.027
 1501SOL    HW2 5403   4.003   0.643   0.117
 1502SOL     OW 5404   0.040   5.980   6.736
 1502SOL    HW1 5405   0.045   5.902   6.673
 1502SOL    HW2 5406   0.026   5.946   6.829
 1503SOL     OW 5407   3.670   4.501   5.582
 1503SOL    HW1 5408   3.666   4.418   5.526
 1503SOL    HW2 5409   3.748   4.496   5.644
 1504SOL     OW 5410   2.455   6.447   4.169
 1504SOL    HW1 5411   2.539   6.499   4.151
 1504SOL    HW2 5412   2.403   6.492   4.241
 1505SOL     OW 5413   4.716   6.592   2.428
 1505SOL    HW1 5414   4.678   6.582   2.336
 1505SOL    HW2 5415   4.690   6.681   2.466
 1506SOL     OW 5416   0.969   6.755   3.222
 1506SOL    HW1 5417   0.981   6.664   3.182
 1506SOL    HW2 5418   0.909   6.749   3.302
 1507SOL     OW 5419   2.956   2.168   0.217
 1507SOL    HW1 5420   2.951   2.201   0.311
 1507SOL    HW2 5421   3.025   2.097   0.210
 1508SOL     OW 5422   4.517   6.816   0.957
 1508SOL    HW1 5423   4.516   6.850   1.051
 1508SOL    HW2 5424   4.515   6.893   0.893
 1509SOL     OW 5425   5.585   1.905   6.802
 1509SOL    HW1 5426   5.579   1.983   6.741
 1509SOL    HW2 5427   5.601   1.822   6.749
 1510SOL     OW 5428   6.626   2.042   2.746
 1510SOL    HW1 5429   6.675   2.050   2.833
 1510SOL    HW2 5430   6.661   1.963   2.695
 1511SOL     OW 5431   1.009   3.238   0.177
 1511SOL    HW1 5432   0.969   3.304   0.241
 1511SOL    HW2 5433   0.953   3.155   0.175
 1512SOL     OW 5434   6.427   1.152   1.913
 1512SOL    HW1 5435   6.335   1.187   1.933
 1512SOL    HW2 5436   6.420   1.073   1.852
 1513SOL     OW 5437   3.239   0.663   2.750
 1513SOL    HW1 5438   3.197   0.696   2.665
 1513SOL    HW2 5439   3.331   0.701   2.757
 1514SOL     OW 5440   4.743   0.518   5.800
 1514SOL    HW1 5441   4.772   0.422   5.797
 1514SOL    HW2 5442   4.740   0.549   5.895
 1515SOL     OW 5443   5.587   5.504   5.108
 1515SOL    HW1 5444   5.499   5.477   5.147
 1515SOL    HW2 5445   5.571   5.552   5.022
 1516SOL     OW 5446   0.728   1.121   0.750
 1516SOL    HW1 5447   0.706   1.081   0.839
 1516SOL    HW2 5448   0.814   1.085   0.717
 1517SOL     OW 5449   3.004   5.393   3.234
 1517SOL    HW1 5450   3.104   5.393   3.238
 1517SOL    HW2 5451   2.967   5.456   3.303
 1518SOL     OW 5452   0.683   4.340   0.769
 1518SOL    HW1 5453   0.778   4.350   0.795
 1518SOL    HW2 5454   0.664   4.394   0.687
 1519SOL     OW 5455   7.015   4.068   0.863
 1519SOL    HW1 5456   0.071   4.075   0.930
 1519SOL    HW2 5457   0.035   4.049   0.772
 1520SOL     OW 5458   1.366   2.519   3.074
 1520SOL    HW1 5459   1.400   2.575   3.150
 1520SOL    HW2 5460   1.403   2.554   2.988
 1521SOL     OW 5461   2.461   4.214   5.355
 1521SOL    HW1 5462   2.428   4.144   5.293
 1521SOL    HW2 5463   2.544   4.256   5.318
 1522SOL     OW 5464   1.148   2.273   6.302
 1522SOL    HW1 5465   1.140   2.175   6.317
 1522SOL    HW2 5466   1.128   2.321   6.387
 1523SOL     OW 5467   5.456   1.083   1.062
 1523SOL    HW1 5468   5.539   1.133   1.035
 1523SOL    HW2 5469   5.378   1.144   1.060
 1524SOL     OW 5470   6.659   0.736   1.872
 1524SOL    HW1 5471   6.750   0.778   1.868
 1524SOL    HW2 5472   6.668   0.641   1.903
 1525SOL     OW 5473   4.595   0.997   5.903
 1525SOL    HW1 5474   4.580   1.041   5.992
 1525SOL    HW2 5475   4.513   0.944   5.878
 1526SOL     OW 5476   6.376   1.090   6.885
 1526SOL    HW1 5477   6.305   1.158   6.865
 1526SOL    HW2 5478   6.366   1.059   6.980
 1527SOL     OW 5479   3.037   1.524   5.735
 1527SOL    HW1 5480   3.129   1.509   5.771
 1527SOL    HW2 5481   2.972   1.469   5.787
 1528SOL     OW 5482   5.885   5.281   3.833
 1528SOL    HW1 5483   5.923   5.337   3.907
 1528SOL    HW2 5484   5.790   5.307   3.816
 1529SOL     OW 5485   2.377   0.092   5.666
 1529SOL    HW1 5486   2.369   7.017   5.630
 1529SOL    HW2 5487   2.466   0.102   5.711
 1530SOL     OW 5488   2.608   6.687   1.450
 1530SOL    HW1 5489   2.600   6.711   1.547
 1530SOL    HW2 5490   2.524   6.643   1.420
 1531SOL     OW 5491   5.609   0.539   6.230
 1531SOL    HW1 5492   5.703   0.512   6.249
 1531SOL    HW2 5493   5.594   0.544   6.132
 1532SOL     OW 5494   3.004   2.635   5.358
 1532SOL    HW1 5495   3.094   2.604   5.329
 1532SOL    HW2 5496   2.983   2.724   5.318
 1533SOL     OW 5497   5.084   3.021   6.871
 1533SOL    HW1 5498   5.125   2.935   6.840
 1533SOL    HW2 5499   5.113   3.096   6.812
 1534SOL     OW 5500   6.533   0.216   1.986
 1534SOL    HW1 5501   6.460   0.192   2.051
 1534SOL    HW2 5502   6.513   0.306   1.946
 1535SOL     OW 5503   5.123   4.327   4.591
 1535SOL    HW1 5504   5.083   4.387   4.522
 1535SOL    HW2 5505   5.162   4.246   4.546
 1536SOL     OW 5506   3.006   5.743   3.165
 1536SOL    HW1 5507   3.086   5.729   3.106
 1536SOL    HW2 5508   2.923   5.748   3.108
 1537SOL     OW 5509   2.926   5.728   4.835
 1537SOL    HW1 5510   2.882   5.766   4.754
 1537SOL    HW2 5511   2.971   5.802   4.886
 1538SOL     OW 5512   3.723   5.417   6.490
 1538SOL    HW1 5513   3.669   5.418   6.574
 1538SOL    HW2 5514   3.756   5.510   6.471
 1539SOL     OW 5515   3.354   6.263   2.027
 1539SOL    HW1 5516   3.407   6.348   2.029
 1539SOL    HW2 5517   3.282   6.270   1.958
 1540SOL     OW 5518   5.876   6.944   5.276
 1540SOL    HW1 5519   5.805   6.914   5.340
 1540SOL    HW2 5520   5.844   0.007   5.227
 1541SOL     OW 5521   5.161   1.571   1.171
 1541SOL    HW1 5522   5.127   1.576   1.076
 1541SOL    HW2 5523   5.091   1.528   1.228
 1542SOL     OW 5524   0.304   6.054   0.734
 1542SOL    HW1 5525   0.297   6.012   0.824
 1542SOL    HW2 5526   0.291   5.983   0.664
 1543SOL     OW 5527   3.422   3.869   3.239
 1543SOL    HW1 5528   3.496   3.803   3.257
 1543SOL    HW2 5529   3.462   3.959   3.223
 1544SOL     OW 5530   3.260   3.270   2.461
 1544SOL    HW1 5531   3.241   3.182   2.503
 1544SOL    HW2 5532   3.214   3.343   2.511
 1545SOL     OW 5533   0.244   0.720   4.470
 1545SOL    HW1 5534   0.269   0.807   4.513
 1545SOL    HW2 5535   0.165   0.681   4.519
 1546SOL     OW 5536   6.342   6.300   6.297
 1546SOL    HW1 5537   6.274   6.372   6.306
 1546SOL    HW2 5538   6.373   6.272   6.388
 1547SOL     OW 5539   3.327   5.877   0.149
 1547SOL    HW1 5540   3.336   5.862   0.248
 1547SOL    HW2 5541   3.287   5.796   0.106
 1548SOL     OW 5542   6.208   3.896   3.758
 1548SOL    HW1 5543   6.293   3.923   3.713
 1548SOL    HW2 5544   6.130   3.929   3.705
 1549SOL     OW 5545   0.059   2.528   0.723
 1549SOL    HW1 5546   0.121   2.579   0.781
 1549SOL    HW2 5547   0.050   2.434   0.758
 1550SOL     OW 5548   2.350   5.192   2.783
 1550SOL    HW1 5549   2.321   5.285   2.759
 1550SOL    HW2 5550   2.427   5.166   2.725
 1551SOL     OW 5551   0.383   2.870   1.415
 1551SOL    HW1 5552   0.407   2.866   1.318
 1551SOL    HW2 5553   0.411   2.786   1.461
 1552SOL     OW 5554   1.050   6.646   2.171
 1552SOL    HW1 5555   0.956   6.671   2.195
 1552SOL    HW2 5556   1.053   6.615   2.076
 1553SOL     OW 5557   5.223   0.929   6.062
 1553SOL    HW1 5558   5.160   0.962   6.132
 1553SOL    HW2 5559   5.263   0.842   6.091
 1554SOL     OW 5560   2.712   2.314   1.034
 1554SOL    HW1 5561   2.742   2.230   1.080
 1554SOL    HW2 5562   2.791   2.371   1.014
 1555SOL     OW 5563   4.198   0.890   0.523
 1555SOL    HW1 5564   4.148   0.964   0.477
 1555SOL    HW2 5565   4.258   0.929   0.593
 1556SOL     OW 5566   3.652   2.124   0.262
 1556SOL    HW1 5567   3.562   2.151   0.296
 1556SOL    HW2 5568   3.652   2.127   0.162
 1557SOL     OW 5569   1.902   3.262   0.632
 1557SOL    HW1 5570   1.936   3.248   0.539
 1557SOL    HW2 5571   1.979   3.287   0.691
 1558SOL     OW 5572   5.232   2.786   6.492
 1558SOL    HW1 5573   5.150   2.818   6.444
 1558SOL    HW2 5574   5.237   2.829   6.582
 1559SOL     OW 5575   2.448   6.220   3.199
 1559SOL    HW1 5576   2.542   6.227   3.232
 1559SOL    HW2 5577   2.447   6.168   3.113
 1560SOL     OW 5578   4.212   2.689   1.154
 1560SOL    HW1 5579   4.228   2.601   1.108
 1560SOL    HW2 5580   4.216   2.763   1.087
 1561SOL     OW 5581   5.686   6.021   0.626
 1561SOL    HW1 5582   5.670   6.094   0.693
 1561SOL    HW2 5583   5.728   5.942   0.671
 1562SOL     OW 5584   3.298   0.468   2.387
 1562SOL    HW1 5585   3.315   0.547   2.329
 1562SOL    HW2 5586   3.367   0.464   2.459
 1563SOL     OW 5587   1.979   2.654   4.080
 1563SOL    HW1 5588   1.885   2.631   4.105
 1563SOL    HW2 5589   2.041   2.582   4.111
 1564SOL     OW 5590   0.660   1.596   2.972
 1564SOL    HW1 5591   0.614   1.563   2.889
 1564SOL    HW2 5592   0.687   1.692   2.960
 1565SOL     OW 5593   4.881   1.661   5.132
 1565SOL    HW1 5594   4.869   1.760   5.141
 1565SOL    HW2 5595   4.817   1.614   5.193
 1566SOL     OW 5596   6.901   3.892   3.763
 1566SOL    HW1 5597   6.840   3.915   3.839
 1566SOL    HW2 5598   6.981   3.951   3.764
 1567SOL     OW 5599   5.680   0.277   4.963
 1567SOL    HW1 5600   5.761   0.242   5.011
 1567SOL    HW2 5601   5.611   0.206   4.957
 1568SOL     OW 5602   2.676   5.012   1.281
 1568SOL    HW1 5603   2.602   4.980   1.340
 1568SOL    HW2 5604   2.637   5.046   1.195
 1569SOL     OW 5605   2.537   1.315   2.734
 1569SOL    HW1 5606   2.527   1.413   2.753
 1569SOL    HW2 5607   2.550   1.302   2.636
 1570SOL     OW 5608   2.886   6.059   6.435
 1570SOL    HW1 5609   2.838   6.006   6.365
 1570SOL    HW2 5610   2.959   6.003   6.475
 1571SOL     OW 5611   6.706   3.156   4.621
 1571SOL    HW1 5612   6.796   3.198   4.629
 1571SOL    HW2 5613   6.714   3.057   4.634
 1572SOL     OW 5614   2.205   5.887   3.063
 1572SOL    HW1 5615   2.181   5.907   3.159
 1572SOL    HW2 5616   2.272   5.954   3.031
 1573SOL     OW 5617   5.261   5.800   0.317
 1573SOL    HW1 5618   5.249   5.744   0.399
 1573SOL    HW2 5619   5.356   5.831   0.310
 1574SOL     OW 5620   1.247   4.502   2.766
 1574SOL    HW1 5621   1.241   4.403   2.778
 1574SOL    HW2 5622   1.237   4.524   2.669
 1575SOL     OW 5623   6.898   2.274   0.329
 1575SOL    HW1 5624   6.908   2.360   0.379
 1575SOL    HW2 5625   6.980   2.257   0.275
 1576SOL     OW 5626   2.007   5.511   1.931
 1576SOL    HW1 5627   2.029   5.560   2.015
 1576SOL    HW2 5628   1.981   5.417   1.952
 1577SOL     OW 5629   3.797   6.118   3.993
 1577SOL    HW1 5630   3.746   6.123   4.080
 1577SOL    HW2 5631   3.846   6.204   3.979
 1578SOL     OW 5632   5.069   1.436   1.567
 1578SOL    HW1 5633   5.153   1.385   1.579
 1578SOL    HW2 5634   5.078   1.527   1.607
 1579SOL     OW 5635   1.413   3.091   1.671
 1579SOL    HW1 5636   1.345   3.103   1.599
 1579SOL    HW2 5637   1.488   3.035   1.637
 1580SOL     OW 5638   3.103   3.075   2.903
 1580SOL    HW1 5639   3.152   3.047   2.821
 1580SOL    HW2 5640   3.014   3.114   2.878
 1581SOL     OW 5641   6.413   4.185   4.603
 1581SOL    HW1 5642   6.375   4.140   4.683
 1581SOL    HW2 5643   6.408   4.123   4.524
 1582SOL     OW 5644   5.311   5.842   4.901
 1582SOL    HW1 5645   5.284   5.769   4.965
 1582SOL    HW2 5646   5.234   5.863   4.841
 1583SOL     OW 5647   1.381   5.653   5.701
 1583SOL    HW1 5648   1.302   5.638   5.641
 1583SOL    HW2 5649   1.443   5.719   5.657
 1584SOL     OW 5650   0.279   3.905   0.582
 1584SOL    HW1 5651   0.351   3.855   0.534
 1584SOL    HW2 5652   0.193   3.853   0.577
 1585SOL     OW 5653   4.516   6.532   4.193
 1585SOL    HW1 5654   4.488   6.621   4.229
 1585SOL    HW2 5655   4.546   6.474   4.269
 1586SOL     OW 5656   2.771   5.784   3.039
 1586SOL    HW1 5657   2.717   5.743   2.965
 1586SOL    HW2 5658   2.714   5.845   3.093
 1587SOL     OW 5659   3.205   6.785   6.950
 1587SOL    HW1 5660   3.187   6.694   6.914
 1587SOL    HW2 5661   3.197   6.784   0.031
 1588SOL     OW 5662   6.226   1.972   3.161
 1588SOL    HW1 5663   6.258   1.878   3.149
 1588SOL    HW2 5664   6.135   1.981   3.122
 1589SOL     OW 5665   6.851   3.563   4.465
 1589SOL    HW1 5666   6.804   3.530   4.547
 1589SOL    HW2 5667   6.786   3.570   4.390
 1590SOL     OW 5668   6.277   1.306   3.187
 1590SOL    HW1 5669   6.222   1.311   3.271
 1590SOL    HW2 5670   6.332   1.223   3.188
 1591SOL     OW 5671   1.213   5.823   1.060
 1591SOL    HW1 5672   1.239   5.739   1.012
 1591SOL    HW2 5673   1.279   5.843   1.131
 1592SOL     OW 5674   0.201   3.567   5.921
 1592SOL    HW1 5675   0.218   3.595   5.826
 1592SOL    HW2 5676   0.196   3.649   5.979
 1593SOL     OW 5677   3.319   6.380   0.722
 1593SOL    HW1 5678   3.370   6.455   0.763
 1593SOL    HW2 5679   3.253   6.417   0.656
 1594SOL     OW 5680   5.290   0.747   2.567
 1594SOL    HW1 5681   5.359   0.677   2.549
 1594SOL    HW2 5682   5.244   0.727   2.653
 1595SOL     OW 5683   0.452   3.275   6.647
 1595SOL    HW1 5684   0.516   3.331   6.701
 1595SOL    HW2 5685   0.433   3.190   6.696
 1596SOL     OW 5686   4.968   4.744   3.647
 1596SOL    HW1 5687   5.045   4.733   3.710
 1596SOL    HW2 5688   4.951   4.658   3.599
 1597SOL     OW 5689   3.227   6.130   0.159
 1597SOL    HW1 5690   3.249   6.038   0.126
 1597SOL    HW2 5691   3.172   6.123   0.243
 1598SOL     OW 5692   0.971   4.491   6.331
 1598SOL    HW1 5693   1.054   4.479   6.385
 1598SOL    HW2 5694   0.986   4.456   6.239
 1599SOL     OW 5695   4.662   5.707   3.688
 1599SOL    HW1 5696   4.571   5.664   3.690
 1599SOL    HW2 5697   4.731   5.640   3.715
 1600SOL     OW 5698   4.067   1.095   1.675
 1600SOL    HW1 5699   4.071   1.017   1.737
 1600SOL    HW2 5700   3.981   1.094   1.624
 1601SOL     OW 5701   6.483   1.109   4.622
 1601SOL    HW1 5702   6.437   1.056   4.550
 1601SOL    HW2 5703   6.477   1.060   4.708
 1602SOL     OW 5704   4.595   5.881   3.914
 1602SOL    HW1 5705   4.677   5.849   3.961
 1602SOL    HW2 5706   4.593   5.844   3.821
 1603SOL     OW 5707   3.007   4.794   2.602
 1603SOL    HW1 5708   2.991   4.707   2.648
 1603SOL    HW2 5709   2.976   4.869   2.660
 1604SOL     OW 5710   4.563   4.960   2.947
 1604SOL    HW1 5711   4.653   4.967   2.991
 1604SOL    HW2 5712   4.575   4.953   2.848
 1605SOL     OW 5713   4.831   4.810   0.638
 1605SOL    HW1 5714   4.827   4.804   0.538
 1605SOL    HW2 5715   4.877   4.894   0.665
 1606SOL     OW 5716   3.094   6.099   4.733
 1606SOL    HW1 5717   3.054   6.057   4.814
 1606SOL    HW2 5718   3.193   6.107   4.744
 1607SOL     OW 5719   4.722   4.220   3.770
 1607SOL    HW1 5720   4.805   4.253   3.725
 1607SOL    HW2 5721   4.642   4.259   3.724
 1608SOL     OW 5722   5.636   2.326   3.432
 1608SOL    HW1 5723   5.587   2.346   3.517
 1608SOL    HW2 5724   5.676   2.234   3.437
 1609SOL     OW 5725   1.988   0.018   1.524
 1609SOL    HW1 5726   2.004   0.057   1.434
 1609SOL    HW2 5727   2.052   6.961   1.540
 1610SOL     OW 5728   5.636   6.864   0.781
 1610SOL    HW1 5729   5.605   6.837   0.689
 1610SOL    HW2 5730   5.725   6.908   0.775
 1611SOL     OW 5731   1.357   4.010   0.012
 1611SOL    HW1 5732   1.456   4.013   0.001
 1611SOL    HW2 5733   1.314   4.004   6.940
 1612SOL     OW 5734   4.034   1.191   2.268
 1612SOL    HW1 5735   3.989   1.186   2.357
 1612SOL    HW2 5736   4.064   1.286   2.252
 1613SOL     OW 5737   6.939   5.491   2.335
 1613SOL    HW1 5738   0.014   5.523   2.348
 1613SOL    HW2 5739   6.932   5.445   2.246
 1614SOL     OW 5740   6.575   1.675   6.134
 1614SOL    HW1 5741   6.506   1.737   6.099
 1614SOL    HW2 5742   6.546   1.581   6.121
 1615SOL     OW 5743   0.000   3.742   5.650
 1615SOL    HW1 5744   0.001   3.839   5.673
 1615SOL    HW2 5745   6.983   3.730   5.558
 1616SOL     OW 5746   0.487   0.669   4.006
 1616SOL    HW1 5747   0.475   0.619   4.092
 1616SOL    HW2 5748   0.449   0.761   4.016
 1617SOL     OW 5749   6.548   5.631   3.796
 1617SOL    HW1 5750   6.452   5.646   3.772
 1617SOL    HW2 5751   6.606   5.656   3.719
 1618SOL     OW 5752   3.466   5.328   2.795
 1618SOL    HW1 5753   3.502   5.387   2.722
 1618SOL    HW2 5754   3.419   5.250   2.754
 1619SOL     OW 5755   0.776   4.557   6.504
 1619SOL    HW1 5756   0.841   4.535   6.431
 1619SOL    HW2 5757   0.742   4.650   6.492
 1620SOL     OW 5758   3.286   6.652   4.151
 1620SOL    HW1 5759   3.201   6.667   4.202
 1620SOL    HW2 5760   3.334   6.572   4.189
 1621SOL     OW 5761   4.740   5.485   0.771
 1621SOL    HW1 5762   4.658   5.459   0.721
 1621SOL    HW2 5763   4.742   5.584   0.783
 1622SOL     OW 5764   6.332   4.460   4.210
 1622SOL    HW1 5765   6.261   4.451   4.281
 1622SOL    HW2 5766   6.371   4.552   4.214
 1623SOL     OW 5767   0.319   2.576   3.125
 1623SOL    HW1 5768   0.340   2.589   3.222
 1623SOL    HW2 5769   0.286   2.483   3.110
 1624SOL     OW 5770   3.720   3.324   0.786
 1624SOL    HW1 5771   3.639   3.336   0.729
 1624SOL    HW2 5772   3.740   3.226   0.794
 1625SOL     OW 5773   0.446   6.835   0.727
 1625SOL    HW1 5774   0.511   6.892   0.677
 1625SOL    HW2 5775   0.447   6.859   0.824
 1626SOL     OW 5776   2.728   1.826   1.576
 1626SOL    HW1 5777   2.668   1.878   1.637
 1626SOL    HW2 5778   2.681   1.743   1.546
 1627SOL     OW 5779   4.041   2.338   6.162
 1627SOL    HW1 5780   4.003   2.385   6.241
 1627SOL    HW2 5781   4.106   2.268   6.192
 1628SOL     OW 5782   5.425   0.020   0.891
 1628SOL    HW1 5783   5.463   6.988   0.813
 1628SOL    HW2 5784   5.370   6.976   0.947
 1629SOL     OW 5785   0.986   0.278   3.824
 1629SOL    HW1 5786   1.005   0.194   3.773
 1629SOL    HW2 5787   1.008   0.264   3.920
 1630SOL     OW 5788   0.461   3.614   6.251
 1630SOL    HW1 5789   0.374   3.589   6.293
 1630SOL    HW2 5790   0.491   3.539   6.191
 1631SOL     OW 5791   6.170   3.505   0.645
 1631SOL    HW1 5792   6.081   3.478   0.681
 1631SOL    HW2 5793   6.207   3.579   0.701
 1632SOL     OW 5794   6.445   5.564   2.209
 1632SOL    HW1 5795   6.481   5.482   2.164
 1632SOL    HW2 5796   6.345   5.559   2.213
 1633SOL     OW 5797   5.468   3.500   4.686
 1633SOL    HW1 5798   5.379   3.521   4.647
 1633SOL    HW2 5799   5.474   3.539   4.778
 1634SOL     OW 5800   0.588   3.099   6.214
 1634SOL    HW1 5801   0.540   3.180   6.248
 1634SOL    HW2 5802   0.658   3.127   6.148
 1635SOL     OW 5803   3.050   6.880   3.814
 1635SOL    HW1 5804   2.995   6.920   3.741
 1635SOL    HW2 5805   3.091   6.953   3.869
 1636SOL     OW 5806   6.600   5.658   1.032
 1636SOL    HW1 5807   6.500   5.650   1.034
 1636SOL    HW2 5808   6.625   5.755   1.021
 1637SOL     OW 5809   1.332   1.322   2.807
 1637SOL    HW1 5810   1.290   1.312   2.716
 1637SOL    HW2 5811   1.368   1.234   2.837
 1638SOL     OW 5812   5.323   2.443   2.132
 1638SOL    HW1 5813   5.250   2.383   2.100
 1638SOL    HW2 5814   5.336   2.430   2.231
 1639SOL     OW 5815   5.109   2.303   2.025
 1639SOL    HW1 5816   5.014   2.332   2.037
 1639SOL    HW2 5817   5.114   2.242   1.945
 1640SOL     OW 5818   5.844   0.999   6.659
 1640SOL    HW1 5819   5.751   1.023   6.684
 1640SOL    HW2 5820   5.857   0.900   6.671
 1641SOL     OW 5821   6.178   1.785   2.918
 1641SOL    HW1 5822   6.189   1.768   3.016
 1641SOL    HW2 5823   6.265   1.816   2.880
 1642SOL     OW 5824   0.047   3.414   6.088
 1642SOL    HW1 5825   6.978   3.372   6.064
 1642SOL    HW2 5826   0.091   3.450   6.006
 1643SOL     OW 5827   2.041   5.293   4.034
 1643SOL    HW1 5828   1.946   5.263   4.043
 1643SOL    HW2 5829   2.059   5.368   4.097
 1644SOL     OW 5830   6.544   2.245   1.600
 1644SOL    HW1 5831   6.478   2.312   1.632
 1644SOL    HW2 5832   6.602   2.216   1.676
 1645SOL     OW 5833   2.118   0.677   5.236
 1645SOL    HW1 5834   2.103   0.666   5.138
 1645SOL    HW2 5835   2.159   0.594   5.273
 1646SOL     OW 5836   1.307   5.199   1.392
 1646SOL    HW1 5837   1.292   5.140   1.312
 1646SOL    HW2 5838   1.401   5.230   1.394
 1647SOL     OW 5839   5.901   2.854   4.592
 1647SOL    HW1 5840   5.810   2.859   4.632
 1647SOL    HW2 5841   5.969   2.887   4.658
 1648SOL     OW 5842   5.896   5.936   1.932
 1648SOL    HW1 5843   5.808   5.911   1.892
 1648SOL    HW2 5844   5.942   5.853   1.965
 1649SOL     OW 5845   3.788   1.625   3.434
 1649SOL    HW1 5846   3.718   1.681   3.480
 1649SOL    HW2 5847   3.757   1.602   3.342
 1650SOL     OW 5848   3.353   3.620   5.702
 1650SOL    HW1 5849   3.328   3.678   5.624
 1650SOL    HW2 5850   3.307   3.531   5.694
 1651SOL     OW 5851   0.988   2.071   3.564
 1651SOL    HW1 5852   0.931   2.143   3.524
 1651SOL    HW2 5853   1.060   2.046   3.499
 1652SOL     OW 5854   0.686   3.686   1.727
 1652SOL    HW1 5855   0.692   3.666   1.629
 1652SOL    HW2 5856   0.680   3.785   1.740
 1653SOL     OW 5857   0.261   4.614   2.017
 1653SOL    HW1 5858   0.191   4.600   2.088
 1653SOL    HW2 5859   0.279   4.527   1.972
 1654SOL     OW 5860   0.544   3.448   1.811
 1654SOL    HW1 5861   0.603   3.514   1.765
 1654SOL    HW2 5862   0.598   3.368   1.840
 1655SOL     OW 5863   0.533   0.852   5.771
 1655SOL    HW1 5864   0.493   0.762   5.782
 1655SOL    HW2 5865   0.541   0.897   5.860
 1656SOL     OW 5866   2.143   3.949   3.158
 1656SOL    HW1 5867   2.149   3.958   3.059
 1656SOL    HW2 5868   2.205   4.014   3.202
 1657SOL     OW 5869   0.411   0.050   5.779
 1657SOL    HW1 5870   0.455   7.000   5.719
 1657SOL    HW2 5871   0.317   0.022   5.798
 1658SOL     OW 5872   4.957   6.518   6.127
 1658SOL    HW1 5873   4.946   6.420   6.109
 1658SOL    HW2 5874   4.996   6.562   6.045
 1659SOL     OW 5875   4.234   6.642   5.894
 1659SOL    HW1 5876   4.163   6.629   5.825
 1659SOL    HW2 5877   4.193   6.636   5.985
 1660SOL     OW 5878   2.222   0.760   1.857
 1660SOL    HW1 5879   2.296   0.747   1.791
 1660SOL    HW2 5880   2.180   0.672   1.879
 1661SOL     OW 5881   4.819   3.999   3.041
 1661SOL    HW1 5882   4.825   3.901   3.058
 1661SOL    HW2 5883   4.805   4.015   2.943
 1662SOL     OW 5884   0.081   2.045   3.638
 1662SOL    HW1 5885   0.004   1.987   3.610
 1662SOL    HW2 5886   0.100   2.031   3.735
 1663SOL     OW 5887   5.014   4.482   1.024
 1663SOL    HW1 5888   4.970   4.562   0.984
 1663SOL    HW2 5889   5.113   4.493   1.022
 1664SOL     OW 5890   1.916   0.317   6.111
 1664SOL    HW1 5891   1.840   0.293   6.171
 1664SOL    HW2 5892   1.978   0.378   6.160
 1665SOL     OW 5893   2.811   4.569   6.881
 1665SOL    HW1 5894   2.893   4.544   6.830
 1665SOL    HW2 5895   2.828   4.557   6.979
 1666SOL     OW 5896   4.738   6.593   6.343
 1666SOL    HW1 5897   4.724   6.679   6.391
 1666SOL    HW2 5898   4.812   6.604   6.276
 1667SOL     OW 5899   6.899   5.531   0.520
 1667SOL    HW1 5900   6.892   5.433   0.543
 1667SOL    HW2 5901   6.813   5.576   0.544
 1668SOL     OW 5902   5.700   3.538   2.179
 1668SOL    HW1 5903   5.654   3.457   2.217
 1668SOL    HW2 5904   5.797   3.517   2.165
 1669SOL     OW 5905   6.579   3.192   5.468
 1669SOL    HW1 5906   6.533   3.118   5.517
 1669SOL    HW2 5907   6.647   3.234   5.527
 1670SOL     OW 5908   2.769   4.628   5.709
 1670SOL    HW1 5909   2.731   4.554   5.653
 1670SOL    HW2 5910   2.699   4.662   5.771
 1671SOL     OW 5911   6.182   2.604   0.711
 1671SOL    HW1 5912   6.156   2.663   0.788
 1671SOL    HW2 5913   6.242   2.655   0.649
 1672SOL     OW 5914   0.405   2.518   1.209
 1672SOL    HW1 5915   0.318   2.556   1.180
 1672SOL    HW2 5916   0.397   2.484   1.303
 1673SOL     OW 5917   1.170   0.548   4.403
 1673SOL    HW1 5918   1.222   0.516   4.324
 1673SOL    HW2 5919   1.227   0.540   4.485
 1674SOL     OW 5920   4.869   2.203   2.710
 1674SOL    HW1 5921   4.773   2.176   2.706
 1674SOL    HW2 5922   4.927   2.122   2.703
 1675SOL     OW 5923   5.045   0.362   1.859
 1675SOL    HW1 5924   5.063   0.381   1.955
 1675SOL    HW2 5925   4.956   0.400   1.834
 1676SOL     OW 5926   1.093   2.054   3.824
 1676SOL    HW1 5927   1.069   2.067   3.728
 1676SOL    HW2 5928   1.167   1.987   3.832
 1677SOL     OW 5929   3.580   3.136   3.022
 1677SOL    HW1 5930   3.508   3.205   3.036
 1677SOL    HW2 5931   3.565   3.060   3.085
 1678SOL     OW 5932   1.600   0.321   0.455
 1678SOL    HW1 5933   1.616   0.290   0.549
 1678SOL    HW2 5934   1.656   0.268   0.392
 1679SOL     OW 5935   6.577   1.268   6.813
 1679SOL    HW1 5936   6.505   1.201   6.828
 1679SOL    HW2 5937   6.583   1.290   6.715
 1680SOL     OW 5938   5.524   2.590   3.120
 1680SOL    HW1 5939   5.496   2.657   3.189
 1680SOL    HW2 5940   5.512   2.629   3.029
 1681SOL     OW 5941   3.831   6.253   4.664
 1681SOL    HW1 5942   3.928   6.229   4.670
 1681SOL    HW2 5943   3.802   6.293   4.750
 1682SOL     OW 5944   3.522   0.259   4.481
 1682SOL    HW1 5945   3.481   0.346   4.507
 1682SOL    HW2 5946   3.449   0.193   4.461
 1683SOL     OW 5947   6.542   3.056   3.061
 1683SOL    HW1 5948   6.597   3.039   3.143
 1683SOL    HW2 5949   6.580   3.135   3.012
 1684SOL     OW 5950   2.733   4.807   1.813
 1684SOL    HW1 5951   2.745   4.722   1.864
 1684SOL    HW2 5952   2.657   4.859   1.851
 1685SOL     OW 5953   6.828   1.591   5.566
 1685SOL    HW1 5954   6.854   1.687   5.564
 1685SOL    HW2 5955   6.731   1.583   5.542
 1686SOL     OW 5956   4.093   5.590   2.700
 1686SOL    HW1 5957   4.066   5.501   2.663
 1686SOL    HW2 5958   4.137   5.576   2.789
 1687SOL     OW 5959   4.976   4.746   0.860
 1687SOL    HW1 5960   4.919   4.764   0.779
 1687SOL    HW2 5961   4.933   4.786   0.941
 1688SOL     OW 5962   1.641   0.028   3.379
 1688SOL    HW1 5963   1.708   0.101   3.396
 1688SOL    HW2 5964   1.559   0.067   3.337
 1689SOL     OW 5965   4.313   0.543   1.627
 1689SOL    HW1 5966   4.295   0.475   1.698
 1689SOL    HW2 5967   4.231   0.600   1.615
 1690SOL     OW 5968   6.633   4.708   3.967
 1690SOL    HW1 5969   6.571   4.787   3.968
 1690SOL    HW2 5970   6.581   4.625   3.988
 1691SOL     OW 5971   4.175   2.730   5.346
 1691SOL    HW1 5972   4.268   2.751   5.316
 1691SOL    HW2 5973   4.139   2.654   5.291
 1692SOL     OW 5974   4.994   4.832   1.724
 1692SOL    HW1 5975   4.995   4.920   1.772
 1692SOL    HW2 5976   5.026   4.846   1.630
 1693SOL     OW 5977   5.421   6.812   5.881
 1693SOL    HW1 5978   5.334   6.806   5.831
 1693SOL    HW2 5979   5.428   6.736   5.945
 1694SOL     OW 5980   4.688   1.588   6.241
 1694SOL    HW1 5981   4.597   1.587   6.200
 1694SOL    HW2 5982   4.730   1.498   6.229
 1695SOL     OW 5983   3.533   0.177   5.419
 1695SOL    HW1 5984   3.454   0.145   5.365
 1695SOL    HW2 5985   3.580   0.098   5.457
 1696SOL     OW 5986   4.139   6.733   0.883
 1696SOL    HW1 5987   4.191   6.739   0.798
 1696SOL    HW2 5988   4.081   6.815   0.892
 1697SOL     OW 5989   4.791   2.871   1.744
 1697SOL    HW1 5990   4.824   2.781   1.774
 1697SOL    HW2 5991   4.753   2.920   1.822
 1698SOL     OW 5992   4.292   1.526   1.385
 1698SOL    HW1 5993   4.204   1.563   1.417
 1698SOL    HW2 5994   4.364   1.552   1.448
 1699SOL     OW 5995   2.119   0.459   0.502
 1699SOL    HW1 5996   2.036   0.498   0.465
 1699SOL    HW2 5997   2.151   0.514   0.579
 1700SOL     OW 5998   5.247   3.029   3.171
 1700SOL    HW1 5999   5.253   3.129   3.170
 1700SOL    HW2 6000   5.327   2.990   3.126
 1701SOL     OW 6001   0.319   5.954   5.267
 1701SOL    HW1 6002   0.307   5.997   5.177
 1701SOL    HW2 6003   0.230   5.922   5.301
 1702SOL     OW 6004   2.370   2.979   0.001
 1702SOL    HW1 6005   2.335   2.974   0.094
 1702SOL    HW2 6006   2.313   2.924   6.959
 1703SOL     OW 6007   1.339   1.824   2.055
 1703SOL    HW1 6008   1.391   1.739   2.064
 1703SOL    HW2 6009   1.243   1.807   2.077
 1704SOL     OW 6010   2.827   2.756   7.010
 1704SOL    HW1 6011   2.862   2.686   6.947
 1704SOL    HW2 6012   2.727   2.759   7.004
 1705SOL     OW 6013   4.576   3.309   0.501
 1705SOL    HW1 6014   4.672   3.334   0.494
 1705SOL    HW2 6015   4.525   3.384   0.544
 1706SOL     OW 6016   6.202   1.926   6.547
 1706SOL    HW1 6017   6.262   1.895   6.621
 1706SOL    HW2 6018   6.106   1.916   6.576
 1707SOL     OW 6019   3.908   1.063   2.056
 1707SOL    HW1 6020   3.843   1.120   2.006
 1707SOL    HW2 6021   3.939   1.111   2.138
 1708SOL     OW 6022   2.952   4.821   2.065
 1708SOL    HW1 6023   2.896   4.742   2.039
 1708SOL    HW2 6024   2.977   4.814   2.162
 1709SOL     OW 6025   5.129   5.064   0.882
 1709SOL    HW1 6026   5.203   5.052   0.949
 1709SOL    HW2 6027   5.042   5.071   0.930
 1710SOL     OW 6028   5.069   3.619   2.440
 1710SOL    HW1 6029   5.039   3.527   2.467
 1710SOL    HW2 6030   4.999   3.662   2.382
 1711SOL     OW 6031   3.939   5.896   0.188
 1711SOL    HW1 6032   3.879   5.890   0.108
 1711SOL    HW2 6033   3.982   5.807   0.204
 1712SOL     OW 6034   0.618   1.745   1.889
 1712SOL    HW1 6035   0.664   1.658   1.907
 1712SOL    HW2 6036   0.642   1.777   1.797
 1713SOL     OW 6037   2.846   1.581   2.860
 1713SOL    HW1 6038   2.859   1.609   2.955
 1713SOL    HW2 6039   2.788   1.648   2.814
 1714SOL     OW 6040   2.912   4.148   1.024
 1714SOL    HW1 6041   2.956   4.140   1.114
 1714SOL    HW2 6042   2.957   4.219   0.971
 1715SOL     OW 6043   1.041   6.212   1.197
 1715SOL    HW1 6044   1.079   6.302   1.218
 1715SOL    HW2 6045   0.988   6.179   1.276
 1716SOL     OW 6046   4.014   1.341   2.889
 1716SOL    HW1 6047   3.931   1.394   2.874
 1716SOL    HW2 6048   4.084   1.371   2.823
 1717SOL     OW 6049   3.588   6.232   3.655
 1717SOL    HW1 6050   3.545   6.193   3.737
 1717SOL    HW2 6051   3.517   6.266   3.594
 1718SOL     OW 6052   1.797   3.465   1.428
 1718SOL    HW1 6053   1.866   3.527   1.391
 1718SOL    HW2 6054   1.723   3.453   1.362
 1719SOL     OW 6055   1.488   5.547   2.822
 1719SOL    HW1 6056   1.551   5.606   2.770
 1719SOL    HW2 6057   1.408   5.526   2.766
 1720SOL     OW 6058   0.756   3.397   5.210
 1720SOL    HW1 6059   0.735   3.327   5.142
 1720SOL    HW2 6060   0.788   3.479   5.164
 1721SOL     OW 6061   1.938   2.893   0.359
 1721SOL    HW1 6062   2.020   2.838   0.375
 1721SOL    HW2 6063   1.857   2.844   0.392
 1722SOL     OW 6064   2.356   2.139   4.140
 1722SOL    HW1 6065   2.400   2.145   4.051
 1722SOL    HW2 6066   2.376   2.222   4.192
 1723SOL     OW 6067   5.515   4.303   1.368
 1723SOL    HW1 6068   5.595   4.266   1.414
 1723SOL    HW2 6069   5.529   4.400   1.349
 1724SOL     OW 6070   5.032   2.399   0.774
 1724SOL    HW1 6071   5.075   2.428   0.689
 1724SOL    HW2 6072   4.972   2.471   0.808
 1725SOL     OW 6073   2.006   6.660   5.829
 1725SOL    HW1 6074   1.991   6.699   5.738
 1725SOL    HW2 6075   2.033   6.733   5.892
 1726SOL     OW 6076   5.000   4.406   2.776
 1726SOL    HW1 6077   4.916   4.431   2.727
 1726SOL    HW2 6078   4.995   4.441   2.870
 1727SOL     OW 6079   3.183   4.041   2.682
 1727SOL    HW1 6080   3.235   4.025   2.598
 1727SOL    HW2 6081   3.117   4.115   2.667
 1728SOL     OW 6082   5.983   2.459   4.073
 1728SOL    HW1 6083   5.952   2.513   4.151
 1728SOL    HW2 6084   5.924   2.379   4.063
 1729SOL     OW 6085   1.406   2.341   2.459
 1729SOL    HW1 6086   1.472   2.286   2.408
 1729SOL    HW2 6087   1.321   2.347   2.407
 1730SOL     OW 6088   2.117   6.406   4.450
 1730SOL    HW1 6089   2.034   6.358   4.478
 1730SOL    HW2 6090   2.181   6.341   4.409
 1731SOL     OW 6091   4.773   4.975   4.055
 1731SOL    HW1 6092   4.810   4.884   4.075
 1731SOL    HW2 6093   4.687   4.987   4.105
 1732SOL     OW 6094   2.827   3.592   5.206
 1732SOL    HW1 6095   2.771   3.526   5.258
 1732SOL    HW2 6096   2.897   3.542   5.155
 1733SOL     OW 6097   1.814   2.652   6.271
 1733SOL    HW1 6098   1.801   2.603   6.357
 1733SOL    HW2 6099   1.780   2.596   6.195
 1734SOL     OW 6100   6.966   3.018   1.052
 1734SOL    HW1 6101   6.926   3.109   1.059
 1734SOL    HW2 6102   6.952   2.968   1.137
 1735SOL     OW 6103   3.632   5.170   6.350
 1735SOL    HW1 6104   3.642   5.267   6.375
 1735SOL    HW2 6105   3.655   5.159   6.254
 1736SOL     OW 6106   5.253   2.521   6.603
 1736SOL    HW1 6107   5.293   2.601   6.558
 1736SOL    HW2 6108   5.291   2.438   6.562
 1737SOL     OW 6109   3.189   0.863   5.767
 1737SOL    HW1 6110   3.226   0.773   5.790
 1737SOL    HW2 6111   3.262   0.932   5.773
 1738SOL     OW 6112   1.754   3.660   2.141
 1738SOL    HW1 6113   1.812   3.627   2.216
 1738SOL    HW2 6114   1.726   3.754   2.161
 1739SOL     OW 6115   5.268   6.176   3.108
 1739SOL    HW1 6116   5.315   6.199   3.022
 1739SOL    HW2 6117   5.248   6.260   3.157
 1740SOL     OW 6118   6.669   3.285   4.863
 1740SOL    HW1 6119   6.666   3.222   4.785
 1740SOL    HW2 6120   6.579   3.289   4.907
 1741SOL     OW 6121   0.955   2.085   4.779
 1741SOL    HW1 6122   0.900   2.037   4.847
 1741SOL    HW2 6123   1.047   2.100   4.815
 1742SOL     OW 6124   6.642   6.695   6.992
 1742SOL    HW1 6125   6.575   6.683   0.047
 1742SOL    HW2 6126   6.651   6.610   6.940
 1743SOL     OW 6127   1.779   2.384   2.060
 1743SOL    HW1 6128   1.846   2.420   1.995
 1743SOL    HW2 6129   1.714   2.325   2.011
 1744SOL     OW 6130   3.707   2.259   5.785
 1744SOL    HW1 6131   3.622   2.277   5.834
 1744SOL    HW2 6132   3.687   2.210   5.700
 1745SOL     OW 6133   6.561   6.165   1.008
 1745SOL    HW1 6134   6.482   6.191   1.063
 1745SOL    HW2 6135   6.576   6.234   0.937
 1746SOL     OW 6136   2.534   4.481   3.286
 1746SOL    HW1 6137   2.457   4.427   3.321
 1746SOL    HW2 6138   2.539   4.471   3.187
 1747SOL     OW 6139   4.050   6.911   2.352
 1747SOL    HW1 6140   4.014   6.891   2.261
 1747SOL    HW2 6141   4.017   7.000   2.382
 1748SOL     OW 6142   6.904   2.166   4.567
 1748SOL    HW1 6143   6.832   2.101   4.543
 1748SOL    HW2 6144   6.962   2.182   4.487
 1749SOL     OW 6145   6.529   5.500   1.477
 1749SOL    HW1 6146   6.577   5.561   1.414
 1749SOL    HW2 6147   6.593   5.432   1.513
 1750SOL     OW 6148   3.171   0.985   0.547
 1750SOL    HW1 6149   3.137   0.957   0.457
 1750SOL    HW2 6150   3.188   1.084   0.547
 1751SOL     OW 6151   5.355   3.246   4.824
 1751SOL    HW1 6152   5.373   3.293   4.911
 1751SOL    HW2 6153   5.366   3.311   4.749
 1752SOL     OW 6154   0.264   0.771   2.396
 1752SOL    HW1 6155   0.264   0.809   2.303
 1752SOL    HW2 6156   0.186   0.807   2.447
 1753SOL     OW 6157   0.037   1.554   1.378
 1753SOL    HW1 6158   0.068   1.581   1.287
 1753SOL    HW2 6159   6.965   1.594   1.395
 1754SOL     OW 6160   3.035   5.162   3.422
 1754SOL    HW1 6161   3.128   5.183   3.452
 1754SOL    HW2 6162   3.017   5.209   3.336
 1755SOL     OW 6163   6.540   0.320   5.344
 1755SOL    HW1 6164   6.444   0.318   5.371
 1755SOL    HW2 6165   6.578   0.411   5.360
 1756SOL     OW 6166   4.465   5.854   0.872
 1756SOL    HW1 6167   4.382   5.875   0.820
 1756SOL    HW2 6168   4.441   5.798   0.951
 1757SOL     OW 6169   2.786   4.640   5.350
 1757SOL    HW1 6170   2.839   4.694   5.415
 1757SOL    HW2 6171   2.848   4.593   5.287
 1758SOL     OW 6172   1.358   6.187   3.930
 1758SOL    HW1 6173   1.436   6.247   3.945
 1758SOL    HW2 6174   1.279   6.242   3.902
 1759SOL     OW 6175   1.089   5.655   0.371
 1759SOL    HW1 6176   1.021   5.684   0.438
 1759SOL    HW2 6177   1.062   5.566   0.333
 1760SOL     OW 6178   6.744   1.680   4.935
 1760SOL    HW1 6179   6.656   1.722   4.913
 1760SOL    HW2 6180   6.761   1.689   5.033
 1761SOL     OW 6181   5.162   1.128   2.991
 1761SOL    HW1 6182   5.209   1.178   3.064
 1761SOL    HW2 6183   5.185   1.169   2.903
 1762SOL     OW 6184   0.808   1.678   5.640
 1762SOL    HW1 6185   0.907   1.685   5.647
 1762SOL    HW2 6186   0.770   1.764   5.605
 1763SOL     OW 6187   1.215   5.223   3.669
 1763SOL    HW1 6188   1.218   5.313   3.713
 1763SOL    HW2 6189   1.154   5.227   3.590
 1764SOL     OW 6190   0.641   6.054   3.555
 1764SOL    HW1 6191   0.698   6.025   3.632
 1764SOL    HW2 6192   0.616   6.150   3.566
 1765SOL     OW 6193   5.549   4.169   1.961
 1765SOL    HW1 6194   5.518   4.243   1.901
 1765SOL    HW2 6195   5.530   4.081   1.918
 1766SOL     OW 6196   4.691   4.464   4.257
 1766SOL    HW1 6197   4.709   4.451   4.355
 1766SOL    HW2 6198   4.777   4.460   4.207
 1767SOL     OW 6199   0.588   5.029   1.465
 1767SOL    HW1 6200   0.536   5.102   1.510
 1767SOL    HW2 6201   0.600   4.952   1.528
 1768SOL     OW 6202   4.686   4.188   2.562
 1768SOL    HW1 6203   4.706   4.207   2.466
 1768SOL    HW2 6204   4.673   4.274   2.612
 1769SOL     OW 6205   5.153   0.255   1.053
 1769SOL    HW1 6206   5.187   0.161   1.057
 1769SOL    HW2 6207   5.150   0.294   1.145
 1770SOL     OW 6208   1.817   4.882   0.273
 1770SOL    HW1 6209   1.915   4.861   0.274
 1770SOL    HW2 6210   1.790   4.910   0.181
 1771SOL     OW 6211   1.775   3.524   6.015
 1771SOL    HW1 6212   1.796   3.563   6.105
 1771SOL    HW2 6213   1.711   3.448   6.026
 1772SOL     OW 6214   1.998   3.738   2.766
 1772SOL    HW1 6215   1.981   3.819   2.709
 1772SOL    HW2 6216   1.910   3.699   2.796
 1773SOL     OW 6217   2.238   6.254   5.979
 1773SOL    HW1 6218   2.268   6.242   6.073
 1773SOL    HW2 6219   2.163   6.320   5.976
 1774SOL     OW 6220   5.690   5.741   1.256
 1774SOL    HW1 6221   5.592   5.726   1.270
 1774SOL    HW2 6222   5.740   5.720   1.340
 1775SOL     OW 6223   1.846   5.352   0.741
 1775SOL    HW1 6224   1.881   5.341   0.834
 1775SOL    HW2 6225   1.750   5.324   0.738
 1776SOL     OW 6226   4.666   3.036   6.036
 1776SOL    HW1 6227   4.731   3.050   6.111
 1776SOL    HW2 6228   4.657   3.120   5.984
 1777SOL     OW 6229   4.359   6.647   0.029
 1777SOL    HW1 6230   4.364   6.627   0.127
 1777SOL    HW2 6231   4.435   6.601   7.000
 1778SOL     OW 6232   5.942   0.209   4.091
 1778SOL    HW1 6233   5.885   0.131   4.067
 1778SOL    HW2 6234   6.036   0.193   4.059
 1779SOL     OW 6235   5.497   0.574   4.544
 1779SOL    HW1 6236   5.503   0.479   4.515
 1779SOL    HW2 6237   5.588   0.608   4.568
 1780SOL     OW 6238   2.339   5.915   5.474
 1780SOL    HW1 6239   2.359   5.917   5.572
 1780SOL    HW2 6240   2.404   5.855   5.427
 1781SOL     OW 6241   3.842   1.051   5.608
 1781SOL    HW1 6242   3.768   1.118   5.616
 1781SOL    HW2 6243   3.841   0.990   5.687
 1782SOL     OW 6244   4.748   1.045   2.503
 1782SOL    HW1 6245   4.710   0.993   2.580
 1782SOL    HW2 6246   4.836   1.005   2.477
 1783SOL     OW 6247   1.901   4.423   6.580
 1783SOL    HW1 6248   1.913   4.411   6.678
 1783SOL    HW2 6249   1.899   4.333   6.536
 1784SOL     OW 6250   2.513   6.307   1.265
 1784SOL    HW1 6251   2.443   6.298   1.336
 1784SOL    HW2 6252   2.594   6.350   1.304
 1785SOL     OW 6253   1.403   6.708   4.890
 1785SOL    HW1 6254   1.314   6.752   4.892
 1785SOL    HW2 6255   1.449   6.728   4.803
 1786SOL     OW 6256   0.135   6.295   1.924
 1786SOL    HW1 6257   0.055   6.354   1.912
 1786SOL    HW2 6258   0.209   6.328   1.865
 1787SOL     OW 6259   1.771   2.996   5.720
 1787SOL    HW1 6260   1.758   2.911   5.670
 1787SOL    HW2 6261   1.779   3.072   5.656
 1788SOL     OW 6262   3.994   3.705   0.517
 1788SOL    HW1 6263   4.062   3.633   0.531
 1788SOL    HW2 6264   4.023   3.788   0.564
 1789SOL     OW 6265   5.724   3.027   2.071
 1789SOL    HW1 6266   5.769   2.979   1.996
 1789SOL    HW2 6267   5.711   3.123   2.047
 1790SOL     OW 6268   1.760   2.482   4.953
 1790SOL    HW1 6269   1.789   2.577   4.959
 1790SOL    HW2 6270   1.840   2.423   4.940
 1791SOL     OW 6271   4.975   0.365   3.570
 1791SOL    HW1 6272   4.928   0.277   3.577
 1791SOL    HW2 6273   4.916   0.437   3.607
 1792SOL     OW 6274   6.631   2.437   6.582
 1792SOL    HW1 6275   6.553   2.471   6.530
 1792SOL    HW2 6276   6.644   2.340   6.563
 1793SOL     OW 6277   6.621   2.018   5.244
 1793SOL    HW1 6278   6.630   2.117   5.259
 1793SOL    HW2 6279   6.703   1.984   5.197
 1794SOL     OW 6280   0.380   1.283   6.505
 1794SOL    HW1 6281   0.402   1.378   6.526
 1794SOL    HW2 6282   0.465   1.232   6.489
 1795SOL     OW 6283   5.562   4.875   1.186
 1795SOL    HW1 6284   5.607   4.817   1.253
 1795SOL    HW2 6285   5.602   4.860   1.095
 1796SOL     OW 6286   5.994   0.180   1.261
 1796SOL    HW1 6287   5.989   0.089   1.302
 1796SOL    HW2 6288   6.086   0.196   1.225
 1797SOL     OW 6289   2.930   5.820   5.704
 1797SOL    HW1 6290   2.831   5.823   5.692
 1797SOL    HW2 6291   2.956   5.736   5.751
 1798SOL     OW 6292   2.439   3.657   5.638
 1798SOL    HW1 6293   2.522   3.643   5.582
 1798SOL    HW2 6294   2.445   3.744   5.685
 1799SOL     OW 6295   2.943   1.366   2.158
 1799SOL    HW1 6296   3.011   1.337   2.090
 1799SOL    HW2 6297   2.978   1.442   2.211
 1800SOL     OW 6298   6.086   3.086   5.919
 1800SOL    HW1 6299   6.033   3.078   5.835
 1800SOL    HW2 6300   6.177   3.120   5.899
 1801SOL     OW 6301   0.201   0.740   2.909
 1801SOL    HW1 6302   0.278   0.804   2.906
 1801SOL    HW2 6303   0.193   0.702   3.001
 1802SOL     OW 6304   6.099   4.797   3.677
 1802SOL    HW1 6305   6.081   4.891   3.706
 1802SOL    HW2 6306   6.198   4.782   3.672
 1803SOL     OW 6307   0.010   0.292   4.092
 1803SOL    HW1 6308   0.061   0.216   4.052
 1803SOL    HW2 6309   6.941   0.258   4.127
 1804SOL     OW 6310   1.894   2.290   6.328
 1804SOL    HW1 6311   1.806   2.330   6.354
 1804SOL    HW2 6312   1.957   2.363   6.302
 1805SOL     OW 6313   6.512   4.534   0.517
 1805SOL    HW1 6314   6.608   4.542   0.492
 1805SOL    HW2 6315   6.455   4.542   0.435
 1806SOL     OW 6316   0.646   1.601   0.884
 1806SOL    HW1 6317   0.589   1.556   0.815
 1806SOL    HW2 6318   0.655   1.540   0.963
 1807SOL     OW 6319   6.048   3.019   2.847
 1807SOL    HW1 6320   6.041   2.957   2.769
 1807SOL    HW2 6321   6.144   3.023   2.877
 1808SOL     OW 6322   5.426   1.176   6.372
 1808SOL    HW1 6323   5.478   1.094   6.392
 1808SOL    HW2 6324   5.466   1.254   6.420
 1809SOL     OW 6325   5.831   0.428   5.512
 1809SOL    HW1 6326   5.824   0.425   5.612
 1809SOL    HW2 6327   5.837   0.523   5.482
 1810SOL     OW 6328   1.161   1.064   4.157
 1810SOL    HW1 6329   1.144   0.966   4.147
 1810SOL    HW2 6330   1.100   1.115   4.097
 1811SOL     OW 6331   3.071   5.867   2.238
 1811SOL    HW1 6332   3.104   5.933   2.170
 1811SOL    HW2 6333   3.134   5.863   2.315
 1812SOL     OW 6334   3.612   6.669   6.743
 1812SOL    HW1 6335   3.647   6.758   6.773
 1812SOL    HW2 6336   3.653   6.645   6.655
 1813SOL     OW 6337   4.767   3.909   1.871
 1813SOL    HW1 6338   4.700   3.902   1.797
 1813SOL    HW2 6339   4.749   3.992   1.924
 1814SOL     OW 6340   6.520   5.862   0.667
 1814SOL    HW1 6341   6.505   5.871   0.569
 1814SOL    HW2 6342   6.452   5.917   0.716
 1815SOL     OW 6343   5.743   5.138   1.604
 1815SOL    HW1 6344   5.752   5.227   1.649
 1815SOL    HW2 6345   5.713   5.070   1.671
 1816SOL     OW 6346   4.415   5.276   4.851
 1816SOL    HW1 6347   4.326   5.289   4.808
 1816SOL    HW2 6348   4.405   5.219   4.932
 1817SOL     OW 6349   0.017   2.518   3.671
 1817SOL    HW1 6350   0.042   2.570   3.752
 1817SOL    HW2 6351   0.097   2.468   3.637
 1818SOL     OW 6352   2.458   1.378   0.615
 1818SOL    HW1 6353   2.380   1.440   0.601
 1818SOL    HW2 6354   2.493   1.349   0.526
 1819SOL     OW 6355   1.125   4.378   1.866
 1819SOL    HW1 6356   1.086   4.396   1.775
 1819SOL    HW2 6357   1.060   4.325   1.920
 1820SOL     OW 6358   3.787   0.088   4.488
 1820SOL    HW1 6359   3.761   0.106   4.584
 1820SOL    HW2 6360   3.710   0.046   4.441
 1821SOL     OW 6361   3.545   1.426   2.806
 1821SOL    HW1 6362   3.538   1.409   2.708
 1821SOL    HW2 6363   3.496   1.510   2.829
 1822SOL     OW 6364   1.529   3.929   4.120
 1822SOL    HW1 6365   1.565   3.845   4.160
 1822SOL    HW2 6366   1.459   3.967   4.180
 1823SOL     OW 6367   3.885   6.819   3.389
 1823SOL    HW1 6368   3.908   6.884   3.461
 1823SOL    HW2 6369   3.789   6.793   3.397
 1824SOL     OW 6370   4.333   3.151   1.745
 1824SOL    HW1 6371   4.352   3.249   1.732
 1824SOL    HW2 6372   4.410   3.107   1.791
 1825SOL     OW 6373   0.996   3.805   6.404
 1825SOL    HW1 6374   1.066   3.862   6.448
 1825SOL    HW2 6375   0.945   3.860   6.337
 1826SOL     OW 6376   3.827   2.362   0.918
 1826SOL    HW1 6377   3.763   2.342   0.844
 1826SOL    HW2 6378   3.859   2.456   0.909
 1827SOL     OW 6379   5.414   4.505   0.423
 1827SOL    HW1 6380   5.327   4.492   0.376
 1827SOL    HW2 6381   5.486   4.518   0.355
 1828SOL     OW 6382   2.154   4.441   4.686
 1828SOL    HW1 6383   2.183   4.381   4.761
 1828SOL    HW2 6384   2.203   4.528   4.693
 1829SOL     OW 6385   2.466   6.127   2.167
 1829SOL    HW1 6386   2.379   6.166   2.195
 1829SOL    HW2 6387   2.475   6.133   2.068
 1830SOL     OW 6388   4.347   0.929   5.648
 1830SOL    HW1 6389   4.308   0.837   5.651
 1830SOL    HW2 6390   4.428   0.929   5.590
 1831SOL     OW 6391   3.775   4.885   0.330
 1831SOL    HW1 6392   3.706   4.956   0.347
 1831SOL    HW2 6393   3.759   4.845   0.240
 1832SOL     OW 6394   1.978   3.387   5.840
 1832SOL    HW1 6395   1.905   3.414   5.903
 1832SOL    HW2 6396   2.037   3.466   5.822
 1833SOL     OW 6397   5.898   0.711   0.036
 1833SOL    HW1 6398   5.978   0.672   7.009
 1833SOL    HW2 6399   5.916   0.719   0.134
 1834SOL     OW 6400   0.787   3.657   6.207
 1834SOL    HW1 6401   0.864   3.620   6.259
 1834SOL    HW2 6402   0.775   3.754   6.228
 1835SOL     OW 6403   6.836   6.537   1.421
 1835SOL    HW1 6404   6.813   6.633   1.437
 1835SOL    HW2 6405   6.833   6.487   1.507
 1836SOL     OW 6406   5.498   1.641   2.500
 1836SOL    HW1 6407   5.527   1.558   2.546
 1836SOL    HW2 6408   5.477   1.621   2.404
 1837SOL     OW 6409   2.550   2.400   0.100
 1837SOL    HW1 6410   2.626   2.336   0.112
 1837SOL    HW2 6411   2.545   2.427   0.004
 1838SOL     OW 6412   4.551   0.505   0.578
 1838SOL    HW1 6413   4.557   0.542   0.671
 1838SOL    HW2 6414   4.562   0.579   0.512
 1839SOL     OW 6415   6.489   0.490   0.048
 1839SOL    HW1 6416   6.482   0.553   0.126
 1839SOL    HW2 6417   6.472   0.540   6.982
 1840SOL     OW 6418   3.908   0.174   4.233
 1840SOL    HW1 6419   4.004   0.150   4.220
 1840SOL    HW2 6420   3.878   0.143   4.323
 1841SOL     OW 6421   1.615   0.626   1.527
 1841SOL    HW1 6422   1.677   0.566   1.577
 1841SOL    HW2 6423   1.660   0.660   1.445
 1842SOL     OW 6424   0.257   5.276   1.615
 1842SOL    HW1 6425   0.249   5.352   1.679
 1842SOL    HW2 6426   0.207   5.297   1.531
 1843SOL     OW 6427   2.440   1.269   0.334
 1843SOL    HW1 6428   2.533   1.235   0.337
 1843SOL    HW2 6429   2.382   1.204   0.285
 1844SOL     OW 6430   5.459   3.042   6.575
 1844SOL    HW1 6431   5.504   2.957   6.549
 1844SOL    HW2 6432   5.501   3.079   6.658
 1845SOL     OW 6433   0.989   2.363   3.861
 1845SOL    HW1 6434   0.996   2.264   3.869
 1845SOL    HW2 6435   1.077   2.401   3.833
 1846SOL     OW 6436   2.991   0.914   1.646
 1846SOL    HW1 6437   3.000   0.822   1.685
 1846SOL    HW2 6438   2.957   0.977   1.717
 1847SOL     OW 6439   2.186   5.741   6.095
 1847SOL    HW1 6440   2.247   5.688   6.035
 1847SOL    HW2 6441   2.240   5.789   6.164
 1848SOL     OW 6442   4.089   6.195   3.251
 1848SOL    HW1 6443   4.183   6.222   3.274
 1848SOL    HW2 6444   4.048   6.263   3.190
 1849SOL     OW 6445   4.682   2.644   2.882
 1849SOL    HW1 6446   4.728   2.581   2.820
 1849SOL    HW2 6447   4.644   2.720   2.829
 1850SOL     OW 6448   4.358   1.882   1.006
 1850SOL    HW1 6449   4.392   1.929   1.088
 1850SOL    HW2 6450   4.267   1.915   0.984
 1851SOL     OW 6451   0.611   4.778   4.448
 1851SOL    HW1 6452   0.674   4.704   4.469
 1851SOL    HW2 6453   0.584   4.825   4.532
 1852SOL     OW 6454   0.602   6.878   3.561
 1852SOL    HW1 6455   0.606   6.828   3.648
 1852SOL    HW2 6456   0.685   6.861   3.509
 1853SOL     OW 6457   0.905   2.045   5.599
 1853SOL    HW1 6458   0.995   2.020   5.636
 1853SOL    HW2 6459   0.873   1.973   5.537
 1854SOL     OW 6460   0.057   0.385   3.628
 1854SOL    HW1 6461   0.043   0.476   3.667
 1854SOL    HW2 6462   0.151   0.356   3.645
 1855SOL     OW 6463   5.888   2.456   5.078
 1855SOL    HW1 6464   5.813   2.416   5.026
 1855SOL    HW2 6465   5.854   2.484   5.168
 1856SOL     OW 6466   4.867   3.875   0.264
 1856SOL    HW1 6467   4.963   3.866   0.291
 1856SOL    HW2 6468   4.822   3.945   0.320
 1857SOL     OW 6469   4.090   0.980   6.503
 1857SOL    HW1 6470   4.031   0.990   6.583
 1857SOL    HW2 6471   4.116   1.071   6.470
 1858SOL     OW 6472   5.195   1.993   5.052
 1858SOL    HW1 6473   5.190   1.952   4.961
 1858SOL    HW2 6474   5.290   2.004   5.079
 1859SOL     OW 6475   6.608   0.479   2.962
 1859SOL    HW1 6476   6.648   0.411   3.022
 1859SOL    HW2 6477   6.680   0.525   2.910
 1860SOL     OW 6478   2.669   1.442   6.161
 1860SOL    HW1 6479   2.594   1.440   6.228
 1860SOL    HW2 6480   2.714   1.531   6.166
 1861SOL     OW 6481   6.011   6.362   5.279
 1861SOL    HW1 6482   5.919   6.399   5.273
 1861SOL    HW2 6483   6.036   6.319   5.192
 1862SOL     OW 6484   3.290   5.530   6.008
 1862SOL    HW1 6485   3.260   5.440   6.039
 1862SOL    HW2 6486   3.339   5.520   5.922
 1863SOL     OW 6487   0.219   1.864   1.420
 1863SOL    HW1 6488   0.194   1.774   1.456
 1863SOL    HW2 6489   0.140   1.907   1.377
 1864SOL     OW 6490   2.590   6.420   1.900
 1864SOL    HW1 6491   2.538   6.345   1.858
 1864SOL    HW2 6492   2.658   6.383   1.962
 1865SOL     OW 6493   6.239   2.413   5.665
 1865SOL    HW1 6494   6.321   2.465   5.642
 1865SOL    HW2 6495   6.260   2.347   5.736
 1866SOL     OW 6496   0.036   4.850   4.091
 1866SOL    HW1 6497   0.053   4.939   4.049
 1866SOL    HW2 6498   6.979   4.805   4.043
 1867SOL     OW 6499   1.053   1.240   1.668
 1867SOL    HW1 6500   0.993   1.242   1.588
 1867SOL    HW2 6501   1.148   1.248   1.638
 1868SOL     OW 6502   5.200   3.902   6.124
 1868SOL    HW1 6503   5.296   3.886   6.101
 1868SOL    HW2 6504   5.181   4.000   6.121
 1869SOL     OW 6505   5.184   0.835   5.198
 1869SOL    HW1 6506   5.179   0.741   5.233
 1869SOL    HW2 6507   5.252   0.886   5.250
 1870SOL     OW 6508   5.787   0.071   6.074
 1870SOL    HW1 6509   5.784   0.052   5.976
 1870SOL    HW2 6510   5.729   0.006   6.123
 1871SOL     OW 6511   0.818   5.832   0.210
 1871SOL    HW1 6512   0.913   5.862   0.205
 1871SOL    HW2 6513   0.758   5.908   0.188
 1872SOL     OW 6514   2.820   3.008   1.091
 1872SOL    HW1 6515   2.749   3.045   1.152
 1872SOL    HW2 6516   2.804   3.040   0.998
 1873SOL     OW 6517   6.260   0.976   1.617
 1873SOL    HW1 6518   6.211   0.910   1.673
 1873SOL    HW2 6519   6.356   0.979   1.645
 1874SOL     OW 6520   1.306   6.080   6.457
 1874SOL    HW1 6521   1.327   6.097   6.361
 1874SOL    HW2 6522   1.246   6.001   6.465
 1875SOL     OW 6523   0.292   6.437   2.122
 1875SOL    HW1 6524   0.240   6.378   2.183
 1875SOL    HW2 6525   0.340   6.381   2.055
 1876SOL     OW 6526   0.620   4.440   0.517
 1876SOL    HW1 6527   0.559   4.496   0.461
 1876SOL    HW2 6528   0.625   4.347   0.480
 1877SOL     OW 6529   1.396   1.631   2.487
 1877SOL    HW1 6530   1.460   1.561   2.517
 1877SOL    HW2 6531   1.364   1.684   2.566
 1878SOL     OW 6532   5.324   3.421   4.365
 1878SOL    HW1 6533   5.372   3.370   4.436
 1878SOL    HW2 6534   5.389   3.470   4.308
 1879SOL     OW 6535   4.139   6.352   5.235
 1879SOL    HW1 6536   4.115   6.401   5.152
 1879SOL    HW2 6537   4.238   6.337   5.237
 1880SOL     OW 6538   0.923   2.305   4.188
 1880SOL    HW1 6539   1.015   2.344   4.191
 1880SOL    HW2 6540   0.929   2.207   4.167
 1881SOL     OW 6541   1.861   1.053   3.861
 1881SOL    HW1 6542   1.880   0.955   3.858
 1881SOL    HW2 6543   1.947   1.103   3.870
 1882SOL     OW 6544   2.769   5.677   0.548
 1882SOL    HW1 6545   2.749   5.681   0.646
 1882SOL    HW2 6546   2.711   5.743   0.500
 1883SOL     OW 6547   2.378   2.604   2.776
 1883SOL    HW1 6548   2.322   2.651   2.708
 1883SOL    HW2 6549   2.449   2.551   2.730
 1884SOL     OW 6550   5.044   0.600   0.511
 1884SOL    HW1 6551   5.041   0.667   0.436
 1884SOL    HW2 6552   5.027   0.509   0.474
 1885SOL     OW 6553   0.289   1.135   0.563
 1885SOL    HW1 6554   0.251   1.092   0.482
 1885SOL    HW2 6555   0.386   1.112   0.571
 1886SOL     OW 6556   3.783   2.519   5.688
 1886SOL    HW1 6557   3.767   2.421   5.694
 1886SOL    HW2 6558   3.757   2.563   5.774
 1887SOL     OW 6559   0.555   6.204   5.008
 1887SOL    HW1 6560   0.564   6.151   4.923
 1887SOL    HW2 6561   0.599   6.155   5.082
 1888SOL     OW 6562   1.874   1.839   6.130
 1888SOL    HW1 6563   1.782   1.802   6.118
 1888SOL    HW2 6564   1.942   1.769   6.106
 1889SOL     OW 6565   2.878   3.279   0.398
 1889SOL    HW1 6566   2.874   3.350   0.469
 1889SOL    HW2 6567   2.859   3.190   0.440
 1890SOL     OW 6568   5.842   5.921   6.532
 1890SOL    HW1 6569   5.920   5.982   6.542
 1890SOL    HW2 6570   5.829   5.898   6.436
 1891SOL     OW 6571   5.254   3.616   6.846
 1891SOL    HW1 6572   5.322   3.579   6.908
 1891SOL    HW2 6573   5.298   3.673   6.777
 1892SOL     OW 6574   3.838   0.357   2.892
 1892SOL    HW1 6575   3.744   0.370   2.924
 1892SOL    HW2 6576   3.901   0.403   2.955
 1893SOL     OW 6577   3.234   0.895   6.216
 1893SOL    HW1 6578   3.255   0.819   6.278
 1893SOL    HW2 6579   3.179   0.963   6.264
 1894SOL     OW 6580   5.062   3.249   0.888
 1894SOL    HW1 6581   5.160   3.259   0.908
 1894SOL    HW2 6582   5.010   3.259   0.973
 1895SOL     OW 6583   5.055   5.866   3.587
 1895SOL    HW1 6584   5.014   5.957   3.577
 1895SOL    HW2 6585   5.015   5.803   3.520
 1896SOL     OW 6586   6.144   2.363   5.065
 1896SOL    HW1 6587   6.053   2.403   5.052
 1896SOL    HW2 6588   6.211   2.412   5.009
 1897SOL     OW 6589   5.362   4.950   2.858
 1897SOL    HW1 6590   5.389   5.015   2.930
 1897SOL    HW2 6591   5.283   4.897   2.889
 1898SOL     OW 6592   5.644   6.816   6.917
 1898SOL    HW1 6593   5.649   6.883   6.843
 1898SOL    HW2 6594   5.735   6.800   6.955
 1899SOL     OW 6595   1.819   2.731   3.640
 1899SOL    HW1 6596   1.789   2.806   3.582
 1899SOL    HW2 6597   1.914   2.746   3.668
 1900SOL     OW 6598   2.265   5.626   1.811
 1900SOL    HW1 6599   2.299   5.543   1.856
 1900SOL    HW2 6600   2.179   5.607   1.765
 1901SOL     OW 6601   1.095   0.951   5.335
 1901SOL    HW1 6602   1.168   0.941   5.267
 1901SOL    HW2 6603   1.084   1.048   5.358
 1902SOL     OW 6604   1.210   2.850   4.716
 1902SOL    HW1 6605   1.247   2.774   4.769
 1902SOL    HW2 6606   1.172   2.815   4.630
 1903SOL     OW 6607   6.455   4.922   3.960
 1903SOL    HW1 6608   6.388   4.951   4.028
 1903SOL    HW2 6609   6.418   4.939   3.868
 1904SOL     OW 6610   0.558   0.150   4.366
 1904SOL    HW1 6611   0.466   0.152   4.326
 1904SOL    HW2 6612   0.592   0.243   4.377
 1905SOL     OW 6613   6.294   3.087   4.393
 1905SOL    HW1 6614   6.239   3.004   4.402
 1905SOL    HW2 6615   6.390   3.061   4.382
 1906SOL     OW 6616   2.530   6.287   5.624
 1906SOL    HW1 6617   2.530   6.296   5.524
 1906SOL    HW2 6618   2.454   6.229   5.652
 1907SOL     OW 6619   4.263   6.863   3.730
 1907SOL    HW1 6620   4.349   6.848   3.777
 1907SOL    HW2 6621   4.214   6.939   3.773
 1908SOL     OW 6622   5.037   5.938   0.788
 1908SOL    HW1 6623   5.073   6.028   0.763
 1908SOL    HW2 6624   5.048   5.924   0.886
 1909SOL     OW 6625   4.927   5.642   3.496
 1909SOL    HW1 6626   4.946   5.578   3.422
 1909SOL    HW2 6627   4.933   5.594   3.584
 1910SOL     OW 6628   4.764   2.993   4.679
 1910SOL    HW1 6629   4.692   2.931   4.710
 1910SOL    HW2 6630   4.769   2.991   4.579
 1911SOL     OW 6631   0.234   3.391   5.542
 1911SOL    HW1 6632   0.214   3.410   5.446
 1911SOL    HW2 6633   0.260   3.476   5.588
 1912SOL     OW 6634   2.772   6.142   3.285
 1912SOL    HW1 6635   2.791   6.204   3.210
 1912SOL    HW2 6636   2.842   6.071   3.289
 1913SOL     OW 6637   1.845   4.335   5.395
 1913SOL    HW1 6638   1.924   4.346   5.457
 1913SOL    HW2 6639   1.877   4.332   5.301
 1914SOL     OW 6640   4.338   1.491   4.906
 1914SOL    HW1 6641   4.401   1.425   4.867
 1914SOL    HW2 6642   4.283   1.447   4.978
 1915SOL     OW 6643   2.888   0.272   5.186
 1915SOL    HW1 6644   2.846   0.252   5.274
 1915SOL    HW2 6645   2.921   0.366   5.185
 1916SOL     OW 6646   3.800   6.369   2.763
 1916SOL    HW1 6647   3.713   6.361   2.812
 1916SOL    HW2 6648   3.796   6.447   2.701
 1917SOL     OW 6649   3.015   3.822   4.562
 1917SOL    HW1 6650   3.017   3.777   4.473
 1917SOL    HW2 6651   3.036   3.919   4.550
 1918SOL     OW 6652   6.821   6.660   5.653
 1918SOL    HW1 6653   6.760   6.689   5.579
 1918SOL    HW2 6654   6.842   6.563   5.642
 1919SOL     OW 6655   6.428   0.366   2.431
 1919SOL    HW1 6656   6.483   0.428   2.487
 1919SOL    HW2 6657   6.432   0.395   2.335
 1920SOL     OW 6658   6.648   5.745   4.700
 1920SOL    HW1 6659   6.570   5.716   4.756
 1920SOL    HW2 6660   6.677   5.668   4.642
 1921SOL     OW 6661   2.125   6.703   6.862
 1921SOL    HW1 6662   2.142   6.631   6.795
 1921SOL    HW2 6663   2.187   6.691   6.940
 1922SOL     OW 6664   3.948   4.412   0.567
 1922SOL    HW1 6665   3.928   4.508   0.548
 1922SOL    HW2 6666   4.047   4.401   0.580
 1923SOL     OW 6667   1.632   2.833   0.676
 1923SOL    HW1 6668   1.652   2.927   0.648
 1923SOL    HW2 6669   1.542   2.807   0.643
 1924SOL     OW 6670   0.757   4.114   0.919
 1924SOL    HW1 6671   0.680   4.063   0.959
 1924SOL    HW2 6672   0.722   4.192   0.867
 1925SOL     OW 6673   3.591   4.519   0.246
 1925SOL    HW1 6674   3.684   4.494   0.270
 1925SOL    HW2 6675   3.542   4.550   0.327
 1926SOL     OW 6676   0.356   0.588   3.535
 1926SOL    HW1 6677   0.418   0.586   3.614
 1926SOL    HW2 6678   0.384   0.519   3.468
 1927SOL     OW 6679   4.791   3.010   0.993
 1927SOL    HW1 6680   4.748   2.962   1.070
 1927SOL    HW2 6681   4.841   3.090   1.028
 1928SOL     OW 6682   0.266   6.052   4.793
 1928SOL    HW1 6683   0.242   6.107   4.713
 1928SOL    HW2 6684   0.201   5.976   4.802
 1929SOL     OW 6685   1.275   6.327   3.166
 1929SOL    HW1 6686   1.291   6.277   3.252
 1929SOL    HW2 6687   1.326   6.283   3.092
 1930SOL     OW 6688   6.859   4.966   6.533
 1930SOL    HW1 6689   6.830   4.879   6.573
 1930SOL    HW2 6690   6.959   4.970   6.532
 1931SOL     OW 6691   0.412   2.066   4.455
 1931SOL    HW1 6692   0.399   2.153   4.408
 1931SOL    HW2 6693   0.410   1.992   4.388
 1932SOL     OW 6694   5.972   3.296   2.846
 1932SOL    HW1 6695   5.995   3.199   2.839
 1932SOL    HW2 6696   6.022   3.347   2.775
 1933SOL     OW 6697   2.766   4.920   0.587
 1933SOL    HW1 6698   2.682   4.891   0.541
 1933SOL    HW2 6699   2.792   5.011   0.555
 1934SOL     OW 6700   0.041   6.557   3.198
 1934SOL    HW1 6701   7.002   6.521   3.271
 1934SOL    HW2 6702   0.066   6.652   3.217
 1935SOL     OW 6703   2.106   0.847   3.064
 1935SOL    HW1 6704   2.029   0.910   3.060
 1935SOL    HW2 6705   2.156   0.850   2.978
 1936SOL     OW 6706   6.475   5.982   5.425
 1936SOL    HW1 6707   6.425   6.024   5.349
 1936SOL    HW2 6708   6.566   6.022   5.430
 1937SOL     OW 6709   3.977   0.860   2.981
 1937SOL    HW1 6710   4.049   0.864   3.050
 1937SOL    HW2 6711   3.927   0.946   2.978
 1938SOL     OW 6712   5.543   0.942   4.619
 1938SOL    HW1 6713   5.627   0.887   4.625
 1938SOL    HW2 6714   5.547   1.002   4.540
 1939SOL     OW 6715   2.789   1.104   4.315
 1939SOL    HW1 6716   2.765   1.190   4.271
 1939SOL    HW2 6717   2.864   1.117   4.379
 1940SOL     OW 6718   6.062   5.165   6.066
 1940SOL    HW1 6719   6.140   5.148   6.126
 1940SOL    HW2 6720   5.986   5.107   6.094
 1941SOL     OW 6721   5.284   5.221   2.647
 1941SOL    HW1 6722   5.315   5.136   2.604
 1941SOL    HW2 6723   5.236   5.200   2.732
 1942SOL     OW 6724   6.540   4.177   3.329
 1942SOL    HW1 6725   6.521   4.089   3.285
 1942SOL    HW2 6726   6.581   4.239   3.263
 1943SOL     OW 6727   2.735   5.342   3.253
 1943SOL    HW1 6728   2.802   5.280   3.211
 1943SOL    HW2 6729   2.782   5.422   3.289
 1944SOL     OW 6730   6.969   6.680   2.309
 1944SOL    HW1 6731   6.946   6.595   2.356
 1944SOL    HW2 6732   0.018   6.731   2.363
 1945SOL     OW 6733   3.706   4.880   3.299
 1945SOL    HW1 6734   3.636   4.943   3.265
 1945SOL    HW2 6735   3.693   4.868   3.398
 1946SOL     OW 6736   1.409   6.299   6.829
 1946SOL    HW1 6737   1.348   6.267   6.902
 1946SOL    HW2 6738   1.478   6.360   6.868
 1947SOL     OW 6739   4.722   0.152   4.078
 1947SOL    HW1 6740   4.798   0.211   4.051
 1947SOL    HW2 6741   4.652   0.207   4.123
 1948SOL     OW 6742   6.433   3.921   5.188
 1948SOL    HW1 6743   6.407   4.017   5.202
 1948SOL    HW2 6744   6.521   3.904   5.231
 1949SOL     OW 6745   5.101   4.199   6.541
 1949SOL    HW1 6746   5.110   4.103   6.567
 1949SOL    HW2 6747   5.069   4.204   6.446
 1950SOL     OW 6748   3.243   5.251   1.231
 1950SOL    HW1 6749   3.327   5.260   1.285
 1950SOL    HW2 6750   3.266   5.234   1.135
 1951SOL     OW 6751   6.741   3.001   0.334
 1951SOL    HW1 6752   6.786   2.987   0.423
 1951SOL    HW2 6753   6.780   2.938   0.267
 1952SOL     OW 6754   3.681   2.967   4.940
 1952SOL    HW1 6755   3.660   3.057   4.903
 1952SOL    HW2 6756   3.604   2.905   4.923
 1953SOL     OW 6757   0.288   2.623   4.349
 1953SOL    HW1 6758   0.296   2.674   4.264
 1953SOL    HW2 6759   0.337   2.671   4.422
 1954SOL     OW 6760   3.151   1.776   3.858
 1954SOL    HW1 6761   3.205   1.796   3.940
 1954SOL    HW2 6762   3.134   1.677   3.854
 1955SOL     OW 6763   6.309   4.968   1.991
 1955SOL    HW1 6764   6.408   4.978   1.985
 1955SOL    HW2 6765   6.269   4.981   1.900
 1956SOL     OW 6766   5.488   5.887   2.537
 1956SOL    HW1 6767   5.521   5.800   2.499
 1956SOL    HW2 6768   5.547   5.961   2.507
 1957SOL     OW 6769   0.855   6.591   5.184
 1957SOL    HW1 6770   0.785   6.583   5.256
 1957SOL    HW2 6771   0.937   6.633   5.222
 1958SOL     OW 6772   4.370   3.096   5.661
 1958SOL    HW1 6773   4.444   3.127   5.602
 1958SOL    HW2 6774   4.386   3.001   5.688
 1959SOL     OW 6775   2.319   1.617   0.555
 1959SOL    HW1 6776   2.273   1.691   0.604
 1959SOL    HW2 6777   2.260   1.585   0.481
 1960SOL     OW 6778   6.239   6.022   2.133
 1960SOL    HW1 6779   6.221   6.112   2.091
 1960SOL    HW2 6780   6.326   6.026   2.182
 1961SOL     OW 6781   6.078   4.691   5.101
 1961SOL    HW1 6782   6.159   4.694   5.159
 1961SOL    HW2 6783   6.105   4.671   5.006
 1962SOL     OW 6784   6.766   6.964   3.686
 1962SOL    HW1 6785   6.820   7.001   3.761
 1962SOL    HW2 6786   6.826   6.942   3.609
 1963SOL     OW 6787   2.697   0.751   3.568
 1963SOL    HW1 6788   2.778   0.752   3.626
 1963SOL    HW2 6789   2.718   0.797   3.481
 1964SOL     OW 6790   6.044   3.826   1.874
 1964SOL    HW1 6791   5.990   3.859   1.952
 1964SOL    HW2 6792   6.135   3.800   1.905
 1965SOL     OW 6793   2.530   6.102   3.871
 1965SOL    HW1 6794   2.611   6.141   3.914
 1965SOL    HW2 6795   2.542   6.100   3.772
 1966SOL     OW 6796   6.296   6.723   6.668
 1966SOL    HW1 6797   6.254   6.813   6.680
 1966SOL    HW2 6798   6.317   6.709   6.571
 1967SOL     OW 6799   5.206   3.446   4.612
 1967SOL    HW1 6800   5.149   3.457   4.692
 1967SOL    HW2 6801   5.171   3.372   4.555
 1968SOL     OW 6802   3.966   5.459   4.878
 1968SOL    HW1 6803   3.959   5.493   4.972
 1968SOL    HW2 6804   3.891   5.396   4.860
 1969SOL     OW 6805   6.911   2.006   1.468
 1969SOL    HW1 6806   6.911   1.973   1.562
 1969SOL    HW2 6807   6.946   2.099   1.465
 1970SOL     OW 6808   1.591   0.077   3.967
 1970SOL    HW1 6809   1.624   0.149   4.027
 1970SOL    HW2 6810   1.661   0.053   3.901
 1971SOL     OW 6811   0.417   1.130   5.994
 1971SOL    HW1 6812   0.490   1.196   5.975
 1971SOL    HW2 6813   0.374   1.152   6.081
 1972SOL     OW 6814   1.666   6.477   3.664
 1972SOL    HW1 6815   1.616   6.394   3.638
 1972SOL    HW2 6816   1.642   6.551   3.602
 1973SOL     OW 6817   2.628   3.062   7.013
 1973SOL    HW1 6818   2.655   3.108   0.079
 1973SOL    HW2 6819   2.536   3.025   0.005
 1974SOL     OW 6820   5.676   6.995   4.266
 1974SOL    HW1 6821   5.627   0.050   4.312
 1974SOL    HW2 6822   5.691   6.919   4.329
 1975SOL     OW 6823   2.729   0.425   3.651
 1975SOL    HW1 6824   2.813   0.433   3.597
 1975SOL    HW2 6825   2.655   0.471   3.603
 1976SOL     OW 6826   0.011   4.412   6.725
 1976SOL    HW1 6827   6.933   4.387   6.720
 1976SOL    HW2 6828   0.065   4.350   6.669
 1977SOL     OW 6829   2.770   2.585   5.814
 1977SOL    HW1 6830   2.774   2.488   5.835
 1977SOL    HW2 6831   2.841   2.607   5.746
 1978SOL     OW 6832   6.641   2.291   5.865
 1978SOL    HW1 6833   6.543   2.274   5.860
 1978SOL    HW2 6834   6.688   2.209   5.896
 1979SOL     OW 6835   5.933   4.181   2.700
 1979SOL    HW1 6836   5.983   4.096   2.716
 1979SOL    HW2 6837   5.992   4.259   2.720
 1980SOL     OW 6838   2.876   1.220   1.657
 1980SOL    HW1 6839   2.779   1.200   1.645
 1980SOL    HW2 6840   2.921   1.221   1.567
 1981SOL     OW 6841   4.835   3.601   1.734
 1981SOL    HW1 6842   4.780   3.674   1.775
 1981SOL    HW2 6843   4.923   3.638   1.705
 1982SOL     OW 6844   6.687   6.651   5.414
 1982SOL    HW1 6845   6.706   6.584   5.342
 1982SOL    HW2 6846   6.588   6.663   5.422
 1983SOL     OW 6847   0.722   4.521   2.469
 1983SOL    HW1 6848   0.654   4.448   2.463
 1983SOL    HW2 6849   0.683   4.599   2.518
 1984SOL     OW 6850   4.325   0.543   5.275
 1984SOL    HW1 6851   4.296   0.635   5.299
 1984SOL    HW2 6852   4.393   0.511   5.341
 1985SOL     OW 6853   2.146   6.791   1.538
 1985SOL    HW1 6854   2.121   6.707   1.490
 1985SOL    HW2 6855   2.228   6.774   1.593
 1986SOL     OW 6856   0.424   1.984   6.982
 1986SOL    HW1 6857   0.488   2.052   6.946
 1986SOL    HW2 6858   0.467   1.935   0.039
 1987SOL     OW 6859   2.652   4.267   0.395
 1987SOL    HW1 6860   2.740   4.288   0.439
 1987SOL    HW2 6861   2.652   4.171   0.366
 1988SOL     OW 6862   4.808   3.587   0.185
 1988SOL    HW1 6863   4.771   3.569   0.276
 1988SOL    HW2 6864   4.811   3.686   0.170
 1989SOL     OW 6865   2.189   1.209   4.340
 1989SOL    HW1 6866   2.142   1.297   4.344
 1989SOL    HW2 6867   2.212   1.188   4.245
 1990SOL     OW 6868   1.976   0.960   2.634
 1990SOL    HW1 6869   2.060   0.921   2.597
 1990SOL    HW2 6870   1.956   1.047   2.589
 1991SOL     OW 6871   4.937   5.582   3.186
 1991SOL    HW1 6872   4.950   5.512   3.257
 1991SOL    HW2 6873   5.002   5.657   3.201
 1992SOL     OW 6874   2.467   6.331   4.991
 1992SOL    HW1 6875   2.395   6.371   4.934
 1992SOL    HW2 6876   2.434   6.247   5.034
 1993SOL     OW 6877   3.284   2.996   3.947
 1993SOL    HW1 6878   3.312   3.084   3.910
 1993SOL    HW2 6879   3.191   2.975   3.916
 1994SOL     OW 6880   6.037   2.701   2.066
 1994SOL    HW1 6881   6.005   2.692   1.972
 1994SOL    HW2 6882   6.135   2.682   2.070
 1995SOL     OW 6883   3.897   2.398   1.291
 1995SOL    HW1 6884   3.955   2.346   1.229
 1995SOL    HW2 6885   3.938   2.488   1.307
 1996SOL     OW 6886   3.045   3.982   5.416
 1996SOL    HW1 6887   3.097   4.066   5.402
 1996SOL    HW2 6888   3.000   3.956   5.331
 1997SOL     OW 6889   5.613   6.964   3.708
 1997SOL    HW1 6890   5.638   0.039   3.734
 1997SOL    HW2 6891   5.613   6.905   3.789
 1998SOL     OW 6892   3.043   4.907   5.288
 1998SOL    HW1 6893   3.009   4.931   5.197
 1998SOL    HW2 6894   3.032   4.809   5.304
 1999SOL     OW 6895   2.724   0.780   1.638
 1999SOL    HW1 6896   2.751   0.866   1.596
 1999SOL    HW2 6897   2.717   0.709   1.568
 2000SOL     OW 6898   3.677   1.610   4.727
 2000SOL    HW1 6899   3.766   1.565   4.718
 2000SOL    HW2 6900   3.605   1.541   4.737
 2001SOL     OW 6901   2.103   3.636   0.125
 2001SOL    HW1 6902   2.045   3.611   0.047
 2001SOL    HW2 6903   2.148   3.555   0.160
 2002SOL     OW 6904   1.144   5.593   5.550
 2002SOL    HW1 6905   1.185   5.521   5.494
 2002SOL    HW2 6906   1.054   5.565   5.581
 2003SOL     OW 6907   6.426   4.631   3.033
 2003SOL    HW1 6908   6.362   4.691   2.986
 2003SOL    HW2 6909   6.519   4.649   3.000
 2004SOL     OW 6910   3.284   0.185   6.335
 2004SOL    HW1 6911   3.222   0.256   6.302
 2004SOL    HW2 6912   3.374   0.200   6.294
 2005SOL     OW 6913   3.107   6.608   5.137
 2005SOL    HW1 6914   3.029   6.634   5.080
 2005SOL    HW2 6915   3.192   6.634   5.092
 2006SOL     OW 6916   4.759   6.496   3.354
 2006SOL    HW1 6917   4.844   6.547   3.366
 2006SOL    HW2 6918   4.682   6.559   3.363
 2007SOL     OW 6919   6.359   5.408   6.844
 2007SOL    HW1 6920   6.428   5.351   6.889
 2007SOL    HW2 6921   6.293   5.439   6.913
 2008SOL     OW 6922   6.864   6.515   4.267
 2008SOL    HW1 6923   6.878   6.541   4.362
 2008SOL    HW2 6924   6.808   6.433   4.262
 2009SOL     OW 6925   0.610   0.499   0.307
 2009SOL    HW1 6926   0.699   0.516   0.348
 2009SOL    HW2 6927   0.539   0.505   0.378
 2010SOL     OW 6928   1.410   0.202   0.896
 2010SOL    HW1 6929   1.330   0.143   0.908
 2010SOL    HW2 6930   1.471   0.192   0.975
 2011SOL     OW 6931   6.961   2.651   5.273
 2011SOL    HW1 6932   0.021   2.595   5.249
 2011SOL    HW2 6933   6.969   2.682   5.368
 2012SOL     OW 6934   0.095   3.461   0.978
 2012SOL    HW1 6935   0.150   3.429   0.901
 2012SOL    HW2 6936   0.122   3.410   1.060
 2013SOL     OW 6937   4.312   1.931   2.517
 2013SOL    HW1 6938   4.267   1.957   2.432
 2013SOL    HW2 6939   4.245   1.888   2.578
 2014SOL     OW 6940   2.475   5.532   3.461
 2014SOL    HW1 6941   2.513   5.579   3.381
 2014SOL    HW2 6942   2.425   5.451   3.431
 2015SOL     OW 6943   2.954   6.570   0.058
 2015SOL    HW1 6944   3.043   6.590   0.098
 2015SOL    HW2 6945   2.908   6.498   0.110
 2016SOL     OW 6946   6.249   5.267   3.597
 2016SOL    HW1 6947   6.265   5.220   3.684
 2016SOL    HW2 6948   6.272   5.205   3.522
 2017SOL     OW 6949   2.286   4.922   2.065
 2017SOL    HW1 6950   2.254   4.829   2.081
 2017SOL    HW2 6951   2.346   4.950   2.140
 2018SOL     OW 6952   0.457   4.261   6.125
 2018SOL    HW1 6953   0.446   4.175   6.075
 2018SOL    HW2 6954   0.555   4.284   6.131
 2019SOL     OW 6955   5.620   1.829   2.902
 2019SOL    HW1 6956   5.530   1.806   2.865
 2019SOL    HW2 6957   5.618   1.921   2.941
 2020SOL     OW 6958   1.306   5.451   3.802
 2020SOL    HW1 6959   1.316   5.537   3.853
 2020SOL    HW2 6960   1.366   5.382   3.842
 2021SOL     OW 6961   1.524   0.017   1.833
 2021SOL    HW1 6962   1.523   6.983   1.919
 2021SOL    HW2 6963   1.434   0.058   1.818
 2022SOL     OW 6964   3.030   5.120   0.929
 2022SOL    HW1 6965   3.028   5.088   1.024
 2022SOL    HW2 6966   2.941   5.106   0.887
 2023SOL     OW 6967   6.459   1.685   6.589
 2023SOL    HW1 6968   6.411   1.604   6.554
 2023SOL    HW2 6969   6.516   1.724   6.517
 2024SOL     OW 6970   5.953   0.430   2.556
 2024SOL    HW1 6971   6.020   0.389   2.494
 2024SOL    HW2 6972   5.988   0.518   2.589
 2025SOL     OW 6973   6.179   0.630   0.739
 2025SOL    HW1 6974   6.208   0.538   0.766
 2025SOL    HW2 6975   6.142   0.628   0.646
 2026SOL     OW 6976   1.558   2.305   4.927
 2026SOL    HW1 6977   1.491   2.320   4.854
 2026SOL    HW2 6978   1.636   2.366   4.913
 2027SOL     OW 6979   1.227   1.545   2.299
 2027SOL    HW1 6980   1.287   1.578   2.372
 2027SOL    HW2 6981   1.161   1.616   2.276
 2028SOL     OW 6982   3.457   4.173   5.734
 2028SOL    HW1 6983   3.473   4.082   5.772
 2028SOL    HW2 6984   3.415   4.165   5.644
 2029SOL     OW 6985   1.815   0.503   0.484
 2029SOL    HW1 6986   1.815   0.583   0.425
 2029SOL    HW2 6987   1.768   0.427   0.438
 2030SOL     OW 6988   1.712   2.032   2.963
 2030SOL    HW1 6989   1.720   2.027   2.864
 2030SOL    HW2 6990   1.690   2.126   2.990
 2031SOL     OW 6991   5.089   7.005   2.694
 2031SOL    HW1 6992   5.188   7.000   2.692
 2031SOL    HW2 6993   5.051   6.913   2.707
 2032SOL     OW 6994   5.509   6.464   1.509
 2032SOL    HW1 6995   5.488   6.555   1.474
 2032SOL    HW2 6996   5.459   6.449   1.595
 2033SOL     OW 6997   6.784   5.597   6.800
 2033SOL    HW1 6998   6.691   5.561   6.792
 2033SOL    HW2 6999   6.780   5.687   6.843
 2034SOL     OW 7000   2.301   6.755   3.272
 2034SOL    HW1 7001   2.329   6.818   3.345
 2034SOL    HW2 7002   2.245   6.804   3.205
 2035SOL     OW 7003   0.449   2.921   1.142
 2035SOL    HW1 7004   0.364   2.972   1.151
 2035SOL    HW2 7005   0.524   2.972   1.183
 2036SOL     OW 7006   0.894   4.250   0.452
 2036SOL    HW1 7007   0.908   4.325   0.387
 2036SOL    HW2 7008   0.797   4.223   0.451
 2037SOL     OW 7009   0.231   2.001   6.051
 2037SOL    HW1 7010   0.273   1.910   6.060
 2037SOL    HW2 7011   0.256   2.056   6.131
 2038SOL     OW 7012   1.003   0.118   5.397
 2038SOL    HW1 7013   1.021   0.204   5.350
 2038SOL    HW2 7014   1.038   0.124   5.491
 2039SOL     OW 7015   1.085   5.282   2.330
 2039SOL    HW1 7016   1.177   5.294   2.294
 2039SOL    HW2 7017   1.070   5.185   2.349
 2040SOL     OW 7018   3.330   3.804   4.211
 2040SOL    HW1 7019   3.270   3.875   4.172
 2040SOL    HW2 7020   3.369   3.837   4.297
 2041SOL     OW 7021   5.846   3.385   0.261
 2041SOL    HW1 7022   5.754   3.347   0.254
 2041SOL    HW2 7023   5.839   3.484   0.274
 2042SOL     OW 7024   3.477   5.905   0.752
 2042SOL    HW1 7025   3.390   5.953   0.760
 2042SOL    HW2 7026   3.483   5.834   0.822
 2043SOL     OW 7027   4.442   4.495   2.603
 2043SOL    HW1 7028   4.368   4.484   2.536
 2043SOL    HW2 7029   4.428   4.580   2.654
 2044SOL     OW 7030   6.394   0.823   1.896
 2044SOL    HW1 7031   6.337   0.765   1.838
 2044SOL    HW2 7032   6.491   0.805   1.877
 2045SOL     OW 7033   2.602   5.624   6.112
 2045SOL    HW1 7034   2.565   5.668   6.194
 2045SOL    HW2 7035   2.528   5.575   6.065
 2046SOL     OW 7036   6.161   7.015   5.250
 2046SOL    HW1 7037   6.070   6.986   5.281
 2046SOL    HW2 7038   6.197   0.067   5.312
 2047SOL     OW 7039   5.360   2.531   0.307
 2047SOL    HW1 7040   5.440   2.589   0.322
 2047SOL    HW2 7041   5.279   2.575   0.344
 2048SOL     OW 7042   4.418   6.701   5.402
 2048SOL    HW1 7043   4.364   6.620   5.426
 2048SOL    HW2 7044   4.394   6.730   5.309
 2049SOL     OW 7045   4.745   6.090   0.603
 2049SOL    HW1 7046   4.820   6.128   0.550
 2049SOL    HW2 7047   4.771   6.086   0.700
 2050SOL     OW 7048   5.310   0.550   4.096
 2050SOL    HW1 7049   5.407   0.557   4.121
 2050SOL    HW2 7050   5.294   0.596   4.009
 2051SOL     OW 7051   2.627   5.262   0.726
 2051SOL    HW1 7052   2.671   5.192   0.782
 2051SOL    HW2 7053   2.614   5.345   0.780
 2052SOL     OW 7054   1.187   2.602   1.176
 2052SOL    HW1 7055   1.101   2.642   1.146
 2052SOL    HW2 7056   1.222   2.541   1.104
 2053SOL     OW 7057   5.196   1.037   0.082
 2053SOL    HW1 7058   5.209   1.014   0.178
 2053SOL    HW2 7059   5.131   0.972   0.041
 2054SOL     OW 7060   0.252   3.619   1.371
 2054SOL    HW1 7061   0.271   3.713   1.397
 2054SOL    HW2 7062   0.221   3.568   1.451
 2055SOL     OW 7063   6.275   2.057   3.884
 2055SOL    HW1 7064   6.306   1.963   3.890
 2055SOL    HW2 7065   6.292   2.092   3.791
 2056SOL     OW 7066   0.857   0.114   2.101
 2056SOL    HW1 7067   0.812   0.171   2.171
 2056SOL    HW2 7068   0.817   0.023   2.101
 2057SOL     OW 7069   6.619   2.261   3.941
 2057SOL    HW1 7070   6.619   2.213   3.853
 2057SOL    HW2 7071   6.556   2.216   4.004
 2058SOL     OW 7072   0.475   1.360   2.060
 2058SOL    HW1 7073   0.471   1.277   2.115
 2058SOL    HW2 7074   0.410   1.428   2.095
 2059SOL     OW 7075   1.571   0.819   6.685
 2059SOL    HW1 7076   1.632   0.898   6.671
 2059SOL    HW2 7077   1.625   0.740   6.715
 2060SOL     OW 7078   0.405   5.343   1.996
 2060SOL    HW1 7079   0.328   5.373   1.940
 2060SOL    HW2 7080   0.489   5.384   1.961
 2061SOL     OW 7081   0.941   1.278   1.434
 2061SOL    HW1 7082   0.859   1.237   1.394
 2061SOL    HW2 7083   0.950   1.372   1.402
 2062SOL     OW 7084   4.195   0.510   3.432
 2062SOL    HW1 7085   4.150   0.443   3.490
 2062SOL    HW2 7086   4.135   0.534   3.355
 2063SOL     OW 7087   2.781   1.854   0.618
 2063SOL    HW1 7088   2.742   1.817   0.534
 2063SOL    HW2 7089   2.716   1.916   0.662
 2064SOL     OW 7090   0.976   2.341   0.121
 2064SOL    HW1 7091   0.932   2.376   0.039
 2064SOL    HW2 7092   0.906   2.325   0.192
 2065SOL     OW 7093   6.307   2.926   2.180
 2065SOL    HW1 7094   6.361   2.844   2.201
 2065SOL    HW2 7095   6.316   2.991   2.255
 2066SOL     OW 7096   1.741   6.547   3.094
 2066SOL    HW1 7097   1.656   6.598   3.111
 2066SOL    HW2 7098   1.810   6.577   3.159
 2067SOL     OW 7099   7.004   6.976   0.869
 2067SOL    HW1 7100   6.919   6.980   0.922
 2067SOL    HW2 7101   0.035   6.893   0.891
 2068SOL     OW 7102   1.710   1.114   5.012
 2068SOL    HW1 7103   1.657   1.199   5.003
 2068SOL    HW2 7104   1.806   1.133   4.991
 2069SOL     OW 7105   0.665   1.964   2.040
 2069SOL    HW1 7106   0.624   1.879   2.007
 2069SOL    HW2 7107   0.704   2.014   1.963
 2070SOL     OW 7108   1.077   1.454   2.850
 2070SOL    HW1 7109   1.113   1.393   2.780
 2070SOL    HW2 7110   1.109   1.424   2.940
 2071SOL     OW 7111   1.352   6.408   5.101
 2071SOL    HW1 7112   1.401   6.403   5.188
 2071SOL    HW2 7113   1.300   6.493   5.096
 2072SOL     OW 7114   4.797   4.539   2.362
 2072SOL    HW1 7115   4.889   4.519   2.396
 2072SOL    HW2 7116   4.801   4.558   2.263
 2073SOL     OW 7117   3.438   6.113   5.292
 2073SOL    HW1 7118   3.413   6.197   5.243
 2073SOL    HW2 7119   3.355   6.069   5.326
 2074SOL     OW 7120   6.284   2.338   2.012
 2074SOL    HW1 7121   6.185   2.329   2.015
 2074SOL    HW2 7122   6.326   2.274   2.076
 2075SOL     OW 7123   3.714   3.518   6.360
 2075SOL    HW1 7124   3.806   3.541   6.329
 2075SOL    HW2 7125   3.719   3.448   6.432
 2076SOL     OW 7126   4.663   0.915   0.750
 2076SOL    HW1 7127   4.736   0.935   0.815
 2076SOL    HW2 7128   4.629   0.822   0.766
 2077SOL     OW 7129   5.409   1.520   3.717
 2077SOL    HW1 7130   5.340   1.479   3.777
 2077SOL    HW2 7131   5.433   1.611   3.751
 2078SOL     OW 7132   4.365   5.802   4.703
 2078SOL    HW1 7133   4.276   5.770   4.671
 2078SOL    HW2 7134   4.360   5.900   4.725
 2079SOL     OW 7135   5.678   1.110   3.451
 2079SOL    HW1 7136   5.661   1.206   3.474
 2079SOL    HW2 7137   5.733   1.067   3.523
 2080SOL     OW 7138   3.218   2.117   4.348
 2080SOL    HW1 7139   3.218   2.158   4.257
 2080SOL    HW2 7140   3.275   2.035   4.347
 2081SOL     OW 7141   0.788   5.829   4.617
 2081SOL    HW1 7142   0.726   5.860   4.545
 2081SOL    HW2 7143   0.760   5.867   4.705
 2082SOL     OW 7144   4.696   0.832   2.273
 2082SOL    HW1 7145   4.710   0.920   2.228
 2082SOL    HW2 7146   4.630   0.843   2.348
 2083SOL     OW 7147   3.529   4.963   5.589
 2083SOL    HW1 7148   3.523   4.971   5.688
 2083SOL    HW2 7149   3.446   4.922   5.553
 2084SOL     OW 7150   0.178   3.025   2.496
 2084SOL    HW1 7151   0.207   2.933   2.469
 2084SOL    HW2 7152   0.081   3.025   2.518
 2085SOL     OW 7153   5.264   6.344   6.399
 2085SOL    HW1 7154   5.224   6.283   6.468
 2085SOL    HW2 7155   5.210   6.429   6.395
 2086SOL     OW 7156   3.174   4.924   0.482
 2086SOL    HW1 7157   3.202   5.017   0.504
 2086SOL    HW2 7158   3.094   4.926   0.422
 2087SOL     OW 7159   6.281   6.034   3.791
 2087SOL    HW1 7160   6.209   6.078   3.844
 2087SOL    HW2 7161   6.352   6.100   3.768
 2088SOL     OW 7162   2.452   0.140   0.809
 2088SOL    HW1 7163   2.547   0.155   0.780
 2088SOL    HW2 7164   2.429   0.044   0.795
 2089SOL     OW 7165   3.160   0.868   6.601
 2089SOL    HW1 7166   3.257   0.889   6.594
 2089SOL    HW2 7167   3.108   0.927   6.539
 2090SOL     OW 7168   3.813   2.982   3.515
 2090SOL    HW1 7169   3.720   3.013   3.497
 2090SOL    HW2 7170   3.824   2.966   3.614
 2091SOL     OW 7171   1.966   5.240   0.513
 2091SOL    HW1 7172   1.917   5.153   0.508
 2091SOL    HW2 7173   1.961   5.275   0.607
 2092SOL     OW 7174   6.734   6.430   1.159
 2092SOL    HW1 7175   6.782   6.343   1.150
 2092SOL    HW2 7176   6.766   6.477   1.242
 2093SOL     OW 7177   0.718   2.307   1.295
 2093SOL    HW1 7178   0.653   2.333   1.366
 2093SOL    HW2 7179   0.681   2.328   1.205
 2094SOL     OW 7180   6.020   0.411   2.178
 2094SOL    HW1 7181   5.943   0.462   2.138
 2094SOL    HW2 7182   6.105   0.439   2.134
 2095SOL     OW 7183   0.251   4.801   4.902
 2095SOL    HW1 7184   0.220   4.854   4.823
 2095SOL    HW2 7185   0.226   4.849   4.986
 2096SOL     OW 7186   4.851   3.735   3.591
 2096SOL    HW1 7187   4.890   3.655   3.545
 2096SOL    HW2 7188   4.763   3.711   3.631
 2097SOL     OW 7189   6.666   3.238   0.014
 2097SOL    HW1 7190   6.598   3.254   6.960
 2097SOL    HW2 7191   6.683   3.324   0.063
 2098SOL     OW 7192   4.791   0.586   4.175
 2098SOL    HW1 7193   4.737   0.527   4.235
 2098SOL    HW2 7194   4.853   0.642   4.231
 2099SOL     OW 7195   3.062   1.773   3.564
 2099SOL    HW1 7196   3.016   1.833   3.629
 2099SOL    HW2 7197   3.133   1.721   3.611
 2100SOL     OW 7198   3.670   4.374   6.571
 2100SOL    HW1 7199   3.615   4.296   6.599
 2100SOL    HW2 7200   3.672   4.379   6.471
 2101SOL     OW 7201   6.829   0.319   2.753
 2101SOL    HW1 7202   6.880   0.381   2.813
 2101SOL    HW2 7203   6.890   0.283   2.682
 2102SOL     OW 7204   0.796   5.058   1.734
 2102SOL    HW1 7205   0.802   5.157   1.734
 2102SOL    HW2 7206   0.709   5.030   1.776
 2103SOL     OW 7207   2.393   3.898   6.258
 2103SOL    HW1 7208   2.470   3.891   6.321
 2103SOL    HW2 7209   2.378   3.994   6.234
 2104SOL     OW 7210   1.510   3.625   5.249
 2104SOL    HW1 7211   1.459   3.575   5.319
 2104SOL    HW2 7212   1.596   3.658   5.287
 2105SOL     OW 7213   6.187   5.749   1.055
 2105SOL    HW1 7214   6.215   5.792   0.970
 2105SOL    HW2 7215   6.261   5.690   1.088
 2106SOL     OW 7216   5.236   5.673   6.404
 2106SOL    HW1 7217   5.229   5.744   6.475
 2106SOL    HW2 7218   5.225   5.584   6.447
 2107SOL     OW 7219   3.209   4.392   6.979
 2107SOL    HW1 7220   3.201   4.442   6.893
 2107SOL    HW2 7221   3.206   4.293   6.961
 2108SOL     OW 7222   5.484   4.987   5.504
 2108SOL    HW1 7223   5.513   5.050   5.431
 2108SOL    HW2 7224   5.423   5.035   5.566
 2109SOL     OW 7225   5.907   6.363   2.447
 2109SOL    HW1 7226   5.877   6.356   2.542
 2109SOL    HW2 7227   5.851   6.302   2.390
 2110SOL     OW 7228   1.919   4.655   5.326
 2110SOL    HW1 7229   1.829   4.616   5.307
 2110SOL    HW2 7230   1.946   4.630   5.419
 2111SOL     OW 7231   1.728   2.336   6.964
 2111SOL    HW1 7232   1.761   2.413   0.001
 2111SOL    HW2 7233   1.639   2.307   6.998
 2112SOL     OW 7234   5.070   3.376   0.479
 2112SOL    HW1 7235   5.073   3.450   0.411
 2112SOL    HW2 7236   5.107   3.292   0.440
 2113SOL     OW 7237   6.547   1.557   3.365
 2113SOL    HW1 7238   6.569   1.653   3.350
 2113SOL    HW2 7239   6.463   1.549   3.418
 2114SOL     OW 7240   1.895   3.743   6.952
 2114SOL    HW1 7241   1.884   3.841   6.963
 2114SOL    HW2 7242   1.806   3.698   6.959
 2115SOL     OW 7243   3.195   5.266   2.087
 2115SOL    HW1 7244   3.173   5.178   2.044
 2115SOL    HW2 7245   3.143   5.276   2.171
 2116SOL     OW 7246   0.213   4.058   3.356
 2116SOL    HW1 7247   0.266   4.126   3.406
 2116SOL    HW2 7248   0.228   4.070   3.257
 2117SOL     OW 7249   0.029   5.088   0.141
 2117SOL    HW1 7250   6.957   5.126   0.159
 2117SOL    HW2 7251   0.099   5.143   0.187
 2118SOL     OW 7252   6.735   4.063   2.066
 2118SOL    HW1 7253   6.793   4.050   2.147
 2118SOL    HW2 7254   6.783   4.029   1.985
 2119SOL     OW 7255   3.218   6.008   0.748
 2119SOL    HW1 7256   3.230   6.071   0.671
 2119SOL    HW2 7257   3.123   5.976   0.750
 2120SOL     OW 7258   0.094   4.963   2.291
 2120SOL    HW1 7259   0.091   4.969   2.191
 2120SOL    HW2 7260   0.189   4.974   2.322
 2121SOL     OW 7261   0.535   4.337   4.758
 2121SOL    HW1 7262   0.618   4.390   4.777
 2121SOL    HW2 7263   0.469   4.395   4.710
 2122SOL     OW 7264   4.646   4.482   5.356
 2122SOL    HW1 7265   4.546   4.474   5.346
 2122SOL    HW2 7266   4.673   4.452   5.447
 2123SOL     OW 7267   4.698   4.642   3.737
 2123SOL    HW1 7268   4.795   4.655   3.719
 2123SOL    HW2 7269   4.685   4.561   3.794
 2124SOL     OW 7270   3.060   1.311   1.489
 2124SOL    HW1 7271   3.152   1.329   1.525
 2124SOL    HW2 7272   3.007   1.395   1.489
 2125SOL     OW 7273   2.846   7.005   0.945
 2125SOL    HW1 7274   2.792   0.049   0.888
 2125SOL    HW2 7275   2.807   7.002   1.037
 2126SOL     OW 7276   2.471   0.591   1.991
 2126SOL    HW1 7277   2.410   0.567   1.916
 2126SOL    HW2 7278   2.431   0.561   2.078
 2127SOL     OW 7279   5.606   3.016   4.949
 2127SOL    HW1 7280   5.650   3.105   4.956
 2127SOL    HW2 7281   5.536   3.018   4.878
 2128SOL     OW 7282   0.742   4.331   4.257
 2128SOL    HW1 7283   0.797   4.409   4.227
 2128SOL    HW2 7284   0.649   4.361   4.278
 2129SOL     OW 7285   3.961   2.199   5.793
 2129SOL    HW1 7286   3.947   2.228   5.698
 2129SOL    HW2 7287   3.874   2.204   5.842
 2130SOL     OW 7288   4.487   7.009   3.310
 2130SOL    HW1 7289   4.506   0.040   3.225
 2130SOL    HW2 7290   4.403   6.956   3.299
 2131SOL     OW 7291   5.288   1.892   6.622
 2131SOL    HW1 7292   5.356   1.962   6.643
 2131SOL    HW2 7293   5.262   1.843   6.705
 2132SOL     OW 7294   2.470   3.406   0.597
 2132SOL    HW1 7295   2.486   3.470   0.672
 2132SOL    HW2 7296   2.380   3.423   0.556
 2133SOL     OW 7297   2.902   3.544   6.020
 2133SOL    HW1 7298   2.857   3.627   6.052
 2133SOL    HW2 7299   2.842   3.466   6.034
 2134SOL     OW 7300   0.958   0.120   0.805
 2134SOL    HW1 7301   0.905   0.036   0.817
 2134SOL    HW2 7302   0.935   0.184   0.879
 2135SOL     OW 7303   6.485   4.420   5.510
 2135SOL    HW1 7304   6.532   4.420   5.422
 2135SOL    HW2 7305   6.467   4.326   5.539
 2136SOL     OW 7306   0.775   5.009   0.887
 2136SOL    HW1 7307   0.764   5.035   0.983
 2136SOL    HW2 7308   0.765   5.090   0.829
 2137SOL     OW 7309   1.668   6.598   4.457
 2137SOL    HW1 7310   1.602   6.544   4.404
 2137SOL    HW2 7311   1.713   6.539   4.524
 2138SOL     OW 7312   5.304   1.267   1.649
 2138SOL    HW1 7313   5.333   1.326   1.724
 2138SOL    HW2 7314   5.249   1.191   1.685
 2139SOL     OW 7315   2.829   0.329   5.473
 2139SOL    HW1 7316   2.802   0.345   5.568
 2139SOL    HW2 7317   2.891   0.402   5.443
 2140SOL     OW 7318   2.560   1.690   4.843
 2140SOL    HW1 7319   2.508   1.641   4.913
 2140SOL    HW2 7320   2.557   1.788   4.863
 2141SOL     OW 7321   6.800   3.033   3.271
 2141SOL    HW1 7322   6.739   3.105   3.304
 2141SOL    HW2 7323   6.893   3.069   3.261
 2142SOL     OW 7324   1.647   2.403   2.760
 2142SOL    HW1 7325   1.638   2.465   2.681
 2142SOL    HW2 7326   1.728   2.429   2.812
 2143SOL     OW 7327   0.928   4.726   6.193
 2143SOL    HW1 7328   0.902   4.793   6.263
 2143SOL    HW2 7329   0.903   4.634   6.225
 2144SOL     OW 7330   6.546   4.457   3.488
 2144SOL    HW1 7331   6.461   4.471   3.438
 2144SOL    HW2 7332   6.624   4.469   3.426
 2145SOL     OW 7333   4.587   1.234   3.656
 2145SOL    HW1 7334   4.507   1.259   3.601
 2145SOL    HW2 7335   4.566   1.244   3.753
 2146SOL     OW 7336   2.177   2.852   0.628
 2146SOL    HW1 7337   2.267   2.814   0.609
 2146SOL    HW2 7338   2.174   2.884   0.723
 2147SOL     OW 7339   5.987   6.894   4.280
 2147SOL    HW1 7340   6.033   6.875   4.193
 2147SOL    HW2 7341   5.916   6.963   4.265
 2148SOL     OW 7342   0.436   3.433   6.014
 2148SOL    HW1 7343   0.360   3.477   5.965
 2148SOL    HW2 7344   0.403   3.352   6.061
 2149SOL     OW 7345   1.213   6.983   0.180
 2149SOL    HW1 7346   1.129   0.017   0.161
 2149SOL    HW2 7347   1.189   6.901   0.232
 2150SOL     OW 7348   1.758   2.914   1.445
 2150SOL    HW1 7349   1.704   2.980   1.392
 2150SOL    HW2 7350   1.697   2.862   1.505
 2151SOL     OW 7351   0.714   5.221   0.734
 2151SOL    HW1 7352   0.617   5.220   0.757
 2151SOL    HW2 7353   0.749   5.315   0.742
 2152SOL     OW 7354   5.607   6.058   4.131
 2152SOL    HW1 7355   5.537   6.120   4.166
 2152SOL    HW2 7356   5.577   5.964   4.142
 2153SOL     OW 7357   4.976   0.931   3.512
 2153SOL    HW1 7358   4.896   0.955   3.566
 2153SOL    HW2 7359   4.956   0.945   3.415
 2154SOL     OW 7360   3.264   0.434   2.855
 2154SOL    HW1 7361   3.177   0.402   2.892
 2154SOL    HW2 7362   3.247   0.510   2.792
 2155SOL     OW 7363   3.863   0.931   0.793
 2155SOL    HW1 7364   3.856   0.837   0.826
 2155SOL    HW2 7365   3.926   0.982   0.852
 2156SOL     OW 7366   5.457   1.953   5.132
 2156SOL    HW1 7367   5.533   1.971   5.195
 2156SOL    HW2 7368   5.421   1.862   5.148
 2157SOL     OW 7369   3.365   6.393   4.269
 2157SOL    HW1 7370   3.308   6.388   4.351
 2157SOL    HW2 7371   3.352   6.311   4.214
 2158SOL     OW 7372   3.153   6.865   0.669
 2158SOL    HW1 7373   3.098   6.934   0.622
 2158SOL    HW2 7374   3.235   6.908   0.707
 2159SOL     OW 7375   0.700   0.887   5.554
 2159SOL    HW1 7376   0.783   0.927   5.593
 2159SOL    HW2 7377   0.632   0.872   5.626
 2160SOL     OW 7378   5.549   0.134   0.199
 2160SOL    HW1 7379   5.644   0.109   0.180
 2160SOL    HW2 7380   5.538   0.153   0.296
 2161SOL     OW 7381   1.447   2.645   1.277
 2161SOL    HW1 7382   1.356   2.622   1.243
 2161SOL    HW2 7383   1.448   2.740   1.306
 2162SOL     OW 7384   1.453   6.719   1.535
 2162SOL    HW1 7385   1.529   6.768   1.577
 2162SOL    HW2 7386   1.460   6.622   1.556
 2163SOL     OW 7387   1.992   2.947   2.824
 2163SOL    HW1 7388   1.995   2.928   2.726
 2163SOL    HW2 7389   2.061   3.014   2.848
 2164SOL     OW 7390   2.223   2.987   2.465
 2164SOL    HW1 7391   2.142   2.984   2.407
 2164SOL    HW2 7392   2.211   3.057   2.536
 2165SOL     OW 7393   6.656   1.369   4.302
 2165SOL    HW1 7394   6.755   1.360   4.316
 2165SOL    HW2 7395   6.622   1.444   4.359
 2166SOL     OW 7396   0.005   4.094   2.553
 2166SOL    HW1 7397   0.022   4.001   2.585
 2166SOL    HW2 7398   6.957   4.092   2.477
 2167SOL     OW 7399   2.502   1.580   2.757
 2167SOL    HW1 7400   2.424   1.639   2.736
 2167SOL    HW2 7401   2.583   1.636   2.776
 2168SOL     OW 7402   1.918   1.747   3.293
 2168SOL    HW1 7403   1.879   1.701   3.213
 2168SOL    HW2 7404   1.845   1.791   3.346
 2169SOL     OW 7405   0.202   6.998   1.346
 2169SOL    HW1 7406   0.103   7.015   1.340
 2169SOL    HW2 7407   0.248   0.026   1.270
 2170SOL     OW 7408   1.259   4.009   6.008
 2170SOL    HW1 7409   1.283   4.007   5.911
 2170SOL    HW2 7410   1.192   3.937   6.027
 2171SOL     OW 7411   6.796   5.943   1.205
 2171SOL    HW1 7412   6.756   5.910   1.119
 2171SOL    HW2 7413   6.728   5.996   1.255
 2172SOL     OW 7414   1.670   1.446   5.068
 2172SOL    HW1 7415   1.650   1.526   5.124
 2172SOL    HW2 7416   1.766   1.419   5.081
 2173SOL     OW 7417   5.569   1.147   5.710
 2173SOL    HW1 7418   5.472   1.166   5.696
 2173SOL    HW2 7419   5.589   1.150   5.808
 2174SOL     OW 7420   5.683   0.693   5.938
 2174SOL    HW1 7421   5.592   0.681   5.898
 2174SOL    HW2 7422   5.751   0.643   5.885
 2175SOL     OW 7423   2.650   4.010   5.298
 2175SOL    HW1 7424   2.618   4.032   5.390
 2175SOL    HW2 7425   2.573   4.014   5.234
 2176SOL     OW 7426   5.355   2.354   2.396
 2176SOL    HW1 7427   5.397   2.363   2.487
 2176SOL    HW2 7428   5.258   2.331   2.407
 2177SOL     OW 7429   0.390   0.750   4.897
 2177SOL    HW1 7430   0.439   0.779   4.815
 2177SOL    HW2 7431   0.331   0.672   4.874
 2178SOL     OW 7432   1.356   2.120   2.816
 2178SOL    HW1 7433   1.278   2.060   2.799
 2178SOL    HW2 7434   1.441   2.071   2.798
 2179SOL     OW 7435   1.866   4.333   6.282
 2179SOL    HW1 7436   1.965   4.324   6.273
 2179SOL    HW2 7437   1.841   4.430   6.280
 2180SOL     OW 7438   0.635   6.144   3.195
 2180SOL    HW1 7439   0.551   6.198   3.199
 2180SOL    HW2 7440   0.697   6.183   3.126
 2181SOL     OW 7441   3.579   4.901   4.735
 2181SOL    HW1 7442   3.554   4.807   4.712
 2181SOL    HW2 7443   3.513   4.964   4.693
 2182SOL     OW 7444   0.062   6.407   2.517
 2182SOL    HW1 7445   0.136   6.473   2.522
 2182SOL    HW2 7446   0.025   6.390   2.609
 2183SOL     OW 7447   3.194   3.454   6.437
 2183SOL    HW1 7448   3.099   3.432   6.460
 2183SOL    HW2 7449   3.245   3.369   6.423
 2184SOL     OW 7450   6.307   1.442   0.287
 2184SOL    HW1 7451   6.300   1.422   0.385
 2184SOL    HW2 7452   6.309   1.356   0.236
 2185SOL     OW 7453   1.032   0.561   6.484
 2185SOL    HW1 7454   0.962   0.570   6.554
 2185SOL    HW2 7455   0.998   0.597   6.397
 2186SOL     OW 7456   6.670   5.551   5.404
 2186SOL    HW1 7457   6.651   5.638   5.359
 2186SOL    HW2 7458   6.691   5.481   5.336
 2187SOL     OW 7459   6.971   5.547   1.852
 2187SOL    HW1 7460   6.978   5.646   1.836
 2187SOL    HW2 7461   6.916   5.506   1.779
 2188SOL     OW 7462   2.729   0.738   0.598
 2188SOL    HW1 7463   2.689   0.647   0.609
 2188SOL    HW2 7464   2.805   0.734   0.534
 2189SOL     OW 7465   2.410   1.486   1.298
 2189SOL    HW1 7466   2.441   1.580   1.290
 2189SOL    HW2 7467   2.435   1.436   1.215
 2190SOL     OW 7468   6.464   3.966   1.373
 2190SOL    HW1 7469   6.369   3.934   1.376
 2190SOL    HW2 7470   6.506   3.938   1.286
 2191SOL     OW 7471   2.954   0.240   6.383
 2191SOL    HW1 7472   3.011   0.164   6.352
 2191SOL    HW2 7473   2.862   0.206   6.403
 2192SOL     OW 7474   5.267   1.815   2.133
 2192SOL    HW1 7475   5.252   1.824   2.034
 2192SOL    HW2 7476   5.290   1.904   2.172
 2193SOL     OW 7477   1.724   6.754   5.653
 2193SOL    HW1 7478   1.749   6.822   5.721
 2193SOL    HW2 7479   1.806   6.721   5.607
 2194SOL     OW 7480   0.818   4.140   6.117
 2194SOL    HW1 7481   0.796   4.237   6.117
 2194SOL    HW2 7482   0.917   4.128   6.115
 2195SOL     OW 7483   0.866   3.463   4.868
 2195SOL    HW1 7484   0.867   3.365   4.889
 2195SOL    HW2 7485   0.786   3.484   4.811
 2196SOL     OW 7486   3.032   0.494   6.841
 2196SOL    HW1 7487   3.128   0.473   6.824
 2196SOL    HW2 7488   2.992   0.425   6.902
 2197SOL     OW 7489   3.363   5.787   5.598
 2197SOL    HW1 7490   3.318   5.871   5.632
 2197SOL    HW2 7491   3.325   5.708   5.645
 2198SOL     OW 7492   1.078   0.954   0.120
 2198SOL    HW1 7493   1.067   0.855   0.132
 2198SOL    HW2 7494   1.044   0.980   0.030
 2199SOL     OW 7495   4.057   6.683   4.516
 2199SOL    HW1 7496   4.096   6.597   4.483
 2199SOL    HW2 7497   4.120   6.726   4.580
 2200SOL     OW 7498   2.740   2.083   3.930
 2200SOL    HW1 7499   2.745   2.020   3.852
 2200SOL    HW2 7500   2.645   2.114   3.941
 2201SOL     OW 7501   5.981   3.818   4.676
 2201SOL    HW1 7502   5.918   3.747   4.642
 2201SOL    HW2 7503   6.018   3.869   4.598
 2202SOL     OW 7504   3.364   6.982   2.096
 2202SOL    HW1 7505   3.380   0.054   2.137
 2202SOL    HW2 7506   3.274   6.981   2.052
 2203SOL     OW 7507   2.212   4.879   1.386
 2203SOL    HW1 7508   2.306   4.914   1.392
 2203SOL    HW2 7509   2.160   4.908   1.466
 2204SOL     OW 7510   6.047   3.217   0.661
 2204SOL    HW1 7511   5.964   3.211   0.607
 2204SOL    HW2 7512   6.121   3.166   0.616
 2205SOL     OW 7513   0.292   5.379   0.871
 2205SOL    HW1 7514   0.312   5.457   0.930
 2205SOL    HW2 7515   0.193   5.365   0.866
 2206SOL     OW 7516   4.188   2.435   5.932
 2206SOL    HW1 7517   4.112   2.438   5.867
 2206SOL    HW2 7518   4.154   2.407   6.022
 2207SOL     OW 7519   4.765   5.773   0.813
 2207SOL    HW1 7520   4.844   5.832   0.797
 2207SOL    HW2 7521   4.681   5.826   0.806
 2208SOL     OW 7522   6.642   6.589   3.474
 2208SOL    HW1 7523   6.697   6.519   3.519
 2208SOL    HW2 7524   6.703   6.658   3.435
 2209SOL     OW 7525   2.897   5.732   4.078
 2209SOL    HW1 7526   2.866   5.645   4.038
 2209SOL    HW2 7527   2.845   5.807   4.038
 2210SOL     OW 7528   4.639   0.269   1.531
 2210SOL    HW1 7529   4.613   0.194   1.592
 2210SOL    HW2 7530   4.664   0.232   1.441
 2211SOL     OW 7531   1.028   1.579   1.466
 2211SOL    HW1 7532   0.944   1.631   1.475
 2211SOL    HW2 7533   1.107   1.641   1.471
 2212SOL     OW 7534   3.088   5.718   6.666
 2212SOL    HW1 7535   3.100   5.638   6.608
 2212SOL    HW2 7536   3.121   5.800   6.618
 2213SOL     OW 7537   3.632   2.069   5.234
 2213SOL    HW1 7538   3.536   2.086   5.208
 2213SOL    HW2 7539   3.692   2.111   5.167
 2214SOL     OW 7540   4.423   4.151   6.641
 2214SOL    HW1 7541   4.388   4.057   6.649
 2214SOL    HW2 7542   4.365   4.212   6.695
 2215SOL     OW 7543   3.995   0.121   6.765
 2215SOL    HW1 7544   4.045   0.204   6.743
 2215SOL    HW2 7545   3.905   0.145   6.802
 2216SOL     OW 7546   1.047   6.619   6.438
 2216SOL    HW1 7547   0.993   6.665   6.509
 2216SOL    HW2 7548   1.018   6.524   6.431
 2217SOL     OW 7549   4.552   1.283   3.914
 2217SOL    HW1 7550   4.529   1.375   3.946
 2217SOL    HW2 7551   4.488   1.217   3.953
 2218SOL     OW 7552   0.429   5.787   5.762
 2218SOL    HW1 7553   0.400   5.774   5.856
 2218SOL    HW2 7554   0.350   5.811   5.705
 2219SOL     OW 7555   5.371   0.901   1.247
 2219SOL    HW1 7556   5.355   0.951   1.332
 2219SOL    HW2 7557   5.419   0.960   1.182
 2220SOL     OW 7558   0.261   6.239   4.620
 2220SOL    HW1 7559   0.178   6.284   4.587
 2220SOL    HW2 7560   0.331   6.308   4.638
 2221SOL     OW 7561   6.474   1.011   4.247
 2221SOL    HW1 7562   6.412   0.990   4.171
 2221SOL    HW2 7563   6.566   0.982   4.223
 2222SOL     OW 7564   4.916   0.616   2.303
 2222SOL    HW1 7565   4.863   0.699   2.287
 2222SOL    HW2 7566   4.883   0.570   2.386
 2223SOL     OW 7567   0.715   6.464   5.446
 2223SOL    HW1 7568   0.700   6.486   5.542
 2223SOL    HW2 7569   0.772   6.382   5.438
 2224SOL     OW 7570   5.780   3.659   0.268
 2224SOL    HW1 7571   5.823   3.687   0.354
 2224SOL    HW2 7572   5.723   3.734   0.234
 2225SOL     OW 7573   6.601   6.046   2.165
 2225SOL    HW1 7574   6.601   5.958   2.117
 2225SOL    HW2 7575   6.644   6.115   2.107
 2226SOL     OW 7576   2.746   4.863   0.169
 2226SOL    HW1 7577   2.745   4.783   0.229
 2226SOL    HW2 7578   2.676   4.853   0.098
 2227SOL     OW 7579   3.897   1.950   1.980
 2227SOL    HW1 7580   3.944   2.006   1.911
 2227SOL    HW2 7581   3.799   1.966   1.974
 2228SOL     OW 7582   5.520   5.528   0.024
 2228SOL    HW1 7583   5.554   5.584   6.966
 2228SOL    HW2 7584   5.441   5.573   0.066
 2229SOL     OW 7585   3.383   3.209   3.804
 2229SOL    HW1 7586   3.477   3.231   3.829
 2229SOL    HW2 7587   3.353   3.269   3.730
 2230SOL     OW 7588   5.909   0.437   6.739
 2230SOL    HW1 7589   6.009   0.424   6.736
 2230SOL    HW2 7590   5.865   0.371   6.679
 2231SOL     OW 7591   1.289   6.994   6.215
 2231SOL    HW1 7592   1.243   0.034   6.149
 2231SOL    HW2 7593   1.255   6.900   6.206
 2232SOL     OW 7594   1.477   0.754   5.283
 2232SOL    HW1 7595   1.535   0.829   5.250
 2232SOL    HW2 7596   1.389   0.757   5.235
 2233SOL     OW 7597   3.414   4.885   0.780
 2233SOL    HW1 7598   3.324   4.844   0.765
 2233SOL    HW2 7599   3.484   4.827   0.738
 2234SOL     OW 7600   5.077   1.865   1.896
 2234SOL    HW1 7601   5.074   1.931   1.972
 2234SOL    HW2 7602   5.129   1.905   1.821
 2235SOL     OW 7603   1.156   1.963   3.029
 2235SOL    HW1 7604   1.160   1.874   3.074
 2235SOL    HW2 7605   1.151   1.951   2.930
 2236SOL     OW 7606   2.513   4.857   5.334
 2236SOL    HW1 7607   2.577   4.923   5.373
 2236SOL    HW2 7608   2.423   4.870   5.374
 2237SOL     OW 7609   6.069   5.222   5.579
 2237SOL    HW1 7610   6.119   5.240   5.494
 2237SOL    HW2 7611   6.132   5.181   5.646
 2238SOL     OW 7612   5.992   3.605   1.724
 2238SOL    HW1 7613   6.067   3.545   1.753
 2238SOL    HW2 7614   5.980   3.678   1.791
 2239SOL     OW 7615   4.898   6.755   3.123
 2239SOL    HW1 7616   4.951   6.837   3.105
 2239SOL    HW2 7617   4.951   6.693   3.181
 2240SOL     OW 7618   4.706   5.256   2.612
 2240SOL    HW1 7619   4.630   5.311   2.579
 2240SOL    HW2 7620   4.720   5.178   2.551
 2241SOL     OW 7621   0.673   1.580   2.574
 2241SOL    HW1 7622   0.596   1.575   2.637
 2241SOL    HW2 7623   0.747   1.521   2.607
 2242SOL     OW 7624   5.439   2.777   3.615
 2242SOL    HW1 7625   5.395   2.723   3.687
 2242SOL    HW2 7626   5.519   2.824   3.653
 2243SOL     OW 7627   2.217   6.922   0.841
 2243SOL    HW1 7628   2.283   6.920   0.766
 2243SOL    HW2 7629   2.176   6.831   0.851
 2244SOL     OW 7630   2.293   1.155   0.714
 2244SOL    HW1 7631   2.347   1.232   0.682
 2244SOL    HW2 7632   2.208   1.150   0.662
 2245SOL     OW 7633   0.227   0.503   0.277
 2245SOL    HW1 7634   0.148   0.562   0.291
 2245SOL    HW2 7635   0.294   0.518   0.350
 2246SOL     OW 7636   3.162   1.781   5.425
 2246SOL    HW1 7637   3.219   1.861   5.441
 2246SOL    HW2 7638   3.117   1.789   5.336
 2247SOL     OW 7639   3.305   2.906   2.663
 2247SOL    HW1 7640   3.355   2.866   2.586
 2247SOL    HW2 7641   3.359   2.896   2.746
 2248SOL     OW 7642   4.663   4.076   5.193
 2248SOL    HW1 7643   4.714   4.106   5.274
 2248SOL    HW2 7644   4.721   4.016   5.138
 2249SOL     OW 7645   1.330   6.169   3.379
 2249SOL    HW1 7646   1.245   6.180   3.431
 2249SOL    HW2 7647   1.408   6.199   3.435
 2250SOL     OW 7648   4.484   5.575   6.267
 2250SOL    HW1 7649   4.537   5.525   6.335
 2250SOL    HW2 7650   4.527   5.566   6.177
 2251SOL     OW 7651   5.443   6.051   5.373
 2251SOL    HW1 7652   5.526   6.000   5.397
 2251SOL    HW2 7653   5.467   6.128   5.315
 2252SOL     OW 7654   4.293   2.020   2.258
 2252SOL    HW1 7655   4.240   2.094   2.299
 2252SOL    HW2 7656   4.382   2.056   2.227
 2253SOL     OW 7657   0.680   3.523   1.110
 2253SOL    HW1 7658   0.695   3.619   1.131
 2253SOL    HW2 7659   0.615   3.484   1.175
 2254SOL     OW 7660   3.772   3.991   2.608
 2254SOL    HW1 7661   3.796   3.894   2.613
 2254SOL    HW2 7662   3.815   4.040   2.684
 2255SOL     OW 7663   3.062   3.260   6.090
 2255SOL    HW1 7664   2.994   3.294   6.155
 2255SOL    HW2 7665   3.022   3.256   5.999
 2256SOL     OW 7666   4.971   0.240   1.438
 2256SOL    HW1 7667   4.961   0.190   1.524
 2256SOL    HW2 7668   4.938   0.334   1.450
 2257SOL     OW 7669   6.938   1.155   5.308
 2257SOL    HW1 7670   6.961   1.189   5.217
 2257SOL    HW2 7671   6.955   1.227   5.375
 2258SOL     OW 7672   2.875   5.434   4.046
 2258SOL    HW1 7673   2.863   5.382   4.131
 2258SOL    HW2 7674   2.913   5.374   3.975
 2259SOL     OW 7675   5.988   2.223   4.796
 2259SOL    HW1 7676   5.901   2.213   4.844
 2259SOL    HW2 7677   6.060   2.179   4.848
 2260SOL     OW 7678   0.717   4.204   1.554
 2260SOL    HW1 7679   0.683   4.253   1.473
 2260SOL    HW2 7680   0.756   4.117   1.526
 2261SOL     OW 7681   5.280   3.743   6.605
 2261SOL    HW1 7682   5.228   3.829   6.598
 2261SOL    HW2 7683   5.246   3.679   6.537
 2262SOL     OW 7684   6.449   0.184   4.699
 2262SOL    HW1 7685   6.529   0.200   4.756
 2262SOL    HW2 7686   6.447   0.089   4.668
 2263SOL     OW 7687   2.143   4.511   6.472
 2263SOL    HW1 7688   2.101   4.507   6.563
 2263SOL    HW2 7689   2.111   4.593   6.424
 2264SOL     OW 7690   3.023   0.139   5.732
 2264SOL    HW1 7691   3.122   0.139   5.719
 2264SOL    HW2 7692   3.000   0.187   5.817
 2265SOL     OW 7693   0.050   6.338   4.494
 2265SOL    HW1 7694   0.064   6.435   4.514
 2265SOL    HW2 7695   0.040   6.325   4.396
 2266SOL     OW 7696   4.173   2.946   6.995
 2266SOL    HW1 7697   4.123   2.956   0.063
 2266SOL    HW2 7698   4.113   2.968   6.918
 2267SOL     OW 7699   4.969   2.631   4.386
 2267SOL    HW1 7700   4.965   2.533   4.366
 2267SOL    HW2 7701   4.876   2.666   4.401
 2268SOL     OW 7702   1.110   5.530   4.780
 2268SOL    HW1 7703   1.207   5.547   4.797
 2268SOL    HW2 7704   1.067   5.496   4.863
 2269SOL     OW 7705   1.618   2.518   5.455
 2269SOL    HW1 7706   1.664   2.430   5.468
 2269SOL    HW2 7707   1.539   2.523   5.516
 2270SOL     OW 7708   4.811   1.695   6.031
 2270SOL    HW1 7709   4.762   1.664   6.112
 2270SOL    HW2 7710   4.856   1.782   6.051
 2271SOL     OW 7711   4.571   5.681   5.253
 2271SOL    HW1 7712   4.584   5.758   5.316
 2271SOL    HW2 7713   4.587   5.712   5.159
 2272SOL     OW 7714   5.329   1.339   6.181
 2272SOL    HW1 7715   5.367   1.274   6.247
 2272SOL    HW2 7716   5.350   1.433   6.210
 2273SOL     OW 7717   0.680   2.441   2.898
 2273SOL    HW1 7718   0.727   2.419   2.812
 2273SOL    HW2 7719   0.649   2.357   2.942
 2274SOL     OW 7720   0.498   1.673   6.994
 2274SOL    HW1 7721   0.587   1.697   6.954
 2274SOL    HW2 7722   0.509   1.661   0.075
 2275SOL     OW 7723   5.739   4.797   3.033
 2275SOL    HW1 7724   5.709   4.802   2.938
 2275SOL    HW2 7725   5.661   4.773   3.091
 2276SOL     OW 7726   1.857   2.062   1.154
 2276SOL    HW1 7727   1.852   2.161   1.144
 2276SOL    HW2 7728   1.899   2.022   1.073
 2277SOL     OW 7729   3.784   3.467   3.477
 2277SOL    HW1 7730   3.795   3.566   3.486
 2277SOL    HW2 7731   3.688   3.443   3.486
 2278SOL     OW 7732   0.663   2.702   3.752
 2278SOL    HW1 7733   0.751   2.667   3.720
 2278SOL    HW2 7734   0.661   2.702   3.852
 2279SOL     OW 7735   0.622   5.688   5.601
 2279SOL    HW1 7736   0.700   5.658   5.655
 2279SOL    HW2 7737   0.549   5.720   5.662
 2280SOL     OW 7738   4.758   1.721   5.550
 2280SOL    HW1 7739   4.699   1.789   5.505
 2280SOL    HW2 7740   4.853   1.738   5.525
 2281SOL     OW 7741   5.861   6.693   2.699
 2281SOL    HW1 7742   5.852   6.791   2.682
 2281SOL    HW2 7743   5.876   6.678   2.797
 2282SOL     OW 7744   4.155   6.664   5.626
 2282SOL    HW1 7745   4.192   6.755   5.642
 2282SOL    HW2 7746   4.138   6.651   5.528
 2283SOL     OW 7747   0.252   0.492   3.926
 2283SOL    HW1 7748   0.343   0.526   3.951
 2283SOL    HW2 7749   0.197   0.480   4.009
 2284SOL     OW 7750   0.776   2.525   0.047
 2284SOL    HW1 7751   0.766   2.616   0.006
 2284SOL    HW2 7752   0.791   2.534   0.146
 2285SOL     OW 7753   1.717   4.104   6.419
 2285SOL    HW1 7754   1.806   4.103   6.464
 2285SOL    HW2 7755   1.729   4.104   6.320
 2286SOL     OW 7756   4.945   5.396   3.388
 2286SOL    HW1 7757   4.967   5.316   3.333
 2286SOL    HW2 7758   4.847   5.397   3.408
 2287SOL     OW 7759   1.709   1.225   3.273
 2287SOL    HW1 7760   1.677   1.254   3.183
 2287SOL    HW2 7761   1.696   1.126   3.282
 2288SOL     OW 7762   0.107   5.857   2.514
 2288SOL    HW1 7763   0.078   5.801   2.437
 2288SOL    HW2 7764   0.029   5.907   2.552
 2289SOL     OW 7765   0.385   5.334   1.182
 2289SOL    HW1 7766   0.319   5.306   1.252
 2289SOL    HW2 7767   0.360   5.424   1.147
 2290SOL     OW 7768   0.687   5.674   0.395
 2290SOL    HW1 7769   0.699   5.723   0.309
 2290SOL    HW2 7770   0.696   5.576   0.379
 2291SOL     OW 7771   2.608   1.654   0.185
 2291SOL    HW1 7772   2.529   1.609   0.144
 2291SOL    HW2 7773   2.662   1.588   0.237
 2292SOL     OW 7774   1.165   1.423   4.988
 2292SOL    HW1 7775   1.148   1.516   4.955
 2292SOL    HW2 7776   1.111   1.358   4.934
 2293SOL     OW 7777   5.476   4.311   2.636
 2293SOL    HW1 7778   5.533   4.231   2.615
 2293SOL    HW2 7779   5.384   4.281   2.659
 2294SOL     OW 7780   3.496   6.281   6.590
 2294SOL    HW1 7781   3.462   6.375   6.580
 2294SOL    HW2 7782   3.450   6.236   6.666
 2295SOL     OW 7783   0.566   2.342   1.057
 2295SOL    HW1 7784   0.521   2.417   1.105
 2295SOL    HW2 7785   0.521   2.256   1.079
 2296SOL     OW 7786   2.780   6.451   0.240
 2296SOL    HW1 7787   2.825   6.448   0.330
 2296SOL    HW2 7788   2.732   6.538   0.231
 2297SOL     OW 7789   4.274   6.248   5.720
 2297SOL    HW1 7790   4.179   6.277   5.734
 2297SOL    HW2 7791   4.331   6.286   5.793
 2298SOL     OW 7792   3.995   2.947   6.776
 2298SOL    HW1 7793   4.033   2.924   6.686
 2298SOL    HW2 7794   3.934   3.026   6.768
 2299SOL     OW 7795   4.534   5.991   0.478
 2299SOL    HW1 7796   4.536   5.897   0.446
 2299SOL    HW2 7797   4.616   6.011   0.531
 2300SOL     OW 7798   1.487   4.746   1.590
 2300SOL    HW1 7799   1.504   4.735   1.688
 2300SOL    HW2 7800   1.550   4.689   1.538
 2301SOL     OW 7801   4.091   3.675   1.783
 2301SOL    HW1 7802   4.038   3.696   1.865
 2301SOL    HW2 7803   4.032   3.631   1.716
 2302SOL     OW 7804   2.399   5.664   2.976
 2302SOL    HW1 7805   2.349   5.716   3.045
 2302SOL    HW2 7806   2.467   5.606   3.021
 2303SOL     OW 7807   0.792   3.190   4.781
 2303SOL    HW1 7808   0.726   3.221   4.712
 2303SOL    HW2 7809   0.863   3.135   4.736
 2304SOL     OW 7810   2.934   1.215   4.019
 2304SOL    HW1 7811   3.024   1.190   4.054
 2304SOL    HW2 7812   2.875   1.135   4.016
 2305SOL     OW 7813   3.917   5.495   2.176
 2305SOL    HW1 7814   3.875   5.435   2.107
 2305SOL    HW2 7815   3.926   5.587   2.139
 2306SOL     OW 7816   0.927   3.494   0.887
 2306SOL    HW1 7817   1.001   3.505   0.820
 2306SOL    HW2 7818   0.839   3.501   0.841
 2307SOL     OW 7819   0.793   2.524   2.519
 2307SOL    HW1 7820   0.825   2.602   2.572
 2307SOL    HW2 7821   0.795   2.441   2.575
 2308SOL     OW 7822   0.154   0.161   0.008
 2308SOL    HW1 7823   0.081   0.206   0.059
 2308SOL    HW2 7824   0.132   0.064   7.016
 2309SOL     OW 7825   3.648   5.074   6.094
 2309SOL    HW1 7826   3.590   5.019   6.155
 2309SOL    HW2 7827   3.727   5.020   6.066
 2310SOL     OW 7828   5.344   1.356   2.277
 2310SOL    HW1 7829   5.247   1.349   2.301
 2310SOL    HW2 7830   5.365   1.449   2.248
 2311SOL     OW 7831   3.004   0.344   2.956
 2311SOL    HW1 7832   2.991   0.263   2.899
 2311SOL    HW2 7833   2.932   0.411   2.934
 2312SOL     OW 7834   2.741   0.913   2.764
 2312SOL    HW1 7835   2.776   0.841   2.823
 2312SOL    HW2 7836   2.811   0.984   2.752
 2313SOL     OW 7837   5.415   3.935   1.846
 2313SOL    HW1 7838   5.345   3.980   1.902
 2313SOL    HW2 7839   5.388   3.841   1.830
 2314SOL     OW 7840   6.241   0.017   2.906
 2314SOL    HW1 7841   6.168   0.072   2.866
 2314SOL    HW2 7842   6.229   6.939   2.880
 2315SOL     OW 7843   4.235   5.697   5.164
 2315SOL    HW1 7844   4.324   5.738   5.187
 2315SOL    HW2 7845   4.199   5.742   5.082
 2316SOL     OW 7846   2.945   2.006   6.063
 2316SOL    HW1 7847   3.020   2.004   6.129
 2316SOL    HW2 7848   2.966   1.943   5.987
 2317SOL     OW 7849   6.783   6.046   3.509
 2317SOL    HW1 7850   6.765   5.949   3.522
 2317SOL    HW2 7851   6.736   6.099   3.580
 2318SOL     OW 7852   1.644   4.976   5.208
 2318SOL    HW1 7853   1.628   4.885   5.248
 2318SOL    HW2 7854   1.743   4.992   5.202
 2319SOL     OW 7855   2.192   5.015   3.811
 2319SOL    HW1 7856   2.244   4.954   3.751
 2319SOL    HW2 7857   2.106   4.970   3.837
 2320SOL     OW 7858   1.510   2.680   5.279
 2320SOL    HW1 7859   1.564   2.746   5.227
 2320SOL    HW2 7860   1.561   2.650   5.359
 2321SOL     OW 7861   2.496   4.976   5.966
 2321SOL    HW1 7862   2.398   4.959   5.977
 2321SOL    HW2 7863   2.512   5.072   5.944
 2322SOL     OW 7864   0.933   3.653   1.986
 2322SOL    HW1 7865   0.986   3.721   1.935
 2322SOL    HW2 7866   0.933   3.677   2.083
 2323SOL     OW 7867   2.399   5.001   1.724
 2323SOL    HW1 7868   2.316   5.027   1.774
 2323SOL    HW2 7869   2.479   5.042   1.769
 2324SOL     OW 7870   0.010   5.398   2.090
 2324SOL    HW1 7871   0.088   5.351   2.130
 2324SOL    HW2 7872   0.041   5.464   2.022
 2325SOL     OW 7873   0.145   5.014   1.695
 2325SOL    HW1 7874   0.187   5.104   1.696
 2325SOL    HW2 7875   0.212   4.946   1.664
 2326SOL     OW 7876   1.357   0.654   6.383
 2326SOL    HW1 7877   1.324   0.573   6.432
 2326SOL    HW2 7878   1.356   0.733   6.445
 2327SOL     OW 7879   6.859   0.601   2.910
 2327SOL    HW1 7880   6.880   0.654   2.992
 2327SOL    HW2 7881   6.929   0.619   2.840
 2328SOL     OW 7882   2.366   2.508   2.439
 2328SOL    HW1 7883   2.371   2.427   2.496
 2328SOL    HW2 7884   2.361   2.590   2.497
 2329SOL     OW 7885   0.776   5.503   3.223
 2329SOL    HW1 7886   0.802   5.581   3.280
 2329SOL    HW2 7887   0.686   5.520   3.182
 2330SOL     OW 7888   6.611   2.453   0.447
 2330SOL    HW1 7889   6.559   2.377   0.486
 2330SOL    HW2 7890   6.708   2.440   0.465
 2331SOL     OW 7891   4.087   6.137   0.250
 2331SOL    HW1 7892   4.060   6.043   0.228
 2331SOL    HW2 7893   4.153   6.136   0.325
 2332SOL     OW 7894   5.136   6.585   6.331
 2332SOL    HW1 7895   5.130   6.679   6.364
 2332SOL    HW2 7896   5.075   6.573   6.253
 2333SOL     OW 7897   0.243   4.618   2.434
 2333SOL    HW1 7898   0.245   4.633   2.533
 2333SOL    HW2 7899   0.157   4.655   2.398
 2334SOL     OW 7900   2.699   0.882   5.720
 2334SOL    HW1 7901   2.663   0.961   5.672
 2334SOL    HW2 7902   2.735   0.910   5.809
 2335SOL     OW 7903   6.041   1.601   3.231
 2335SOL    HW1 7904   6.013   1.542   3.307
 2335SOL    HW2 7905   6.025   1.553   3.144
 2336SOL     OW 7906   2.355   1.821   2.693
 2336SOL    HW1 7907   2.295   1.772   2.756
 2336SOL    HW2 7908   2.305   1.843   2.609
 2337SOL     OW 7909   4.227   2.078   1.320
 2337SOL    HW1 7910   4.262   2.140   1.390
 2337SOL    HW2 7911   4.303   2.025   1.282
 2338SOL     OW 7912   0.245   4.413   4.266
 2338SOL    HW1 7913   0.243   4.475   4.188
 2338SOL    HW2 7914   0.229   4.319   4.235
 2339SOL     OW 7915   4.039   3.163   2.865
 2339SOL    HW1 7916   3.993   3.143   2.779
 2339SOL    HW2 7917   4.132   3.127   2.862
 2340SOL     OW 7918   1.725   5.513   6.218
 2340SOL    HW1 7919   1.699   5.417   6.232
 2340SOL    HW2 7920   1.644   5.567   6.196
 2341SOL     OW 7921   2.333   4.431   3.716
 2341SOL    HW1 7922   2.337   4.343   3.764
 2341SOL    HW2 7923   2.411   4.487   3.745
 2342SOL     OW 7924   2.874   0.165   3.761
 2342SOL    HW1 7925   2.845   0.259   3.744
 2342SOL    HW2 7926   2.926   0.161   3.846
 2343SOL     OW 7927   1.513   6.536   2.267
 2343SOL    HW1 7928   1.568   6.518   2.349
 2343SOL    HW2 7929   1.448   6.608   2.286
 2344SOL     OW 7930   5.711   4.078   0.949
 2344SOL    HW1 7931   5.734   4.170   0.982
 2344SOL    HW2 7932   5.626   4.048   0.991
 2345SOL     OW 7933   2.644   5.842   4.790
 2345SOL    HW1 7934   2.653   5.763   4.850
 2345SOL    HW2 7935   2.635   5.925   4.845
 2346SOL     OW 7936   3.937   4.201   6.346
 2346SOL    HW1 7937   3.860   4.238   6.295
 2346SOL    HW2 7938   3.937   4.101   6.340
 2347SOL     OW 7939   1.239   2.456   1.572
 2347SOL    HW1 7940   1.182   2.389   1.619
 2347SOL    HW2 7941   1.333   2.447   1.605
 2348SOL     OW 7942   0.583   5.094   2.843
 2348SOL    HW1 7943   0.590   5.075   2.941
 2348SOL    HW2 7944   0.495   5.136   2.823
 2349SOL     OW 7945   0.377   4.804   6.656
 2349SOL    HW1 7946   0.398   4.887   6.605
 2349SOL    HW2 7947   0.381   4.725   6.594
 2350SOL     OW 7948   6.389   4.162   6.344
 2350SOL    HW1 7949   6.383   4.206   6.254
 2350SOL    HW2 7950   6.444   4.079   6.336
 2351SOL     OW 7951   2.349   4.684   3.228
 2351SOL    HW1 7952   2.267   4.629   3.242
 2351SOL    HW2 7953   2.430   4.624   3.232
 2352SOL     OW 7954   0.298   3.245   3.553
 2352SOL    HW1 7955   0.393   3.225   3.528
 2352SOL    HW2 7956   0.275   3.194   3.636
 2353SOL     OW 7957   3.315   5.843   5.014
 2353SOL    HW1 7958   3.265   5.902   5.077
 2353SOL    HW2 7959   3.414   5.859   5.024
 2354SOL     OW 7960   2.453   1.545   3.885
 2354SOL    HW1 7961   2.388   1.610   3.923
 2354SOL    HW2 7962   2.482   1.576   3.795
 2355SOL     OW 7963   1.954   5.877   4.689
 2355SOL    HW1 7964   1.944   5.787   4.645
 2355SOL    HW2 7965   1.914   5.874   4.781
 2356SOL     OW 7966   0.076   3.061   0.203
 2356SOL    HW1 7967   0.017   3.087   0.279
 2356SOL    HW2 7968   0.170   3.051   0.235
 2357SOL     OW 7969   2.966   6.912   2.543
 2357SOL    HW1 7970   3.007   6.844   2.603
 2357SOL    HW2 7971   2.908   6.973   2.597
 2358SOL     OW 7972   3.942   4.586   6.484
 2358SOL    HW1 7973   3.848   4.592   6.451
 2358SOL    HW2 7974   4.003   4.632   6.420
 2359SOL     OW 7975   1.134   0.394   4.851
 2359SOL    HW1 7976   1.084   0.308   4.838
 2359SOL    HW2 7977   1.227   0.374   4.882
 2360SOL     OW 7978   6.557   3.209   0.387
 2360SOL    HW1 7979   6.516   3.221   0.478
 2360SOL    HW2 7980   6.600   3.119   0.381
 2361SOL     OW 7981   3.764   1.359   5.869
 2361SOL    HW1 7982   3.856   1.324   5.851
 2361SOL    HW2 7983   3.762   1.458   5.855
 2362SOL     OW 7984   3.268   5.321   3.245
 2362SOL    HW1 7985   3.284   5.357   3.153
 2362SOL    HW2 7986   3.320   5.236   3.257
 2363SOL     OW 7987   3.935   1.320   4.004
 2363SOL    HW1 7988   3.874   1.241   4.013
 2363SOL    HW2 7989   3.938   1.350   3.909
 2364SOL     OW 7990   1.060   2.277   1.034
 2364SOL    HW1 7991   1.031   2.228   1.117
 2364SOL    HW2 7992   0.986   2.336   1.002
 2365SOL     OW 7993   5.814   2.096   6.509
 2365SOL    HW1 7994   5.881   2.147   6.454
 2365SOL    HW2 7995   5.794   2.148   6.592
 2366SOL     OW 7996   3.800   5.172   1.256
 2366SOL    HW1 7997   3.764   5.265   1.260
 2366SOL    HW2 7998   3.729   5.107   1.282
 2367SOL     OW 7999   2.013   3.225   0.076
 2367SOL    HW1 8000   2.001   3.149   0.011
 2367SOL    HW2 8001   2.002   3.312   0.028
 2368SOL     OW 8002   6.279   6.439   3.600
 2368SOL    HW1 8003   6.259   6.427   3.697
 2368SOL    HW2 8004   6.222   6.376   3.546
 2369SOL     OW 8005   2.128   0.085   3.831
 2369SOL    HW1 8006   2.190   0.007   3.825
 2369SOL    HW2 8007   2.157   0.146   3.904
 2370SOL     OW 8008   5.520   2.381   6.837
 2370SOL    HW1 8009   5.593   2.367   6.904
 2370SOL    HW2 8010   5.440   2.419   6.883
 2371SOL     OW 8011   3.118   6.997   1.606
 2371SOL    HW1 8012   3.158   6.907   1.593
 2371SOL    HW2 8013   3.176   0.049   1.563
 2372SOL     OW 8014   6.395   3.117   2.362
 2372SOL    HW1 8015   6.365   3.158   2.449
 2372SOL    HW2 8016   6.399   3.188   2.292
 2373SOL     OW 8017   1.941   3.288   6.524
 2373SOL    HW1 8018   2.040   3.284   6.509
 2373SOL    HW2 8019   1.915   3.380   6.550
 2374SOL     OW 8020   6.161   2.443   4.739
 2374SOL    HW1 8021   6.167   2.420   4.641
 2374SOL    HW2 8022   6.092   2.386   4.783
 2375SOL     OW 8023   3.335   5.623   4.875
 2375SOL    HW1 8024   3.318   5.706   4.928
 2375SOL    HW2 8025   3.403   5.642   4.804
 2376SOL     OW 8026   6.148   2.864   4.397
 2376SOL    HW1 8027   6.192   2.826   4.479
 2376SOL    HW2 8028   6.049   2.857   4.405
 2377SOL     OW 8029   3.029   3.106   3.858
 2377SOL    HW1 8030   3.050   3.083   3.763
 2377SOL    HW2 8031   2.986   3.196   3.861
 2378SOL     OW 8032   5.532   2.781   6.487
 2378SOL    HW1 8033   5.545   2.693   6.533
 2378SOL    HW2 8034   5.435   2.794   6.467
 2379SOL     OW 8035   6.312   0.376   0.814
 2379SOL    HW1 8036   6.384   0.324   0.860
 2379SOL    HW2 8037   6.234   0.386   0.875
 2380SOL     OW 8038   6.021   2.759   1.408
 2380SOL    HW1 8039   6.091   2.774   1.338
 2380SOL    HW2 8040   5.993   2.847   1.447
 2381SOL     OW 8041   1.667   6.197   3.195
 2381SOL    HW1 8042   1.606   6.122   3.171
 2381SOL    HW2 8043   1.755   6.185   3.149
 2382SOL     OW 8044   2.207   3.150   5.169
 2382SOL    HW1 8045   2.217   3.244   5.139
 2382SOL    HW2 8046   2.278   3.093   5.128
 2383SOL     OW 8047   6.421   5.919   1.145
 2383SOL    HW1 8048   6.384   5.831   1.173
 2383SOL    HW2 8049   6.380   5.947   1.058
 2384SOL     OW 8050   4.598   2.042   1.483
 2384SOL    HW1 8051   4.627   2.126   1.530
 2384SOL    HW2 8052   4.549   1.983   1.547
 2385SOL     OW 8053   0.639   1.775   6.563
 2385SOL    HW1 8054   0.666   1.751   6.656
 2385SOL    HW2 8055   0.708   1.837   6.523
 2386SOL     OW 8056   5.228   5.681   4.000
 2386SOL    HW1 8057   5.249   5.737   3.920
 2386SOL    HW2 8058   5.273   5.592   3.991
 2387SOL     OW 8059   1.709   1.562   3.913
 2387SOL    HW1 8060   1.635   1.501   3.940
 2387SOL    HW2 8061   1.713   1.640   3.976
 2388SOL     OW 8062   6.429   2.146   4.105
 2388SOL    HW1 8063   6.368   2.151   4.026
 2388SOL    HW2 8064   6.375   2.134   4.188
 2389SOL     OW 8065   4.321   5.138   3.312
 2389SOL    HW1 8066   4.297   5.228   3.350
 2389SOL    HW2 8067   4.327   5.072   3.387
 2390SOL     OW 8068   3.566   3.784   2.247
 2390SOL    HW1 8069   3.524   3.797   2.157
 2390SOL    HW2 8070   3.627   3.861   2.266
 2391SOL     OW 8071   4.632   5.248   5.725
 2391SOL    HW1 8072   4.646   5.168   5.667
 2391SOL    HW2 8073   4.535   5.271   5.730
 2392SOL     OW 8074   3.196   0.737   7.015
 2392SOL    HW1 8075   3.195   0.669   6.942
 2392SOL    HW2 8076   3.286   0.741   0.038
 2393SOL     OW 8077   4.221   4.679   6.004
 2393SOL    HW1 8078   4.318   4.662   6.019
 2393SOL    HW2 8079   4.196   4.657   5.910
 2394SOL     OW 8080   0.531   4.147   5.017
 2394SOL    HW1 8081   0.516   4.186   4.926
 2394SOL    HW2 8082   0.444   4.142   5.065
 2395SOL     OW 8083   3.838   6.825   5.811
 2395SOL    HW1 8084   3.843   6.734   5.769
 2395SOL    HW2 8085   3.756   6.831   5.868
 2396SOL     OW 8086   4.293   4.650   0.257
 2396SOL    HW1 8087   4.352   4.672   0.335
 2396SOL    HW2 8088   4.292   4.728   0.194
 2397SOL     OW 8089   0.540   3.683   4.801
 2397SOL    HW1 8090   0.580   3.622   4.733
 2397SOL    HW2 8091   0.473   3.633   4.855
 2398SOL     OW 8092   4.315   4.437   5.601
 2398SOL    HW1 8093   4.316   4.395   5.510
 2398SOL    HW2 8094   4.319   4.365   5.671
 2399SOL     OW 8095   4.676   2.315   1.596
 2399SOL    HW1 8096   4.767   2.350   1.575
 2399SOL    HW2 8097   4.615   2.392   1.618
 2400SOL     OW 8098   2.533   5.067   1.030
 2400SOL    HW1 8099   2.476   5.144   1.059
 2400SOL    HW2 8100   2.478   4.983   1.031
 2401SOL     OW 8101   6.026   6.059   6.152
 2401SOL    HW1 8102   6.035   5.961   6.171
 2401SOL    HW2 8103   6.042   6.076   6.055
 2402SOL     OW 8104   0.193   6.913   4.398
 2402SOL    HW1 8105   0.142   6.994   4.427
 2402SOL    HW2 8106   0.130   6.837   4.382
 2403SOL     OW 8107   0.615   2.381   5.501
 2403SOL    HW1 8108   0.554   2.302   5.503
 2403SOL    HW2 8109   0.562   2.465   5.509
 2404SOL     OW 8110   1.698   0.480   0.720
 2404SOL    HW1 8111   1.695   0.381   0.732
 2404SOL    HW2 8112   1.743   0.502   0.633
 2405SOL     OW 8113   2.857   3.512   1.688
 2405SOL    HW1 8114   2.797   3.435   1.709
 2405SOL    HW2 8115   2.806   3.581   1.637
 2406SOL     OW 8116   4.910   1.660   0.567
 2406SOL    HW1 8117   4.824   1.689   0.525
 2406SOL    HW2 8118   4.965   1.741   0.588
 2407SOL     OW 8119   5.494   0.983   3.096
 2407SOL    HW1 8120   5.473   0.886   3.088
 2407SOL    HW2 8121   5.421   1.030   3.145
 2408SOL     OW 8122   4.746   4.228   2.282
 2408SOL    HW1 8123   4.772   4.294   2.212
 2408SOL    HW2 8124   4.728   4.140   2.240
 2409SOL     OW 8125   1.601   4.017   0.414
 2409SOL    HW1 8126   1.653   3.959   0.476
 2409SOL    HW2 8127   1.583   4.105   0.458
 2410SOL     OW 8128   3.539   3.342   2.742
 2410SOL    HW1 8129   3.552   3.399   2.823
 2410SOL    HW2 8130   3.602   3.264   2.746
 2411SOL     OW 8131   5.402   6.975   4.670
 2411SOL    HW1 8132   5.422   7.011   4.579
 2411SOL    HW2 8133   5.372   6.879   4.662
 2412SOL     OW 8134   4.941   3.689   1.059
 2412SOL    HW1 8135   4.980   3.627   1.127
 2412SOL    HW2 8136   4.860   3.647   1.018
 2413SOL     OW 8137   5.244   0.216   2.218
 2413SOL    HW1 8138   5.223   0.313   2.204
 2413SOL    HW2 8139   5.207   0.186   2.306
 2414SOL     OW 8140   5.402   3.235   4.069
 2414SOL    HW1 8141   5.387   3.175   3.990
 2414SOL    HW2 8142   5.339   3.313   4.063
 2415SOL     OW 8143   4.788   1.263   3.477
 2415SOL    HW1 8144   4.703   1.260   3.529
 2415SOL    HW2 8145   4.865   1.253   3.540
 2416SOL     OW 8146   4.650   1.604   5.798
 2416SOL    HW1 8147   4.684   1.610   5.892
 2416SOL    HW2 8148   4.708   1.660   5.739
 2417SOL     OW 8149   3.016   3.192   4.178
 2417SOL    HW1 8150   2.976   3.175   4.088
 2417SOL    HW2 8151   3.078   3.117   4.202
 2418SOL     OW 8152   3.960   3.518   3.007
 2418SOL    HW1 8153   4.019   3.454   3.057
 2418SOL    HW2 8154   3.896   3.466   2.950
 2419SOL     OW 8155   0.539   0.107   2.712
 2419SOL    HW1 8156   0.547   0.008   2.721
 2419SOL    HW2 8157   0.620   0.144   2.668
 2420SOL     OW 8158   2.257   0.031   1.725
 2420SOL    HW1 8159   2.225   0.057   1.633
 2420SOL    HW2 8160   2.356   0.019   1.723
 2421SOL     OW 8161   2.449   2.369   4.277
 2421SOL    HW1 8162   2.438   2.468   4.264
 2421SOL    HW2 8163   2.543   2.351   4.308
 2422SOL     OW 8164   4.750   1.679   0.939
 2422SOL    HW1 8165   4.825   1.625   0.902
 2422SOL    HW2 8166   4.713   1.633   1.020
 2423SOL     OW 8167   2.018   5.437   2.792
 2423SOL    HW1 8168   1.999   5.419   2.888
 2423SOL    HW2 8169   1.938   5.415   2.737
 2424SOL     OW 8170   5.488   0.512   1.043
 2424SOL    HW1 8171   5.535   0.476   1.123
 2424SOL    HW2 8172   5.553   0.523   0.968
 2425SOL     OW 8173   6.310   6.677   4.478
 2425SOL    HW1 8174   6.393   6.725   4.450
 2425SOL    HW2 8175   6.315   6.582   4.446
 2426SOL     OW 8176   2.465   4.896   3.958
 2426SOL    HW1 8177   2.544   4.945   3.994
 2426SOL    HW2 8178   2.404   4.960   3.912
 2427SOL     OW 8179   6.260   0.151   5.805
 2427SOL    HW1 8180   6.278   0.092   5.726
 2427SOL    HW2 8181   6.188   0.216   5.783
 2428SOL     OW 8182   6.627   0.750   0.656
 2428SOL    HW1 8183   6.608   0.678   0.722
 2428SOL    HW2 8184   6.707   0.802   0.685
 2429SOL     OW 8185   4.846   5.967   1.960
 2429SOL    HW1 8186   4.758   5.923   1.973
 2429SOL    HW2 8187   4.919   5.905   1.988
 2430SOL     OW 8188   5.710   0.791   2.553
 2430SOL    HW1 8189   5.772   0.779   2.475
 2430SOL    HW2 8190   5.680   0.886   2.558
 2431SOL     OW 8191   3.786   0.443   2.249
 2431SOL    HW1 8192   3.774   0.517   2.315
 2431SOL    HW2 8193   3.786   0.481   2.156
 2432SOL     OW 8194   2.542   6.413   2.275
 2432SOL    HW1 8195   2.487   6.440   2.196
 2432SOL    HW2 8196   2.524   6.317   2.297
 2433SOL     OW 8197   3.752   7.016   0.117
 2433SOL    HW1 8198   3.685   0.037   0.054
 2433SOL    HW2 8199   3.833   6.988   0.065
 2434SOL     OW 8200   4.317   3.014   6.222
 2434SOL    HW1 8201   4.227   2.971   6.232
 2434SOL    HW2 8202   4.383   2.947   6.189
 2435SOL     OW 8203   5.731   5.703   5.276
 2435SOL    HW1 8204   5.822   5.665   5.292
 2435SOL    HW2 8205   5.678   5.640   5.219
 2436SOL     OW 8206   3.060   5.545   0.255
 2436SOL    HW1 8207   3.112   5.595   0.324
 2436SOL    HW2 8208   3.033   5.456   0.291
 2437SOL     OW 8209   6.875   0.354   6.202
 2437SOL    HW1 8210   6.795   0.324   6.149
 2437SOL    HW2 8211   6.928   0.274   6.229
 2438SOL     OW 8212   2.764   2.731   1.188
 2438SOL    HW1 8213   2.781   2.826   1.160
 2438SOL    HW2 8214   2.667   2.710   1.175
 2439SOL     OW 8215   6.223   4.548   4.894
 2439SOL    HW1 8216   6.249   4.488   4.969
 2439SOL    HW2 8217   6.242   4.502   4.807
 2440SOL     OW 8218   5.887   5.042   6.226
 2440SOL    HW1 8219   5.815   5.101   6.263
 2440SOL    HW2 8220   5.953   5.021   6.298
 2441SOL     OW 8221   6.101   2.377   1.074
 2441SOL    HW1 8222   6.025   2.419   1.124
 2441SOL    HW2 8223   6.170   2.345   1.139
 2442SOL     OW 8224   7.006   3.658   4.982
 2442SOL    HW1 8225   0.043   3.636   5.063
 2442SOL    HW2 8226   0.024   3.610   4.903
 2443SOL     OW 8227   2.794   5.046   5.983
 2443SOL    HW1 8228   2.774   4.970   6.045
 2443SOL    HW2 8229   2.708   5.088   5.954
 2444SOL     OW 8230   3.058   3.275   5.528
 2444SOL    HW1 8231   2.990   3.318   5.588
 2444SOL    HW2 8232   3.146   3.322   5.538
 2445SOL     OW 8233   0.799   0.290   0.670
 2445SOL    HW1 8234   0.716   0.281   0.615
 2445SOL    HW2 8235   0.844   0.201   0.676
 2446SOL     OW 8236   5.495   3.878   6.074
 2446SOL    HW1 8237   5.540   3.789   6.085
 2446SOL    HW2 8238   5.513   3.914   5.983
 2447SOL     OW 8239   0.443   2.239   6.511
 2447SOL    HW1 8240   0.379   2.237   6.433
 2447SOL    HW2 8241   0.419   2.314   6.572
 2448SOL     OW 8242   0.438   0.455   4.210
 2448SOL    HW1 8243   0.493   0.488   4.287
 2448SOL    HW2 8244   0.372   0.387   4.243
 2449SOL     OW 8245   0.666   2.826   4.579
 2449SOL    HW1 8246   0.719   2.745   4.601
 2449SOL    HW2 8247   0.708   2.907   4.621
 2450SOL     OW 8248   1.446   3.255   2.107
 2450SOL    HW1 8249   1.441   3.246   2.007
 2450SOL    HW2 8250   1.355   3.241   2.146
 2451SOL     OW 8251   2.459   6.507   4.625
 2451SOL    HW1 8252   2.472   6.410   4.641
 2451SOL    HW2 8253   2.527   6.539   4.559
 2452SOL     OW 8254   1.842   2.341   4.207
 2452SOL    HW1 8255   1.889   2.379   4.286
 2452SOL    HW2 8256   1.796   2.415   4.158
 2453SOL     OW 8257   0.588   3.283   1.442
 2453SOL    HW1 8258   0.681   3.259   1.468
 2453SOL    HW2 8259   0.523   3.232   1.499
 2454SOL     OW 8260   2.064   6.959   1.956
 2454SOL    HW1 8261   2.141   6.961   1.893
 2454SOL    HW2 8262   2.061   0.027   2.008
 2455SOL     OW 8263   5.050   4.225   0.868
 2455SOL    HW1 8264   5.058   4.180   0.779
 2455SOL    HW2 8265   5.139   4.263   0.894
 2456SOL     OW 8266   3.100   6.630   1.267
 2456SOL    HW1 8267   3.193   6.655   1.295
 2456SOL    HW2 8268   3.036   6.655   1.338
 2457SOL     OW 8269   5.844   6.359   1.307
 2457SOL    HW1 8270   5.821   6.356   1.404
 2457SOL    HW2 8271   5.823   6.271   1.265
 2458SOL     OW 8272   0.467   5.737   2.912
 2458SOL    HW1 8273   0.539   5.778   2.968
 2458SOL    HW2 8274   0.428   5.807   2.851
 2459SOL     OW 8275   0.822   0.891   0.631
 2459SOL    HW1 8276   0.740   0.893   0.575
 2459SOL    HW2 8277   0.813   0.822   0.702
 2460SOL     OW 8278   3.482   5.165   1.387
 2460SOL    HW1 8279   3.565   5.119   1.418
 2460SOL    HW2 8280   3.442   5.217   1.462
 2461SOL     OW 8281   5.250   0.880   3.523
 2461SOL    HW1 8282   5.266   0.782   3.535
 2461SOL    HW2 8283   5.152   0.899   3.536
 2462SOL     OW 8284   2.904   4.530   6.326
 2462SOL    HW1 8285   2.864   4.592   6.394
 2462SOL    HW2 8286   3.003   4.542   6.326
 2463SOL     OW 8287   0.244   2.154   4.091
 2463SOL    HW1 8288   0.344   2.154   4.092
 2463SOL    HW2 8289   0.210   2.126   4.181
 2464SOL     OW 8290   1.571   3.695   1.162
 2464SOL    HW1 8291   1.593   3.771   1.223
 2464SOL    HW2 8292   1.653   3.670   1.110
 2465SOL     OW 8293   5.945   5.257   2.534
 2465SOL    HW1 8294   6.002   5.177   2.554
 2465SOL    HW2 8295   5.867   5.258   2.597
 2466SOL     OW 8296   3.655   1.607   1.959
 2466SOL    HW1 8297   3.660   1.654   2.047
 2466SOL    HW2 8298   3.654   1.675   1.885
 2467SOL     OW 8299   6.634   1.407   4.944
 2467SOL    HW1 8300   6.675   1.488   4.987
 2467SOL    HW2 8301   6.562   1.371   5.002
 2468SOL     OW 8302   6.814   3.890   0.467
 2468SOL    HW1 8303   6.792   3.964   0.404
 2468SOL    HW2 8304   6.874   3.925   0.539
 2469SOL     OW 8305   3.060   2.837   5.818
 2469SOL    HW1 8306   3.108   2.793   5.894
 2469SOL    HW2 8307   3.104   2.925   5.797
 2470SOL     OW 8308   5.850   2.854   0.878
 2470SOL    HW1 8309   5.787   2.783   0.911
 2470SOL    HW2 8310   5.803   2.911   0.811
 2471SOL     OW 8311   0.270   1.123   3.629
 2471SOL    HW1 8312   0.294   1.026   3.639
 2471SOL    HW2 8313   0.235   1.139   3.537
 2472SOL     OW 8314   5.714   1.732   3.870
 2472SOL    HW1 8315   5.618   1.745   3.847
 2472SOL    HW2 8316   5.763   1.698   3.790
 2473SOL     OW 8317   0.588   6.673   5.302
 2473SOL    HW1 8318   0.614   6.627   5.387
 2473SOL    HW2 8319   0.493   6.649   5.280
 2474SOL     OW 8320   5.907   5.785   4.584
 2474SOL    HW1 8321   5.854   5.779   4.668
 2474SOL    HW2 8322   5.965   5.867   4.586
 2475SOL     OW 8323   4.689   2.356   5.965
 2475SOL    HW1 8324   4.645   2.281   5.916
 2475SOL    HW2 8325   4.674   2.345   6.064
 2476SOL     OW 8326   0.382   1.793   3.447
 2476SOL    HW1 8327   0.471   1.800   3.403
 2476SOL    HW2 8328   0.387   1.831   3.539
 2477SOL     OW 8329   4.436   5.073   2.310
 2477SOL    HW1 8330   4.354   5.025   2.339
 2477SOL    HW2 8331   4.490   5.014   2.249
 2478SOL     OW 8332   6.955   6.961   3.485
 2478SOL    HW1 8333   6.993   0.026   3.444
 2478SOL    HW2 8334   0.011   6.899   3.510
 2479SOL     OW 8335   0.324   2.009   6.700
 2479SOL    HW1 8336   0.374   1.973   6.779
 2479SOL    HW2 8337   0.357   2.102   6.679
 2480SOL     OW 8338   0.608   5.029   1.948
 2480SOL    HW1 8339   0.521   5.069   1.921
 2480SOL    HW2 8340   0.603   4.929   1.939
 2481SOL     OW 8341   3.894   4.872   2.618
 2481SOL    HW1 8342   3.839   4.927   2.681
 2481SOL    HW2 8343   3.983   4.854   2.660
 2482SOL     OW 8344   4.604   2.607   3.888
 2482SOL    HW1 8345   4.529   2.541   3.894
 2482SOL    HW2 8346   4.638   2.627   3.980
 2483SOL     OW 8347   0.483   2.686   6.807
 2483SOL    HW1 8348   0.464   2.765   6.750
 2483SOL    HW2 8349   0.549   2.626   6.761
 2484SOL     OW 8350   4.129   3.613   6.577
 2484SOL    HW1 8351   4.168   3.575   6.494
 2484SOL    HW2 8352   4.092   3.704   6.558
 2485SOL     OW 8353   0.614   6.028   0.720
 2485SOL    HW1 8354   0.533   6.074   0.756
 2485SOL    HW2 8355   0.686   6.027   0.790
 2486SOL     OW 8356   0.537   4.921   3.552
 2486SOL    HW1 8357   0.614   4.858   3.535
 2486SOL    HW2 8358   0.457   4.890   3.500
 2487SOL     OW 8359   3.324   1.577   1.470
 2487SOL    HW1 8360   3.276   1.665   1.478
 2487SOL    HW2 8361   3.329   1.533   1.560
 2488SOL     OW 8362   2.758   6.289   6.166
 2488SOL    HW1 8363   2.775   6.277   6.264
 2488SOL    HW2 8364   2.785   6.382   6.139
 2489SOL     OW 8365   6.682   5.892   4.234
 2489SOL    HW1 8366   6.702   5.976   4.183
 2489SOL    HW2 8367   6.641   5.824   4.173
 2490SOL     OW 8368   5.411   3.330   1.727
 2490SOL    HW1 8369   5.356   3.406   1.692
 2490SOL    HW2 8370   5.410   3.331   1.827
 2491SOL     OW 8371   6.869   4.311   2.766
 2491SOL    HW1 8372   6.774   4.328   2.740
 2491SOL    HW2 8373   6.929   4.336   2.690
 2492SOL     OW 8374   4.196   1.432   5.645
 2492SOL    HW1 8375   4.244   1.344   5.648
 2492SOL    HW2 8376   4.258   1.505   5.673
 2493SOL     OW 8377   6.251   1.308   4.853
 2493SOL    HW1 8378   6.211   1.255   4.778
 2493SOL    HW2 8379   6.328   1.362   4.819
 2494SOL     OW 8380   4.184   4.275   0.612
 2494SOL    HW1 8381   4.153   4.311   0.700
 2494SOL    HW2 8382   4.283   4.280   0.607
 2495SOL     OW 8383   6.699   0.950   2.996
 2495SOL    HW1 8384   6.756   0.895   3.057
 2495SOL    HW2 8385   6.609   0.963   3.037
 2496SOL     OW 8386   1.564   5.582   6.939
 2496SOL    HW1 8387   1.474   5.542   6.954
 2496SOL    HW2 8388   1.573   5.608   6.843
 2497SOL     OW 8389   5.461   0.272   6.957
 2497SOL    HW1 8390   5.499   0.196   7.011
 2497SOL    HW2 8391   5.535   0.333   6.929
 2498SOL     OW 8392   0.698   2.777   5.047
 2498SOL    HW1 8393   0.629   2.844   5.075
 2498SOL    HW2 8394   0.653   2.699   5.005
 2499SOL     OW 8395   4.737   0.462   0.078
 2499SOL    HW1 8396   4.800   0.530   0.116
 2499SOL    HW2 8397   4.751   0.454   6.998
 2500SOL     OW 8398   4.057   3.855   6.485
 2500SOL    HW1 8399   4.137   3.880   6.429
 2500SOL    HW2 8400   3.973   3.873   6.434
 2501SOL     OW 8401   6.300   4.661   0.951
 2501SOL    HW1 8402   6.331   4.683   0.858
 2501SOL    HW2 8403   6.208   4.622   0.947
 2502SOL     OW 8404   0.756   6.830   2.948
 2502SOL    HW1 8405   0.759   6.869   2.856
 2502SOL    HW2 8406   0.826   6.872   3.005
 2503SOL     OW 8407   5.431   0.252   4.229
 2503SOL    HW1 8408   5.500   0.217   4.165
 2503SOL    HW2 8409   5.364   0.306   4.178
 2504SOL     OW 8410   2.154   3.978   2.875
 2504SOL    HW1 8411   2.207   4.032   2.810
 2504SOL    HW2 8412   2.098   3.911   2.826
 2505SOL     OW 8413   5.275   3.907   4.629
 2505SOL    HW1 8414   5.253   3.825   4.576
 2505SOL    HW2 8415   5.362   3.893   4.677
 2506SOL     OW 8416   1.138   1.043   0.766
 2506SOL    HW1 8417   1.099   1.050   0.674
 2506SOL    HW2 8418   1.156   1.135   0.802
 2507SOL     OW 8419   6.531   6.222   0.137
 2507SOL    HW1 8420   6.473   6.302   0.116
 2507SOL    HW2 8421   6.583   6.197   0.056
 2508SOL     OW 8422   2.255   2.547   1.733
 2508SOL    HW1 8423   2.329   2.607   1.763
 2508SOL    HW2 8424   2.288   2.453   1.726
 2509SOL     OW 8425   5.541   1.270   3.661
 2509SOL    HW1 8426   5.498   1.182   3.681
 2509SOL    HW2 8427   5.477   1.344   3.682
 2510SOL     OW 8428   4.133   5.743   2.495
 2510SOL    HW1 8429   4.107   5.694   2.579
 2510SOL    HW2 8430   4.218   5.793   2.511
 2511SOL     OW 8431   1.220   6.902   3.301
 2511SOL    HW1 8432   1.140   6.846   3.279
 2511SOL    HW2 8433   1.191   6.996   3.317
 2512SOL     OW 8434   5.831   3.094   4.077
 2512SOL    HW1 8435   5.821   3.166   4.008
 2512SOL    HW2 8436   5.814   3.132   4.168
 2513SOL     OW 8437   0.544   4.424   1.048
 2513SOL    HW1 8438   0.612   4.396   0.980
 2513SOL    HW2 8439   0.455   4.387   1.024
 2514SOL     OW 8440   0.428   2.464   3.419
 2514SOL    HW1 8441   0.488   2.544   3.421
 2514SOL    HW2 8442   0.381   2.455   3.506
 2515SOL     OW 8443   1.197   4.506   0.085
 2515SOL    HW1 8444   1.213   4.599   0.120
 2515SOL    HW2 8445   1.284   4.468   0.054
 2516SOL     OW 8446   5.020   6.390   4.061
 2516SOL    HW1 8447   5.012   6.335   3.979
 2516SOL    HW2 8448   4.945   6.457   4.064
 2517SOL     OW 8449   2.338   5.479   0.996
 2517SOL    HW1 8450   2.309   5.448   0.905
 2517SOL    HW2 8451   2.257   5.489   1.055
 2518SOL     OW 8452   1.995   2.899   7.018
 2518SOL    HW1 8453   2.028   2.815   0.044
 2518SOL    HW2 8454   1.897   2.910   0.019
 2519SOL     OW 8455   6.067   4.146   5.208
 2519SOL    HW1 8456   6.012   4.214   5.159
 2519SOL    HW2 8457   6.043   4.055   5.177
 2520SOL     OW 8458   3.599   5.597   2.129
 2520SOL    HW1 8459   3.560   5.673   2.078
 2520SOL    HW2 8460   3.540   5.576   2.207
 2521SOL     OW 8461   5.307   0.068   5.927
 2521SOL    HW1 8462   5.327   6.988   5.923
 2521SOL    HW2 8463   5.344   0.106   6.012
 2522SOL     OW 8464   2.884   4.739   4.184
 2522SOL    HW1 8465   2.835   4.684   4.252
 2522SOL    HW2 8466   2.964   4.688   4.152
 2523SOL     OW 8467   1.044   2.560   5.544
 2523SOL    HW1 8468   1.005   2.586   5.632
 2523SOL    HW2 8469   1.118   2.623   5.521
 2524SOL     OW 8470   1.664   6.988   4.628
 2524SOL    HW1 8471   1.756   0.009   4.623
 2524SOL    HW2 8472   1.605   0.031   4.681
 2525SOL     OW 8473   2.135   4.689   2.592
 2525SOL    HW1 8474   2.110   4.745   2.671
 2525SOL    HW2 8475   2.222   4.720   2.554
 2526SOL     OW 8476   1.647   2.390   4.611
 2526SOL    HW1 8477   1.645   2.472   4.553
 2526SOL    HW2 8478   1.741   2.374   4.643
 2527SOL     OW 8479   6.677   0.105   3.973
 2527SOL    HW1 8480   6.748   0.038   3.995
 2527SOL    HW2 8481   6.651   0.154   4.056
 2528SOL     OW 8482   6.271   5.104   0.150
 2528SOL    HW1 8483   6.294   5.201   0.153
 2528SOL    HW2 8484   6.324   5.059   0.079
 2529SOL     OW 8485   4.982   3.940   5.298
 2529SOL    HW1 8486   5.057   3.880   5.326
 2529SOL    HW2 8487   4.924   3.893   5.231
 2530SOL     OW 8488   0.892   6.292   3.657
 2530SOL    HW1 8489   0.920   6.339   3.740
 2530SOL    HW2 8490   0.795   6.268   3.663
 2531SOL     OW 8491   5.126   1.168   6.844
 2531SOL    HW1 8492   5.202   1.228   6.820
 2531SOL    HW2 8493   5.152   1.110   6.921
 2532SOL     OW 8494   0.402   4.883   5.835
 2532SOL    HW1 8495   0.336   4.808   5.831
 2532SOL    HW2 8496   0.491   4.847   5.864
 2533SOL     OW 8497   5.709   6.885   5.479
 2533SOL    HW1 8498   5.669   6.832   5.553
 2533SOL    HW2 8499   5.799   6.920   5.506
 2534SOL     OW 8500   7.018   2.148   2.909
 2534SOL    HW1 8501   6.919   2.148   2.895
 2534SOL    HW2 8502   0.020   2.127   3.005
 2535SOL     OW 8503   2.562   1.362   3.120
 2535SOL    HW1 8504   2.474   1.339   3.079
 2535SOL    HW2 8505   2.580   1.459   3.109
 2536SOL     OW 8506   0.386   0.924   4.108
 2536SOL    HW1 8507   0.310   0.868   4.141
 2536SOL    HW2 8508   0.421   0.980   4.183
 2537SOL     OW 8509   3.807   6.208   1.909
 2537SOL    HW1 8510   3.831   6.122   1.864
 2537SOL    HW2 8511   3.782   6.276   1.839
 2538SOL     OW 8512   0.793   4.594   4.812
 2538SOL    HW1 8513   0.854   4.538   4.866
 2538SOL    HW2 8514   0.806   4.574   4.715
 2539SOL     OW 8515   2.118   0.385   5.288
 2539SOL    HW1 8516   2.063   0.389   5.371
 2539SOL    HW2 8517   2.095   0.303   5.237
 2540SOL     OW 8518   5.243   2.052   2.417
 2540SOL    HW1 8519   5.144   2.036   2.414
 2540SOL    HW2 8520   5.273   2.062   2.512
 2541SOL     OW 8521   0.617   1.331   6.001
 2541SOL    HW1 8522   0.607   1.340   6.100
 2541SOL    HW2 8523   0.680   1.401   5.967
 2542SOL     OW 8524   3.784   2.055   3.844
 2542SOL    HW1 8525   3.758   2.059   3.941
 2542SOL    HW2 8526   3.815   1.963   3.822
 2543SOL     OW 8527   6.860   1.552   4.632
 2543SOL    HW1 8528   6.803   1.470   4.622
 2543SOL    HW2 8529   6.871   1.574   4.728
 2544SOL     OW 8530   6.938   6.435   1.848
 2544SOL    HW1 8531   6.973   6.519   1.806
 2544SOL    HW2 8532   6.868   6.459   1.915
 2545SOL     OW 8533   6.566   1.853   0.299
 2545SOL    HW1 8534   6.620   1.937   0.291
 2545SOL    HW2 8535   6.558   1.827   0.396
 2546SOL     OW 8536   6.157   3.332   2.459
 2546SOL    HW1 8537   6.244   3.329   2.411
 2546SOL    HW2 8538   6.109   3.245   2.447
 2547SOL     OW 8539   5.547   3.960   1.138
 2547SOL    HW1 8540   5.569   3.972   1.235
 2547SOL    HW2 8541   5.451   3.933   1.129
 2548SOL     OW 8542   6.199   1.125   5.765
 2548SOL    HW1 8543   6.160   1.181   5.692
 2548SOL    HW2 8544   6.290   1.092   5.737
 2549SOL     OW 8545   2.750   5.034   0.863
 2549SOL    HW1 8546   2.738   4.968   0.788
 2549SOL    HW2 8547   2.669   5.032   0.922
 2550SOL     OW 8548   3.948   6.512   0.837
 2550SOL    HW1 8549   3.994   6.506   0.748
 2550SOL    HW2 8550   3.992   6.583   0.892
 2551SOL     OW 8551   3.576   4.718   1.332
 2551SOL    HW1 8552   3.583   4.762   1.421
 2551SOL    HW2 8553   3.512   4.767   1.274
 2552SOL     OW 8554   2.361   4.236   1.949
 2552SOL    HW1 8555   2.396   4.328   1.935
 2552SOL    HW2 8556   2.357   4.188   1.861
 2553SOL     OW 8557   4.803   1.324   6.976
 2553SOL    HW1 8558   4.779   1.387   0.032
 2553SOL    HW2 8559   4.843   1.240   7.015
 2554SOL     OW 8560   1.158   5.409   1.085
 2554SOL    HW1 8561   1.223   5.333   1.085
 2554SOL    HW2 8562   1.187   5.477   1.017
 2555SOL     OW 8563   6.942   6.832   5.209
 2555SOL    HW1 8564   6.891   6.747   5.225
 2555SOL    HW2 8565   0.017   6.810   5.179
 2556SOL     OW 8566   4.329   0.459   0.958
 2556SOL    HW1 8567   4.235   0.474   0.990
 2556SOL    HW2 8568   4.350   0.362   0.963
 2557SOL     OW 8569   3.164   1.092   6.871
 2557SOL    HW1 8570   3.126   1.104   6.780
 2557SOL    HW2 8571   3.116   1.017   6.918
 2558SOL     OW 8572   5.468   1.720   1.539
 2558SOL    HW1 8573   5.409   1.699   1.618
 2558SOL    HW2 8574   5.411   1.739   1.459
 2559SOL     OW 8575   0.072   5.352   2.708
 2559SOL    HW1 8576   0.149   5.382   2.651
 2559SOL    HW2 8577   0.096   5.363   2.804
 2560SOL     OW 8578   4.840   2.406   2.088
 2560SOL    HW1 8579   4.781   2.377   2.012
 2560SOL    HW2 8580   4.803   2.489   2.129
 2561SOL     OW 8581   2.753   0.249   4.167
 2561SOL    HW1 8582   2.684   0.314   4.200
 2561SOL    HW2 8583   2.708   0.169   4.129
 2562SOL     OW 8584   1.394   6.370   5.368
 2562SOL    HW1 8585   1.421   6.290   5.422
 2562SOL    HW2 8586   1.349   6.437   5.427
 2563SOL     OW 8587   3.438   2.943   6.640
 2563SOL    HW1 8588   3.508   3.002   6.601
 2563SOL    HW2 8589   3.480   2.861   6.678
 2564SOL     OW 8590   1.605   2.046   6.992
 2564SOL    HW1 8591   1.665   2.053   6.913
 2564SOL    HW2 8592   1.637   1.973   0.034
 2565SOL     OW 8593   0.553   0.791   0.858
 2565SOL    HW1 8594   0.571   0.693   0.857
 2565SOL    HW2 8595   0.498   0.817   0.778
 2566SOL     OW 8596   2.970   0.982   0.792
 2566SOL    HW1 8597   3.030   0.990   0.712
 2566SOL    HW2 8598   2.926   1.070   0.810
 2567SOL     OW 8599   1.842   0.777   6.442
 2567SOL    HW1 8600   1.907   0.806   6.371
 2567SOL    HW2 8601   1.758   0.747   6.399
 2568SOL     OW 8602   2.118   5.223   1.440
 2568SOL    HW1 8603   2.123   5.141   1.383
 2568SOL    HW2 8604   2.154   5.203   1.531
 2569SOL     OW 8605   1.791   6.731   6.835
 2569SOL    HW1 8606   1.866   6.742   6.900
 2569SOL    HW2 8607   1.777   6.817   6.785
 2570SOL     OW 8608   0.749   6.304   4.140
 2570SOL    HW1 8609   0.818   6.312   4.068
 2570SOL    HW2 8610   0.726   6.208   4.155
 2571SOL     OW 8611   3.134   4.015   3.064
 2571SOL    HW1 8612   3.155   4.021   3.161
 2571SOL    HW2 8613   3.169   4.096   3.017
 2572SOL     OW 8614   2.486   4.855   2.739
 2572SOL    HW1 8615   2.571   4.803   2.737
 2572SOL    HW2 8616   2.458   4.870   2.834
 2573SOL     OW 8617   6.468   1.125   3.163
 2573SOL    HW1 8618   6.494   1.066   3.239
 2573SOL    HW2 8619   6.534   1.199   3.154
 2574SOL     OW 8620   0.816   3.410   2.118
 2574SOL    HW1 8621   0.749   3.360   2.063
 2574SOL    HW2 8622   0.837   3.497   2.073
 2575SOL     OW 8623   4.670   3.266   5.886
 2575SOL    HW1 8624   4.677   3.365   5.874
 2575SOL    HW2 8625   4.725   3.220   5.816
 2576SOL     OW 8626   0.821   0.202   3.569
 2576SOL    HW1 8627   0.866   0.291   3.565
 2576SOL    HW2 8628   0.836   0.161   3.659
 2577SOL     OW 8629   1.745   4.732   1.784
 2577SOL    HW1 8630   1.659   4.762   1.826
 2577SOL    HW2 8631   1.792   4.812   1.746
 2578SOL     OW 8632   4.439   2.189   4.934
 2578SOL    HW1 8633   4.358   2.153   4.889
 2578SOL    HW2 8634   4.515   2.125   4.922
 2579SOL     OW 8635   0.131   1.169   6.456
 2579SOL    HW1 8636   0.063   1.210   6.517
 2579SOL    HW2 8637   0.218   1.218   6.465
 2580SOL     OW 8638   1.718   1.496   5.757
 2580SOL    HW1 8639   1.710   1.489   5.856
 2580SOL    HW2 8640   1.629   1.518   5.718
 2581SOL     OW 8641   6.391   6.459   4.850
 2581SOL    HW1 8642   6.301   6.417   4.836
 2581SOL    HW2 8643   6.391   6.509   4.936
 2582SOL     OW 8644   6.989   4.731   2.434
 2582SOL    HW1 8645   6.998   4.738   2.534
 2582SOL    HW2 8646   7.013   4.819   2.392
 2583SOL     OW 8647   2.363   1.021   6.390
 2583SOL    HW1 8648   2.449   1.035   6.341
 2583SOL    HW2 8649   2.370   1.061   6.482
 2584SOL     OW 8650   4.497   0.326   2.817
 2584SOL    HW1 8651   4.594   0.305   2.819
 2584SOL    HW2 8652   4.458   0.298   2.729
 2585SOL     OW 8653   3.834   1.331   2.024
 2585SOL    HW1 8654   3.866   1.349   2.117
 2585SOL    HW2 8655   3.789   1.413   1.988
 2586SOL     OW 8656   6.923   1.307   4.358
 2586SOL    HW1 8657   6.909   1.209   4.342
 2586SOL    HW2 8658   7.004   1.320   4.415
 2587SOL     OW 8659   6.634   5.693   2.707
 2587SOL    HW1 8660   6.623   5.617   2.772
 2587SOL    HW2 8661   6.661   5.657   2.618
 2588SOL     OW 8662   4.455   6.915   2.317
 2588SOL    HW1 8663   4.401   6.999   2.315
 2588SOL    HW2 8664   4.547   6.933   2.281
 2589SOL     OW 8665   4.910   6.252   1.150
 2589SOL    HW1 8666   4.970   6.245   1.229
 2589SOL    HW2 8667   4.837   6.185   1.157
 2590SOL     OW 8668   3.049   6.471   3.314
 2590SOL    HW1 8669   2.986   6.501   3.386
 2590SOL    HW2 8670   3.143   6.492   3.341
 2591SOL     OW 8671   6.258   0.387   1.111
 2591SOL    HW1 8672   6.195   0.464   1.114
 2591SOL    HW2 8673   6.345   0.414   1.152
 2592SOL     OW 8674   3.234   4.666   1.701
 2592SOL    HW1 8675   3.266   4.571   1.705
 2592SOL    HW2 8676   3.144   4.670   1.657
 2593SOL     OW 8677   3.596   6.799   3.103
 2593SOL    HW1 8678   3.631   6.738   3.174
 2593SOL    HW2 8679   3.597   6.750   3.015
 2594SOL     OW 8680   1.021   6.095   6.782
 2594SOL    HW1 8681   1.077   6.157   6.836
 2594SOL    HW2 8682   1.066   6.006   6.776
 2595SOL     OW 8683   6.636   2.335   4.382
 2595SOL    HW1 8684   6.735   2.332   4.388
 2595SOL    HW2 8685   6.602   2.412   4.436
 2596SOL     OW 8686   3.823   2.115   1.010
 2596SOL    HW1 8687   3.809   2.050   0.935
 2596SOL    HW2 8688   3.804   2.207   0.978
 2597SOL     OW 8689   2.132   2.631   6.837
 2597SOL    HW1 8690   2.078   2.642   6.754
 2597SOL    HW2 8691   2.148   2.533   6.853
 2598SOL     OW 8692   6.671   0.986   2.706
 2598SOL    HW1 8693   6.676   0.981   2.806
 2598SOL    HW2 8694   6.575   0.994   2.678
 2599SOL     OW 8695   4.857   5.743   6.603
 2599SOL    HW1 8696   4.852   5.778   6.696
 2599SOL    HW2 8697   4.776   5.772   6.552
 2600SOL     OW 8698   0.162   2.385   3.968
 2600SOL    HW1 8699   0.207   2.295   3.962
 2600SOL    HW2 8700   0.166   2.418   4.062
 2601SOL     OW 8701   3.879   3.879   4.809
 2601SOL    HW1 8702   3.780   3.868   4.813
 2601SOL    HW2 8703   3.916   3.825   4.733
 2602SOL     OW 8704   6.116   5.840   5.903
 2602SOL    HW1 8705   6.093   5.799   5.991
 2602SOL    HW2 8706   6.194   5.791   5.863
 2603SOL     OW 8707   1.546   2.230   6.552
 2603SOL    HW1 8708   1.553   2.207   6.455
 2603SOL    HW2 8709   1.454   2.262   6.572
 2604SOL     OW 8710   5.766   1.594   0.361
 2604SOL    HW1 8711   5.668   1.583   0.375
 2604SOL    HW2 8712   5.816   1.524   0.412
 2605SOL     OW 8713   5.912   3.367   4.168
 2605SOL    HW1 8714   5.879   3.337   4.258
 2605SOL    HW2 8715   6.007   3.395   4.176
 2606SOL     OW 8716   7.006   4.461   1.236
 2606SOL    HW1 8717   0.075   4.431   1.274
 2606SOL    HW2 8718   6.974   4.394   1.170
 2607SOL     OW 8719   1.054   1.611   4.215
 2607SOL    HW1 8720   1.140   1.651   4.246
 2607SOL    HW2 8721   0.984   1.682   4.212
 2608SOL     OW 8722   5.045   0.051   0.664
 2608SOL    HW1 8723   5.131   0.099   0.680
 2608SOL    HW2 8724   4.988   0.057   0.746
 2609SOL     OW 8725   0.576   3.278   3.499
 2609SOL    HW1 8726   0.617   3.228   3.423
 2609SOL    HW2 8727   0.647   3.332   3.545
 2610SOL     OW 8728   5.548   5.651   4.398
 2610SOL    HW1 8729   5.632   5.681   4.444
 2610SOL    HW2 8730   5.480   5.724   4.401
 2611SOL     OW 8731   2.996   5.692   1.954
 2611SOL    HW1 8732   3.024   5.730   2.042
 2611SOL    HW2 8733   3.053   5.613   1.932
 2612SOL     OW 8734   0.436   0.134   5.284
 2612SOL    HW1 8735   0.534   0.141   5.301
 2612SOL    HW2 8736   0.417   0.053   5.229
 2613SOL     OW 8737   3.407   0.879   0.657
 2613SOL    HW1 8738   3.327   0.910   0.606
 2613SOL    HW2 8739   3.426   0.943   0.731
 2614SOL     OW 8740   6.405   6.212   6.554
 2614SOL    HW1 8741   6.322   6.178   6.599
 2614SOL    HW2 8742   6.439   6.291   6.604
 2615SOL     OW 8743   5.713   4.284   1.722
 2615SOL    HW1 8744   5.742   4.188   1.717
 2615SOL    HW2 8745   5.613   4.288   1.714
 2616SOL     OW 8746   3.950   3.701   2.001
 2616SOL    HW1 8747   3.991   3.653   2.078
 2616SOL    HW2 8748   3.938   3.797   2.024
 2617SOL     OW 8749   3.026   0.168   1.158
 2617SOL    HW1 8750   3.010   0.124   1.070
 2617SOL    HW2 8751   3.024   0.267   1.147
 2618SOL     OW 8752   1.182   6.961   0.515
 2618SOL    HW1 8753   1.171   6.898   0.438
 2618SOL    HW2 8754   1.220   6.913   0.594
 2619SOL     OW 8755   5.909   1.637   1.355
 2619SOL    HW1 8756   5.839   1.596   1.414
 2619SOL    HW2 8757   5.997   1.591   1.371
 2620SOL     OW 8758   1.216   5.252   4.164
 2620SOL    HW1 8759   1.153   5.283   4.235
 2620SOL    HW2 8760   1.288   5.320   4.151
 2621SOL     OW 8761   0.206   4.994   3.739
 2621SOL    HW1 8762   0.236   4.899   3.744
 2621SOL    HW2 8763   0.282   5.051   3.707
 2622SOL     OW 8764   2.398   2.590   6.074
 2622SOL    HW1 8765   2.430   2.647   5.998
 2622SOL    HW2 8766   2.355   2.647   6.143
 2623SOL     OW 8767   3.119   0.447   6.497
 2623SOL    HW1 8768   3.181   0.409   6.567
 2623SOL    HW2 8769   3.048   0.380   6.476
 2624SOL     OW 8770   6.422   1.836   3.862
 2624SOL    HW1 8771   6.509   1.882   3.844
 2624SOL    HW2 8772   6.429   1.781   3.946
 2625SOL     OW 8773   4.208   6.927   5.798
 2625SOL    HW1 8774   4.290   6.984   5.808
 2625SOL    HW2 8775   4.206   6.859   5.872
 2626SOL     OW 8776   2.430   0.149   2.757
 2626SOL    HW1 8777   2.518   0.157   2.805
 2626SOL    HW2 8778   2.358   0.189   2.813
 2627SOL     OW 8779   0.374   1.415   4.677
 2627SOL    HW1 8780   0.441   1.403   4.751
 2627SOL    HW2 8781   0.371   1.512   4.652
 2628SOL     OW 8782   3.844   6.068   6.572
 2628SOL    HW1 8783   3.829   6.155   6.620
 2628SOL    HW2 8784   3.821   5.992   6.633
 2629SOL     OW 8785   3.033   3.839   1.276
 2629SOL    HW1 8786   3.055   3.806   1.368
 2629SOL    HW2 8787   3.029   3.762   1.213
 2630SOL     OW 8788   2.667   2.329   2.158
 2630SOL    HW1 8789   2.762   2.297   2.160
 2630SOL    HW2 8790   2.648   2.370   2.069
 2631SOL     OW 8791   4.092   6.171   4.646
 2631SOL    HW1 8792   4.095   6.142   4.742
 2631SOL    HW2 8793   4.099   6.090   4.588
 2632SOL     OW 8794   4.878   0.897   0.931
 2632SOL    HW1 8795   4.887   0.979   0.987
 2632SOL    HW2 8796   4.968   0.873   0.893
 2633SOL     OW 8797   6.578   3.001   6.822
 2633SOL    HW1 8798   6.557   3.002   6.920
 2633SOL    HW2 8799   6.501   2.962   6.772
 2634SOL     OW 8800   3.151   5.023   1.388
 2634SOL    HW1 8801   3.160   5.109   1.337
 2634SOL    HW2 8802   3.087   4.964   1.340
 2635SOL     OW 8803   6.134   4.827   3.283
 2635SOL    HW1 8804   6.230   4.805   3.269
 2635SOL    HW2 8805   6.086   4.827   3.195
 2636SOL     OW 8806   6.076   6.625   4.935
 2636SOL    HW1 8807   6.056   6.529   4.918
 2636SOL    HW2 8808   6.008   6.664   4.997
 2637SOL     OW 8809   5.479   6.480   2.449
 2637SOL    HW1 8810   5.433   6.433   2.524
 2637SOL    HW2 8811   5.514   6.413   2.384
 2638SOL     OW 8812   5.268   5.651   0.539
 2638SOL    HW1 8813   5.188   5.599   0.570
 2638SOL    HW2 8814   5.332   5.662   0.614
 2639SOL     OW 8815   6.880   6.610   6.298
 2639SOL    HW1 8816   6.806   6.582   6.238
 2639SOL    HW2 8817   6.851   6.602   6.394
 2640SOL     OW 8818   6.185   6.959   6.540
 2640SOL    HW1 8819   6.254   0.013   6.553
 2640SOL    HW2 8820   6.186   6.931   6.444
 2641SOL     OW 8821   6.464   5.377   0.166
 2641SOL    HW1 8822   6.378   5.428   0.160
 2641SOL    HW2 8823   6.523   5.420   0.234
 2642SOL     OW 8824   6.655   0.900   4.079
 2642SOL    HW1 8825   6.613   0.809   4.071
 2642SOL    HW2 8826   6.754   0.891   4.077
 2643SOL     OW 8827   2.124   0.360   2.064
 2643SOL    HW1 8828   2.079   0.429   2.120
 2643SOL    HW2 8829   2.138   0.396   1.972
 2644SOL     OW 8830   0.143   5.849   5.629
 2644SOL    HW1 8831   0.162   5.754   5.653
 2644SOL    HW2 8832   0.044   5.864   5.629
 2645SOL     OW 8833   6.275   5.795   6.176
 2645SOL    HW1 8834   6.325   5.757   6.098
 2645SOL    HW2 8835   6.289   5.737   6.257
 2646SOL     OW 8836   6.107   6.391   0.113
 2646SOL    HW1 8837   6.020   6.439   0.115
 2646SOL    HW2 8838   6.096   6.304   0.064
 2647SOL     OW 8839   3.498   3.425   0.649
 2647SOL    HW1 8840   3.522   3.467   0.562
 2647SOL    HW2 8841   3.427   3.356   0.635
 2648SOL     OW 8842   4.337   1.102   3.777
 2648SOL    HW1 8843   4.344   1.201   3.769
 2648SOL    HW2 8844   4.241   1.075   3.774
 2649SOL     OW 8845   3.583   2.971   5.239
 2649SOL    HW1 8846   3.651   3.039   5.213
 2649SOL    HW2 8847   3.501   2.983   5.184
 2650SOL     OW 8848   6.634   6.593   2.407
 2650SOL    HW1 8849   6.676   6.684   2.410
 2650SOL    HW2 8850   6.703   6.525   2.385
 2651SOL     OW 8851   0.222   0.219   3.277
 2651SOL    HW1 8852   0.136   0.239   3.324
 2651SOL    HW2 8853   0.296   0.271   3.320
 2652SOL     OW 8854   3.500   2.853   2.836
 2652SOL    HW1 8855   3.550   2.768   2.850
 2652SOL    HW2 8856   3.516   2.914   2.914
 2653SOL     OW 8857   6.646   5.506   0.329
 2653SOL    HW1 8858   6.621   5.504   0.426
 2653SOL    HW2 8859   6.707   5.429   0.309
 2654SOL     OW 8860   6.038   1.457   6.093
 2654SOL    HW1 8861   6.111   1.494   6.035
 2654SOL    HW2 8862   6.078   1.405   6.168
 2655SOL     OW 8863   4.623   5.818   4.576
 2655SOL    HW1 8864   4.646   5.721   4.587
 2655SOL    HW2 8865   4.527   5.833   4.600
 2656SOL     OW 8866   5.514   3.295   4.510
 2656SOL    HW1 8867   5.525   3.380   4.560
 2656SOL    HW2 8868   5.579   3.227   4.544
 2657SOL     OW 8869   3.399   2.520   6.059
 2657SOL    HW1 8870   3.375   2.426   6.034
 2657SOL    HW2 8871   3.432   2.522   6.154
 2658SOL     OW 8872   6.132   4.455   5.571
 2658SOL    HW1 8873   6.055   4.456   5.506
 2658SOL    HW2 8874   6.172   4.546   5.577
 2659SOL     OW 8875   6.613   1.745   2.963
 2659SOL    HW1 8876   6.532   1.792   2.928
 2659SOL    HW2 8877   6.588   1.656   2.999
 2660SOL     OW 8878   6.842   2.303   2.638
 2660SOL    HW1 8879   6.791   2.285   2.722
 2660SOL    HW2 8880   6.778   2.330   2.566
 2661SOL     OW 8881   3.595   6.561   2.366
 2661SOL    HW1 8882   3.595   6.511   2.279
 2661SOL    HW2 8883   3.626   6.655   2.351
 2662SOL     OW 8884   3.536   0.623   3.293
 2662SOL    HW1 8885   3.583   0.535   3.301
 2662SOL    HW2 8886   3.519   0.644   3.197
 2663SOL     OW 8887   0.766   4.199   2.809
 2663SOL    HW1 8888   0.797   4.180   2.716
 2663SOL    HW2 8889   0.721   4.118   2.847
 2664SOL     OW 8890   4.230   4.039   1.696
 2664SOL    HW1 8891   4.134   4.065   1.709
 2664SOL    HW2 8892   4.287   4.086   1.763
 2665SOL     OW 8893   4.708   0.726   4.900
 2665SOL    HW1 8894   4.612   0.737   4.876
 2665SOL    HW2 8895   4.764   0.781   4.838
 2666SOL     OW 8896   4.874   6.144   1.720
 2666SOL    HW1 8897   4.971   6.150   1.694
 2666SOL    HW2 8898   4.865   6.085   1.800
 2667SOL     OW 8899   1.470   5.173   3.616
 2667SOL    HW1 8900   1.371   5.161   3.611
 2667SOL    HW2 8901   1.497   5.191   3.711
 2668SOL     OW 8902   6.483   2.524   5.618
 2668SOL    HW1 8903   6.534   2.528   5.532
 2668SOL    HW2 8904   6.536   2.472   5.686
 2669SOL     OW 8905   4.201   5.451   5.449
 2669SOL    HW1 8906   4.134   5.521   5.426
 2669SOL    HW2 8907   4.237   5.409   5.366
 2670SOL     OW 8908   2.143   6.869   5.511
 2670SOL    HW1 8909   2.203   6.826   5.579
 2670SOL    HW2 8910   2.085   6.938   5.555
 2671SOL     OW 8911   3.383   4.451   6.138
 2671SOL    HW1 8912   3.324   4.378   6.104
 2671SOL    HW2 8913   3.447   4.478   6.065
 2672SOL     OW 8914   1.307   3.966   0.392
 2672SOL    HW1 8915   1.388   4.019   0.364
 2672SOL    HW2 8916   1.225   4.005   0.350
 2673SOL     OW 8917   4.221   2.347   3.772
 2673SOL    HW1 8918   4.125   2.362   3.752
 2673SOL    HW2 8919   4.274   2.345   3.687
 2674SOL     OW 8920   6.141   5.274   5.298
 2674SOL    HW1 8921   6.182   5.195   5.253
 2674SOL    HW2 8922   6.117   5.343   5.230
 2675SOL     OW 8923   0.711   4.334   5.262
 2675SOL    HW1 8924   0.642   4.338   5.190
 2675SOL    HW2 8925   0.670   4.360   5.349
 2676SOL     OW 8926   4.747   0.664   2.012
 2676SOL    HW1 8927   4.780   0.660   2.106
 2676SOL    HW2 8928   4.658   0.709   2.009
 2677SOL     OW 8929   2.724   4.673   2.599
 2677SOL    HW1 8930   2.737   4.730   2.680
 2677SOL    HW2 8931   2.685   4.585   2.626
 2678SOL     OW 8932   0.051   6.485   6.132
 2678SOL    HW1 8933   0.008   6.492   6.042
 2678SOL    HW2 8934   7.002   6.510   6.202
 2679SOL     OW 8935   2.950   4.993   1.160
 2679SOL    HW1 8936   2.923   4.897   1.165
 2679SOL    HW2 8937   2.883   5.050   1.207
 2680SOL     OW 8938   1.462   2.119   1.557
 2680SOL    HW1 8939   1.462   2.200   1.615
 2680SOL    HW2 8940   1.541   2.123   1.495
 2681SOL     OW 8941   1.949   1.715   2.863
 2681SOL    HW1 8942   1.959   1.790   2.928
 2681SOL    HW2 8943   2.040   1.683   2.835
 2682SOL     OW 8944   6.024   2.172   3.926
 2682SOL    HW1 8945   6.113   2.128   3.913
 2682SOL    HW2 8946   5.959   2.136   3.861
 2683SOL     OW 8947   1.932   0.240   1.706
 2683SOL    HW1 8948   1.864   0.215   1.775
 2683SOL    HW2 8949   1.986   0.160   1.681
 2684SOL     OW 8950   2.556   5.433   3.054
 2684SOL    HW1 8951   2.587   5.407   3.145
 2684SOL    HW2 8952   2.616   5.392   2.985
 2685SOL     OW 8953   5.637   5.870   5.485
 2685SOL    HW1 8954   5.714   5.887   5.547
 2685SOL    HW2 8955   5.660   5.795   5.424
 2686SOL     OW 8956   0.934   2.973   4.676
 2686SOL    HW1 8957   0.996   2.951   4.601
 2686SOL    HW2 8958   0.941   2.903   4.747
 2687SOL     OW 8959   4.810   4.886   3.099
 2687SOL    HW1 8960   4.835   4.791   3.119
 2687SOL    HW2 8961   4.893   4.937   3.075
 2688SOL     OW 8962   4.306   5.055   5.669
 2688SOL    HW1 8963   4.216   5.023   5.639
 2688SOL    HW2 8964   4.317   5.151   5.643
 2689SOL     OW 8965   0.244   3.113   3.780
 2689SOL    HW1 8966   0.176   3.163   3.835
 2689SOL    HW2 8967   0.333   3.118   3.825
 2690SOL     OW 8968   3.516   2.891   3.128
 2690SOL    HW1 8969   3.563   2.870   3.214
 2690SOL    HW2 8970   3.418   2.898   3.145
 2691SOL     OW 8971   1.332   5.467   1.823
 2691SOL    HW1 8972   1.432   5.472   1.822
 2691SOL    HW2 8973   1.298   5.462   1.729
 2692SOL     OW 8974   0.202   5.386   2.994
 2692SOL    HW1 8975   0.177   5.432   3.080
 2692SOL    HW2 8976   0.272   5.318   3.012
 2693SOL     OW 8977   1.751   3.314   2.927
 2693SOL    HW1 8978   1.797   3.376   2.863
 2693SOL    HW2 8979   1.811   3.235   2.945
 2694SOL     OW 8980   2.576   0.957   3.274
 2694SOL    HW1 8981   2.627   1.014   3.209
 2694SOL    HW2 8982   2.542   0.875   3.227
 2695SOL     OW 8983   3.949   2.194   2.905
 2695SOL    HW1 8984   3.855   2.212   2.934
 2695SOL    HW2 8985   4.003   2.164   2.984
 2696SOL     OW 8986   4.221   3.875   5.246
 2696SOL    HW1 8987   4.185   3.842   5.333
 2696SOL    HW2 8988   4.147   3.880   5.179
 2697SOL     OW 8989   2.647   1.896   4.157
 2697SOL    HW1 8990   2.661   1.950   4.074
 2697SOL    HW2 8991   2.717   1.825   4.163
 2698SOL     OW 8992   2.213   3.417   6.746
 2698SOL    HW1 8993   2.256   3.367   6.821
 2698SOL    HW2 8994   2.183   3.352   6.676
 2699SOL     OW 8995   2.647   5.687   2.812
 2699SOL    HW1 8996   2.671   5.633   2.731
 2699SOL    HW2 8997   2.573   5.642   2.862
 2700SOL     OW 8998   1.415   4.331   3.146
 2700SOL    HW1 8999   1.377   4.402   3.087
 2700SOL    HW2 9000   1.468   4.266   3.092
 2701SOL     OW 9001   3.524   0.317   5.804
 2701SOL    HW1 9002   3.515   0.413   5.830
 2701SOL    HW2 9003   3.621   0.297   5.786
 2702SOL     OW 9004   0.065   6.609   2.920
 2702SOL    HW1 9005   0.048   6.599   3.018
 2702SOL    HW2 9006   0.123   6.689   2.904
 2703SOL     OW 9007   1.729   1.804   3.517
 2703SOL    HW1 9008   1.705   1.893   3.479
 2703SOL    HW2 9009   1.653   1.770   3.573
 2704SOL     OW 9010   1.251   6.229   0.069
 2704SOL    HW1 9011   1.181   6.300   0.079
 2704SOL    HW2 9012   1.341   6.267   0.089
 2705SOL     OW 9013   0.096   4.333   2.618
 2705SOL    HW1 9014   0.160   4.342   2.694
 2705SOL    HW2 9015   0.095   4.238   2.586
 2706SOL     OW 9016   6.589   2.442   2.099
 2706SOL    HW1 9017   6.567   2.347   2.121
 2706SOL    HW2 9018   6.506   2.497   2.101
 2707SOL     OW 9019   2.349   1.298   6.177
 2707SOL    HW1 9020   2.392   1.325   6.263
 2707SOL    HW2 9021   2.288   1.220   6.193
 2708SOL     OW 9022   2.040   4.112   0.809
 2708SOL    HW1 9023   2.078   4.124   0.901
 2708SOL    HW2 9024   2.040   4.199   0.761
 2709SOL     OW 9025   3.980   6.784   1.527
 2709SOL    HW1 9026   4.079   6.794   1.521
 2709SOL    HW2 9027   3.940   6.870   1.560
 2710SOL     OW 9028   6.243   4.246   2.231
 2710SOL    HW1 9029   6.295   4.330   2.217
 2710SOL    HW2 9030   6.182   4.231   2.153
 2711SOL     OW 9031   1.089   6.406   1.928
 2711SOL    HW1 9032   1.008   6.392   1.871
 2711SOL    HW2 9033   1.116   6.502   1.924
 2712SOL     OW 9034   3.243   5.105   2.659
 2712SOL    HW1 9035   3.312   5.033   2.650
 2712SOL    HW2 9036   3.158   5.066   2.695
 2713SOL     OW 9037   2.285   2.258   4.764
 2713SOL    HW1 9038   2.205   2.199   4.781
 2713SOL    HW2 9039   2.367   2.201   4.757
 2714SOL     OW 9040   5.473   0.036   5.685
 2714SOL    HW1 9041   5.409   0.011   5.612
 2714SOL    HW2 9042   5.421   0.063   5.767
 2715SOL     OW 9043   6.443   0.019   0.772
 2715SOL    HW1 9044   6.376   0.010   0.847
 2715SOL    HW2 9045   6.394   0.027   0.685
 2716SOL     OW 9046   0.160   6.640   2.660
 2716SOL    HW1 9047   0.129   6.726   2.619
 2716SOL    HW2 9048   0.139   6.640   2.757
 2717SOL     OW 9049   1.211   0.509   3.046
 2717SOL    HW1 9050   1.261   0.438   2.996
 2717SOL    HW2 9051   1.276   0.567   3.096
 2718SOL     OW 9052   0.982   4.633   3.182
 2718SOL    HW1 9053   1.025   4.681   3.105
 2718SOL    HW2 9054   0.997   4.535   3.172
 2719SOL     OW 9055   4.339   4.815   3.118
 2719SOL    HW1 9056   4.356   4.777   3.209
 2719SOL    HW2 9057   4.251   4.783   3.084
 2720SOL     OW 9058   0.297   6.144   3.813
 2720SOL    HW1 9059   0.383   6.190   3.834
 2720SOL    HW2 9060   0.292   6.125   3.715
 2721SOL     OW 9061   5.081   6.455   4.747
 2721SOL    HW1 9062   5.077   6.369   4.798
 2721SOL    HW2 9063   4.994   6.469   4.700
 2722SOL     OW 9064   1.039   5.868   1.348
 2722SOL    HW1 9065   0.998   5.806   1.281
 2722SOL    HW2 9066   1.129   5.896   1.317
 2723SOL     OW 9067   1.805   1.373   4.821
 2723SOL    HW1 9068   1.810   1.438   4.896
 2723SOL    HW2 9069   1.848   1.287   4.848
 2724SOL     OW 9070   3.613   6.123   6.396
 2724SOL    HW1 9071   3.688   6.063   6.423
 2724SOL    HW2 9072   3.588   6.182   6.472
 2725SOL     OW 9073   2.762   4.769   3.591
 2725SOL    HW1 9074   2.776   4.747   3.687
 2725SOL    HW2 9075   2.801   4.859   3.571
 2726SOL     OW 9076   4.829   6.320   2.146
 2726SOL    HW1 9077   4.894   6.253   2.110
 2726SOL    HW2 9078   4.875   6.380   2.211
 2727SOL     OW 9079   2.029   5.446   3.056
 2727SOL    HW1 9080   2.094   5.380   3.092
 2727SOL    HW2 9081   1.941   5.436   3.103
 2728SOL     OW 9082   3.569   6.664   5.164
 2728SOL    HW1 9083   3.601   6.569   5.169
 2728SOL    HW2 9084   3.515   6.686   5.245
 2729SOL     OW 9085   6.664   4.962   2.360
 2729SOL    HW1 9086   6.665   4.991   2.455
 2729SOL    HW2 9087   6.750   4.988   2.316
 2730SOL     OW 9088   1.399   4.479   1.449
 2730SOL    HW1 9089   1.492   4.505   1.423
 2730SOL    HW2 9090   1.336   4.554   1.427
 2731SOL     OW 9091   2.768   3.847   1.157
 2731SOL    HW1 9092   2.793   3.848   1.060
 2731SOL    HW2 9093   2.849   3.863   1.213
 2732SOL     OW 9094   5.192   2.879   4.155
 2732SOL    HW1 9095   5.153   2.841   4.238
 2732SOL    HW2 9096   5.271   2.936   4.178
 2733SOL     OW 9097   2.165   0.502   5.695
 2733SOL    HW1 9098   2.235   0.468   5.632
 2733SOL    HW2 9099   2.201   0.579   5.747
 2734SOL     OW 9100   2.246   6.833   3.773
 2734SOL    HW1 9101   2.331   6.794   3.810
 2734SOL    HW2 9102   2.168   6.783   3.809
 2735SOL     OW 9103   2.002   5.054   1.241
 2735SOL    HW1 9104   2.065   4.981   1.265
 2735SOL    HW2 9105   2.050   5.124   1.188
 2736SOL     OW 9106   3.366   6.524   6.658
 2736SOL    HW1 9107   3.296   6.528   6.730
 2736SOL    HW2 9108   3.438   6.591   6.678
 2737SOL     OW 9109   4.185   3.274   5.532
 2737SOL    HW1 9110   4.230   3.198   5.580
 2737SOL    HW2 9111   4.243   3.305   5.458
 2738SOL     OW 9112   5.725   4.233   4.363
 2738SOL    HW1 9113   5.777   4.318   4.365
 2738SOL    HW2 9114   5.736   4.190   4.273
 2739SOL     OW 9115   5.527   3.457   0.705
 2739SOL    HW1 9116   5.505   3.554   0.711
 2739SOL    HW2 9117   5.444   3.403   0.718
 2740SOL     OW 9118   6.174   2.634   2.865
 2740SOL    HW1 9119   6.090   2.639   2.920
 2740SOL    HW2 9120   6.155   2.667   2.772
 2741SOL     OW 9121   1.350   2.629   4.816
 2741SOL    HW1 9122   1.403   2.571   4.755
 2741SOL    HW2 9123   1.377   2.612   4.911
 2742SOL     OW 9124   2.806   6.353   5.466
 2742SOL    HW1 9125   2.741   6.284   5.434
 2742SOL    HW2 9126   2.853   6.319   5.548
 2743SOL     OW 9127   6.116   4.757   0.510
 2743SOL    HW1 9128   6.078   4.700   0.438
 2743SOL    HW2 9129   6.086   4.722   0.599
 2744SOL     OW 9130   4.160   0.410   6.941
 2744SOL    HW1 9131   4.233   0.477   6.949
 2744SOL    HW2 9132   4.194   0.320   6.967
 2745SOL     OW 9133   2.194   5.456   1.245
 2745SOL    HW1 9134   2.217   5.387   1.314
 2745SOL    HW2 9135   2.203   5.547   1.286
 2746SOL     OW 9136   1.060   2.292   6.847
 2746SOL    HW1 9137   1.079   2.390   6.836
 2746SOL    HW2 9138   1.140   2.240   6.817
 2747SOL     OW 9139   5.278   5.783   3.742
 2747SOL    HW1 9140   5.336   5.798   3.662
 2747SOL    HW2 9141   5.185   5.813   3.722
 2748SOL     OW 9142   4.295   0.886   4.503
 2748SOL    HW1 9143   4.294   0.804   4.445
 2748SOL    HW2 9144   4.336   0.962   4.453
 2749SOL     OW 9145   5.042   4.159   3.787
 2749SOL    HW1 9146   4.974   4.124   3.851
 2749SOL    HW2 9147   5.069   4.251   3.815
 2750SOL     OW 9148   0.333   6.324   0.958
 2750SOL    HW1 9149   0.367   6.334   0.865
 2750SOL    HW2 9150   0.400   6.275   1.013
 2751SOL     OW 9151   1.939   6.955   0.085
 2751SOL    HW1 9152   1.870   7.009   0.037
 2751SOL    HW2 9153   1.901   6.919   0.170
 2752SOL     OW 9154   6.636   6.271   5.568
 2752SOL    HW1 9155   6.667   6.186   5.526
 2752SOL    HW2 9156   6.710   6.338   5.567
 2753SOL     OW 9157   3.063   5.173   5.338
 2753SOL    HW1 9158   3.058   5.073   5.335
 2753SOL    HW2 9159   3.158   5.202   5.328
 2754SOL     OW 9160   0.691   6.037   4.202
 2754SOL    HW1 9161   0.774   5.994   4.168
 2754SOL    HW2 9162   0.671   6.003   4.294
 2755SOL     OW 9163   3.704   6.087   2.289
 2755SOL    HW1 9164   3.699   6.169   2.233
 2755SOL    HW2 9165   3.729   6.009   2.232
 2756SOL     OW 9166   0.127   3.140   5.632
 2756SOL    HW1 9167   0.150   3.235   5.609
 2756SOL    HW2 9168   0.030   3.133   5.654
 2757SOL     OW 9169   4.462   3.584   6.822
 2757SOL    HW1 9170   4.540   3.620   6.769
 2757SOL    HW2 9171   4.468   3.617   6.916
 2758SOL     OW 9172   0.238   6.859   2.019
 2758SOL    HW1 9173   0.181   6.789   2.061
 2758SOL    HW2 9174   0.304   6.893   2.085
 2759SOL     OW 9175   3.389   3.364   5.423
 2759SOL    HW1 9176   3.421   3.456   5.442
 2759SOL    HW2 9177   3.457   3.297   5.453
 2760SOL     OW 9178   6.029   5.846   2.238
 2760SOL    HW1 9179   6.109   5.884   2.192
 2760SOL    HW2 9180   6.042   5.748   2.250
 2761SOL     OW 9181   1.472   2.863   3.085
 2761SOL    HW1 9182   1.383   2.907   3.099
 2761SOL    HW2 9183   1.540   2.905   3.144
 2762SOL     OW 9184   3.368   1.726   0.808
 2762SOL    HW1 9185   3.315   1.721   0.893
 2762SOL    HW2 9186   3.430   1.647   0.802
 2763SOL     OW 9187   5.904   1.561   4.111
 2763SOL    HW1 9188   5.807   1.570   4.133
 2763SOL    HW2 9189   5.933   1.466   4.127
 2764SOL     OW 9190   0.476   2.920   2.957
 2764SOL    HW1 9191   0.494   2.929   3.055
 2764SOL    HW2 9192   0.512   3.001   2.910
 2765SOL     OW 9193   5.880   6.497   5.913
 2765SOL    HW1 9194   5.929   6.424   5.865
 2765SOL    HW2 9195   5.928   6.584   5.898
 2766SOL     OW 9196   4.486   0.201   7.015
 2766SOL    HW1 9197   4.393   0.205   6.978
 2766SOL    HW2 9198   4.488   0.139   0.075
 2767SOL     OW 9199   0.885   5.141   6.549
 2767SOL    HW1 9200   0.871   5.109   6.455
 2767SOL    HW2 9201   0.947   5.079   6.596
 2768SOL     OW 9202   3.889   6.805   1.052
 2768SOL    HW1 9203   3.893   6.904   1.067
 2768SOL    HW2 9204   3.873   6.758   1.139
 2769SOL     OW 9205   1.027   4.811   5.644
 2769SOL    HW1 9206   0.978   4.884   5.597
 2769SOL    HW2 9207   0.972   4.776   5.720
 2770SOL     OW 9208   2.050   0.129   0.945
 2770SOL    HW1 9209   2.076   0.214   0.899
 2770SOL    HW2 9210   2.111   0.055   0.916
 2771SOL     OW 9211   4.453   6.987   5.459
 2771SOL    HW1 9212   4.455   6.896   5.418
 2771SOL    HW2 9213   4.373   0.019   5.425
 2772SOL     OW 9214   4.789   1.437   3.762
 2772SOL    HW1 9215   4.775   1.375   3.839
 2772SOL    HW2 9216   4.841   1.390   3.690
 2773SOL     OW 9217   6.251   2.742   5.120
 2773SOL    HW1 9218   6.174   2.716   5.061
 2773SOL    HW2 9219   6.271   2.666   5.182
 2774SOL     OW 9220   6.132   1.163   3.880
 2774SOL    HW1 9221   6.039   1.154   3.916
 2774SOL    HW2 9222   6.133   1.144   3.782
 2775SOL     OW 9223   0.017   3.414   4.341
 2775SOL    HW1 9224   7.001   3.490   4.396
 2775SOL    HW2 9225   6.966   3.342   4.335
 2776SOL     OW 9226   4.666   4.443   6.084
 2776SOL    HW1 9227   4.762   4.431   6.058
 2776SOL    HW2 9228   4.661   4.496   6.169
 2777SOL     OW 9229   2.024   2.305   6.635
 2777SOL    HW1 9230   2.027   2.209   6.608
 2777SOL    HW2 9231   1.930   2.330   6.658
 2778SOL     OW 9232   2.841   0.800   6.286
 2778SOL    HW1 9233   2.874   0.745   6.363
 2778SOL    HW2 9234   2.911   0.867   6.261
 2779SOL     OW 9235   5.157   1.055   1.751
 2779SOL    HW1 9236   5.105   1.007   1.681
 2779SOL    HW2 9237   5.097   1.121   1.798
 2780SOL     OW 9238   6.632   1.021   4.923
 2780SOL    HW1 9239   6.626   0.930   4.881
 2780SOL    HW2 9240   6.696   1.018   5.000
 2781SOL     OW 9241   6.276   0.865   3.249
 2781SOL    HW1 9242   6.306   0.779   3.208
 2781SOL    HW2 9243   6.209   0.908   3.189
 2782SOL     OW 9244   5.634   1.123   5.979
 2782SOL    HW1 9245   5.727   1.150   6.005
 2782SOL    HW2 9246   5.606   1.044   6.034
 2783SOL     OW 9247   5.927   3.177   1.683
 2783SOL    HW1 9248   5.858   3.249   1.691
 2783SOL    HW2 9249   6.018   3.218   1.684
 2784SOL     OW 9250   0.660   3.093   1.221
 2784SOL    HW1 9251   0.701   3.152   1.151
 2784SOL    HW2 9252   0.603   3.148   1.281
 2785SOL     OW 9253   5.582   3.633   2.681
 2785SOL    HW1 9254   5.526   3.569   2.734
 2785SOL    HW2 9255   5.523   3.686   2.619
 2786SOL     OW 9256   1.132   6.526   0.481
 2786SOL    HW1 9257   1.041   6.510   0.443
 2786SOL    HW2 9258   1.136   6.487   0.573
 2787SOL     OW 9259   0.522   5.611   6.703
 2787SOL    HW1 9260   0.451   5.602   6.634
 2787SOL    HW2 9261   0.609   5.635   6.659
 2788SOL     OW 9262   2.678   6.927   6.943
 2788SOL    HW1 9263   2.702   6.837   6.908
 2788SOL    HW2 9264   2.725   6.943   0.011
 2789SOL     OW 9265   1.598   2.042   4.482
 2789SOL    HW1 9266   1.619   1.946   4.498
 2789SOL    HW2 9267   1.552   2.080   4.562
 2790SOL     OW 9268   0.360   5.936   1.845
 2790SOL    HW1 9269   0.315   5.994   1.777
 2790SOL    HW2 9270   0.381   5.990   1.927
 2791SOL     OW 9271   1.062   3.253   4.363
 2791SOL    HW1 9272   1.140   3.192   4.373
 2791SOL    HW2 9273   1.050   3.307   4.447
 2792SOL     OW 9274   3.266   1.477   6.049
 2792SOL    HW1 9275   3.254   1.378   6.038
 2792SOL    HW2 9276   3.176   1.520   6.056
 2793SOL     OW 9277   3.636   3.905   0.252
 2793SOL    HW1 9278   3.554   3.851   0.233
 2793SOL    HW2 9279   3.619   4.001   0.228
 2794SOL     OW 9280   1.960   2.201   7.008
 2794SOL    HW1 9281   1.963   2.146   0.073
 2794SOL    HW2 9282   1.867   2.234   6.993
 2795SOL     OW 9283   1.424   6.357   1.172
 2795SOL    HW1 9284   1.499   6.324   1.229
 2795SOL    HW2 9285   1.457   6.431   1.113
 2796SOL     OW 9286   1.709   6.196   6.610
 2796SOL    HW1 9287   1.619   6.153   6.615
 2796SOL    HW2 9288   1.739   6.199   6.515
 2797SOL     OW 9289   4.852   4.016   3.920
 2797SOL    HW1 9290   4.866   4.043   4.015
 2797SOL    HW2 9291   4.755   4.023   3.897
 2798SOL     OW 9292   5.410   1.396   1.864
 2798SOL    HW1 9293   5.502   1.424   1.835
 2798SOL    HW2 9294   5.419   1.324   1.934
 2799SOL     OW 9295   3.345   6.567   4.704
 2799SOL    HW1 9296   3.438   6.530   4.696
 2799SOL    HW2 9297   3.336   6.618   4.789
 2800SOL     OW 9298   4.763   0.637   6.068
 2800SOL    HW1 9299   4.827   0.632   6.145
 2800SOL    HW2 9300   4.670   0.621   6.101
 2801SOL     OW 9301   6.890   4.722   3.909
 2801SOL    HW1 9302   6.795   4.717   3.940
 2801SOL    HW2 9303   6.916   4.635   3.868
 2802SOL     OW 9304   1.371   5.231   4.894
 2802SOL    HW1 9305   1.338   5.234   4.800
 2802SOL    HW2 9306   1.416   5.143   4.911
 2803SOL     OW 9307   3.210   2.447   6.795
 2803SOL    HW1 9308   3.260   2.533   6.804
 2803SOL    HW2 9309   3.236   2.403   6.709
 2804SOL     OW 9310   6.461   2.432   3.434
 2804SOL    HW1 9311   6.491   2.399   3.345
 2804SOL    HW2 9312   6.373   2.477   3.425
 2805SOL     OW 9313   4.148   4.960   0.513
 2805SOL    HW1 9314   4.238   4.975   0.473
 2805SOL    HW2 9315   4.078   4.976   0.443
 2806SOL     OW 9316   0.301   3.272   5.126
 2806SOL    HW1 9317   0.325   3.191   5.178
 2806SOL    HW2 9318   0.305   3.352   5.186
 2807SOL     OW 9319   4.458   1.046   4.015
 2807SOL    HW1 9320   4.496   0.985   3.945
 2807SOL    HW2 9321   4.387   0.997   4.066
 2808SOL     OW 9322   1.112   5.680   6.051
 2808SOL    HW1 9323   1.173   5.729   5.989
 2808SOL    HW2 9324   1.051   5.621   5.999
 2809SOL     OW 9325   0.546   6.182   1.968
 2809SOL    HW1 9326   0.489   6.235   1.905
 2809SOL    HW2 9327   0.634   6.229   1.981
 2810SOL     OW 9328   1.129   6.189   2.979
 2810SOL    HW1 9329   1.140   6.188   3.078
 2810SOL    HW2 9330   1.164   6.275   2.942
 2811SOL     OW 9331   1.087   1.312   0.613
 2811SOL    HW1 9332   1.010   1.372   0.633
 2811SOL    HW2 9333   1.054   1.232   0.564
 2812SOL     OW 9334   1.512   1.544   0.557
 2812SOL    HW1 9335   1.594   1.576   0.510
 2812SOL    HW2 9336   1.442   1.616   0.553
 2813SOL     OW 9337   0.835   3.263   1.062
 2813SOL    HW1 9338   0.824   3.361   1.047
 2813SOL    HW2 9339   0.877   3.221   0.981
 2814SOL     OW 9340   2.596   4.299   6.960
 2814SOL    HW1 9341   2.628   4.205   6.953
 2814SOL    HW2 9342   2.674   4.360   6.976
 2815SOL     OW 9343   0.050   5.424   4.501
 2815SOL    HW1 9344   0.080   5.518   4.520
 2815SOL    HW2 9345   0.001   5.388   4.580
 2816SOL     OW 9346   1.079   5.210   4.781
 2816SOL    HW1 9347   1.176   5.219   4.758
 2816SOL    HW2 9348   1.048   5.293   4.829
 2817SOL     OW 9349   3.000   1.008   2.454
 2817SOL    HW1 9350   2.918   0.973   2.409
 2817SOL    HW2 9351   2.974   1.051   2.541
 2818SOL     OW 9352   1.379   0.319   0.191
 2818SOL    HW1 9353   1.391   0.403   0.244
 2818SOL    HW2 9354   1.293   0.323   0.140
 2819SOL     OW 9355   0.819   0.424   6.614
 2819SOL    HW1 9356   0.783   0.339   6.576
 2819SOL    HW2 9357   0.762   0.501   6.583
 2820SOL     OW 9358   1.824   1.999   6.848
 2820SOL    HW1 9359   1.852   1.905   6.867
 2820SOL    HW2 9360   1.902   2.061   6.862
 2821SOL     OW 9361   3.254   2.967   6.395
 2821SOL    HW1 9362   3.167   2.923   6.418
 2821SOL    HW2 9363   3.325   2.897   6.388
 2822SOL     OW 9364   4.251   3.008   0.738
 2822SOL    HW1 9365   4.343   3.037   0.712
 2822SOL    HW2 9366   4.184   3.057   0.681
 2823SOL     OW 9367   5.038   3.746   1.656
 2823SOL    HW1 9368   5.057   3.762   1.559
 2823SOL    HW2 9369   5.125   3.744   1.706
 2824SOL     OW 9370   0.691   4.779   5.348
 2824SOL    HW1 9371   0.725   4.757   5.256
 2824SOL    HW2 9372   0.595   4.752   5.355
 2825SOL     OW 9373   5.167   1.688   5.737
 2825SOL    HW1 9374   5.101   1.756   5.704
 2825SOL    HW2 9375   5.118   1.618   5.789
 2826SOL     OW 9376   3.167   3.315   0.345
 2826SOL    HW1 9377   3.204   3.270   0.426
 2826SOL    HW2 9378   3.068   3.325   0.354
 2827SOL     OW 9379   5.930   1.881   6.640
 2827SOL    HW1 9380   5.946   1.939   6.720
 2827SOL    HW2 9381   5.868   1.928   6.577
 2828SOL     OW 9382   1.532   4.237   0.577
 2828SOL    HW1 9383   1.435   4.259   0.589
 2828SOL    HW2 9384   1.585   4.321   0.579
 2829SOL     OW 9385   3.557   3.546   1.789
 2829SOL    HW1 9386   3.617   3.542   1.869
 2829SOL    HW2 9387   3.550   3.455   1.748
 2830SOL     OW 9388   3.354   5.832   4.468
 2830SOL    HW1 9389   3.382   5.928   4.461
 2830SOL    HW2 9390   3.254   5.826   4.467
 2831SOL     OW 9391   0.003   1.620   1.936
 2831SOL    HW1 9392   0.090   1.649   1.896
 2831SOL    HW2 9393   6.966   1.574   1.867
 2832SOL     OW 9394   0.863   3.261   2.513
 2832SOL    HW1 9395   0.770   3.246   2.480
 2832SOL    HW2 9396   0.874   3.357   2.539
 2833SOL     OW 9397   6.952   2.640   2.350
 2833SOL    HW1 9398   7.016   2.565   2.333
 2833SOL    HW2 9399   6.963   2.671   2.445
 2834SOL     OW 9400   3.623   0.156   4.230
 2834SOL    HW1 9401   3.722   0.142   4.237
 2834SOL    HW2 9402   3.586   0.177   4.320
 2835SOL     OW 9403   6.948   1.005   6.934
 2835SOL    HW1 9404   0.025   0.989   6.908
 2835SOL    HW2 9405   6.927   1.103   6.924
 2836SOL     OW 9406   2.946   5.255   2.758
 2836SOL    HW1 9407   2.961   5.308   2.675
 2836SOL    HW2 9408   2.986   5.303   2.836
 2837SOL     OW 9409   5.182   4.303   1.976
 2837SOL    HW1 9410   5.189   4.297   2.076
 2837SOL    HW2 9411   5.150   4.215   1.940
 2838SOL     OW 9412   6.664   3.825   6.099
 2838SOL    HW1 9413   6.644   3.737   6.056
 2838SOL    HW2 9414   6.762   3.844   6.092
 2839SOL     OW 9415   5.784   2.586   5.598
 2839SOL    HW1 9416   5.802   2.616   5.691
 2839SOL    HW2 9417   5.686   2.576   5.584
 2840SOL     OW 9418   5.807   6.478   4.432
 2840SOL    HW1 9419   5.765   6.444   4.516
 2840SOL    HW2 9420   5.858   6.405   4.388
 2841SOL     OW 9421   5.247   4.003   2.249
 2841SOL    HW1 9422   5.321   4.069   2.244
 2841SOL    HW2 9423   5.278   3.914   2.214
 2842SOL     OW 9424   0.722   0.108   3.805
 2842SOL    HW1 9425   0.636   0.090   3.756
 2842SOL    HW2 9426   0.702   0.148   3.894
 2843SOL     OW 9427   2.470   2.610   3.662
 2843SOL    HW1 9428   2.464   2.528   3.605
 2843SOL    HW2 9429   2.476   2.584   3.758
 2844SOL     OW 9430   5.335   3.384   1.079
 2844SOL    HW1 9431   5.311   3.480   1.092
 2844SOL    HW2 9432   5.302   3.331   1.157
 2845SOL     OW 9433   3.143   2.003   1.760
 2845SOL    HW1 9434   3.228   2.055   1.768
 2845SOL    HW2 9435   3.073   2.061   1.719
 2846SOL     OW 9436   5.708   6.967   6.688
 2846SOL    HW1 9437   5.777   6.925   6.629
 2846SOL    HW2 9438   5.743   0.035   6.725
 2847SOL     OW 9439   4.911   5.082   1.018
 2847SOL    HW1 9440   4.869   4.994   1.038
 2847SOL    HW2 9441   4.849   5.156   1.046
 2848SOL     OW 9442   0.727   4.393   6.068
 2848SOL    HW1 9443   0.728   4.382   5.969
 2848SOL    HW2 9444   0.676   4.476   6.092
 2849SOL     OW 9445   4.983   0.916   1.573
 2849SOL    HW1 9446   4.959   0.847   1.641
 2849SOL    HW2 9447   5.015   0.871   1.490
 2850SOL     OW 9448   1.022   0.543   2.092
 2850SOL    HW1 9449   1.119   0.550   2.113
 2850SOL    HW2 9450   0.973   0.621   2.131
 2851SOL     OW 9451   3.201   2.812   1.553
 2851SOL    HW1 9452   3.208   2.793   1.455
 2851SOL    HW2 9453   3.175   2.907   1.566
 2852SOL     OW 9454   0.032   5.528   5.269
 2852SOL    HW1 9455   0.002   5.464   5.340
 2852SOL    HW2 9456   6.992   5.610   5.272
 2853SOL     OW 9457   0.215   4.617   5.464
 2853SOL    HW1 9458   0.284   4.549   5.437
 2853SOL    HW2 9459   0.124   4.574   5.464
 2854SOL     OW 9460   2.701   0.399   5.769
 2854SOL    HW1 9461   2.726   0.480   5.717
 2854SOL    HW2 9462   2.710   0.418   5.867
 2855SOL     OW 9463   2.355   1.059   4.557
 2855SOL    HW1 9464   2.279   1.111   4.518
 2855SOL    HW2 9465   2.388   1.105   4.639
 2856SOL     OW 9466   0.323   5.337   4.505
 2856SOL    HW1 9467   0.235   5.384   4.508
 2856SOL    HW2 9468   0.396   5.405   4.493
 2857SOL     OW 9469   6.680   4.013   1.128
 2857SOL    HW1 9470   6.752   3.948   1.153
 2857SOL    HW2 9471   6.696   4.100   1.173
 2858SOL     OW 9472   5.431   4.116   3.161
 2858SOL    HW1 9473   5.379   4.138   3.244
 2858SOL    HW2 9474   5.375   4.137   3.081
 2859SOL     OW 9475   6.158   4.980   1.745
 2859SOL    HW1 9476   6.217   5.053   1.710
 2859SOL    HW2 9477   6.100   4.945   1.672
 2860SOL     OW 9478   1.402   0.150   3.280
 2860SOL    HW1 9479   1.367   0.115   3.367
 2860SOL    HW2 9480   1.340   0.219   3.245
 2861SOL     OW 9481   5.065   4.464   6.069
 2861SOL    HW1 9482   5.026   4.495   6.156
 2861SOL    HW2 9483   5.164   4.480   6.069
 2862SOL     OW 9484   4.786   1.246   0.432
 2862SOL    HW1 9485   4.712   1.277   0.374
 2862SOL    HW2 9486   4.864   1.220   0.375
 2863SOL     OW 9487   5.978   2.376   5.412
 2863SOL    HW1 9488   6.058   2.317   5.402
 2863SOL    HW2 9489   6.006   2.463   5.453
 2864SOL     OW 9490   4.046   4.133   1.078
 2864SOL    HW1 9491   3.963   4.086   1.048
 2864SOL    HW2 9492   4.022   4.206   1.142
 2865SOL     OW 9493   5.751   5.363   5.427
 2865SOL    HW1 9494   5.742   5.273   5.469
 2865SOL    HW2 9495   5.692   5.428   5.475
 2866SOL     OW 9496   3.826   4.731   0.759
 2866SOL    HW1 9497   3.832   4.813   0.816
 2866SOL    HW2 9498   3.793   4.655   0.815
 2867SOL     OW 9499   6.182   6.365   2.926
 2867SOL    HW1 9500   6.217   6.411   3.009
 2867SOL    HW2 9501   6.191   6.428   2.848
 2868SOL     OW 9502   0.274   0.138   5.527
 2868SOL    HW1 9503   0.333   0.131   5.446
 2868SOL    HW2 9504   0.331   0.148   5.608
 2869SOL     OW 9505   6.005   4.766   4.412
 2869SOL    HW1 9506   6.054   4.736   4.494
 2869SOL    HW2 9507   6.013   4.697   4.341
 2870SOL     OW 9508   0.849   0.868   1.698
 2870SOL    HW1 9509   0.948   0.862   1.689
 2870SOL    HW2 9510   0.814   0.782   1.736
 2871SOL     OW 9511   4.728   1.285   3.212
 2871SOL    HW1 9512   4.754   1.282   3.308
 2871SOL    HW2 9513   4.787   1.223   3.160
 2872SOL     OW 9514   2.704   2.017   2.611
 2872SOL    HW1 9515   2.736   2.075   2.686
 2872SOL    HW2 9516   2.634   2.066   2.559
 2873SOL     OW 9517   1.752   0.472   1.906
 2873SOL    HW1 9518   1.759   0.374   1.921
 2873SOL    HW2 9519   1.795   0.495   1.819
 2874SOL     OW 9520   1.951   0.970   3.505
 2874SOL    HW1 9521   2.028   0.961   3.442
 2874SOL    HW2 9522   1.933   1.067   3.521
 2875SOL     OW 9523   2.437   0.293   3.163
 2875SOL    HW1 9524   2.515   0.270   3.222
 2875SOL    HW2 9525   2.390   0.373   3.200
 2876SOL     OW 9526   1.304   6.127   1.127
 2876SOL    HW1 9527   1.212   6.157   1.150
 2876SOL    HW2 9528   1.368   6.203   1.138
 2877SOL     OW 9529   2.135   2.596   5.107
 2877SOL    HW1 9530   2.187   2.627   5.027
 2877SOL    HW2 9531   2.198   2.579   5.183
 2878SOL     OW 9532   3.825   2.973   4.593
 2878SOL    HW1 9533   3.859   3.031   4.667
 2878SOL    HW2 9534   3.898   2.911   4.563
 2879SOL     OW 9535   5.485   4.979   6.646
 2879SOL    HW1 9536   5.543   4.898   6.653
 2879SOL    HW2 9537   5.469   5.016   6.737
 2880SOL     OW 9538   1.939   1.883   3.693
 2880SOL    HW1 9539   1.962   1.806   3.752
 2880SOL    HW2 9540   1.868   1.855   3.627
 2881SOL     OW 9541   5.584   5.207   1.027
 2881SOL    HW1 9542   5.518   5.136   1.002
 2881SOL    HW2 9543   5.635   5.177   1.108
 2882SOL     OW 9544   4.584   6.334   0.178
 2882SOL    HW1 9545   4.576   6.348   0.079
 2882SOL    HW2 9546   4.595   6.236   0.197
 2883SOL     OW 9547   5.504   6.438   3.791
 2883SOL    HW1 9548   5.563   6.491   3.731
 2883SOL    HW2 9549   5.560   6.373   3.843
 2884SOL     OW 9550   6.341   5.555   3.596
 2884SOL    HW1 9551   6.290   5.615   3.657
 2884SOL    HW2 9552   6.350   5.465   3.638
 2885SOL     OW 9553   0.933   2.967   3.735
 2885SOL    HW1 9554   0.993   2.931   3.664
 2885SOL    HW2 9555   0.941   2.910   3.817
 2886SOL     OW 9556   2.174   4.683   5.261
 2886SOL    HW1 9557   2.201   4.590   5.287
 2886SOL    HW2 9558   2.074   4.691   5.262
 2887SOL     OW 9559   6.776   5.914   2.640
 2887SOL    HW1 9560   6.755   5.824   2.679
 2887SOL    HW2 9561   6.756   5.913   2.542
 2888SOL     OW 9562   5.208   6.762   6.718
 2888SOL    HW1 9563   5.181   6.687   6.657
 2888SOL    HW2 9564   5.305   6.755   6.740
 2889SOL     OW 9565   4.074   6.471   4.336
 2889SOL    HW1 9566   4.142   6.401   4.360
 2889SOL    HW2 9567   4.010   6.433   4.269
 2890SOL     OW 9568   1.314   2.661   0.687
 2890SOL    HW1 9569   1.233   2.715   0.711
 2890SOL    HW2 9570   1.289   2.564   0.683
 2891SOL     OW 9571   0.856   1.862   5.398
 2891SOL    HW1 9572   0.760   1.878   5.380
 2891SOL    HW2 9573   0.879   1.767   5.374
 2892SOL     OW 9574   5.387   4.478   1.935
 2892SOL    HW1 9575   5.323   4.401   1.940
 2892SOL    HW2 9576   5.365   4.534   1.855
 2893SOL     OW 9577   6.801   5.575   4.891
 2893SOL    HW1 9578   6.786   5.603   4.796
 2893SOL    HW2 9579   6.725   5.517   4.921
 2894SOL     OW 9580   1.952   5.373   1.030
 2894SOL    HW1 9581   1.997   5.293   0.992
 2894SOL    HW2 9582   2.016   5.422   1.090
 2895SOL     OW 9583   4.715   6.851   5.963
 2895SOL    HW1 9584   4.804   6.826   6.000
 2895SOL    HW2 9585   4.715   6.949   5.940
 2896SOL     OW 9586   6.084   0.412   5.081
 2896SOL    HW1 9587   6.155   0.355   5.039
 2896SOL    HW2 9588   6.052   0.368   5.165
 2897SOL     OW 9589   3.449   5.066   3.185
 2897SOL    HW1 9590   3.380   5.046   3.254
 2897SOL    HW2 9591   3.430   5.012   3.102
 2898SOL     OW 9592   5.058   2.069   3.388
 2898SOL    HW1 9593   5.068   2.067   3.288
 2898SOL    HW2 9594   5.039   2.163   3.418
 2899SOL     OW 9595   6.566   3.328   0.774
 2899SOL    HW1 9596   6.500   3.304   0.702
 2899SOL    HW2 9597   6.597   3.422   0.760
 2900SOL     OW 9598   2.483   2.374   6.263
 2900SOL    HW1 9599   2.564   2.327   6.229
 2900SOL    HW2 9600   2.446   2.434   6.192
 2901SOL     OW 9601   0.905   3.948   2.559
 2901SOL    HW1 9602   0.930   3.852   2.546
 2901SOL    HW2 9603   0.905   3.969   2.657
 2902SOL     OW 9604   5.967   5.326   3.567
 2902SOL    HW1 9605   5.938   5.305   3.660
 2902SOL    HW2 9606   6.064   5.303   3.557
 2903SOL     OW 9607   6.369   4.536   0.254
 2903SOL    HW1 9608   6.272   4.516   0.267
 2903SOL    HW2 9609   6.380   4.634   0.236
 2904SOL     OW 9610   2.879   4.774   4.516
 2904SOL    HW1 9611   2.963   4.765   4.464
 2904SOL    HW2 9612   2.849   4.870   4.515
 2905SOL     OW 9613   1.586   5.271   1.365
 2905SOL    HW1 9614   1.578   5.187   1.312
 2905SOL    HW2 9615   1.662   5.263   1.430
 2906SOL     OW 9616   6.381   6.260   5.666
 2906SOL    HW1 9617   6.467   6.234   5.624
 2906SOL    HW2 9618   6.348   6.186   5.724
 2907SOL     OW 9619   0.370   1.199   5.372
 2907SOL    HW1 9620   0.311   1.167   5.299
 2907SOL    HW2 9621   0.406   1.121   5.423
 2908SOL     OW 9622   4.208   0.201   3.699
 2908SOL    HW1 9623   4.207   0.125   3.634
 2908SOL    HW2 9624   4.185   0.168   3.790
 2909SOL     OW 9625   6.853   6.903   1.790
 2909SOL    HW1 9626   6.794   6.984   1.792
 2909SOL    HW2 9627   6.864   6.868   1.882
 2910SOL     OW 9628   0.916   1.131   4.467
 2910SOL    HW1 9629   1.010   1.097   4.472
 2910SOL    HW2 9630   0.915   1.222   4.427
 2911SOL     OW 9631   0.381   4.121   5.794
 2911SOL    HW1 9632   0.361   4.063   5.716
 2911SOL    HW2 9633   0.456   4.081   5.847
 2912SOL     OW 9634   0.904   1.469   2.230
 2912SOL    HW1 9635   0.951   1.411   2.164
 2912SOL    HW2 9636   0.824   1.511   2.187
 2913SOL     OW 9637   1.339   0.038   2.927
 2913SOL    HW1 9638   1.417   0.026   2.988
 2913SOL    HW2 9639   1.269   6.987   2.947
 2914SOL     OW 9640   3.946   4.765   1.159
 2914SOL    HW1 9641   3.878   4.823   1.115
 2914SOL    HW2 9642   3.948   4.784   1.257
 2915SOL     OW 9643   2.857   0.735   4.154
 2915SOL    HW1 9644   2.818   0.661   4.101
 2915SOL    HW2 9645   2.814   0.822   4.128
 2916SOL     OW 9646   0.992   5.423   0.267
 2916SOL    HW1 9647   0.957   5.371   0.345
 2916SOL    HW2 9648   0.915   5.455   0.212
 2917SOL     OW 9649   2.641   0.316   2.976
 2917SOL    HW1 9650   2.656   0.220   2.999
 2917SOL    HW2 9651   2.567   0.353   3.032
 2918SOL     OW 9652   5.228   2.717   1.510
 2918SOL    HW1 9653   5.167   2.739   1.434
 2918SOL    HW2 9654   5.319   2.756   1.492
 2919SOL     OW 9655   0.053   6.302   4.982
 2919SOL    HW1 9656   6.996   6.286   4.918
 2919SOL    HW2 9657   0.101   6.215   4.998
 2920SOL     OW 9658   2.918   2.206   1.666
 2920SOL    HW1 9659   2.900   2.302   1.644
 2920SOL    HW2 9660   2.886   2.187   1.759
 2921SOL     OW 9661   1.074   6.188   3.487
 2921SOL    HW1 9662   1.029   6.179   3.398
 2921SOL    HW2 9663   1.013   6.236   3.550
 2922SOL     OW 9664   3.799   5.011   3.784
 2922SOL    HW1 9665   3.869   4.962   3.731
 2922SOL    HW2 9666   3.749   5.072   3.723
 2923SOL     OW 9667   0.782   5.349   4.560
 2923SOL    HW1 9668   0.834   5.433   4.578
 2923SOL    HW2 9669   0.753   5.309   4.647
 2924SOL     OW 9670   5.319   2.027   6.380
 2924SOL    HW1 9671   5.286   1.968   6.307
 2924SOL    HW2 9672   5.267   2.010   6.463
 2925SOL     OW 9673   5.450   6.630   4.829
 2925SOL    HW1 9674   5.547   6.641   4.849
 2925SOL    HW2 9675   5.396   6.655   4.909
 2926SOL     OW 9676   6.801   2.379   4.701
 2926SOL    HW1 9677   6.720   2.329   4.731
 2926SOL    HW2 9678   6.848   2.327   4.630
 2927SOL     OW 9679   1.472   2.018   2.385
 2927SOL    HW1 9680   1.426   2.040   2.299
 2927SOL    HW2 9681   1.553   2.075   2.395
 2928SOL     OW 9682   5.758   2.861   6.826
 2928SOL    HW1 9683   5.791   2.817   6.742
 2928SOL    HW2 9684   5.827   2.853   6.897
 2929SOL     OW 9685   2.481   2.006   3.886
 2929SOL    HW1 9686   2.393   2.054   3.889
 2929SOL    HW2 9687   2.498   1.973   3.794
 2930SOL     OW 9688   0.178   3.415   4.097
 2930SOL    HW1 9689   0.183   3.506   4.055
 2930SOL    HW2 9690   0.104   3.414   4.165
 2931SOL     OW 9691   5.616   4.790   5.618
 2931SOL    HW1 9692   5.561   4.865   5.578
 2931SOL    HW2 9693   5.573   4.703   5.595
 2932SOL     OW 9694   6.383   4.907   1.317
 2932SOL    HW1 9695   6.459   4.970   1.298
 2932SOL    HW2 9696   6.298   4.946   1.283
 2933SOL     OW 9697   1.505   6.999   0.143
 2933SOL    HW1 9698   1.526   0.029   0.057
 2933SOL    HW2 9699   1.407   7.008   0.162
 2934SOL     OW 9700   4.768   4.908   1.957
 2934SOL    HW1 9701   4.807   4.869   1.873
 2934SOL    HW2 9702   4.720   4.994   1.934
 2935SOL     OW 9703   0.528   2.849   6.062
 2935SOL    HW1 9704   0.573   2.921   6.114
 2935SOL    HW2 9705   0.565   2.848   5.969
 2936SOL     OW 9706   4.914   6.912   2.435
 2936SOL    HW1 9707   4.893   6.964   2.518
 2936SOL    HW2 9708   4.992   6.852   2.452
 2937SOL     OW 9709   6.050   3.600   3.158
 2937SOL    HW1 9710   5.977   3.563   3.100
 2937SOL    HW2 9711   6.119   3.644   3.100
 2938SOL     OW 9712   0.518   5.055   6.962
 2938SOL    HW1 9713   0.457   5.129   6.990
 2938SOL    HW2 9714   0.547   5.003   0.023
 2939SOL     OW 9715   6.703   6.043   1.609
 2939SOL    HW1 9716   6.721   6.046   1.511
 2939SOL    HW2 9717   6.641   5.967   1.629
 2940SOL     OW 9718   4.488   6.412   3.758
 2940SOL    HW1 9719   4.531   6.358   3.832
 2940SOL    HW2 9720   4.398   6.374   3.737
 2941SOL     OW 9721   2.355   4.822   2.976
 2941SOL    HW1 9722   2.391   4.906   3.017
 2941SOL    HW2 9723   2.321   4.762   3.047
 2942SOL     OW 9724   3.667   2.049   1.754
 2942SOL    HW1 9725   3.664   2.134   1.806
 2942SOL    HW2 9726   3.733   2.059   1.678
 2943SOL     OW 9727   6.013   3.267   3.479
 2943SOL    HW1 9728   6.022   3.170   3.458
 2943SOL    HW2 9729   6.000   3.279   3.577
 2944SOL     OW 9730   1.440   5.914   2.578
 2944SOL    HW1 9731   1.344   5.890   2.570
 2944SOL    HW2 9732   1.448   6.010   2.606
 2945SOL     OW 9733   5.643   3.762   1.553
 2945SOL    HW1 9734   5.689   3.768   1.641
 2945SOL    HW2 9735   5.559   3.817   1.555
 2946SOL     OW 9736   3.439   2.865   4.354
 2946SOL    HW1 9737   3.452   2.880   4.452
 2946SOL    HW2 9738   3.521   2.893   4.304
 2947SOL     OW 9739   6.473   4.955   0.770
 2947SOL    HW1 9740   6.521   4.924   0.852
 2947SOL    HW2 9741   6.425   4.878   0.728
 2948SOL     OW 9742   0.357   3.684   1.843
 2948SOL    HW1 9743   0.383   3.767   1.892
 2948SOL    HW2 9744   0.438   3.629   1.825
 2949SOL     OW 9745   1.628   6.235   0.641
 2949SOL    HW1 9746   1.627   6.285   0.727
 2949SOL    HW2 9747   1.711   6.258   0.590
 2950SOL     OW 9748   6.284   5.840   2.468
 2950SOL    HW1 9749   6.336   5.839   2.553
 2950SOL    HW2 9750   6.330   5.899   2.401
 2951SOL     OW 9751   0.930   2.099   1.232
 2951SOL    HW1 9752   0.980   2.026   1.279
 2951SOL    HW2 9753   0.892   2.162   1.299
 2952SOL     OW 9754   0.376   2.064   4.727
 2952SOL    HW1 9755   0.290   2.046   4.775
 2952SOL    HW2 9756   0.363   2.050   4.629
 2953SOL     OW 9757   1.777   5.476   3.186
 2953SOL    HW1 9758   1.742   5.441   3.099
 2953SOL    HW2 9759   1.744   5.569   3.200
 2954SOL     OW 9760   0.496   4.563   6.163
 2954SOL    HW1 9761   0.430   4.629   6.198
 2954SOL    HW2 9762   0.451   4.475   6.149
 2955SOL     OW 9763   1.454   4.730   6.144
 2955SOL    HW1 9764   1.478   4.640   6.180
 2955SOL    HW2 9765   1.355   4.744   6.153
 2956SOL     OW 9766   5.441   4.343   4.437
 2956SOL    HW1 9767   5.363   4.343   4.500
 2956SOL    HW2 9768   5.514   4.287   4.475
 2957SOL     OW 9769   2.406   5.396   1.819
 2957SOL    HW1 9770   2.387   5.430   1.727
 2957SOL    HW2 9771   2.400   5.296   1.820
 2958SOL     OW 9772   1.590   4.078   1.994
 2958SOL    HW1 9773   1.529   4.005   1.963
 2958SOL    HW2 9774   1.545   4.166   1.982
 2959SOL     OW 9775   0.424   3.375   4.025
 2959SOL    HW1 9776   0.330   3.400   4.047
 2959SOL    HW2 9777   0.474   3.357   4.110
 2960SOL     OW 9778   4.775   6.145   0.876
 2960SOL    HW1 9779   4.694   6.200   0.894
 2960SOL    HW2 9780   4.797   6.089   0.956
 2961SOL     OW 9781   5.537   2.539   1.584
 2961SOL    HW1 9782   5.613   2.537   1.648
 2961SOL    HW2 9783   5.497   2.631   1.581
 2962SOL     OW 9784   0.310   0.168   3.724
 2962SOL    HW1 9785   0.362   0.231   3.782
 2962SOL    HW2 9786   0.373   0.115   3.667
 2963SOL     OW 9787   1.368   0.345   4.977
 2963SOL    HW1 9788   1.330   0.286   5.047
 2963SOL    HW2 9789   1.404   0.428   5.019
 2964SOL     OW 9790   1.554   0.427   6.440
 2964SOL    HW1 9791   1.555   0.381   6.530
 2964SOL    HW2 9792   1.461   0.460   6.421
 2965SOL     OW 9793   6.015   0.214   6.089
 2965SOL    HW1 9794   5.999   0.302   6.044
 2965SOL    HW2 9795   5.930   0.163   6.095
 2966SOL     OW 9796   3.463   4.953   2.639
 2966SOL    HW1 9797   3.514   4.915   2.561
 2966SOL    HW2 9798   3.517   4.943   2.722
 2967SOL     OW 9799   5.878   6.712   5.129
 2967SOL    HW1 9800   5.806   6.653   5.167
 2967SOL    HW2 9801   5.886   6.794   5.185
 2968SOL     OW 9802   0.994   3.697   1.067
 2968SOL    HW1 9803   1.093   3.700   1.084
 2968SOL    HW2 9804   0.972   3.613   1.016
 2969SOL     OW 9805   4.512   2.420   4.651
 2969SOL    HW1 9806   4.586   2.353   4.662
 2969SOL    HW2 9807   4.430   2.386   4.697
 2970SOL     OW 9808   2.968   2.556   6.040
 2970SOL    HW1 9809   2.904   2.601   5.978
 2970SOL    HW2 9810   2.924   2.539   6.128
 2971SOL     OW 9811   4.995   3.529   6.781
 2971SOL    HW1 9812   5.089   3.540   6.812
 2971SOL    HW2 9813   4.958   3.444   6.816
 2972SOL     OW 9814   0.080   5.588   6.348
 2972SOL    HW1 9815   0.161   5.534   6.328
 2972SOL    HW2 9816   0.107   5.672   6.397
 2973SOL     OW 9817   5.623   0.880   4.263
 2973SOL    HW1 9818   5.670   0.822   4.329
 2973SOL    HW2 9819   5.526   0.859   4.263
 2974SOL     OW 9820   5.181   6.338   2.373
 2974SOL    HW1 9821   5.095   6.386   2.355
 2974SOL    HW2 9822   5.207   6.351   2.468
 2975SOL     OW 9823   6.579   3.741   4.753
 2975SOL    HW1 9824   6.591   3.832   4.715
 2975SOL    HW2 9825   6.521   3.747   4.835
 2976SOL     OW 9826   3.542   0.921   1.353
 2976SOL    HW1 9827   3.533   0.864   1.271
 2976SOL    HW2 9828   3.460   0.978   1.363
 2977SOL     OW 9829   1.306   1.028   1.898
 2977SOL    HW1 9830   1.394   0.984   1.915
 2977SOL    HW2 9831   1.315   1.092   1.822
 2978SOL     OW 9832   2.913   5.204   0.052
 2978SOL    HW1 9833   3.006   5.190   0.018
 2978SOL    HW2 9834   2.867   5.116   0.059
 2979SOL     OW 9835   2.820   1.130   5.272
 2979SOL    HW1 9836   2.862   1.220   5.276
 2979SOL    HW2 9837   2.724   1.136   5.299
 2980SOL     OW 9838   3.534   3.349   4.135
 2980SOL    HW1 9839   3.572   3.410   4.066
 2980SOL    HW2 9840   3.434   3.349   4.129
 2981SOL     OW 9841   2.929   1.556   1.470
 2981SOL    HW1 9842   2.847   1.571   1.526
 2981SOL    HW2 9843   2.984   1.639   1.469
 2982SOL     OW 9844   1.936   0.807   1.176
 2982SOL    HW1 9845   1.976   0.853   1.255
 2982SOL    HW2 9846   1.923   0.872   1.101
 2983SOL     OW 9847   6.628   3.469   5.844
 2983SOL    HW1 9848   6.568   3.501   5.771
 2983SOL    HW2 9849   6.603   3.515   5.929
 2984SOL     OW 9850   0.167   6.513   1.277
 2984SOL    HW1 9851   0.124   6.440   1.223
 2984SOL    HW2 9852   0.264   6.519   1.254
 2985SOL     OW 9853   6.306   0.374   6.484
 2985SOL    HW1 9854   6.242   0.450   6.470
 2985SOL    HW2 9855   6.340   0.343   6.395
 2986SOL     OW 9856   3.548   3.284   1.951
 2986SOL    HW1 9857   3.529   3.379   1.977
 2986SOL    HW2 9858   3.621   3.247   2.009
 2987SOL     OW 9859   1.948   5.476   4.678
 2987SOL    HW1 9860   1.897   5.450   4.597
 2987SOL    HW2 9861   1.913   5.426   4.757
 2988SOL     OW 9862   6.791   2.077   5.960
 2988SOL    HW1 9863   6.878   2.104   6.002
 2988SOL    HW2 9864   6.771   1.982   5.984
 2989SOL     OW 9865   5.908   3.497   4.995
 2989SOL    HW1 9866   5.975   3.527   5.062
 2989SOL    HW2 9867   5.951   3.434   4.930
 2990SOL     OW 9868   5.708   2.055   5.711
 2990SOL    HW1 9869   5.796   2.071   5.667
 2990SOL    HW2 9870   5.671   2.143   5.744
 2991SOL     OW 9871   0.086   3.336   0.047
 2991SOL    HW1 9872   0.164   3.283   0.015
 2991SOL    HW2 9873   0.069   3.315   0.144
 2992SOL     OW 9874   0.781   4.148   4.855
 2992SOL    HW1 9875   0.690   4.156   4.896
 2992SOL    HW2 9876   0.805   4.051   4.846
 2993SOL     OW 9877   3.315   5.080   0.950
 2993SOL    HW1 9878   3.363   5.015   0.892
 2993SOL    HW2 9879   3.217   5.068   0.939
 2994SOL     OW 9880   3.282   5.343   4.718
 2994SOL    HW1 9881   3.204   5.393   4.756
 2994SOL    HW2 9882   3.258   5.247   4.708
 2995SOL     OW 9883   4.382   0.886   1.764
 2995SOL    HW1 9884   4.340   0.971   1.731
 2995SOL    HW2 9885   4.414   0.833   1.686
 2996SOL     OW 9886   6.632   1.249   4.047
 2996SOL    HW1 9887   6.647   1.260   4.145
 2996SOL    HW2 9888   6.582   1.328   4.011
 2997SOL     OW 9889   4.956   5.945   4.306
 2997SOL    HW1 9890   4.868   5.983   4.334
 2997SOL    HW2 9891   5.017   6.019   4.277
 2998SOL     OW 9892   2.495   1.024   1.487
 2998SOL    HW1 9893   2.557   0.987   1.418
 2998SOL    HW2 9894   2.547   1.049   1.569
 2999SOL     OW 9895   2.122   4.537   0.929
 2999SOL    HW1 9896   2.176   4.464   0.888
 2999SOL    HW2 9897   2.176   4.580   1.002
 3000SOL     OW 9898   2.045   4.052   5.087
 3000SOL    HW1 9899   2.006   4.135   5.048
 3000SOL    HW2 9900   2.141   4.043   5.058
 3001SOL     OW 9901   4.037   0.711   6.121
 3001SOL    HW1 9902   4.065   0.648   6.048
 3001SOL    HW2 9903   3.992   0.659   6.194
 3002SOL     OW 9904   1.422   2.084   2.126
 3002SOL    HW1 9905   1.516   2.068   2.157
 3002SOL    HW2 9906   1.393   2.008   2.068
 3003SOL     OW 9907   1.320   5.918   1.289
 3003SOL    HW1 9908   1.325   5.999   1.230
 3003SOL    HW2 9909   1.411   5.876   1.297
 3004SOL     OW 9910   2.906   6.489   3.942
 3004SOL    HW1 9911   2.840   6.464   3.872
 3004SOL    HW2 9912   2.980   6.422   3.943
 3005SOL     OW 9913   2.662   2.003   0.820
 3005SOL    HW1 9914   2.734   2.072   0.821
 3005SOL    HW2 9915   2.672   1.944   0.901
 3006SOL     OW 9916   5.497   1.661   6.108
 3006SOL    HW1 9917   5.564   1.591   6.083
 3006SOL    HW2 9918   5.449   1.632   6.191
 3007SOL     OW 9919   5.963   5.420   6.041
 3007SOL    HW1 9920   6.018   5.347   6.081
 3007SOL    HW2 9921   6.003   5.449   5.954
 3008SOL     OW 9922   4.787   4.087   5.455
 3008SOL    HW1 9923   4.806   4.064   5.550
 3008SOL    HW2 9924   4.849   4.035   5.396
 3009SOL     OW 9925   5.640   3.091   1.778
 3009SOL    HW1 9926   5.605   3.181   1.756
 3009SOL    HW2 9927   5.738   3.088   1.759
 3010SOL     OW 9928   4.548   5.119   1.824
 3010SOL    HW1 9929   4.567   5.180   1.902
 3010SOL    HW2 9930   4.576   5.164   1.739
 3011SOL     OW 9931   6.065   0.223   0.599
 3011SOL    HW1 9932   6.145   0.277   0.573
 3011SOL    HW2 9933   6.060   0.216   0.698
 3012SOL     OW 9934   2.210   1.634   4.748
 3012SOL    HW1 9935   2.213   1.730   4.720
 3012SOL    HW2 9936   2.193   1.629   4.847
 3013SOL     OW 9937   0.769   5.075   5.709
 3013SOL    HW1 9938   0.807   5.028   5.788
 3013SOL    HW2 9939   0.754   5.172   5.731
 3014SOL     OW 9940   4.266   0.085   6.566
 3014SOL    HW1 9941   4.332   0.148   6.606
 3014SOL    HW2 9942   4.313   0.018   6.509
 3015SOL     OW 9943   2.516   0.552   6.127
 3015SOL    HW1 9944   2.586   0.484   6.105
 3015SOL    HW2 9945   2.426   0.514   6.105
 3016SOL     OW 9946   2.489   0.652   4.315
 3016SOL    HW1 9947   2.441   0.740   4.319
 3016SOL    HW2 9948   2.582   0.667   4.284
 3017SOL     OW 9949   1.373   5.726   0.541
 3017SOL    HW1 9950   1.395   5.801   0.478
 3017SOL    HW2 9951   1.273   5.719   0.550
 3018SOL     OW 9952   3.323   1.916   2.107
 3018SOL    HW1 9953   3.397   1.972   2.144
 3018SOL    HW2 9954   3.241   1.971   2.095
 3019SOL     OW 9955   1.482   6.905   5.887
 3019SOL    HW1 9956   1.576   6.914   5.920
 3019SOL    HW2 9957   1.444   6.996   5.872
 3020SOL     OW 9958   4.920   4.601   6.992
 3020SOL    HW1 9959   4.996   4.541   7.018
 3020SOL    HW2 9960   4.946   4.656   6.913
 3021SOL     OW 9961   5.203   0.182   4.725
 3021SOL    HW1 9962   5.107   0.160   4.740
 3021SOL    HW2 9963   5.258   0.098   4.733
 3022SOL     OW 9964   4.203   6.695   4.201
 3022SOL    HW1 9965   4.141   6.693   4.123
 3022SOL    HW2 9966   4.176   6.622   4.265
 3023SOL     OW 9967   5.626   4.300   4.998
 3023SOL    HW1 9968   5.580   4.219   5.034
 3023SOL    HW2 9969   5.558   4.367   4.969
 3024SOL     OW 9970   0.376   0.839   0.319
 3024SOL    HW1 9971   0.373   0.812   0.223
 3024SOL    HW2 9972   0.298   0.898   0.339
 3025SOL     OW 9973   3.952   5.185   0.823
 3025SOL    HW1 9974   4.035   5.131   0.837
 3025SOL    HW2 9975   3.873   5.125   0.814
 3026SOL     OW 9976   0.478   0.545   2.360
 3026SOL    HW1 9977   0.534   0.495   2.427
 3026SOL    HW2 9978   0.493   0.643   2.371
 3027SOL     OW 9979   4.221   0.019   0.448
 3027SOL    HW1 9980   4.212   6.961   0.511
 3027SOL    HW2 9981   4.290   0.083   0.483
 3028SOL     OW 9982   3.757   3.542   4.531
 3028SOL    HW1 9983   3.661   3.523   4.555
 3028SOL    HW2 9984   3.767   3.540   4.432
 3029SOL     OW 9985   6.815   3.134   5.110
 3029SOL    HW1 9986   6.769   3.072   5.174
 3029SOL    HW2 9987   6.771   3.129   5.021
 3030SOL     OW 9988   1.515   2.710   6.577
 3030SOL    HW1 9989   1.416   2.703   6.590
 3030SOL    HW2 9990   1.561   2.676   6.659
 3031SOL     OW 9991   0.544   5.693   0.874
 3031SOL    HW1 9992   0.636   5.654   0.885
 3031SOL    HW2 9993   0.529   5.714   0.777
 3032SOL     OW 9994   2.352   6.898   3.491
 3032SOL    HW1 9995   2.294   6.871   3.569
 3032SOL    HW2 9996   2.369   6.996   3.495
 3033SOL     OW 9997   1.616   1.331   6.349
 3033SOL    HW1 9998   1.581   1.401   6.412
 3033SOL    HW2 9999   1.715   1.343   6.337
 3034SOL     OW10000   5.282   3.382   3.652
 3034SOL    HW110001   5.335   3.298   3.665
 3034SOL    HW210002   5.256   3.391   3.556
 3035SOL     OW10003   0.199   3.511   6.885
 3035SOL    HW110004   0.144   3.493   6.967
 3035SOL    HW210005   0.236   3.604   6.890
 3036SOL     OW10006   3.405   2.776   5.721
 3036SOL    HW110007   3.323   2.772   5.664
 3036SOL    HW210008   3.432   2.872   5.734
 3037SOL     OW10009   1.017   5.325   6.712
 3037SOL    HW110010   0.986   5.301   6.804
 3037SOL    HW210011   0.969   5.269   6.645
 3038SOL     OW10012   6.028   4.800   5.814
 3038SOL    HW110013   5.963   4.835   5.882
 3038SOL    HW210014   6.114   4.776   5.859
 3039SOL     OW10015   5.676   3.744   5.647
 3039SOL    HW110016   5.638   3.805   5.718
 3039SOL    HW210017   5.757   3.786   5.608
 3040SOL     OW10018   4.032   5.993   5.757
 3040SOL    HW110019   4.125   6.031   5.762
 3040SOL    HW210020   4.034   5.898   5.788
 3041SOL     OW10021   1.518   5.333   6.231
 3041SOL    HW110022   1.437   5.383   6.263
 3041SOL    HW210023   1.490   5.256   6.174
 3042SOL     OW10024   0.225   4.641   4.121
 3042SOL    HW110025   0.137   4.680   4.093
 3042SOL    HW210026   0.274   4.706   4.179
 3043SOL     OW10027   3.055   4.271   1.744
 3043SOL    HW110028   2.992   4.346   1.763
 3043SOL    HW210029   3.144   4.309   1.717
 3044SOL     OW10030   3.989   3.650   4.635
 3044SOL    HW110031   4.015   3.634   4.730
 3044SOL    HW210032   3.929   3.578   4.604
 3045SOL     OW10033   5.424   1.214   2.060
 3045SOL    HW110034   5.424   1.118   2.087
 3045SOL    HW210035   5.389   1.270   2.135
 3046SOL     OW10036   5.798   5.837   1.524
 3046SOL    HW110037   5.781   5.785   1.607
 3046SOL    HW210038   5.894   5.828   1.498
 3047SOL     OW10039   6.358   1.550   4.295
 3047SOL    HW110040   6.442   1.571   4.344
 3047SOL    HW210041   6.352   1.451   4.281
 3048SOL     OW10042   4.403   4.904   1.782
 3048SOL    HW110043   4.451   4.981   1.824
 3048SOL    HW210044   4.468   4.829   1.765
 3049SOL     OW10045   0.889   2.106   2.465
 3049SOL    HW110046   0.982   2.104   2.500
 3049SOL    HW210047   0.848   2.015   2.473
 3050SOL     OW10048   3.177   2.349   6.525
 3050SOL    HW110049   3.164   2.394   6.437
 3050SOL    HW210050   3.092   2.305   6.553
 3051SOL     OW10051   2.058   4.974   5.765
 3051SOL    HW110052   1.970   4.980   5.813
 3051SOL    HW210053   2.047   5.013   5.673
 3052SOL     OW10054   6.803   6.671   3.776
 3052SOL    HW110055   6.765   6.752   3.731
 3052SOL    HW210056   6.819   6.691   3.873
 3053SOL     OW10057   0.678   4.254   0.074
 3053SOL    HW110058   0.659   4.322   0.003
 3053SOL    HW210059   0.776   4.235   0.077
 3054SOL     OW10060   5.506   0.170   2.655
 3054SOL    HW110061   5.511   0.085   2.603
 3054SOL    HW210062   5.481   0.149   2.750
 3055SOL     OW10063   5.413   6.466   0.283
 3055SOL    HW110064   5.432   6.369   0.266
 3055SOL    HW210065   5.351   6.501   0.212
 3056SOL     OW10066   4.405   1.645   0.225
 3056SOL    HW110067   4.484   1.694   0.189
 3056SOL    HW210068   4.342   1.710   0.267
 3057SOL     OW10069   5.997   3.882   3.209
 3057SOL    HW110070   5.964   3.788   3.217
 3057SOL    HW210071   6.097   3.883   3.219
 3058SOL     OW10072   0.283   5.394   6.239
 3058SOL    HW110073   0.363   5.383   6.298
 3058SOL    HW210074   0.311   5.388   6.143
 3059SOL     OW10075   1.183   2.230   2.021
 3059SOL    HW110076   1.266   2.182   2.050
 3059SOL    HW210077   1.103   2.182   2.057
 3060SOL     OW10078   5.924   3.944   3.656
 3060SOL    HW110079   5.853   3.955   3.725
 3060SOL    HW210080   5.946   4.033   3.617
 3061SOL     OW10081   5.630   6.681   3.250
 3061SOL    HW110082   5.538   6.660   3.283
 3061SOL    HW210083   5.684   6.722   3.325
 3062SOL     OW10084   4.058   5.151   1.309
 3062SOL    HW110085   3.959   5.153   1.290
 3062SOL    HW210086   4.085   5.236   1.354
 3063SOL     OW10087   6.899   4.584   1.478
 3063SOL    HW110088   6.950   4.563   1.395
 3063SOL    HW210089   6.801   4.589   1.456
 3064SOL     OW10090   4.697   1.987   6.296
 3064SOL    HW110091   4.785   2.000   6.251
 3064SOL    HW210092   4.709   1.986   6.395
 3065SOL     OW10093   5.552   1.421   6.522
 3065SOL    HW110094   5.622   1.400   6.454
 3065SOL    HW210095   5.584   1.394   6.613
 3066SOL     OW10096   5.166   0.182   5.603
 3066SOL    HW110097   5.120   0.131   5.676
 3066SOL    HW210098   5.114   0.266   5.583
 3067SOL     OW10099   1.292   1.770   4.636
 3067SOL    HW110100   1.320   1.786   4.542
 3067SOL    HW210101   1.369   1.787   4.697
 3068SOL     OW10102   6.014   0.204   0.878
 3068SOL    HW110103   5.923   0.238   0.899
 3068SOL    HW210104   6.035   0.125   0.935
 3069SOL     OW10105   5.440   6.212   4.251
 3069SOL    HW110106   5.417   6.230   4.346
 3069SOL    HW210107   5.417   6.292   4.195
 3070SOL     OW10108   2.641   1.457   0.903
 3070SOL    HW110109   2.674   1.551   0.903
 3070SOL    HW210110   2.714   1.396   0.935
 3071SOL     OW10111   5.955   4.325   5.053
 3071SOL    HW110112   5.971   4.419   5.024
 3071SOL    HW210113   5.962   4.264   4.973
 3072SOL     OW10114   1.730   6.571   5.895
 3072SOL    HW110115   1.681   6.604   5.814
 3072SOL    HW210116   1.828   6.584   5.883
 3073SOL     OW10117   0.028   5.777   2.258
 3073SOL    HW110118   0.107   5.793   2.199
 3073SOL    HW210119   6.964   5.767   2.201
 3074SOL     OW10120   3.356   2.871   1.787
 3074SOL    HW110121   3.342   2.828   1.697
 3074SOL    HW210122   3.449   2.852   1.819
 3075SOL     OW10123   3.896   5.126   1.820
 3075SOL    HW110124   3.891   5.200   1.753
 3075SOL    HW210125   3.808   5.080   1.826
 3076SOL     OW10126   1.384   1.196   4.213
 3076SOL    HW110127   1.370   1.228   4.307
 3076SOL    HW210128   1.304   1.143   4.184
 3077SOL     OW10129   0.168   3.513   1.601
 3077SOL    HW110130   0.097   3.576   1.632
 3077SOL    HW210131   0.195   3.452   1.676
 3078SOL     OW10132   6.911   3.714   2.389
 3078SOL    HW110133   7.006   3.684   2.373
 3078SOL    HW210134   6.908   3.777   2.467
 3079SOL     OW10135   1.586   4.293   4.529
 3079SOL    HW110136   1.684   4.304   4.545
 3079SOL    HW210137   1.547   4.233   4.599
 3080SOL     OW10138   4.140   4.868   1.579
 3080SOL    HW110139   4.047   4.866   1.543
 3080SOL    HW210140   4.180   4.777   1.574
 3081SOL     OW10141   2.284   3.297   6.160
 3081SOL    HW110142   2.196   3.257   6.131
 3081SOL    HW210143   2.293   3.389   6.120
 3082SOL     OW10144   5.212   4.107   5.075
 3082SOL    HW110145   5.211   4.036   5.146
 3082SOL    HW210146   5.168   4.072   4.992
 3083SOL     OW10147   3.834   5.988   1.740
 3083SOL    HW110148   3.918   5.936   1.727
 3083SOL    HW210149   3.756   5.926   1.743
 3084SOL     OW10150   6.923   5.385   3.549
 3084SOL    HW110151   6.995   5.436   3.502
 3084SOL    HW210152   6.964   5.329   3.622
 3085SOL     OW10153   5.948   5.489   0.061
 3085SOL    HW110154   5.897   5.447   7.004
 3085SOL    HW210155   6.028   5.536   0.025
 3086SOL     OW10156   6.002   6.231   6.343
 3086SOL    HW110157   6.031   6.170   6.269
 3086SOL    HW210158   6.047   6.319   6.333
 3087SOL     OW10159   3.275   0.041   2.577
 3087SOL    HW110160   3.246   0.127   2.535
 3087SOL    HW210161   3.232   0.030   2.666
 3088SOL     OW10162   2.201   3.920   5.280
 3088SOL    HW110163   2.114   3.963   5.256
 3088SOL    HW210164   2.272   3.950   5.216
 3089SOL     OW10165   4.105   5.758   6.132
 3089SOL    HW110166   4.104   5.700   6.050
 3089SOL    HW210167   4.180   5.824   6.125
 3090SOL     OW10168   0.373   2.724   2.075
 3090SOL    HW110169   0.398   2.787   2.149
 3090SOL    HW210170   0.332   2.776   2.000
 3091SOL     OW10171   1.033   2.930   0.169
 3091SOL    HW110172   1.021   2.865   0.094
 3091SOL    HW210173   1.065   2.882   0.250
 3092SOL     OW10174   6.192   1.280   2.244
 3092SOL    HW110175   6.282   1.319   2.224
 3092SOL    HW210176   6.198   1.224   2.327
 3093SOL     OW10177   6.079   5.394   6.464
 3093SOL    HW110178   6.143   5.326   6.430
 3093SOL    HW210179   6.062   5.379   6.561
 3094SOL     OW10180   2.181   1.101   6.145
 3094SOL    HW110181   2.098   1.103   6.090
 3094SOL    HW210182   2.248   1.039   6.104
 3095SOL     OW10183   1.537   3.845   4.894
 3095SOL    HW110184   1.450   3.832   4.943
 3095SOL    HW210185   1.538   3.787   4.813
 3096SOL     OW10186   1.923   3.781   4.380
 3096SOL    HW110187   1.990   3.811   4.448
 3096SOL    HW210188   1.907   3.683   4.391
 3097SOL     OW10189   5.515   2.951   5.174
 3097SOL    HW110190   5.557   3.005   5.248
 3097SOL    HW210191   5.541   2.990   5.086
 3098SOL     OW10192   1.651   3.185   2.272
 3098SOL    HW110193   1.585   3.214   2.202
 3098SOL    HW210194   1.607   3.124   2.337
 3099SOL     OW10195   0.693   6.900   5.203
 3099SOL    HW110196   0.644   6.812   5.200
 3099SOL    HW210197   0.705   6.927   5.299
 3100SOL     OW10198   5.490   4.813   2.206
 3100SOL    HW110199   5.486   4.716   2.181
 3100SOL    HW210200   5.406   4.839   2.253
 3101SOL     OW10201   5.268   6.844   4.998
 3101SOL    HW110202   5.264   6.941   5.022
 3101SOL    HW210203   5.190   6.796   5.037
 3102SOL     OW10204   5.734   4.767   1.676
 3102SOL    HW110205   5.778   4.836   1.733
 3102SOL    HW210206   5.781   4.680   1.685
 3103SOL     OW10207   2.071   2.208   1.742
 3103SOL    HW110208   2.150   2.147   1.740
 3103SOL    HW210209   2.020   2.200   1.656
 3104SOL     OW10210   5.544   2.463   5.485
 3104SOL    HW110211   5.487   2.382   5.500
 3104SOL    HW210212   5.616   2.442   5.419
 3105SOL     OW10213   5.371   3.938   0.497
 3105SOL    HW110214   5.327   3.862   0.545
 3105SOL    HW210215   5.469   3.921   0.489
 3106SOL     OW10216   5.354   1.769   5.538
 3106SOL    HW110217   5.287   1.716   5.590
 3106SOL    HW210218   5.331   1.766   5.441
 3107SOL     OW10219   3.823   2.161   5.060
 3107SOL    HW110220   3.812   2.252   5.101
 3107SOL    HW210221   3.916   2.128   5.076
 3108SOL     OW10222   1.954   3.975   3.453
 3108SOL    HW110223   1.954   4.053   3.391
 3108SOL    HW210224   2.043   3.929   3.449
 3109SOL     OW10225   6.863   6.155   3.270
 3109SOL    HW110226   6.862   6.125   3.366
 3109SOL    HW210227   6.944   6.119   3.225
 3110SOL     OW10228   0.644   5.334   3.760
 3110SOL    HW110229   0.719   5.283   3.803
 3110SOL    HW210230   0.682   5.400   3.694
 3111SOL     OW10231   6.555   4.207   3.911
 3111SOL    HW110232   6.572   4.201   3.813
 3111SOL    HW210233   6.463   4.174   3.931
 3112SOL     OW10234   4.100   1.082   0.344
 3112SOL    HW110235   4.001   1.091   0.337
 3112SOL    HW210236   4.142   1.102   0.256
 3113SOL     OW10237   1.636   6.797   3.515
 3113SOL    HW110238   1.636   6.884   3.467
 3113SOL    HW210239   1.730   6.773   3.541
 3114SOL     OW10240   4.681   6.412   5.844
 3114SOL    HW110241   4.765   6.459   5.819
 3114SOL    HW210242   4.691   6.371   5.935
 3115SOL     OW10243   4.890   5.352   4.613
 3115SOL    HW110244   4.926   5.377   4.703
 3115SOL    HW210245   4.941   5.274   4.577
 3116SOL     OW10246   0.826   1.548   6.009
 3116SOL    HW110247   0.914   1.562   5.964
 3116SOL    HW210248   0.752   1.574   5.947
 3117SOL     OW10249   4.087   7.012   1.230
 3117SOL    HW110250   4.012   0.021   1.170
 3117SOL    HW210251   4.056   6.936   1.288
 3118SOL     OW10252   1.224   2.018   3.426
 3118SOL    HW110253   1.274   1.983   3.505
 3118SOL    HW210254   1.289   2.057   3.360
 3119SOL     OW10255   5.233   5.850   4.228
 3119SOL    HW110256   5.234   5.798   4.143
 3119SOL    HW210257   5.140   5.883   4.246
 3120SOL     OW10258   2.293   5.485   6.664
 3120SOL    HW110259   2.347   5.426   6.723
 3120SOL    HW210260   2.278   5.573   6.708
 3121SOL     OW10261   4.439   2.394   3.932
 3121SOL    HW110262   4.420   2.336   4.012
 3121SOL    HW210263   4.359   2.396   3.872
 3122SOL     OW10264   5.325   4.940   5.739
 3122SOL    HW110265   5.338   5.005   5.814
 3122SOL    HW210266   5.227   4.919   5.731
 3123SOL     OW10267   1.957   1.933   3.020
 3123SOL    HW110268   1.990   1.951   3.113
 3123SOL    HW210269   1.866   1.973   3.010
 3124SOL     OW10270   5.015   6.902   5.318
 3124SOL    HW110271   5.091   6.966   5.331
 3124SOL    HW210272   4.967   6.924   5.234
 3125SOL     OW10273   1.730   1.208   5.946
 3125SOL    HW110274   1.633   1.187   5.945
 3125SOL    HW210275   1.744   1.306   5.932
 3126SOL     OW10276   4.988   4.658   5.639
 3126SOL    HW110277   5.008   4.694   5.731
 3126SOL    HW210278   5.058   4.690   5.575
 3127SOL     OW10279   6.705   1.738   5.191
 3127SOL    HW110280   6.725   1.648   5.229
 3127SOL    HW210281   6.631   1.781   5.244
 3128SOL     OW10282   3.663   0.265   0.572
 3128SOL    HW110283   3.711   0.235   0.655
 3128SOL    HW210284   3.566   0.240   0.579
 3129SOL     OW10285   4.554   4.299   6.989
 3129SOL    HW110286   4.591   4.364   6.923
 3129SOL    HW210287   4.485   4.344   0.028
 3130SOL     OW10288   0.591   5.967   2.147
 3130SOL    HW110289   0.573   6.020   2.230
 3130SOL    HW210290   0.573   6.023   2.067
 3131SOL     OW10291   6.704   3.924   2.990
 3131SOL    HW110292   6.740   3.879   3.072
 3131SOL    HW210293   6.718   3.865   2.911
 3132SOL     OW10294   4.982   4.016   0.041
 3132SOL    HW110295   4.920   3.968   0.104
 3132SOL    HW210296   5.074   4.017   0.079
 3133SOL     OW10297   5.354   6.854   4.259
 3133SOL    HW110298   5.365   6.946   4.298
 3133SOL    HW210299   5.444   6.816   4.240
 3134SOL     OW10300   5.643   4.928   2.582
 3134SOL    HW110301   5.634   4.862   2.656
 3134SOL    HW210302   5.692   4.886   2.506
 3135SOL     OW10303   3.399   6.186   6.824
 3135SOL    HW110304   3.430   6.103   6.871
 3135SOL    HW210305   3.307   6.210   6.855
 3136SOL     OW10306   6.318   0.488   2.919
 3136SOL    HW110307   6.416   0.496   2.942
 3136SOL    HW210308   6.289   0.393   2.929
 3137SOL     OW10309   4.143   5.718   0.100
 3137SOL    HW110310   4.168   5.624   0.077
 3137SOL    HW210311   4.191   5.745   0.184
 3138SOL     OW10312   6.441   6.208   4.957
 3138SOL    HW110313   6.429   6.292   4.905
 3138SOL    HW210314   6.442   6.230   5.055
 3139SOL     OW10315   1.797   4.975   1.641
 3139SOL    HW110316   1.784   4.950   1.545
 3139SOL    HW210317   1.741   5.054   1.663
 3140SOL     OW10318   6.351   6.069   6.915
 3140SOL    HW110319   6.252   6.067   6.930
 3140SOL    HW210320   6.381   5.982   6.876
 3141SOL     OW10321   5.964   1.510   6.802
 3141SOL    HW110322   5.948   1.515   6.703
 3141SOL    HW210323   6.002   1.597   6.833
 3142SOL     OW10324   4.511   0.893   3.766
 3142SOL    HW110325   4.474   0.823   3.704
 3142SOL    HW210326   4.459   0.978   3.756
 3143SOL     OW10327   6.794   1.644   1.413
 3143SOL    HW110328   6.728   1.681   1.347
 3143SOL    HW210329   6.812   1.713   1.484
 3144SOL     OW10330   3.526   4.532   7.000
 3144SOL    HW110331   3.433   4.496   7.003
 3144SOL    HW210332   3.567   4.526   0.072
 3145SOL     OW10333   0.422   5.443   0.235
 3145SOL    HW110334   0.456   5.436   0.328
 3145SOL    HW210335   0.430   5.537   0.203
 3146SOL     OW10336   6.679   2.047   4.838
 3146SOL    HW110337   6.654   1.955   4.808
 3146SOL    HW210338   6.632   2.114   4.782
 3147SOL     OW10339   3.995   6.970   6.973
 3147SOL    HW110340   4.022   0.004   6.892
 3147SOL    HW210341   4.077   6.938   0.002
 3148SOL     OW10342   6.874   4.577   1.733
 3148SOL    HW110343   6.786   4.562   1.777
 3148SOL    HW210344   6.862   4.580   1.634
 3149SOL     OW10345   3.505   3.200   0.351
 3149SOL    HW110346   3.555   3.264   0.293
 3149SOL    HW210347   3.431   3.157   0.299
 3150SOL     OW10348   0.133   7.015   5.826
 3150SOL    HW110349   0.097   7.001   5.918
 3150SOL    HW210350   0.059   7.008   5.760
 3151SOL     OW10351   6.840   1.213   5.757
 3151SOL    HW110352   6.793   1.289   5.801
 3151SOL    HW210353   6.936   1.238   5.740
 3152SOL     OW10354   1.919   2.285   5.948
 3152SOL    HW110355   1.972   2.207   5.981
 3152SOL    HW210356   1.856   2.315   6.019
 3153SOL     OW10357   5.446   5.724   2.039
 3153SOL    HW110358   5.433   5.790   2.113
 3153SOL    HW210359   5.417   5.634   2.070
 3154SOL     OW10360   4.007   1.792   0.862
 3154SOL    HW110361   4.051   1.866   0.912
 3154SOL    HW210362   4.067   1.712   0.862
 3155SOL     OW10363   0.945   5.192   6.933
 3155SOL    HW110364   0.855   5.224   6.964
 3155SOL    HW210365   0.987   5.136   7.004
 3156SOL     OW10366   4.271   4.505   0.945
 3156SOL    HW110367   4.366   4.471   0.949
 3156SOL    HW210368   4.211   4.430   0.919
 3157SOL     OW10369   1.178   0.814   4.660
 3157SOL    HW110370   1.168   0.904   4.701
 3157SOL    HW210371   1.146   0.816   4.565
 3158SOL     OW10372   2.358   0.628   5.455
 3158SOL    HW110373   2.268   0.643   5.497
 3158SOL    HW210374   2.371   0.530   5.436
 3159SOL     OW10375   4.899   6.920   1.246
 3159SOL    HW110376   4.877   6.848   1.312
 3159SOL    HW210377   4.828   6.991   1.249
 3160SOL     OW10378   1.757   0.762   5.505
 3160SOL    HW110379   1.696   0.704   5.559
 3160SOL    HW210380   1.714   0.784   5.418
 3161SOL     OW10381   1.380   2.881   2.179
 3161SOL    HW110382   1.317   2.806   2.198
 3161SOL    HW210383   1.465   2.844   2.142
 3162SOL     OW10384   1.091   5.741   1.607
 3162SOL    HW110385   1.030   5.734   1.686
 3162SOL    HW210386   1.040   5.781   1.530
 3163SOL     OW10387   4.829   4.320   0.370
 3163SOL    HW110388   4.749   4.319   0.309
 3163SOL    HW210389   4.907   4.279   0.323
 3164SOL     OW10390   2.612   6.960   4.836
 3164SOL    HW110391   2.588   6.918   4.924
 3164SOL    HW210392   2.567   6.911   4.762
 3165SOL     OW10393   0.971   5.913   6.092
 3165SOL    HW110394   1.040   5.842   6.080
 3165SOL    HW210395   0.995   5.993   6.038
 3166SOL     OW10396   4.733   1.408   4.544
 3166SOL    HW110397   4.756   1.458   4.460
 3166SOL    HW210398   4.817   1.386   4.594
 3167SOL     OW10399   5.828   3.163   1.191
 3167SOL    HW110400   5.923   3.164   1.224
 3167SOL    HW210401   5.828   3.156   1.091
 3168SOL     OW10402   4.998   1.301   0.195
 3168SOL    HW110403   5.056   1.281   0.275
 3168SOL    HW210404   4.992   1.220   0.137
 3169SOL     OW10405   1.333   4.147   2.365
 3169SOL    HW110406   1.262   4.076   2.363
 3169SOL    HW210407   1.367   4.163   2.273
 3170SOL     OW10408   1.863   3.722   3.549
 3170SOL    HW110409   1.930   3.660   3.509
 3170SOL    HW210410   1.890   3.816   3.532
 3171SOL     OW10411   5.454   1.566   4.451
 3171SOL    HW110412   5.362   1.599   4.474
 3171SOL    HW210413   5.460   1.550   4.352
 3172SOL     OW10414   5.677   4.734   1.416
 3172SOL    HW110415   5.660   4.768   1.508
 3172SOL    HW210416   5.604   4.672   1.389
 3173SOL     OW10417   4.931   2.599   0.253
 3173SOL    HW110418   4.902   2.684   0.208
 3173SOL    HW210419   4.849   2.546   0.278
 3174SOL     OW10420   3.611   2.419   6.638
 3174SOL    HW110421   3.586   2.381   6.728
 3174SOL    HW210422   3.554   2.378   6.568
 3175SOL     OW10423   5.506   6.676   5.369
 3175SOL    HW110424   5.452   6.644   5.447
 3175SOL    HW210425   5.569   6.748   5.399
 3176SOL     OW10426   7.015   5.184   3.718
 3176SOL    HW110427   6.939   5.136   3.762
 3176SOL    HW210428   0.078   5.125   3.719
 3177SOL     OW10429   5.362   3.041   3.872
 3177SOL    HW110430   5.298   2.965   3.858
 3177SOL    HW210431   5.385   3.082   3.783
 3178SOL     OW10432   0.528   0.838   2.443
 3178SOL    HW110433   0.430   0.828   2.463
 3178SOL    HW210434   0.548   0.934   2.425
 3179SOL     OW10435   0.731   2.696   2.303
 3179SOL    HW110436   0.789   2.682   2.223
 3179SOL    HW210437   0.759   2.633   2.376
 3180SOL     OW10438   0.065   6.257   6.753
 3180SOL    HW110439   0.111   6.257   6.842
 3180SOL    HW210440   0.038   6.163   6.730
 3181SOL     OW10441   0.436   6.084   5.757
 3181SOL    HW110442   0.438   5.986   5.776
 3181SOL    HW210443   0.414   6.098   5.660
 3182SOL     OW10444   2.013   0.562   1.081
 3182SOL    HW110445   1.990   0.652   1.118
 3182SOL    HW210446   1.929   0.512   1.060
 3183SOL     OW10447   4.038   3.608   1.004
 3183SOL    HW110448   3.942   3.586   1.023
 3183SOL    HW210449   4.074   3.545   0.936
 3184SOL     OW10450   6.441   1.704   4.087
 3184SOL    HW110451   6.385   1.661   4.158
 3184SOL    HW210452   6.531   1.724   4.124
 3185SOL     OW10453   0.791   6.314   6.726
 3185SOL    HW110454   0.720   6.279   6.665
 3185SOL    HW210455   0.876   6.263   6.711
 3186SOL     OW10456   6.928   2.745   6.401
 3186SOL    HW110457   6.904   2.656   6.440
 3186SOL    HW210458   6.979   2.799   6.469
 3187SOL     OW10459   5.337   6.925   2.573
 3187SOL    HW110460   5.358   6.891   2.664
 3187SOL    HW210461   5.357   6.854   2.505
 3188SOL     OW10462   2.134   6.669   0.862
 3188SOL    HW110463   2.062   6.648   0.796
 3188SOL    HW210464   2.112   6.626   0.950
 3189SOL     OW10465   3.071   1.693   6.056
 3189SOL    HW110466   3.076   1.721   6.152
 3189SOL    HW210467   3.124   1.756   5.999
 3190SOL     OW10468   6.324   6.362   3.926
 3190SOL    HW110469   6.317   6.462   3.937
 3190SOL    HW210470   6.232   6.323   3.923
 3191SOL     OW10471   3.812   5.680   1.977
 3191SOL    HW110472   3.728   5.651   2.024
 3191SOL    HW210473   3.822   5.627   1.892
 3192SOL     OW10474   5.461   0.944   2.789
 3192SOL    HW110475   5.364   0.921   2.782
 3192SOL    HW210476   5.474   1.010   2.863
 3193SOL     OW10477   3.373   6.014   4.747
 3193SOL    HW110478   3.459   6.033   4.796
 3193SOL    HW210479   3.326   5.939   4.791
 3194SOL     OW10480   1.812   6.872   6.336
 3194SOL    HW110481   1.776   6.860   6.428
 3194SOL    HW210482   1.809   6.969   6.312
 3195SOL     OW10483   1.043   0.510   1.045
 3195SOL    HW110484   1.024   0.480   0.952
 3195SOL    HW210485   0.964   0.560   1.081
 3196SOL     OW10486   5.804   6.947   2.634
 3196SOL    HW110487   5.792   7.002   2.717
 3196SOL    HW210488   5.885   6.979   2.584
 3197SOL     OW10489   2.661   1.021   6.381
 3197SOL    HW110490   2.685   1.066   6.467
 3197SOL    HW210491   2.722   0.944   6.366
 3198SOL     OW10492   5.708   2.504   3.862
 3198SOL    HW110493   5.763   2.569   3.809
 3198SOL    HW210494   5.765   2.427   3.889
 3199SOL     OW10495   5.049   3.591   3.211
 3199SOL    HW110496   4.987   3.576   3.288
 3199SOL    HW210497   5.133   3.635   3.244
 3200SOL     OW10498   5.658   3.105   4.656
 3200SOL    HW110499   5.635   3.007   4.650
 3200SOL    HW210500   5.727   3.118   4.727
 3201SOL     OW10501   6.341   4.130   1.901
 3201SOL    HW110502   6.392   4.054   1.941
 3201SOL    HW210503   6.338   4.121   1.802
 3202SOL     OW10504   2.558   3.351   6.593
 3202SOL    HW110505   2.562   3.350   6.693
 3202SOL    HW210506   2.511   3.434   6.563
 3203SOL     OW10507   3.123   6.659   1.870
 3203SOL    HW110508   3.220   6.644   1.849
 3203SOL    HW210509   3.116   6.727   1.944
 3204SOL     OW10510   3.761   0.666   3.725
 3204SOL    HW110511   3.684   0.659   3.789
 3204SOL    HW210512   3.845   0.643   3.773
 3205SOL     OW10513   5.025   3.239   5.670
 3205SOL    HW110514   4.975   3.154   5.687
 3205SOL    HW210515   4.998   3.308   5.738
 3206SOL     OW10516   2.668   4.224   1.135
 3206SOL    HW110517   2.740   4.164   1.102
 3206SOL    HW210518   2.684   4.245   1.232
 3207SOL     OW10519   2.110   5.076   4.241
 3207SOL    HW110520   2.082   4.985   4.211
 3207SOL    HW210521   2.129   5.133   4.162
 3208SOL     OW10522   6.709   4.584   6.272
 3208SOL    HW110523   6.708   4.586   6.372
 3208SOL    HW210524   6.744   4.497   6.240
 3209SOL     OW10525   5.104   6.510   6.594
 3209SOL    HW110526   5.091   6.546   6.502
 3209SOL    HW210527   5.025   6.453   6.619
 3210SOL     OW10528   5.123   5.745   1.671
 3210SOL    HW110529   5.219   5.738   1.696
 3210SOL    HW210530   5.066   5.701   1.741
 3211SOL     OW10531   2.067   6.290   6.272
 3211SOL    HW110532   2.074   6.364   6.206
 3211SOL    HW210533   2.049   6.204   6.223
 3212SOL     OW10534   2.952   6.745   3.256
 3212SOL    HW110535   2.859   6.713   3.243
 3212SOL    HW210536   3.001   6.684   3.318
 3213SOL     OW10537   1.381   6.688   5.990
 3213SOL    HW110538   1.441   6.762   5.961
 3213SOL    HW210539   1.370   6.691   6.089
 3214SOL     OW10540   4.160   0.340   2.413
 3214SOL    HW110541   4.202   0.416   2.364
 3214SOL    HW210542   4.126   0.372   2.502
 3215SOL     OW10543   2.176   3.254   1.577
 3215SOL    HW110544   2.159   3.276   1.674
 3215SOL    HW210545   2.108   3.189   1.545
 3216SOL     OW10546   5.856   5.331   1.150
 3216SOL    HW110547   5.913   5.402   1.107
 3216SOL    HW210548   5.781   5.375   1.200
 3217SOL     OW10549   6.932   5.323   3.047
 3217SOL    HW110550   0.010   5.331   3.022
 3217SOL    HW210551   6.887   5.258   2.986
 3218SOL     OW10552   5.634   1.422   2.615
 3218SOL    HW110553   5.721   1.469   2.630
 3218SOL    HW210554   5.652   1.333   2.572
 3219SOL     OW10555   6.175   2.021   4.917
 3219SOL    HW110556   6.137   1.950   4.858
 3219SOL    HW210557   6.223   1.979   4.994
 3220SOL     OW10558   0.124   4.076   5.927
 3220SOL    HW110559   0.104   4.131   6.007
 3220SOL    HW210560   0.188   4.125   5.867
 3221SOL     OW10561   3.688   1.771   2.178
 3221SOL    HW110562   3.621   1.844   2.193
 3221SOL    HW210563   3.780   1.806   2.195
 3222SOL     OW10564   3.343   1.251   3.165
 3222SOL    HW110565   3.307   1.274   3.075
 3222SOL    HW210566   3.299   1.168   3.198
 3223SOL     OW10567   1.363   5.209   0.532
 3223SOL    HW110568   1.309   5.126   0.544
 3223SOL    HW210569   1.403   5.210   0.440
 3224SOL     OW10570   4.616   2.183   4.102
 3224SOL    HW110571   4.629   2.100   4.156
 3224SOL    HW210572   4.527   2.224   4.124
 3225SOL     OW10573   4.837   1.080   4.589
 3225SOL    HW110574   4.802   1.133   4.666
 3225SOL    HW210575   4.851   0.985   4.617
 3226SOL     OW10576   6.021   0.920   0.501
 3226SOL    HW110577   5.934   0.968   0.514
 3226SOL    HW210578   6.068   0.958   0.421
 3227SOL     OW10579   5.578   4.196   5.279
 3227SOL    HW110580   5.627   4.115   5.247
 3227SOL    HW210581   5.602   4.214   5.374
 3228SOL     OW10582   2.898   4.637   0.536
 3228SOL    HW110583   2.927   4.560   0.593
 3228SOL    HW210584   2.826   4.689   0.584
 3229SOL     OW10585   1.665   2.104   0.544
 3229SOL    HW110586   1.760   2.135   0.540
 3229SOL    HW210587   1.646   2.069   0.636
 3230SOL     OW10588   3.128   6.156   5.383
 3230SOL    HW110589   3.080   6.231   5.337
 3230SOL    HW210590   3.080   6.133   5.468
 3231SOL     OW10591   2.003   2.451   2.686
 3231SOL    HW110592   2.101   2.445   2.707
 3231SOL    HW210593   1.951   2.432   2.769
 3232SOL     OW10594   3.598   4.881   3.585
 3232SOL    HW110595   3.623   4.826   3.666
 3232SOL    HW210596   3.650   4.966   3.586
 3233SOL     OW10597   1.759   0.051   6.936
 3233SOL    HW110598   1.683   0.108   6.965
 3233SOL    HW210599   1.738   0.009   6.847
 3234SOL     OW10600   3.204   3.794   0.682
 3234SOL    HW110601   3.291   3.748   0.704
 3234SOL    HW210602   3.196   3.877   0.736
 3235SOL     OW10603   0.778   1.033   3.358
 3235SOL    HW110604   0.731   1.089   3.425
 3235SOL    HW210605   0.844   1.088   3.307
 3236SOL     OW10606   4.869   0.976   0.327
 3236SOL    HW110607   4.944   0.910   0.322
 3236SOL    HW210608   4.793   0.936   0.379
 3237SOL     OW10609   5.812   1.609   5.684
 3237SOL    HW110610   5.820   1.584   5.781
 3237SOL    HW210611   5.732   1.666   5.670
 3238SOL     OW10612   6.441   4.885   1.563
 3238SOL    HW110613   6.379   4.821   1.608
 3238SOL    HW210614   6.425   4.883   1.464
 3239SOL     OW10615   6.823   0.492   5.069
 3239SOL    HW110616   6.728   0.524   5.073
 3239SOL    HW210617   6.833   0.413   5.130
 3240SOL     OW10618   6.809   0.782   0.321
 3240SOL    HW110619   6.758   0.708   0.366
 3240SOL    HW210620   6.756   0.867   0.327
 3241SOL     OW10621   6.881   3.301   5.358
 3241SOL    HW110622   6.860   3.235   5.431
 3241SOL    HW210623   6.839   3.271   5.273
 3242SOL     OW10624   6.684   4.003   4.672
 3242SOL    HW110625   6.691   4.002   4.572
 3242SOL    HW210626   6.770   3.969   4.711
 3243SOL     OW10627   5.837   4.680   4.059
 3243SOL    HW110628   5.925   4.691   4.106
 3243SOL    HW210629   5.853   4.677   3.960
 3244SOL     OW10630   4.879   6.782   0.281
 3244SOL    HW110631   4.972   6.756   0.308
 3244SOL    HW210632   4.826   6.805   0.363
 3245SOL     OW10633   3.652   6.968   4.792
 3245SOL    HW110634   3.630   0.037   4.837
 3245SOL    HW210635   3.732   6.927   4.837
 3246SOL     OW10636   6.851   6.903   2.865
 3246SOL    HW110637   6.769   6.846   2.861
 3246SOL    HW210638   6.894   6.906   2.775
 3247SOL     OW10639   1.594   4.140   3.730
 3247SOL    HW110640   1.581   4.236   3.751
 3247SOL    HW210641   1.587   4.126   3.631
 3248SOL     OW10642   5.432   2.315   3.231
 3248SOL    HW110643   5.516   2.299   3.282
 3248SOL    HW210644   5.430   2.409   3.198
 3249SOL     OW10645   3.244   2.934   3.410
 3249SOL    HW110646   3.203   2.976   3.328
 3249SOL    HW210647   3.343   2.934   3.401
 3250SOL     OW10648   4.389   5.663   2.991
 3250SOL    HW110649   4.475   5.612   2.991
 3250SOL    HW210650   4.312   5.599   2.992
 3251SOL     OW10651   3.114   2.169   2.577
 3251SOL    HW110652   3.214   2.172   2.567
 3251SOL    HW210653   3.072   2.159   2.486
 3252SOL     OW10654   2.034   1.452   3.209
 3252SOL    HW110655   1.975   1.522   3.171
 3252SOL    HW210656   2.110   1.495   3.257
 3253SOL     OW10657   6.882   3.038   0.039
 3253SOL    HW110658   6.964   3.075   0.084
 3253SOL    HW210659   6.811   3.109   0.036
 3254SOL     OW10660   6.445   6.702   1.643
 3254SOL    HW110661   6.395   6.624   1.605
 3254SOL    HW210662   6.541   6.678   1.652
 3255SOL     OW10663   4.142   6.160   1.839
 3255SOL    HW110664   4.220   6.207   1.881
 3255SOL    HW210665   4.057   6.195   1.879
 3256SOL     OW10666   5.341   2.434   1.356
 3256SOL    HW110667   5.357   2.340   1.326
 3256SOL    HW210668   5.243   2.453   1.358
 3257SOL     OW10669   3.128   1.367   2.692
 3257SOL    HW110670   3.221   1.386   2.660
 3257SOL    HW210671   3.131   1.337   2.787
 3258SOL     OW10672   1.459   5.544   4.602
 3258SOL    HW110673   1.520   5.591   4.537
 3258SOL    HW210674   1.372   5.525   4.558
 3259SOL     OW10675   5.527   3.951   4.238
 3259SOL    HW110676   5.511   3.855   4.262
 3259SOL    HW210677   5.555   4.001   4.320
 3260SOL     OW10678   1.775   4.920   3.438
 3260SOL    HW110679   1.748   4.979   3.362
 3260SOL    HW210680   1.767   4.824   3.410
 3261SOL     OW10681   5.601   0.349   4.435
 3261SOL    HW110682   5.690   0.327   4.395
 3261SOL    HW210683   5.529   0.330   4.367
 3262SOL     OW10684   3.120   1.564   3.385
 3262SOL    HW110685   3.094   1.630   3.455
 3262SOL    HW210686   3.042   1.547   3.324
 3263SOL     OW10687   0.023   0.771   2.004
 3263SOL    HW110688   0.091   0.702   2.031
 3263SOL    HW210689   6.998   0.742   1.918
 3264SOL     OW10690   1.804   4.918   7.008
 3264SOL    HW110691   1.836   5.013   7.012
 3264SOL    HW210692   1.827   4.879   6.919
 3265SOL     OW10693   0.199   5.366   6.652
 3265SOL    HW110694   0.181   5.445   6.711
 3265SOL    HW210695   0.283   5.321   6.683
 3266SOL     OW10696   3.904   4.996   6.044
 3266SOL    HW110697   3.948   5.011   5.955
 3266SOL    HW210698   3.921   5.074   6.104
 3267SOL     OW10699   3.414   6.892   0.790
 3267SOL    HW110700   3.504   6.918   0.754
 3267SOL    HW210701   3.412   6.794   0.809
 3268SOL     OW10702   5.743   5.073   2.194
 3268SOL    HW110703   5.695   5.033   2.116
 3268SOL    HW210704   5.736   5.012   2.273
 3269SOL     OW10705   1.575   5.033   1.947
 3269SOL    HW110706   1.560   5.103   2.016
 3269SOL    HW210707   1.617   5.074   1.865
 3270SOL     OW10708   0.933   2.783   5.796
 3270SOL    HW110709   1.025   2.807   5.765
 3270SOL    HW210710   0.940   2.729   5.880
 3271SOL     OW10711   0.872   4.008   1.385
 3271SOL    HW110712   0.933   3.936   1.418
 3271SOL    HW210713   0.926   4.081   1.345
 3272SOL     OW10714   4.621   5.751   0.409
 3272SOL    HW110715   4.720   5.753   0.418
 3272SOL    HW210716   4.590   5.656   0.403
 3273SOL     OW10717   3.855   3.940   6.360
 3273SOL    HW110718   3.775   3.981   6.404
 3273SOL    HW210719   3.825   3.865   6.300
 3274SOL     OW10720   5.194   0.015   2.025
 3274SOL    HW110721   5.180   0.095   2.082
 3274SOL    HW210722   5.242   6.962   2.077
 3275SOL     OW10723   4.800   0.497   1.568
 3275SOL    HW110724   4.744   0.416   1.551
 3275SOL    HW210725   4.797   0.521   1.665
 3276SOL     OW10726   6.067   6.121   6.984
 3276SOL    HW110727   6.061   6.024   6.962
 3276SOL    HW210728   5.975   6.158   6.997
 3277SOL     OW10729   2.889   1.875   2.443
 3277SOL    HW110730   2.856   1.914   2.530
 3277SOL    HW210731   2.858   1.933   2.368
 3278SOL     OW10732   5.312   0.742   6.463
 3278SOL    HW110733   5.243   0.674   6.489
 3278SOL    HW210734   5.323   0.742   6.364
 3279SOL     OW10735   3.732   0.107   1.872
 3279SOL    HW110736   3.701   0.190   1.919
 3279SOL    HW210737   3.830   0.095   1.889
 3280SOL     OW10738   6.671   3.287   4.187
 3280SOL    HW110739   6.619   3.348   4.246
 3280SOL    HW210740   6.687   3.331   4.098
 3281SOL     OW10741   6.366   2.414   1.708
 3281SOL    HW110742   6.305   2.380   1.636
 3281SOL    HW210743   6.326   2.394   1.797
 3282SOL     OW10744   0.200   4.978   5.124
 3282SOL    HW110745   0.263   5.034   5.178
 3282SOL    HW210746   0.150   4.916   5.185
 3283SOL     OW10747   3.387   1.912   0.051
 3283SOL    HW110748   3.360   1.976   6.998
 3283SOL    HW210749   3.480   1.880   0.034
 3284SOL     OW10750   2.073   6.450   4.905
 3284SOL    HW110751   2.127   6.482   4.828
 3284SOL    HW210752   2.113   6.481   4.991
 3285SOL     OW10753   3.782   2.084   4.425
 3285SOL    HW110754   3.790   2.047   4.517
 3285SOL    HW210755   3.692   2.128   4.415
 3286SOL     OW10756   1.582   2.607   2.498
 3286SOL    HW110757   1.671   2.565   2.479
 3286SOL    HW210758   1.511   2.537   2.496
 3287SOL     OW10759   2.497   0.562   0.859
 3287SOL    HW110760   2.580   0.595   0.904
 3287SOL    HW210761   2.426   0.547   0.927
 3288SOL     OW10762   2.598   5.765   2.057
 3288SOL    HW110763   2.564   5.757   2.151
 3288SOL    HW210764   2.528   5.810   2.000
 3289SOL     OW10765   4.159   0.708   6.610
 3289SOL    HW110766   4.143   0.799   6.571
 3289SOL    HW210767   4.169   0.642   6.535
 3290SOL     OW10768   0.533   5.767   0.617
 3290SOL    HW110769   0.577   5.723   0.538
 3290SOL    HW210770   0.582   5.851   0.640
 3291SOL     OW10771   5.286   6.727   4.618
 3291SOL    HW110772   5.359   6.688   4.674
 3291SOL    HW210773   5.198   6.711   4.663
 3292SOL     OW10774   0.210   2.090   0.599
 3292SOL    HW110775   0.111   2.079   0.607
 3292SOL    HW210776   0.243   2.041   0.518
 3293SOL     OW10777   6.662   4.811   3.012
 3293SOL    HW110778   6.672   4.743   2.940
 3293SOL    HW210779   6.749   4.860   3.023
 3294SOL     OW10780   5.131   2.784   5.362
 3294SOL    HW110781   5.123   2.738   5.273
 3294SOL    HW210782   5.199   2.738   5.418
 3295SOL     OW10783   1.009   2.273   2.842
 3295SOL    HW110784   1.078   2.275   2.770
 3295SOL    HW210785   0.926   2.229   2.807
 3296SOL     OW10786   2.205   0.690   5.914
 3296SOL    HW110787   2.295   0.707   5.874
 3296SOL    HW210788   2.185   0.762   5.981
 3297SOL     OW10789   4.068   0.965   5.230
 3297SOL    HW110790   4.067   0.972   5.130
 3297SOL    HW210791   4.067   1.057   5.269
 3298SOL     OW10792   3.930   3.676   5.677
 3298SOL    HW110793   3.924   3.627   5.590
 3298SOL    HW210794   4.007   3.739   5.674
 3299SOL     OW10795   2.511   5.719   4.088
 3299SOL    HW110796   2.575   5.672   4.028
 3299SOL    HW210797   2.419   5.712   4.050
 3300SOL     OW10798   2.222   0.800   4.024
 3300SOL    HW110799   2.243   0.726   4.089
 3300SOL    HW210800   2.260   0.886   4.058
 3301SOL     OW10801   1.118   1.406   3.108
 3301SOL    HW110802   1.089   1.311   3.098
 3301SOL    HW210803   1.183   1.413   3.184
 3302SOL     OW10804   1.328   5.352   5.161
 3302SOL    HW110805   1.395   5.284   5.193
 3302SOL    HW210806   1.301   5.331   5.067
 3303SOL     OW10807   3.425   3.474   6.703
 3303SOL    HW110808   3.396   3.545   6.767
 3303SOL    HW210809   3.348   3.445   6.648
 3304SOL     OW10810   1.766   4.091   0.196
 3304SOL    HW110811   1.853   4.042   0.191
 3304SOL    HW210812   1.702   4.041   0.253
 3305SOL     OW10813   3.276   2.950   0.559
 3305SOL    HW110814   3.230   2.894   0.491
 3305SOL    HW210815   3.321   2.891   0.626
 3306SOL     OW10816   2.329   0.437   7.003
 3306SOL    HW110817   2.416   0.397   6.977
 3306SOL    HW210818   2.254   0.386   6.960
 3307SOL     OW10819   1.637   5.843   4.768
 3307SOL    HW110820   1.629   5.846   4.668
 3307SOL    HW210821   1.666   5.932   4.802
 3308SOL     OW10822   4.213   4.382   1.291
 3308SOL    HW110823   4.195   4.444   1.215
 3308SOL    HW210824   4.311   4.367   1.299
 3309SOL     OW10825   5.212   3.374   3.387
 3309SOL    HW110826   5.122   3.370   3.343
 3309SOL    HW210827   5.250   3.466   3.373
 3310SOL     OW10828   6.250   4.677   5.957
 3310SOL    HW110829   6.187   4.653   6.031
 3310SOL    HW210830   6.335   4.625   5.967
 3311SOL     OW10831   2.527   3.738   0.238
 3311SOL    HW110832   2.608   3.783   0.275
 3311SOL    HW210833   2.507   3.777   0.148
 3312SOL     OW10834   4.582   2.789   6.551
 3312SOL    HW110835   4.598   2.819   6.457
 3312SOL    HW210836   4.574   2.689   6.552
 3313SOL     OW10837   0.017   0.573   4.098
 3313SOL    HW110838   0.015   0.473   4.093
 3313SOL    HW210839   6.948   0.607   4.132
 3314SOL     OW10840   3.879   5.814   2.424
 3314SOL    HW110841   3.972   5.789   2.450
 3314SOL    HW210842   3.880   5.864   2.337
 3315SOL     OW10843   0.577   5.506   4.451
 3315SOL    HW110844   0.585   5.495   4.352
 3315SOL    HW210845   0.650   5.454   4.496
 3316SOL     OW10846   3.909   2.646   0.171
 3316SOL    HW110847   3.867   2.676   0.256
 3316SOL    HW210848   3.864   2.692   0.094
 3317SOL     OW10849   5.076   2.925   1.646
 3317SOL    HW110850   5.140   2.850   1.630
 3317SOL    HW210851   4.984   2.897   1.617
 3318SOL     OW10852   3.386   2.930   0.893
 3318SOL    HW110853   3.308   2.974   0.937
 3318SOL    HW210854   3.354   2.860   0.830
 3319SOL     OW10855   6.862   5.727   3.862
 3319SOL    HW110856   6.880   5.638   3.905
 3319SOL    HW210857   6.893   5.800   3.922
 3320SOL     OW10858   6.271   6.470   1.904
 3320SOL    HW110859   6.222   6.507   1.825
 3320SOL    HW210860   6.208   6.456   1.979
 3321SOL     OW10861   5.004   2.022   6.919
 3321SOL    HW110862   5.024   2.088   6.992
 3321SOL    HW210863   4.939   1.955   6.953
 3322SOL     OW10864   6.201   3.021   0.545
 3322SOL    HW110865   6.279   2.988   0.492
 3322SOL    HW210866   6.202   2.978   0.636
 3323SOL     OW10867   1.812   1.375   1.489
 3323SOL    HW110868   1.776   1.336   1.573
 3323SOL    HW210869   1.737   1.388   1.424
 3324SOL     OW10870   5.110   5.439   5.316
 3324SOL    HW110871   5.091   5.535   5.338
 3324SOL    HW210872   5.031   5.400   5.268
 3325SOL     OW10873   2.542   4.605   5.192
 3325SOL    HW110874   2.635   4.627   5.221
 3325SOL    HW210875   2.479   4.675   5.226
 3326SOL     OW10876   3.425   2.117   2.712
 3326SOL    HW110877   3.445   2.050   2.641
 3326SOL    HW210878   3.510   2.160   2.743
 3327SOL     OW10879   0.553   5.630   6.028
 3327SOL    HW110880   0.614   5.570   6.080
 3327SOL    HW210881   0.607   5.689   5.969
 3328SOL     OW10882   4.792   2.706   5.333
 3328SOL    HW110883   4.814   2.781   5.271
 3328SOL    HW210884   4.715   2.653   5.296
 3329SOL     OW10885   6.289   6.039   5.790
 3329SOL    HW110886   6.325   5.978   5.720
 3329SOL    HW210887   6.213   5.994   5.838
 3330SOL     OW10888   6.823   3.884   3.241
 3330SOL    HW110889   6.829   3.791   3.278
 3330SOL    HW210890   6.862   3.948   3.306
 3331SOL     OW10891   2.215   3.467   0.500
 3331SOL    HW110892   2.140   3.513   0.548
 3331SOL    HW210893   2.191   3.370   0.486
 3332SOL     OW10894   6.984   3.910   1.442
 3332SOL    HW110895   6.948   3.918   1.535
 3332SOL    HW210896   6.924   3.851   1.388
 3333SOL     OW10897   3.374   5.339   6.633
 3333SOL    HW110898   3.294   5.384   6.595
 3333SOL    HW210899   3.346   5.258   6.686
 3334SOL     OW10900   1.842   3.676   1.701
 3334SOL    HW110901   1.914   3.690   1.634
 3334SOL    HW210902   1.882   3.653   1.790
 3335SOL     OW10903   5.846   4.047   4.522
 3335SOL    HW110904   5.899   3.992   4.457
 3335SOL    HW210905   5.804   4.124   4.473
 3336SOL     OW10906   3.049   5.660   6.040
 3336SOL    HW110907   3.141   5.628   6.063
 3336SOL    HW210908   3.020   5.618   5.954
 3337SOL     OW10909   3.370   1.991   0.729
 3337SOL    HW110910   3.361   1.896   0.760
 3337SOL    HW210911   3.324   2.002   0.641
 3338SOL     OW10912   6.763   4.436   0.367
 3338SOL    HW110913   6.687   4.371   0.354
 3338SOL    HW210914   6.761   4.505   0.294
 3339SOL     OW10915   0.734   5.753   6.636
 3339SOL    HW110916   0.804   5.704   6.688
 3339SOL    HW210917   0.746   5.851   6.647
 3340SOL     OW10918   3.994   0.111   1.927
 3340SOL    HW110919   4.059   0.049   1.970
 3340SOL    HW210920   3.975   0.188   1.989
 3341SOL     OW10921   0.651   0.010   1.422
 3341SOL    HW110922   0.571   6.975   1.450
 3341SOL    HW210923   0.728   7.005   1.482
 3342SOL     OW10924   2.623   0.579   5.040
 3342SOL    HW110925   2.689   0.539   4.975
 3342SOL    HW210926   2.630   0.679   5.037
 3343SOL     OW10927   6.914   2.654   1.384
 3343SOL    HW110928   6.966   2.609   1.312
 3343SOL    HW210929   6.971   2.666   1.465
 3344SOL     OW10930   6.824   3.272   5.944
 3344SOL    HW110931   6.749   3.308   5.887
 3344SOL    HW210932   6.786   3.218   6.019
 3345SOL     OW10933   2.600   3.385   5.868
 3345SOL    HW110934   2.505   3.370   5.839
 3345SOL    HW210935   2.608   3.476   5.908
 3346SOL     OW10936   1.708   5.604   2.656
 3346SOL    HW110937   1.695   5.505   2.667
 3346SOL    HW210938   1.729   5.625   2.561
 3347SOL     OW10939   6.064   4.146   4.282
 3347SOL    HW110940   6.074   4.055   4.322
 3347SOL    HW210941   6.047   4.137   4.183
 3348SOL     OW10942   3.647   4.067   3.012
 3348SOL    HW110943   3.556   4.079   2.973
 3348SOL    HW210944   3.706   4.142   2.982
 3349SOL     OW10945   5.994   3.880   5.760
 3349SOL    HW110946   6.002   3.781   5.752
 3349SOL    HW210947   6.081   3.918   5.794
 3350SOL     OW10948   1.480   2.174   0.935
 3350SOL    HW110949   1.440   2.095   0.981
 3350SOL    HW210950   1.514   2.239   1.003
 3351SOL     OW10951   5.328   2.114   0.587
 3351SOL    HW110952   5.412   2.087   0.634
 3351SOL    HW210953   5.352   2.161   0.502
 3352SOL     OW10954   0.587   3.336   0.204
 3352SOL    HW110955   0.502   3.287   0.226
 3352SOL    HW210956   0.574   3.434   0.218
 3353SOL     OW10957   2.081   6.486   6.093
 3353SOL    HW110958   2.026   6.555   6.140
 3353SOL    HW210959   2.137   6.530   6.023
 3354SOL     OW10960   1.558   0.902   2.264
 3354SOL    HW110961   1.548   0.878   2.167
 3354SOL    HW210962   1.582   0.820   2.316
 3355SOL     OW10963   6.994   1.693   2.848
 3355SOL    HW110964   6.930   1.761   2.884
 3355SOL    HW210965   6.949   1.604   2.844
 3356SOL     OW10966   2.207   3.601   5.791
 3356SOL    HW110967   2.141   3.640   5.727
 3356SOL    HW210968   2.297   3.595   5.747
 3357SOL     OW10969   2.366   5.318   2.413
 3357SOL    HW110970   2.385   5.359   2.324
 3357SOL    HW210971   2.439   5.342   2.477
 3358SOL     OW10972   6.982   4.267   3.275
 3358SOL    HW110973   6.965   4.188   3.335
 3358SOL    HW210974   6.928   4.345   3.307
 3359SOL     OW10975   1.638   1.372   1.861
 3359SOL    HW110976   1.649   1.470   1.874
 3359SOL    HW210977   1.553   1.341   1.903
 3360SOL     OW10978   2.042   0.532   6.251
 3360SOL    HW110979   2.026   0.630   6.258
 3360SOL    HW210980   2.059   0.494   6.342
 3361SOL     OW10981   4.451   0.556   2.948
 3361SOL    HW110982   4.535   0.586   2.994
 3361SOL    HW210983   4.472   0.480   2.886
 3362SOL     OW10984   2.230   1.228   5.436
 3362SOL    HW110985   2.316   1.280   5.441
 3362SOL    HW210986   2.240   1.142   5.487
 3363SOL     OW10987   0.284   1.399   6.168
 3363SOL    HW110988   0.367   1.372   6.216
 3363SOL    HW210989   0.219   1.438   6.233
 3364SOL     OW10990   1.948   4.637   6.193
 3364SOL    HW110991   2.030   4.598   6.150
 3364SOL    HW210992   1.973   4.683   6.277
 3365SOL     OW10993   5.806   2.086   5.378
 3365SOL    HW110994   5.842   2.147   5.449
 3365SOL    HW210995   5.877   2.020   5.352
 3366SOL     OW10996   5.192   1.122   6.497
 3366SOL    HW110997   5.151   1.207   6.532
 3366SOL    HW210998   5.269   1.144   6.437
 3367SOL     OW10999   1.736   0.253   2.175
 3367SOL    HW111000   1.802   0.326   2.192
 3367SOL    HW211001   1.654   0.269   2.230
 3368SOL     OW11002   6.271   1.203   6.038
 3368SOL    HW111003   6.254   1.144   5.959
 3368SOL    HW211004   6.234   1.159   6.120
 3369SOL     OW11005   3.718   6.367   5.873
 3369SOL    HW111006   3.767   6.292   5.829
 3369SOL    HW211007   3.756   6.382   5.965
 3370SOL     OW11008   5.103   0.070   5.043
 3370SOL    HW111009   5.187   0.070   5.096
 3370SOL    HW211010   5.078   0.165   5.020
 3371SOL     OW11011   6.712   4.947   1.451
 3371SOL    HW111012   6.800   4.905   1.475
 3371SOL    HW211013   6.642   4.913   1.514
 3372SOL     OW11014   0.500   2.204   2.767
 3372SOL    HW111015   0.445   2.281   2.735
 3372SOL    HW211016   0.492   2.196   2.867
 3373SOL     OW11017   0.715   1.929   6.077
 3373SOL    HW111018   0.670   1.943   6.165
 3373SOL    HW211019   0.679   1.994   6.010
 3374SOL     OW11020   3.655   5.448   5.234
 3374SOL    HW111021   3.594   5.452   5.313
 3374SOL    HW211022   3.617   5.386   5.166
 3375SOL     OW11023   3.794   4.160   4.819
 3375SOL    HW111024   3.795   4.248   4.772
 3375SOL    HW211025   3.833   4.090   4.759
 3376SOL     OW11026   2.785   3.050   1.784
 3376SOL    HW111027   2.836   3.110   1.845
 3376SOL    HW211028   2.846   2.981   1.746
 3377SOL     OW11029   2.960   5.562   5.791
 3377SOL    HW111030   3.010   5.507   5.724
 3377SOL    HW211031   2.862   5.541   5.785
 3378SOL     OW11032   0.688   0.992   0.994
 3378SOL    HW111033   0.629   0.929   0.943
 3378SOL    HW211034   0.779   0.952   1.002
 3379SOL     OW11035   0.403   4.822   6.308
 3379SOL    HW111036   0.426   4.747   6.371
 3379SOL    HW211037   0.374   4.901   6.361
 3380SOL     OW11038   0.857   3.741   5.855
 3380SOL    HW111039   0.801   3.675   5.904
 3380SOL    HW211040   0.800   3.818   5.826
 3381SOL     OW11041   3.038   2.917   1.248
 3381SOL    HW111042   3.006   2.855   1.320
 3381SOL    HW211043   2.958   2.955   1.201
 3382SOL     OW11044   6.754   6.800   6.608
 3382SOL    HW111045   6.795   6.710   6.601
 3382SOL    HW211046   6.809   6.858   6.668
 3383SOL     OW11047   0.200   4.108   2.766
 3383SOL    HW111048   0.102   4.130   2.769
 3383SOL    HW211049   0.215   4.033   2.703
 3384SOL     OW11050   3.262   3.203   4.403
 3384SOL    HW111051   3.180   3.242   4.445
 3384SOL    HW211052   3.237   3.125   4.346
 3385SOL     OW11053   6.713   3.912   3.573
 3385SOL    HW111054   6.752   3.911   3.665
 3385SOL    HW211055   6.664   3.827   3.557
 3386SOL     OW11056   6.240   3.882   4.824
 3386SOL    HW111057   6.163   3.856   4.765
 3386SOL    HW211058   6.239   3.981   4.838
 3387SOL     OW11059   3.054   2.231   3.168
 3387SOL    HW111060   3.137   2.205   3.218
 3387SOL    HW211061   3.009   2.307   3.215
 3388SOL     OW11062   5.176   2.851   2.045
 3388SOL    HW111063   5.164   2.884   2.138
 3388SOL    HW211064   5.182   2.929   1.982
 3389SOL     OW11065   5.086   4.591   3.074
 3389SOL    HW111066   4.997   4.548   3.059
 3389SOL    HW211067   5.091   4.625   3.168
 3390SOL     OW11068   4.957   2.687   5.908
 3390SOL    HW111069   4.990   2.682   6.003
 3390SOL    HW211070   4.871   2.737   5.905
 3391SOL     OW11071   3.981   2.016   4.258
 3391SOL    HW111072   3.904   2.043   4.315
 3391SOL    HW211073   3.996   1.917   4.268
 3392SOL     OW11074   4.974   6.218   3.871
 3392SOL    HW111075   5.065   6.244   3.839
 3392SOL    HW211076   4.967   6.118   3.873
 3393SOL     OW11077   6.451   0.685   0.238
 3393SOL    HW111078   6.428   0.725   0.327
 3393SOL    HW211079   6.498   0.753   0.182
 3394SOL     OW11080   5.579   1.355   1.390
 3394SOL    HW111081   5.486   1.368   1.356
 3394SOL    HW211082   5.586   1.266   1.434
 3395SOL     OW11083   1.578   3.451   5.046
 3395SOL    HW111084   1.590   3.358   5.078
 3395SOL    HW211085   1.568   3.512   5.125
 3396SOL     OW11086   0.003   4.049   4.342
 3396SOL    HW111087   0.053   4.026   4.426
 3396SOL    HW211088   0.066   4.092   4.277
 3397SOL     OW11089   2.903   6.336   5.871
 3397SOL    HW111090   2.867   6.243   5.876
 3397SOL    HW211091   3.002   6.332   5.856
 3398SOL     OW11092   0.284   0.243   4.290
 3398SOL    HW111093   0.225   0.209   4.363
 3398SOL    HW211094   0.245   0.218   4.202
 3399SOL     OW11095   4.491   5.467   4.445
 3399SOL    HW111096   4.393   5.453   4.434
 3399SOL    HW211097   4.522   5.537   4.380
 3400SOL     OW11098   4.630   2.501   6.480
 3400SOL    HW111099   4.715   2.449   6.480
 3400SOL    HW211100   4.556   2.444   6.516
 3401SOL     OW11101   6.329   4.836   6.526
 3401SOL    HW111102   6.367   4.807   6.614
 3401SOL    HW211103   6.380   4.793   6.452
 3402SOL     OW11104   4.747   5.549   2.350
 3402SOL    HW111105   4.673   5.572   2.287
 3402SOL    HW211106   4.759   5.450   2.354
 3403SOL     OW11107   3.107   2.038   5.221
 3403SOL    HW111108   3.148   2.111   5.166
 3403SOL    HW211109   3.040   2.077   5.285
 3404SOL     OW11110   4.332   0.817   0.964
 3404SOL    HW111111   4.394   0.748   0.927
 3404SOL    HW211112   4.381   0.877   1.027
 3405SOL     OW11113   5.965   3.694   0.892
 3405SOL    HW111114   5.914   3.611   0.871
 3405SOL    HW211115   6.063   3.677   0.879
 3406SOL     OW11116   1.278   4.611   1.940
 3406SOL    HW111117   1.273   4.590   2.038
 3406SOL    HW211118   1.231   4.539   1.889
 3407SOL     OW11119   1.426   5.327   2.456
 3407SOL    HW111120   1.515   5.282   2.462
 3407SOL    HW211121   1.392   5.321   2.362
 3408SOL     OW11122   5.304   3.871   3.008
 3408SOL    HW111123   5.257   3.844   2.925
 3408SOL    HW211124   5.386   3.923   2.985
 3409SOL     OW11125   2.781   0.621   5.629
 3409SOL    HW111126   2.877   0.625   5.602
 3409SOL    HW211127   2.748   0.714   5.646
 3410SOL     OW11128   6.939   0.430   6.846
 3410SOL    HW111129   6.906   0.335   6.841
 3410SOL    HW211130   6.906   0.472   6.931
 3411SOL     OW11131   4.909   2.607   1.843
 3411SOL    HW111132   4.933   2.635   1.935
 3411SOL    HW211133   4.922   2.508   1.833
 3412SOL     OW11134   4.091   4.618   6.724
 3412SOL    HW111135   4.057   4.606   6.631
 3412SOL    HW211136   4.041   4.558   6.786
 3413SOL     OW11137   4.126   2.200   2.376
 3413SOL    HW111138   4.093   2.204   2.471
 3413SOL    HW211139   4.049   2.183   2.315
 3414SOL     OW11140   3.739   1.643   5.857
 3414SOL    HW111141   3.702   1.632   5.765
 3414SOL    HW211142   3.826   1.693   5.853
 3415SOL     OW11143   0.157   5.328   4.222
 3415SOL    HW111144   0.144   5.427   4.218
 3415SOL    HW211145   0.081   5.286   4.271
 3416SOL     OW11146   2.270   4.867   5.455
 3416SOL    HW111147   2.190   4.926   5.467
 3416SOL    HW211148   2.249   4.797   5.388
 3417SOL     OW11149   5.906   0.526   1.831
 3417SOL    HW111150   5.928   0.428   1.832
 3417SOL    HW211151   5.816   0.541   1.872
 3418SOL     OW11152   3.267   1.213   6.477
 3418SOL    HW111153   3.332   1.228   6.403
 3418SOL    HW211154   3.290   1.272   6.555
 3419SOL     OW11155   4.505   3.892   0.147
 3419SOL    HW111156   4.445   3.866   0.223
 3419SOL    HW211157   4.506   3.818   0.080
 3420SOL     OW11158   4.354   2.248   4.138
 3420SOL    HW111159   4.350   2.291   4.228
 3420SOL    HW211160   4.261   2.226   4.108
 3421SOL     OW11161   0.609   6.435   4.348
 3421SOL    HW111162   0.627   6.378   4.268
 3421SOL    HW211163   0.529   6.493   4.331
 3422SOL     OW11164   3.336   1.656   2.224
 3422SOL    HW111165   3.339   1.738   2.167
 3422SOL    HW211166   3.322   1.576   2.166
 3423SOL     OW11167   2.594   1.136   1.773
 3423SOL    HW111168   2.638   1.197   1.839
 3423SOL    HW211169   2.564   1.053   1.819
 3424SOL     OW11170   4.025   1.461   2.497
 3424SOL    HW111171   3.999   1.542   2.445
 3424SOL    HW211172   4.123   1.464   2.516
 3425SOL     OW11173   4.637   4.507   1.935
 3425SOL    HW111174   4.595   4.424   1.971
 3425SOL    HW211175   4.690   4.552   2.007
 3426SOL     OW11176   4.335   3.825   0.348
 3426SOL    HW111177   4.260   3.890   0.358
 3426SOL    HW211178   4.312   3.740   0.396
 3427SOL     OW11179   0.846   1.697   0.136
 3427SOL    HW111180   0.834   1.796   0.134
 3427SOL    HW211181   0.911   1.673   0.208
 3428SOL     OW11182   4.457   4.487   3.431
 3428SOL    HW111183   4.369   4.479   3.385
 3428SOL    HW211184   4.487   4.582   3.428
 3429SOL     OW11185   0.309   2.888   6.680
 3429SOL    HW111186   0.324   2.923   6.588
 3429SOL    HW211187   0.342   2.955   6.747
 3430SOL     OW11188   1.024   6.392   0.060
 3430SOL    HW111189   1.041   6.404   6.980
 3430SOL    HW211190   0.951   6.325   0.073
 3431SOL     OW11191   0.756   6.195   0.315
 3431SOL    HW111192   0.674   6.162   0.362
 3431SOL    HW211193   0.740   6.197   0.217
 3432SOL     OW11194   3.010   1.965   6.642
 3432SOL    HW111195   2.943   1.975   6.568
 3432SOL    HW211196   3.101   1.989   6.609
 3433SOL     OW11197   4.065   0.592   5.150
 3433SOL    HW111198   4.131   0.628   5.083
 3433SOL    HW211199   4.115   0.546   5.224
 3434SOL     OW11200   4.444   1.890   2.818
 3434SOL    HW111201   4.394   1.966   2.776
 3434SOL    HW211202   4.434   1.895   2.917
 3435SOL     OW11203   0.493   1.392   6.976
 3435SOL    HW111204   0.574   1.369   0.011
 3435SOL    HW211205   0.471   1.489   6.988
 3436SOL     OW11206   4.257   6.877   3.266
 3436SOL    HW111207   4.236   6.804   3.331
 3436SOL    HW211208   4.174   6.932   3.249
 3437SOL     OW11209   3.885   0.280   6.148
 3437SOL    HW111210   3.839   0.324   6.071
 3437SOL    HW211211   3.942   0.205   6.114
 3438SOL     OW11212   1.672   3.835   6.548
 3438SOL    HW111213   1.769   3.842   6.572
 3438SOL    HW211214   1.640   3.923   6.514
 3439SOL     OW11215   2.753   6.286   3.528
 3439SOL    HW111216   2.665   6.331   3.510
 3439SOL    HW211217   2.778   6.230   3.449
 3440SOL     OW11218   4.684   1.956   1.039
 3440SOL    HW111219   4.761   2.020   1.026
 3440SOL    HW211220   4.711   1.866   1.006
 3441SOL     OW11221   3.367   0.534   4.141
 3441SOL    HW111222   3.370   0.439   4.110
 3441SOL    HW211223   3.273   0.567   4.135
 3442SOL     OW11224   1.826   4.753   3.180
 3442SOL    HW111225   1.911   4.794   3.215
 3442SOL    HW211226   1.810   4.786   3.087
 3443SOL     OW11227   5.846   0.768   4.122
 3443SOL    HW111228   5.781   0.806   4.188
 3443SOL    HW211229   5.842   0.668   4.125
 3444SOL     OW11230   4.215   5.453   0.362
 3444SOL    HW111231   4.157   5.406   0.428
 3444SOL    HW211232   4.296   5.398   0.343
 3445SOL     OW11233   6.197   4.736   4.624
 3445SOL    HW111234   6.263   4.713   4.553
 3445SOL    HW211235   6.231   4.704   4.713
 3446SOL     OW11236   3.368   6.524   2.849
 3446SOL    HW111237   3.334   6.541   2.756
 3446SOL    HW211238   3.296   6.547   2.915
 3447SOL     OW11239   5.845   4.876   6.008
 3447SOL    HW111240   5.859   4.938   6.084
 3447SOL    HW211241   5.761   4.823   6.023
 3448SOL     OW11242   3.510   2.403   0.930
 3448SOL    HW111243   3.425   2.361   0.900
 3448SOL    HW211244   3.533   2.479   0.869
 3449SOL     OW11245   6.151   6.223   3.473
 3449SOL    HW111246   6.081   6.157   3.500
 3449SOL    HW211247   6.122   6.269   3.389
 3450SOL     OW11248   1.036   1.900   1.380
 3450SOL    HW111249   1.097   1.927   1.455
 3450SOL    HW211250   1.070   1.816   1.338
 3451SOL     OW11251   0.901   5.565   4.302
 3451SOL    HW111252   0.912   5.579   4.400
 3451SOL    HW211253   0.804   5.575   4.278
 3452SOL     OW11254   6.271   2.274   6.982
 3452SOL    HW111255   6.318   2.216   6.915
 3452SOL    HW211256   6.338   2.321   0.021
 3453SOL     OW11257   6.117   5.671   5.613
 3453SOL    HW111258   6.019   5.679   5.626
 3453SOL    HW211259   6.155   5.762   5.591
 3454SOL     OW11260   0.474   1.283   0.358
 3454SOL    HW111261   0.558   1.255   0.311
 3454SOL    HW211262   0.459   1.222   0.436
 3455SOL     OW11263   1.911   2.345   4.670
 3455SOL    HW111264   1.963   2.274   4.622
 3455SOL    HW211265   1.971   2.391   4.736
 3456SOL     OW11266   6.278   0.252   1.618
 3456SOL    HW111267   6.356   0.190   1.615
 3456SOL    HW211268   6.296   0.333   1.562
 3457SOL     OW11269   2.253   5.267   3.850
 3457SOL    HW111270   2.240   5.175   3.812
 3457SOL    HW211271   2.180   5.286   3.916
 3458SOL     OW11272   5.280   5.288   1.236
 3458SOL    HW111273   5.322   5.358   1.294
 3458SOL    HW211274   5.298   5.309   1.140
 3459SOL     OW11275   6.255   6.665   3.205
 3459SOL    HW111276   6.286   6.663   3.300
 3459SOL    HW211277   6.277   6.578   3.161
 3460SOL     OW11278   4.256   3.553   6.344
 3460SOL    HW111279   4.327   3.483   6.334
 3460SOL    HW211280   4.299   3.642   6.360
 3461SOL     OW11281   3.206   5.619   2.562
 3461SOL    HW111282   3.206   5.719   2.550
 3461SOL    HW211283   3.285   5.580   2.515
 3462SOL     OW11284   4.912   3.227   3.338
 3462SOL    HW111285   4.977   3.156   3.364
 3462SOL    HW211286   4.840   3.187   3.281
 3463SOL     OW11287   2.005   2.868   1.181
 3463SOL    HW111288   1.985   2.771   1.173
 3463SOL    HW211289   2.087   2.882   1.235
 3464SOL     OW11290   4.142   2.534   6.985
 3464SOL    HW111291   4.229   2.579   7.002
 3464SOL    HW211292   4.067   2.594   7.011
 3465SOL     OW11293   1.635   3.712   1.877
 3465SOL    HW111294   1.700   3.733   1.804
 3465SOL    HW211295   1.684   3.678   1.956
 3466SOL     OW11296   5.891   4.649   3.771
 3466SOL    HW111297   5.975   4.691   3.737
 3466SOL    HW211298   5.884   4.555   3.737
 3467SOL     OW11299   2.736   2.410   1.356
 3467SOL    HW111300   2.817   2.352   1.368
 3467SOL    HW211301   2.728   2.437   1.260
 3468SOL     OW11302   3.775   1.626   0.833
 3468SOL    HW111303   3.728   1.623   0.921
 3468SOL    HW211304   3.859   1.680   0.842
 3469SOL     OW11305   4.013   5.664   5.368
 3469SOL    HW111306   4.082   5.732   5.344
 3469SOL    HW211307   3.950   5.702   5.435
 3470SOL     OW11308   1.113   3.186   1.593
 3470SOL    HW111309   1.161   3.245   1.658
 3470SOL    HW211310   1.079   3.241   1.517
 3471SOL     OW11311   5.121   3.170   4.546
 3471SOL    HW111312   5.179   3.137   4.471
 3471SOL    HW211313   5.099   3.094   4.606
 3472SOL     OW11314   4.266   1.668   3.146
 3472SOL    HW111315   4.216   1.748   3.113
 3472SOL    HW211316   4.204   1.611   3.201
 3473SOL     OW11317   0.102   4.107   1.737
 3473SOL    HW111318   0.159   4.169   1.684
 3473SOL    HW211319   0.014   4.151   1.757
 3474SOL     OW11320   5.649   4.995   3.769
 3474SOL    HW111321   5.713   5.031   3.837
 3474SOL    HW211322   5.563   5.045   3.774
 3475SOL     OW11323   6.891   4.420   4.165
 3475SOL    HW111324   6.915   4.325   4.146
 3475SOL    HW211325   6.838   4.458   4.089
 3476SOL     OW11326   1.444   1.099   3.596
 3476SOL    HW111327   1.393   1.068   3.676
 3476SOL    HW211328   1.533   1.135   3.625
 3477SOL     OW11329   0.566   4.092   2.336
 3477SOL    HW111330   0.570   3.996   2.362
 3477SOL    HW211331   0.566   4.149   2.418
 3478SOL     OW11332   2.433   1.096   1.065
 3478SOL    HW111333   2.401   1.188   1.042
 3478SOL    HW211334   2.367   1.051   1.124
 3479SOL     OW11335   1.287   4.411   4.959
 3479SOL    HW111336   1.381   4.445   4.965
 3479SOL    HW211337   1.285   4.328   4.905
 3480SOL     OW11338   1.287   4.909   6.841
 3480SOL    HW111339   1.229   4.836   6.805
 3480SOL    HW211340   1.383   4.889   6.821
 3481SOL     OW11341   6.219   1.019   5.120
 3481SOL    HW111342   6.120   1.013   5.109
 3481SOL    HW211343   6.262   1.018   5.030
 3482SOL     OW11344   6.070   3.633   5.186
 3482SOL    HW111345   6.027   3.581   5.260
 3482SOL    HW211346   6.166   3.606   5.179
 3483SOL     OW11347   5.304   2.571   4.814
 3483SOL    HW111348   5.265   2.491   4.859
 3483SOL    HW211349   5.280   2.653   4.865
 3484SOL     OW11350   2.290   3.406   5.514
 3484SOL    HW111351   2.253   3.486   5.468
 3484SOL    HW211352   2.366   3.369   5.461
 3485SOL     OW11353   6.621   2.791   6.462
 3485SOL    HW111354   6.587   2.778   6.555
 3485SOL    HW211355   6.647   2.886   6.449
 3486SOL     OW11356   1.921   6.248   4.827
 3486SOL    HW111357   1.975   6.326   4.858
 3486SOL    HW211358   1.981   6.183   4.780
 3487SOL     OW11359   4.851   1.417   6.576
 3487SOL    HW111360   4.926   1.403   6.640
 3487SOL    HW211361   4.872   1.496   6.517
 3488SOL     OW11362   5.520   0.473   5.135
 3488SOL    HW111363   5.430   0.508   5.110
 3488SOL    HW211364   5.555   0.416   5.061
 3489SOL     OW11365   2.934   6.420   0.475
 3489SOL    HW111366   2.924   6.439   0.572
 3489SOL    HW211367   3.010   6.474   0.438
 3490SOL     OW11368   3.351   6.356   0.246
 3490SOL    HW111369   3.439   6.309   0.248
 3490SOL    HW211370   3.282   6.294   0.207
 3491SOL     OW11371   4.679   4.694   5.783
 3491SOL    HW111372   4.680   4.782   5.830
 3491SOL    HW211373   4.772   4.660   5.772
 3492SOL     OW11374   5.660   4.251   2.378
 3492SOL    HW111375   5.627   4.222   2.468
 3492SOL    HW211376   5.748   4.297   2.388
 3493SOL     OW11377   6.420   3.038   5.624
 3493SOL    HW111378   6.346   3.103   5.604
 3493SOL    HW211379   6.380   2.950   5.651
 3494SOL     OW11380   4.212   1.886   1.903
 3494SOL    HW111381   4.174   1.945   1.974
 3494SOL    HW211382   4.173   1.910   1.815
 3495SOL     OW11383   0.879   2.393   2.293
 3495SOL    HW111384   0.847   2.435   2.378
 3495SOL    HW211385   0.840   2.441   2.215
 3496SOL     OW11386   5.603   5.499   1.023
 3496SOL    HW111387   5.603   5.400   1.039
 3496SOL    HW211388   5.641   5.546   1.103
 3497SOL     OW11389   3.434   6.788   2.627
 3497SOL    HW111390   3.419   6.700   2.582
 3497SOL    HW211391   3.393   6.861   2.572
 3498SOL     OW11392   1.931   2.682   1.484
 3498SOL    HW111393   1.874   2.749   1.437
 3498SOL    HW211394   1.912   2.685   1.582
 3499SOL     OW11395   6.254   5.546   5.365
 3499SOL    HW111396   6.275   5.572   5.459
 3499SOL    HW211397   6.162   5.508   5.360
 3500SOL     OW11398   1.710   1.756   4.107
 3500SOL    HW111399   1.768   1.808   4.169
 3500SOL    HW211400   1.642   1.817   4.066
 3501SOL     OW11401   1.594   0.495   5.289
 3501SOL    HW111402   1.563   0.587   5.263
 3501SOL    HW211403   1.537   0.461   5.364
 3502SOL     OW11404   4.801   2.849   2.186
 3502SOL    HW111405   4.765   2.904   2.111
 3502SOL    HW211406   4.871   2.787   2.152
 3503SOL     OW11407   6.184   6.249   6.741
 3503SOL    HW111408   6.212   6.219   6.833
 3503SOL    HW211409   6.183   6.349   6.738
 3504SOL     OW11410   1.095   1.051   0.483
 3504SOL    HW111411   1.050   1.020   0.399
 3504SOL    HW211412   1.176   0.997   0.500
 3505SOL     OW11413   5.075   4.717   6.447
 3505SOL    HW111414   5.169   4.685   6.441
 3505SOL    HW211415   5.026   4.666   6.518
 3506SOL     OW11416   5.124   4.662   4.843
 3506SOL    HW111417   5.174   4.577   4.828
 3506SOL    HW211418   5.167   4.716   4.915
 3507SOL     OW11419   3.393   0.201   0.552
 3507SOL    HW111420   3.380   0.223   0.649
 3507SOL    HW211421   3.325   0.250   0.498
 3508SOL     OW11422   2.909   2.156   5.629
 3508SOL    HW111423   2.959   2.198   5.553
 3508SOL    HW211424   2.835   2.099   5.592
 3509SOL     OW11425   3.892   5.260   6.735
 3509SOL    HW111426   3.931   5.277   6.644
 3509SOL    HW211427   3.794   5.281   6.733
 3510SOL     OW11428   2.816   1.542   0.511
 3510SOL    HW111429   2.787   1.474   0.578
 3510SOL    HW211430   2.751   1.618   0.511
 3511SOL     OW11431   2.684   4.379   1.705
 3511SOL    HW111432   2.756   4.410   1.768
 3511SOL    HW211433   2.671   4.281   1.715
 3512SOL     OW11434   0.073   5.276   6.422
 3512SOL    HW111435   0.091   5.312   6.513
 3512SOL    HW211436   0.113   5.336   6.353
 3513SOL     OW11437   5.753   2.094   0.602
 3513SOL    HW111438   5.736   2.060   0.509
 3513SOL    HW211439   5.844   2.135   0.606
 3514SOL     OW11440   3.891   1.492   2.240
 3514SOL    HW111441   3.946   1.569   2.209
 3514SOL    HW211442   3.845   1.516   2.325
 3515SOL     OW11443   6.571   5.728   4.053
 3515SOL    HW111444   6.644   5.660   4.045
 3515SOL    HW211445   6.523   5.735   3.966
 3516SOL     OW11446   4.341   0.343   1.368
 3516SOL    HW111447   4.406   0.296   1.427
 3516SOL    HW211448   4.315   0.430   1.410
 3517SOL     OW11449   6.089   0.627   1.109
 3517SOL    HW111450   6.000   0.585   1.124
 3517SOL    HW211451   6.078   0.706   1.048
 3518SOL     OW11452   5.065   1.112   5.210
 3518SOL    HW111453   5.001   1.188   5.207
 3518SOL    HW211454   5.155   1.145   5.238
 3519SOL     OW11455   3.614   0.732   0.908
 3519SOL    HW111456   3.606   0.672   0.829
 3519SOL    HW211457   3.693   0.704   0.963
 3520SOL     OW11458   2.554   6.254   4.621
 3520SOL    HW111459   2.644   6.276   4.657
 3520SOL    HW211460   2.564   6.206   4.533
 3521SOL     OW11461   2.395   3.112   0.645
 3521SOL    HW111462   2.325   3.121   0.574
 3521SOL    HW211463   2.484   3.135   0.607
 3522SOL     OW11464   0.454   5.865   6.567
 3522SOL    HW111465   0.430   5.790   6.505
 3522SOL    HW211466   0.504   5.829   6.646
 3523SOL     OW11467   1.904   5.298   6.640
 3523SOL    HW111468   1.878   5.380   6.589
 3523SOL    HW211469   1.822   5.245   6.661
 3524SOL     OW11470   5.245   1.292   3.489
 3524SOL    HW111471   5.318   1.252   3.545
 3524SOL    HW211472   5.237   1.242   3.403
 3525SOL     OW11473   6.259   3.906   3.251
 3525SOL    HW111474   6.256   4.004   3.230
 3525SOL    HW211475   6.353   3.873   3.245
 3526SOL     OW11476   0.795   6.666   3.427
 3526SOL    HW111477   0.704   6.692   3.394
 3526SOL    HW211478   0.824   6.581   3.381
 3527SOL     OW11479   0.026   2.540   5.655
 3527SOL    HW111480   0.057   2.491   5.736
 3527SOL    HW211481   6.968   2.491   5.613
 3528SOL     OW11482   2.218   5.920   4.551
 3528SOL    HW111483   2.132   5.916   4.602
 3528SOL    HW211484   2.202   5.962   4.462
 3529SOL     OW11485   4.661   5.131   1.261
 3529SOL    HW111486   4.582   5.164   1.313
 3529SOL    HW211487   4.697   5.206   1.205
 3530SOL     OW11488   6.927   0.282   2.032
 3530SOL    HW111489   0.007   0.300   2.041
 3530SOL    HW211490   6.891   0.246   2.118
 3531SOL     OW11491   5.384   2.030   0.189
 3531SOL    HW111492   5.318   2.050   0.261
 3531SOL    HW211493   5.465   2.088   0.201
 3532SOL     OW11494   2.133   1.658   1.428
 3532SOL    HW111495   2.212   1.645   1.368
 3532SOL    HW211496   2.154   1.623   1.519
 3533SOL     OW11497   0.809   1.444   2.747
 3533SOL    HW111498   0.756   1.435   2.832
 3533SOL    HW211499   0.906   1.453   2.769
 3534SOL     OW11500   0.151   1.348   0.994
 3534SOL    HW111501   0.244   1.316   1.010
 3534SOL    HW211502   0.136   1.362   0.897
 3535SOL     OW11503   2.780   5.959   4.554
 3535SOL    HW111504   2.719   6.003   4.488
 3535SOL    HW211505   2.726   5.921   4.630
 3536SOL     OW11506   3.667   2.103   2.961
 3536SOL    HW111507   3.569   2.090   2.945
 3536SOL    HW211508   3.700   2.035   3.026
 3537SOL     OW11509   1.723   5.857   3.003
 3537SOL    HW111510   1.682   5.852   2.912
 3537SOL    HW211511   1.802   5.796   3.007
 3538SOL     OW11512   3.243   5.409   3.844
 3538SOL    HW111513   3.262   5.375   3.936
 3538SOL    HW211514   3.327   5.405   3.789
 3539SOL     OW11515   3.277   3.561   4.324
 3539SOL    HW111516   3.354   3.507   4.358
 3539SOL    HW211517   3.311   3.632   4.262
 3540SOL     OW11518   2.174   1.995   3.580
 3540SOL    HW111519   2.096   1.962   3.633
 3540SOL    HW211520   2.255   2.000   3.639
 3541SOL     OW11521   3.052   4.121   5.086
 3541SOL    HW111522   3.039   4.032   5.042
 3541SOL    HW211523   2.969   4.175   5.079
 3542SOL     OW11524   0.613   5.622   1.663
 3542SOL    HW111525   0.695   5.601   1.611
 3542SOL    HW211526   0.535   5.627   1.602
 3543SOL     OW11527   6.336   2.497   4.918
 3543SOL    HW111528   6.356   2.590   4.949
 3543SOL    HW211529   6.283   2.501   4.833
 3544SOL     OW11530   2.047   5.745   6.618
 3544SOL    HW111531   2.002   5.659   6.593
 3544SOL    HW211532   2.115   5.727   6.689
 3545SOL     OW11533   3.239   5.197   6.982
 3545SOL    HW111534   3.272   5.292   6.990
 3545SOL    HW211535   3.287   5.152   6.906
 3546SOL     OW11536   5.986   4.528   2.859
 3546SOL    HW111537   6.039   4.460   2.808
 3546SOL    HW211538   5.990   4.615   2.811
 3547SOL     OW11539   5.183   4.808   3.971
 3547SOL    HW111540   5.174   4.858   4.057
 3547SOL    HW211541   5.095   4.769   3.946
 3548SOL     OW11542   4.533   2.934   5.395
 3548SOL    HW111543   4.490   2.874   5.327
 3548SOL    HW211544   4.606   2.884   5.442
 3549SOL     OW11545   6.094   3.839   2.621
 3549SOL    HW111546   6.008   3.846   2.571
 3549SOL    HW211547   6.087   3.891   2.707
 3550SOL     OW11548   5.842   2.466   2.566
 3550SOL    HW111549   5.942   2.457   2.560
 3550SOL    HW211550   5.805   2.474   2.473
 3551SOL     OW11551   2.445   6.678   2.903
 3551SOL    HW111552   2.499   6.755   2.869
 3551SOL    HW211553   2.482   6.649   2.991
 3552SOL     OW11554   6.867   4.594   2.924
 3552SOL    HW111555   6.844   4.633   2.835
 3552SOL    HW211556   6.903   4.502   2.912
 3553SOL     OW11557   5.834   2.185   3.210
 3553SOL    HW111558   5.806   2.281   3.209
 3553SOL    HW211559   5.931   2.179   3.189
 3554SOL     OW11560   4.092   5.469   6.776
 3554SOL    HW111561   4.015   5.409   6.796
 3554SOL    HW211562   4.177   5.424   6.803
 3555SOL     OW11563   1.126   2.868   3.537
 3555SOL    HW111564   1.120   2.967   3.523
 3555SOL    HW211565   1.160   2.849   3.629
 3556SOL     OW11566   3.912   0.502   6.312
 3556SOL    HW111567   3.829   0.558   6.321
 3556SOL    HW211568   3.896   0.431   6.244
 3557SOL     OW11569   0.889   0.814   4.743
 3557SOL    HW111570   0.967   0.824   4.681
 3557SOL    HW211571   0.921   0.819   4.838
 3558SOL     OW11572   6.914   5.568   1.367
 3558SOL    HW111573   6.944   5.552   1.273
 3558SOL    HW211574   6.815   5.578   1.370
 3559SOL     OW11575   0.787   1.398   5.547
 3559SOL    HW111576   0.767   1.495   5.557
 3559SOL    HW211577   0.716   1.355   5.490
 3560SOL     OW11578   6.649   6.315   1.703
 3560SOL    HW111579   6.689   6.223   1.698
 3560SOL    HW211580   6.717   6.379   1.737
 3561SOL     OW11581   4.311   4.732   4.274
 3561SOL    HW111582   4.360   4.739   4.361
 3561SOL    HW211583   4.262   4.818   4.257
 3562SOL     OW11584   4.693   2.000   3.138
 3562SOL    HW111585   4.617   1.948   3.099
 3562SOL    HW211586   4.698   1.984   3.237
 3563SOL     OW11587   4.511   0.638   1.213
 3563SOL    HW111588   4.538   0.673   1.303
 3563SOL    HW211589   4.568   0.680   1.142
 3564SOL     OW11590   0.387   4.140   2.973
 3564SOL    HW111591   0.417   4.049   3.001
 3564SOL    HW211592   0.315   4.132   2.904
 3565SOL     OW11593   2.061   6.935   5.045
 3565SOL    HW111594   1.978   6.893   5.082
 3565SOL    HW211595   2.090   6.884   4.964
 3566SOL     OW11596   0.419   3.935   5.598
 3566SOL    HW111597   0.437   3.956   5.502
 3566SOL    HW211598   0.499   3.889   5.637
 3567SOL     OW11599   0.067   3.003   0.796
 3567SOL    HW111600   0.043   3.013   0.893
 3567SOL    HW211601   7.005   2.973   0.744
 3568SOL     OW11602   5.326   3.652   3.660
 3568SOL    HW111603   5.313   3.553   3.653
 3568SOL    HW211604   5.268   3.689   3.732
 3569SOL     OW11605   3.650   3.261   3.855
 3569SOL    HW111606   3.735   3.208   3.849
 3569SOL    HW211607   3.667   3.346   3.906
 3570SOL     OW11608   0.314   2.415   5.700
 3570SOL    HW111609   0.255   2.336   5.714
 3570SOL    HW211610   0.296   2.455   5.610
 3571SOL     OW11611   2.252   6.572   5.075
 3571SOL    HW111612   2.335   6.534   5.115
 3571SOL    HW211613   2.275   6.636   5.002
 3572SOL     OW11614   4.828   4.656   2.108
 3572SOL    HW111615   4.886   4.655   2.026
 3572SOL    HW211616   4.823   4.749   2.144
 3573SOL     OW11617   0.445   3.882   3.064
 3573SOL    HW111618   0.381   3.806   3.055
 3573SOL    HW211619   0.469   3.895   3.160
 3574SOL     OW11620   2.066   1.819   5.407
 3574SOL    HW111621   2.092   1.911   5.379
 3574SOL    HW211622   2.032   1.820   5.500
 3575SOL     OW11623   5.422   6.918   0.076
 3575SOL    HW111624   5.510   6.886   0.042
 3575SOL    HW211625   5.436   6.999   0.133
 3576SOL     OW11626   1.283   2.414   1.007
 3576SOL    HW111627   1.364   2.376   1.051
 3576SOL    HW211628   1.204   2.357   1.026
 3577SOL     OW11629   2.021   2.594   5.549
 3577SOL    HW111630   2.096   2.606   5.484
 3577SOL    HW211631   2.053   2.616   5.642
 3578SOL     OW11632   3.331   2.716   6.533
 3578SOL    HW111633   3.359   2.783   6.602
 3578SOL    HW211634   3.235   2.691   6.548
 3579SOL     OW11635   0.661   3.252   1.944
 3579SOL    HW111636   0.586   3.213   1.999
 3579SOL    HW211637   0.708   3.179   1.895
 3580SOL     OW11638   0.767   4.382   2.070
 3580SOL    HW111639   0.759   4.367   1.971
 3580SOL    HW211640   0.682   4.357   2.114
 3581SOL     OW11641   1.302   0.511   2.730
 3581SOL    HW111642   1.317   0.435   2.793
 3581SOL    HW211643   1.210   0.548   2.744
 3582SOL     OW11644   4.361   4.948   6.413
 3582SOL    HW111645   4.271   4.907   6.426
 3582SOL    HW211646   4.365   4.991   6.323
 3583SOL     OW11647   1.052   4.889   1.024
 3583SOL    HW111648   0.989   4.871   0.949
 3583SOL    HW211649   1.062   4.807   1.079
 3584SOL     OW11650   6.535   4.764   4.913
 3584SOL    HW111651   6.565   4.671   4.896
 3584SOL    HW211652   6.481   4.797   4.836
 3585SOL     OW11653   3.387   1.490   3.319
 3585SOL    HW111654   3.382   1.391   3.301
 3585SOL    HW211655   3.296   1.525   3.341
 3586SOL     OW11656   0.176   2.505   5.230
 3586SOL    HW111657   0.213   2.550   5.149
 3586SOL    HW211658   0.162   2.408   5.211
 3587SOL     OW11659   3.047   6.983   6.305
 3587SOL    HW111660   3.012   6.920   6.375
 3587SOL    HW211661   3.091   6.930   6.233
 3588SOL     OW11662   6.474   4.912   4.701
 3588SOL    HW111663   6.382   4.948   4.689
 3588SOL    HW211664   6.537   4.959   4.640
 3589SOL     OW11665   0.174   0.534   5.620
 3589SOL    HW111666   0.271   0.510   5.612
 3589SOL    HW211667   0.118   0.454   5.598
 3590SOL     OW11668   0.014   5.392   0.220
 3590SOL    HW111669   6.953   5.330   0.229
 3590SOL    HW211670   0.038   5.400   0.123
 3591SOL     OW11671   6.082   1.095   6.787
 3591SOL    HW111672   5.999   1.063   6.740
 3591SOL    HW211673   6.074   1.077   6.885
 3592SOL     OW11674   1.568   6.055   1.496
 3592SOL    HW111675   1.633   5.980   1.484
 3592SOL    HW211676   1.481   6.019   1.530
 3593SOL     OW11677   3.915   3.048   5.341
 3593SOL    HW111678   3.947   2.975   5.402
 3593SOL    HW211679   3.925   3.019   5.246
 3594SOL     OW11680   4.455   4.805   5.037
 3594SOL    HW111681   4.403   4.730   4.996
 3594SOL    HW211682   4.468   4.788   5.134
 3595SOL     OW11683   5.118   6.111   4.475
 3595SOL    HW111684   5.090   6.196   4.431
 3595SOL    HW211685   5.037   6.057   4.497
 3596SOL     OW11686   3.981   1.821   3.438
 3596SOL    HW111687   3.924   1.738   3.436
 3596SOL    HW211688   4.066   1.801   3.487
 3597SOL     OW11689   2.939   3.256   5.856
 3597SOL    HW111690   2.888   3.332   5.816
 3597SOL    HW211691   2.915   3.172   5.808
 3598SOL     OW11692   0.911   6.056   5.064
 3598SOL    HW111693   0.964   6.121   5.009
 3598SOL    HW211694   0.915   5.966   5.020
 3599SOL     OW11695   3.210   1.228   5.167
 3599SOL    HW111696   3.162   1.159   5.114
 3599SOL    HW211697   3.304   1.237   5.134
 3600SOL     OW11698   3.291   3.616   6.921
 3600SOL    HW111699   3.305   3.536   6.980
 3600SOL    HW211700   3.194   3.622   6.896
 3601SOL     OW11701   4.562   0.993   4.805
 3601SOL    HW111702   4.519   1.046   4.733
 3601SOL    HW211703   4.619   1.053   4.861
 3602SOL     OW11704   2.036   1.630   1.156
 3602SOL    HW111705   2.048   1.532   1.142
 3602SOL    HW211706   2.031   1.649   1.254
 3603SOL     OW11707   2.563   0.236   5.432
 3603SOL    HW111708   2.658   0.253   5.457
 3603SOL    HW211709   2.503   0.278   5.501
 3604SOL     OW11710   0.058   0.586   3.425
 3604SOL    HW111711   0.085   0.517   3.492
 3604SOL    HW211712   0.040   0.673   3.471
 3605SOL     OW11713   1.253   6.736   4.038
 3605SOL    HW111714   1.288   6.741   3.945
 3605SOL    HW211715   1.274   6.822   4.086
 3606SOL     OW11716   2.505   0.152   2.478
 3606SOL    HW111717   2.447   0.174   2.399
 3606SOL    HW211718   2.455   0.168   2.562
 3607SOL     OW11719   5.837   1.860   3.179
 3607SOL    HW111720   5.904   1.829   3.246
 3607SOL    HW211721   5.761   1.795   3.174
 3608SOL     OW11722   2.713   1.777   5.780
 3608SOL    HW111723   2.780   1.755   5.709
 3608SOL    HW211724   2.621   1.770   5.742
 3609SOL     OW11725   3.585   0.702   4.845
 3609SOL    HW111726   3.517   0.630   4.854
 3609SOL    HW211727   3.669   0.675   4.892
 3610SOL     OW11728   1.472   0.710   5.576
 3610SOL    HW111729   1.472   0.741   5.481
 3610SOL    HW211730   1.459   0.611   5.579
 3611SOL     OW11731   5.513   4.678   3.165
 3611SOL    HW111732   5.460   4.724   3.236
 3611SOL    HW211733   5.451   4.628   3.104
 3612SOL     OW11734   5.750   1.077   0.172
 3612SOL    HW111735   5.755   1.125   0.260
 3612SOL    HW211736   5.679   1.119   0.115
 3613SOL     OW11737   4.237   6.459   2.231
 3613SOL    HW111738   4.167   6.486   2.164
 3613SOL    HW211739   4.309   6.528   2.234
 3614SOL     OW11740   3.591   5.530   6.993
 3614SOL    HW111741   3.635   5.510   0.063
 3614SOL    HW211742   3.638   5.607   6.949
 3615SOL     OW11743   5.649   2.309   5.869
 3615SOL    HW111744   5.629   2.407   5.872
 3615SOL    HW211745   5.587   2.261   5.931
 3616SOL     OW11746   1.119   2.487   0.299
 3616SOL    HW111747   1.039   2.459   0.245
 3616SOL    HW211748   1.153   2.409   0.351
 3617SOL     OW11749   3.649   5.967   5.424
 3617SOL    HW111750   3.574   6.008   5.373
 3617SOL    HW211751   3.624   5.958   5.520
 3618SOL     OW11752   1.001   5.035   4.149
 3618SOL    HW111753   0.990   4.968   4.075
 3618SOL    HW211754   1.082   5.090   4.131
 3619SOL     OW11755   6.152   3.340   2.034
 3619SOL    HW111756   6.149   3.241   2.023
 3619SOL    HW211757   6.067   3.372   2.077
 3620SOL     OW11758   5.708   5.809   4.779
 3620SOL    HW111759   5.656   5.882   4.735
 3620SOL    HW211760   5.646   5.742   4.820
 3621SOL     OW11761   3.988   3.349   3.591
 3621SOL    HW111762   4.008   3.286   3.517
 3621SOL    HW211763   3.918   3.414   3.562
 3622SOL     OW11764   1.360   6.088   5.825
 3622SOL    HW111765   1.313   6.176   5.818
 3622SOL    HW211766   1.438   6.097   5.886
 3623SOL     OW11767   0.972   5.695   6.339
 3623SOL    HW111768   0.999   5.735   6.252
 3623SOL    HW211769   0.879   5.724   6.361
 3624SOL     OW11770   2.493   2.351   1.516
 3624SOL    HW111771   2.582   2.352   1.470
 3624SOL    HW211772   2.452   2.442   1.511
 3625SOL     OW11773   6.791   2.509   0.863
 3625SOL    HW111774   6.880   2.465   0.855
 3625SOL    HW211775   6.719   2.446   0.834
 3626SOL     OW11776   2.053   3.327   5.393
 3626SOL    HW111777   2.119   3.362   5.458
 3626SOL    HW211778   2.084   3.345   5.300
 3627SOL     OW11779   3.579   2.037   2.222
 3627SOL    HW111780   3.618   2.078   2.140
 3627SOL    HW211781   3.645   2.042   2.297
 3628SOL     OW11782   6.589   1.911   1.773
 3628SOL    HW111783   6.635   1.997   1.795
 3628SOL    HW211784   6.511   1.929   1.714
 3629SOL     OW11785   1.315   1.449   4.745
 3629SOL    HW111786   1.327   1.500   4.831
 3629SOL    HW211787   1.218   1.448   4.720
 3630SOL     OW11788   6.858   1.940   1.224
 3630SOL    HW111789   6.886   1.986   1.308
 3630SOL    HW211790   6.773   1.889   1.239
 3631SOL     OW11791   2.031   6.704   2.036
 3631SOL    HW111792   2.052   6.798   2.010
 3631SOL    HW211793   1.957   6.704   2.104
 3632SOL     OW11794   4.575   3.831   1.662
 3632SOL    HW111795   4.575   3.737   1.626
 3632SOL    HW211796   4.481   3.866   1.661
 3633SOL     OW11797   4.021   4.632   0.111
 3633SOL    HW111798   4.105   4.600   0.155
 3633SOL    HW211799   4.011   4.589   0.022
 3634SOL     OW11800   3.082   5.403   6.562
 3634SOL    HW111801   2.991   5.444   6.567
 3634SOL    HW211802   3.079   5.311   6.599
 3635SOL     OW11803   1.267   5.959   2.270
 3635SOL    HW111804   1.168   5.948   2.281
 3635SOL    HW211805   1.305   5.997   2.355
 3636SOL     OW11806   0.593   5.224   6.172
 3636SOL    HW111807   0.535   5.272   6.107
 3636SOL    HW211808   0.551   5.136   6.196
 3637SOL     OW11809   6.074   3.046   0.041
 3637SOL    HW111810   6.171   3.049   0.067
 3637SOL    HW211811   6.018   3.043   0.124
 3638SOL     OW11812   0.026   2.949   3.527
 3638SOL    HW111813   6.975   2.931   3.598
 3638SOL    HW211814   0.095   3.012   3.563
 3639SOL     OW11815   4.157   3.500   4.037
 3639SOL    HW111816   4.112   3.432   3.979
 3639SOL    HW211817   4.151   3.472   4.132
 3640SOL     OW11818   4.294   2.093   1.645
 3640SOL    HW111819   4.197   2.069   1.651
 3640SOL    HW211820   4.303   2.184   1.605
 3641SOL     OW11821   6.046   4.103   2.378
 3641SOL    HW111822   6.118   4.163   2.344
 3641SOL    HW211823   5.989   4.152   2.444
 3642SOL     OW11824   5.152   3.242   6.130
 3642SOL    HW111825   5.252   3.249   6.130
 3642SOL    HW211826   5.125   3.168   6.192
 3643SOL     OW11827   4.092   5.731   4.712
 3643SOL    HW111828   4.048   5.730   4.801
 3643SOL    HW211829   4.083   5.641   4.669
 3644SOL     OW11830   2.974   0.337   1.397
 3644SOL    HW111831   3.006   0.388   1.478
 3644SOL    HW211832   2.976   0.397   1.318
 3645SOL     OW11833   1.384   3.903   3.574
 3645SOL    HW111834   1.374   3.899   3.673
 3645SOL    HW211835   1.471   3.861   3.548
 3646SOL     OW11836   1.283   4.868   5.746
 3646SOL    HW111837   1.346   4.882   5.669
 3646SOL    HW211838   1.193   4.842   5.711
 3647SOL     OW11839   2.410   6.768   6.837
 3647SOL    HW111840   2.414   6.715   6.922
 3647SOL    HW211841   2.335   6.835   6.842
 3648SOL     OW11842   4.619   5.481   3.391
 3648SOL    HW111843   4.564   5.537   3.328
 3648SOL    HW211844   4.584   5.490   3.484
 3649SOL     OW11845   5.724   2.348   0.459
 3649SOL    HW111846   5.729   2.265   0.515
 3649SOL    HW211847   5.816   2.381   0.440
 3650SOL     OW11848   5.468   6.069   6.196
 3650SOL    HW111849   5.482   6.001   6.267
 3650SOL    HW211850   5.524   6.048   6.116
 3651SOL     OW11851   1.177   1.972   5.683
 3651SOL    HW111852   1.187   2.040   5.755
 3651SOL    HW211853   1.267   1.947   5.647
 3652SOL     OW11854   4.467   1.829   1.660
 3652SOL    HW111855   4.456   1.912   1.715
 3652SOL    HW211856   4.379   1.782   1.653
 3653SOL     OW11857   1.671   1.749   0.978
 3653SOL    HW111858   1.720   1.662   0.990
 3653SOL    HW211859   1.675   1.802   1.062
 3654SOL     OW11860   4.570   6.620   1.697
 3654SOL    HW111861   4.538   6.692   1.635
 3654SOL    HW211862   4.648   6.574   1.656
 3655SOL     OW11863   0.766   1.080   4.116
 3655SOL    HW111864   0.788   1.018   4.191
 3655SOL    HW211865   0.741   1.026   4.035
 3656SOL     OW11866   0.357   0.188   1.084
 3656SOL    HW111867   0.431   0.190   1.150
 3656SOL    HW211868   0.286   0.254   1.111
 3657SOL     OW11869   5.536   5.417   6.316
 3657SOL    HW111870   5.545   5.513   6.340
 3657SOL    HW211871   5.607   5.392   6.250
 3658SOL     OW11872   1.921   4.626   5.703
 3658SOL    HW111873   2.002   4.674   5.737
 3658SOL    HW211874   1.865   4.596   5.780
 3659SOL     OW11875   0.308   2.612   6.562
 3659SOL    HW111876   0.282   2.690   6.619
 3659SOL    HW211877   0.388   2.567   6.602
 3660SOL     OW11878   4.647   5.915   5.401
 3660SOL    HW111879   4.740   5.932   5.369
 3660SOL    HW211880   4.650   5.863   5.486
 3661SOL     OW11881   0.122   1.424   4.535
 3661SOL    HW111882   0.211   1.415   4.580
 3661SOL    HW211883   0.110   1.518   4.504
 3662SOL     OW11884   3.274   1.885   5.952
 3662SOL    HW111885   3.253   1.918   5.860
 3662SOL    HW211886   3.343   1.812   5.946
 3663SOL     OW11887   2.365   2.763   6.769
 3663SOL    HW111888   2.291   2.706   6.805
 3663SOL    HW211889   2.364   2.760   6.669
 3664SOL     OW11890   3.327   1.943   1.078
 3664SOL    HW111891   3.244   1.961   1.132
 3664SOL    HW211892   3.382   2.026   1.074
 3665SOL     OW11893   0.431   5.370   6.015
 3665SOL    HW111894   0.362   5.331   5.954
 3665SOL    HW211895   0.457   5.461   5.983
 3666SOL     OW11896   2.256   3.024   4.274
 3666SOL    HW111897   2.312   2.967   4.335
 3666SOL    HW211898   2.287   3.118   4.278
 3667SOL     OW11899   1.927   6.936   1.112
 3667SOL    HW111900   1.959   6.873   1.042
 3667SOL    HW211901   1.850   6.896   1.161
 3668SOL     OW11902   6.144   1.118   0.852
 3668SOL    HW111903   6.205   1.179   0.902
 3668SOL    HW211904   6.100   1.168   0.777
 3669SOL     OW11905   0.802   0.772   3.449
 3669SOL    HW111906   0.898   0.762   3.424
 3669SOL    HW211907   0.769   0.861   3.418
 3670SOL     OW11908   2.527   0.520   1.500
 3670SOL    HW111909   2.612   0.478   1.532
 3670SOL    HW211910   2.541   0.559   1.409
 3671SOL     OW11911   6.889   0.905   4.677
 3671SOL    HW111912   6.952   0.954   4.738
 3671SOL    HW211913   6.815   0.865   4.731
 3672SOL     OW11914   3.602   0.072   3.614
 3672SOL    HW111915   3.586   0.125   3.531
 3672SOL    HW211916   3.685   0.104   3.660
 3673SOL     OW11917   3.407   0.114   1.277
 3673SOL    HW111918   3.477   0.158   1.221
 3673SOL    HW211919   3.382   0.026   1.235
 3674SOL     OW11920   0.379   4.629   0.038
 3674SOL    HW111921   0.322   4.548   0.023
 3674SOL    HW211922   0.338   4.708   7.011
 3675SOL     OW11923   0.486   0.948   3.847
 3675SOL    HW111924   0.451   0.935   3.940
 3675SOL    HW211925   0.419   0.916   3.780
 3676SOL     OW11926   3.632   1.309   5.141
 3676SOL    HW111927   3.665   1.219   5.168
 3676SOL    HW211928   3.556   1.298   5.076
 3677SOL     OW11929   1.190   1.088   4.454
 3677SOL    HW111930   1.263   1.024   4.479
 3677SOL    HW211931   1.190   1.101   4.355
 3678SOL     OW11932   1.633   0.904   3.617
 3678SOL    HW111933   1.539   0.925   3.591
 3678SOL    HW211934   1.685   0.989   3.626
 3679SOL     OW11935   3.736   0.249   2.562
 3679SOL    HW111936   3.720   0.187   2.639
 3679SOL    HW211937   3.690   0.214   2.480
 3680SOL     OW11938   3.278   2.189   4.588
 3680SOL    HW111939   3.223   2.148   4.516
 3680SOL    HW211940   3.291   2.286   4.569
 3681SOL     OW11941   0.981   6.497   4.302
 3681SOL    HW111942   0.967   6.451   4.391
 3681SOL    HW211943   0.902   6.478   4.243
 3682SOL     OW11944   5.101   2.121   0.758
 3682SOL    HW111945   5.074   2.215   0.778
 3682SOL    HW211946   5.168   2.121   0.683
 3683SOL     OW11947   6.649   1.549   0.498
 3683SOL    HW111948   6.598   1.633   0.517
 3683SOL    HW211949   6.626   1.479   0.565
 3684SOL     OW11950   2.700   6.162   5.320
 3684SOL    HW111951   2.723   6.066   5.339
 3684SOL    HW211952   2.729   6.186   5.228
 3685SOL     OW11953   1.797   5.945   4.309
 3685SOL    HW111954   1.715   5.935   4.251
 3685SOL    HW211955   1.772   5.929   4.404
 3686SOL     OW11956   0.046   3.804   0.566
 3686SOL    HW111957   6.988   3.754   0.525
 3686SOL    HW211958   0.041   3.796   0.666
 3687SOL     OW11959   5.853   4.505   4.350
 3687SOL    HW111960   5.929   4.474   4.294
 3687SOL    HW211961   5.825   4.597   4.320
 3688SOL     OW11962   6.654   2.617   1.383
 3688SOL    HW111963   6.616   2.618   1.290
 3688SOL    HW211964   6.754   2.625   1.378
 3689SOL     OW11965   0.725   0.777   6.315
 3689SOL    HW111966   0.800   0.718   6.287
 3689SOL    HW211967   0.660   0.788   6.240
 3690SOL     OW11968   5.535   5.094   1.812
 3690SOL    HW111969   5.566   5.181   1.851
 3690SOL    HW211970   5.574   5.018   1.864
 3691SOL     OW11971   1.708   2.753   0.432
 3691SOL    HW111972   1.634   2.686   0.422
 3691SOL    HW211973   1.701   2.796   0.522
 3692SOL     OW11974   1.078   3.066   5.039
 3692SOL    HW111975   1.003   3.048   5.102
 3692SOL    HW211976   1.130   2.982   5.023
 3693SOL     OW11977   0.475   1.578   2.754
 3693SOL    HW111978   0.400   1.619   2.805
 3693SOL    HW211979   0.444   1.494   2.710
 3694SOL     OW11980   6.387   0.225   2.993
 3694SOL    HW111981   6.484   0.227   2.971
 3694SOL    HW211982   6.342   0.151   2.942
 3695SOL     OW11983   5.904   3.645   3.415
 3695SOL    HW111984   5.937   3.705   3.488
 3695SOL    HW211985   5.817   3.679   3.380
 3696SOL     OW11986   4.290   0.672   4.332
 3696SOL    HW111987   4.201   0.633   4.311
 3696SOL    HW211988   4.352   0.657   4.254
 3697SOL     OW11989   6.650   6.076   3.124
 3697SOL    HW111990   6.715   6.123   3.184
 3697SOL    HW211991   6.596   6.011   3.178
 3698SOL     OW11992   1.800   0.288   3.490
 3698SOL    HW111993   1.850   0.374   3.481
 3698SOL    HW211994   1.784   0.268   3.586
 3699SOL     OW11995   2.628   2.417   3.365
 3699SOL    HW111996   2.590   2.331   3.400
 3699SOL    HW211997   2.638   2.411   3.266
 3700SOL     OW11998   1.043   4.768   5.016
 3700SOL    HW111999   1.043   4.811   4.926
 3700SOL    HW212000   1.025   4.670   5.006
 3701SOL     OW12001   0.297   1.182   2.485
 3701SOL    HW112002   0.267   1.217   2.396
 3701SOL    HW212003   0.389   1.143   2.476
 3702SOL     OW12004   6.436   3.605   3.852
 3702SOL    HW112005   6.453   3.574   3.758
 3702SOL    HW212006   6.344   3.577   3.880
 3703SOL     OW12007   1.640   1.441   3.450
 3703SOL    HW112008   1.704   1.434   3.527
 3703SOL    HW212009   1.639   1.355   3.400
 3704SOL     OW12010   6.162   0.852   0.922
 3704SOL    HW112011   6.156   0.945   0.885
 3704SOL    HW212012   6.162   0.787   0.846
 3705SOL     OW12013   5.801   4.383   3.675
 3705SOL    HW112014   5.717   4.435   3.692
 3705SOL    HW212015   5.780   4.301   3.623
 3706SOL     OW12016   1.244   5.128   6.521
 3706SOL    HW112017   1.180   5.204   6.521
 3706SOL    HW212018   1.336   5.162   6.502
 3707SOL     OW12019   1.123   4.583   3.593
 3707SOL    HW112020   1.153   4.596   3.499
 3707SOL    HW212021   1.125   4.486   3.616
 3708SOL     OW12022   1.986   6.280   0.899
 3708SOL    HW112023   1.927   6.263   0.978
 3708SOL    HW212024   1.955   6.362   0.852
 3709SOL     OW12025   0.910   1.199   2.033
 3709SOL    HW112026   1.007   1.222   2.026
 3709SOL    HW212027   0.865   1.217   1.946
 3710SOL     OW12028   1.391   3.868   5.219
 3710SOL    HW112029   1.413   3.771   5.222
 3710SOL    HW212030   1.473   3.921   5.198
 3711SOL     OW12031   1.366   5.584   4.866
 3711SOL    HW112032   1.439   5.584   4.798
 3711SOL    HW212033   1.366   5.671   4.915
 3712SOL     OW12034   2.859   5.378   4.652
 3712SOL    HW112035   2.771   5.370   4.700
 3712SOL    HW212036   2.928   5.411   4.716
 3713SOL     OW12037   5.964   0.819   5.076
 3713SOL    HW112038   5.918   0.893   5.028
 3713SOL    HW212039   5.897   0.752   5.108
 3714SOL     OW12040   0.218   4.078   0.199
 3714SOL    HW112041   0.241   4.083   0.296
 3714SOL    HW212042   0.122   4.050   0.188
 3715SOL     OW12043   6.176   4.560   3.508
 3715SOL    HW112044   6.123   4.645   3.517
 3715SOL    HW212045   6.149   4.513   3.425
 3716SOL     OW12046   5.202   5.679   5.098
 3716SOL    HW112047   5.243   5.590   5.116
 3716SOL    HW212048   5.229   5.743   5.170
 3717SOL     OW12049   4.535   0.691   0.373
 3717SOL    HW112050   4.435   0.698   0.370
 3717SOL    HW212051   4.573   0.781   0.396
 3718SOL     OW12052   6.160   6.492   6.363
 3718SOL    HW112053   6.220   6.569   6.341
 3718SOL    HW212054   6.071   6.526   6.392
 3719SOL     OW12055   3.172   4.200   0.484
 3719SOL    HW112056   3.179   4.285   0.431
 3719SOL    HW212057   3.255   4.187   0.538
 3720SOL     OW12058   0.189   2.947   1.216
 3720SOL    HW112059   0.124   2.980   1.147
 3720SOL    HW212060   0.155   2.971   1.307
 3721SOL     OW12061   6.376   0.546   5.725
 3721SOL    HW112062   6.421   0.491   5.796
 3721SOL    HW212063   6.347   0.633   5.764
 3722SOL     OW12064   5.628   6.280   1.858
 3722SOL    HW112065   5.709   6.272   1.916
 3722SOL    HW212066   5.655   6.309   1.766
 3723SOL     OW12067   4.783   3.839   6.351
 3723SOL    HW112068   4.769   3.926   6.400
 3723SOL    HW212069   4.880   3.827   6.332
 3724SOL     OW12070   0.536   3.966   4.468
 3724SOL    HW112071   0.490   3.926   4.389
 3724SOL    HW212072   0.606   3.903   4.501
 3725SOL     OW12073   1.283   6.179   0.351
 3725SOL    HW112074   1.188   6.149   0.358
 3725SOL    HW212075   1.286   6.272   0.313
 3726SOL     OW12076   6.216   4.023   5.783
 3726SOL    HW112077   6.206   4.123   5.788
 3726SOL    HW212078   6.305   4.001   5.745
 3727SOL     OW12079   6.806   2.426   4.112
 3727SOL    HW112080   6.733   2.369   4.074
 3727SOL    HW212081   6.766   2.505   4.158
 3728SOL     OW12082   2.598   4.481   0.703
 3728SOL    HW112083   2.550   4.403   0.665
 3728SOL    HW212084   2.604   4.472   0.803
 3729SOL     OW12085   0.087   0.307   5.830
 3729SOL    HW112086   0.063   0.306   5.733
 3729SOL    HW212087   0.095   0.212   5.863
 3730SOL     OW12088   4.857   5.029   4.692
 3730SOL    HW112089   4.876   4.998   4.785
 3730SOL    HW212090   4.759   5.048   4.682
 3731SOL     OW12091   0.276   2.120   0.891
 3731SOL    HW112092   0.253   2.120   0.793
 3731SOL    HW212093   0.192   2.110   0.945
 3732SOL     OW12094   3.612   3.273   0.117
 3732SOL    HW112095   3.698   3.296   0.073
 3732SOL    HW212096   3.542   3.258   0.047
 3733SOL     OW12097   1.172   0.491   3.777
 3733SOL    HW112098   1.183   0.555   3.853
 3733SOL    HW212099   1.116   0.414   3.807
 3734SOL     OW12100   3.753   0.114   1.385
 3734SOL    HW112101   3.714   0.202   1.361
 3734SOL    HW212102   3.697   0.040   1.347
 3735SOL     OW12103   4.783   0.006   2.658
 3735SOL    HW112104   4.696   6.990   2.621
 3735SOL    HW212105   4.817   6.960   2.727
 3736SOL     OW12106   0.056   1.307   0.189
 3736SOL    HW112107   0.111   1.279   0.111
 3736SOL    HW212108   6.983   1.334   0.158
 3737SOL     OW12109   6.024   1.977   2.766
 3737SOL    HW112110   5.945   1.927   2.730
 3737SOL    HW212111   6.083   1.914   2.816
 3738SOL     OW12112   0.393   0.474   1.252
 3738SOL    HW112113   0.460   0.537   1.291
 3738SOL    HW212114   0.341   0.430   1.326
 3739SOL     OW12115   2.983   4.262   6.610
 3739SOL    HW112116   2.982   4.197   6.686
 3739SOL    HW212117   3.071   4.257   6.563
 3740SOL     OW12118   5.232   5.876   6.583
 3740SOL    HW112119   5.256   5.870   6.680
 3740SOL    HW212120   5.163   5.947   6.570
 3741SOL     OW12121   5.315   3.643   0.217
 3741SOL    HW112122   5.227   3.602   0.241
 3741SOL    HW212123   5.383   3.619   0.286
 3742SOL     OW12124   4.739   5.646   1.088
 3742SOL    HW112125   4.640   5.652   1.071
 3742SOL    HW212126   4.788   5.685   1.010
 3743SOL     OW12127   3.483   4.434   0.738
 3743SOL    HW112128   3.580   4.457   0.742
 3743SOL    HW212129   3.440   4.459   0.825
 3744SOL     OW12130   6.498   6.506   2.639
 3744SOL    HW112131   6.532   6.545   2.554
 3744SOL    HW212132   6.493   6.406   2.630
 3745SOL     OW12133   4.698   2.792   2.615
 3745SOL    HW112134   4.636   2.729   2.568
 3745SOL    HW212135   4.736   2.856   2.548
 3746SOL     OW12136   6.253   0.361   4.608
 3746SOL    HW112137   6.157   0.368   4.635
 3746SOL    HW212138   6.299   0.293   4.665
 3747SOL     OW12139   3.166   5.958   5.219
 3747SOL    HW112140   3.165   6.044   5.270
 3747SOL    HW212141   3.229   5.894   5.263
 3748SOL     OW12142   5.134   2.199   3.928
 3748SOL    HW112143   5.085   2.286   3.914
 3748SOL    HW212144   5.108   2.134   3.857
 3749SOL     OW12145   6.747   6.168   2.456
 3749SOL    HW112146   6.751   6.078   2.412
 3749SOL    HW212147   6.672   6.169   2.522
 3750SOL     OW12148   5.280   3.924   1.181
 3750SOL    HW112149   5.209   3.939   1.112
 3750SOL    HW212150   5.273   3.994   1.252
 3751SOL     OW12151   1.025   4.111   1.750
 3751SOL    HW112152   1.121   4.134   1.763
 3751SOL    HW212153   0.977   4.189   1.708
 3752SOL     OW12154   0.515   6.314   6.226
 3752SOL    HW112155   0.554   6.371   6.153
 3752SOL    HW212156   0.430   6.356   6.258
 3753SOL     OW12157   6.779   0.967   5.164
 3753SOL    HW112158   6.694   0.948   5.213
 3753SOL    HW212159   6.844   1.014   5.224
 3754SOL     OW12160   6.439   5.865   1.513
 3754SOL    HW112161   6.468   5.918   1.433
 3754SOL    HW212162   6.349   5.825   1.497
 3755SOL     OW12163   4.814   2.933   2.429
 3755SOL    HW112164   4.796   2.901   2.335
 3755SOL    HW212165   4.888   2.878   2.469
 3756SOL     OW12166   3.248   0.333   6.704
 3756SOL    HW112167   3.339   0.316   6.742
 3756SOL    HW212168   3.185   0.261   6.732
 3757SOL     OW12169   3.787   4.796   6.647
 3757SOL    HW112170   3.734   4.760   6.723
 3757SOL    HW212171   3.867   4.738   6.630
 3758SOL     OW12172   0.301   0.239   2.740
 3758SOL    HW112173   0.378   0.178   2.723
 3758SOL    HW212174   0.330   0.313   2.802
 3759SOL     OW12175   5.222   5.266   0.710
 3759SOL    HW112176   5.142   5.326   0.711
 3759SOL    HW212177   5.200   5.180   0.756
 3760SOL     OW12178   2.040   1.989   5.793
 3760SOL    HW112179   2.079   1.996   5.884
 3760SOL    HW212180   2.104   2.027   5.726
 3761SOL     OW12181   0.317   6.540   4.292
 3761SOL    HW112182   0.286   6.450   4.261
 3761SOL    HW212183   0.248   6.609   4.269
 3762SOL     OW12184   0.367   3.821   6.619
 3762SOL    HW112185   0.381   3.916   6.590
 3762SOL    HW212186   0.431   3.761   6.570
 3763SOL     OW12187   6.525   3.847   5.764
 3763SOL    HW112188   6.563   3.932   5.802
 3763SOL    HW212189   6.535   3.849   5.665
 3764SOL     OW12190   2.657   6.871   4.339
 3764SOL    HW112191   2.628   6.965   4.361
 3764SOL    HW212192   2.683   6.866   4.242
 3765SOL     OW12193   6.032   1.641   3.904
 3765SOL    HW112194   5.968   1.600   3.970
 3765SOL    HW212195   6.059   1.732   3.937
 3766SOL     OW12196   1.530   0.226   4.774
 3766SOL    HW112197   1.487   0.311   4.803
 3766SOL    HW212198   1.535   0.163   4.852
 3767SOL     OW12199   1.230   4.703   0.401
 3767SOL    HW112200   1.210   4.727   0.496
 3767SOL    HW212201   1.249   4.605   0.395
 3768SOL     OW12202   4.229   6.575   1.115
 3768SOL    HW112203   4.192   6.657   1.071
 3768SOL    HW212204   4.323   6.592   1.144
 3769SOL     OW12205   4.479   6.397   5.045
 3769SOL    HW112206   4.444   6.399   5.139
 3769SOL    HW212207   4.497   6.490   5.014
 3770SOL     OW12208   2.130   1.893   0.306
 3770SOL    HW112209   2.072   1.938   0.237
 3770SOL    HW212210   2.169   1.962   0.366
 3771SOL     OW12211   4.597   1.558   5.017
 3771SOL    HW112212   4.502   1.554   4.988
 3771SOL    HW212213   4.602   1.586   5.113
 3772SOL     OW12214   4.627   0.897   2.697
 3772SOL    HW112215   4.632   0.797   2.698
 3772SOL    HW212216   4.609   0.931   2.789
 3773SOL     OW12217   6.698   2.097   0.232
 3773SOL    HW112218   6.746   2.167   0.285
 3773SOL    HW212219   6.669   2.135   0.144
 3774SOL     OW12220   0.984   2.100   2.151
 3774SOL    HW112221   0.964   2.172   2.217
 3774SOL    HW212222   0.908   2.035   2.150
 3775SOL     OW12223   5.820   3.119   3.643
 3775SOL    HW112224   5.882   3.058   3.593
 3775SOL    HW212225   5.791   3.194   3.583
 3776SOL     OW12226   2.772   3.010   6.789
 3776SOL    HW112227   2.725   3.006   6.877
 3776SOL    HW212228   2.847   2.944   6.788
 3777SOL     OW12229   1.603   3.784   3.476
 3777SOL    HW112230   1.680   3.752   3.531
 3777SOL    HW212231   1.598   3.731   3.392
 3778SOL     OW12232   2.437   6.631   2.087
 3778SOL    HW112233   2.416   6.724   2.057
 3778SOL    HW212234   2.514   6.634   2.151
 3779SOL     OW12235   2.478   4.984   6.845
 3779SOL    HW112236   2.421   4.994   6.763
 3779SOL    HW212237   2.551   4.919   6.828
 3780SOL     OW12238   2.490   0.075   4.413
 3780SOL    HW112239   2.503   0.119   4.502
 3780SOL    HW212240   2.392   0.064   4.395
 3781SOL     OW12241   2.438   5.159   4.633
 3781SOL    HW112242   2.338   5.162   4.642
 3781SOL    HW212243   2.462   5.118   4.545
 3782SOL     OW12244   2.179   1.369   2.936
 3782SOL    HW112245   2.264   1.320   2.952
 3782SOL    HW212246   2.117   1.354   3.013
 3783SOL     OW12247   5.007   6.167   5.490
 3783SOL    HW112248   5.100   6.201   5.478
 3783SOL    HW212249   4.942   6.234   5.454
 3784SOL     OW12250   5.127   1.894   3.870
 3784SOL    HW112251   5.206   1.869   3.925
 3784SOL    HW212252   5.056   1.932   3.929
 3785SOL     OW12253   1.546   1.906   1.766
 3785SOL    HW112254   1.604   1.958   1.704
 3785SOL    HW212255   1.452   1.942   1.762
 3786SOL     OW12256   3.371   5.727   2.991
 3786SOL    HW112257   3.357   5.790   3.068
 3786SOL    HW212258   3.323   5.761   2.911
 3787SOL     OW12259   4.050   1.208   4.643
 3787SOL    HW112260   4.095   1.142   4.703
 3787SOL    HW212261   4.035   1.166   4.553
 3788SOL     OW12262   6.283   3.790   1.992
 3788SOL    HW112263   6.243   3.732   2.062
 3788SOL    HW212264   6.336   3.864   2.036
 3789SOL     OW12265   1.266   5.460   2.669
 3789SOL    HW112266   1.167   5.457   2.660
 3789SOL    HW212267   1.308   5.404   2.597
 3790SOL     OW12268   1.918   3.087   3.389
 3790SOL    HW112269   2.012   3.084   3.355
 3790SOL    HW212270   1.910   3.157   3.460
 3791SOL     OW12271   6.138   0.301   2.416
 3791SOL    HW112272   6.101   0.319   2.325
 3791SOL    HW212273   6.235   0.325   2.417
 3792SOL     OW12274   6.963   0.108   6.300
 3792SOL    HW112275   0.035   0.095   6.341
 3792SOL    HW212276   6.941   0.028   6.244
 3793SOL     OW12277   1.652   6.380   2.907
 3793SOL    HW112278   1.699   6.418   2.986
 3793SOL    HW212279   1.586   6.311   2.936
 3794SOL     OW12280   4.001   6.181   2.728
 3794SOL    HW112281   3.936   6.251   2.699
 3794SOL    HW212282   4.085   6.224   2.761
 3795SOL     OW12283   4.816   0.468   0.960
 3795SOL    HW112284   4.868   0.523   0.895
 3795SOL    HW212285   4.847   0.373   0.957
 3796SOL     OW12286   1.602   3.053   1.061
 3796SOL    HW112287   1.569   2.972   1.012
 3796SOL    HW212288   1.702   3.053   1.060
 3797SOL     OW12289   0.336   5.345   2.261
 3797SOL    HW112290   0.370   5.369   2.170
 3797SOL    HW212291   0.414   5.329   2.322
 3798SOL     OW12292   1.121   4.037   1.194
 3798SOL    HW112293   1.117   3.986   1.108
 3798SOL    HW212294   1.063   4.118   1.187
 3799SOL     OW12295   1.161   0.495   5.495
 3799SOL    HW112296   1.119   0.582   5.471
 3799SOL    HW212297   1.145   0.428   5.422
 3800SOL     OW12298   5.286   2.338   4.959
 3800SOL    HW112299   5.334   2.387   5.031
 3800SOL    HW212300   5.212   2.283   5.000
 3801SOL     OW12301   0.337   0.161   6.762
 3801SOL    HW112302   0.351   0.142   6.860
 3801SOL    HW212303   0.300   0.253   6.751
 3802SOL     OW12304   1.231   2.241   5.825
 3802SOL    HW112305   1.329   2.250   5.807
 3802SOL    HW212306   1.180   2.261   5.741
 3803SOL     OW12307   3.789   1.173   0.989
 3803SOL    HW112308   3.869   1.159   0.930
 3803SOL    HW212309   3.811   1.239   1.060
 3804SOL     OW12310   4.428   2.720   5.260
 3804SOL    HW112311   4.452   2.692   5.167
 3804SOL    HW212312   4.464   2.653   5.325
 3805SOL     OW12313   2.154   4.024   1.456
 3805SOL    HW112314   2.247   4.017   1.420
 3805SOL    HW212315   2.157   4.061   1.549
 3806SOL     OW12316   3.395   1.423   0.927
 3806SOL    HW112317   3.441   1.420   1.016
 3806SOL    HW212318   3.341   1.340   0.915
 3807SOL     OW12319   1.722   6.930   2.885
 3807SOL    HW112320   1.780   7.010   2.869
 3807SOL    HW212321   1.655   6.953   2.956
 3808SOL     OW12322   3.423   0.587   0.518
 3808SOL    HW112323   3.467   0.647   0.451
 3808SOL    HW212324   3.368   0.642   0.581
 3809SOL     OW12325   4.491   0.248   6.355
 3809SOL    HW112326   4.527   0.337   6.328
 3809SOL    HW212327   4.391   0.253   6.360
 3810SOL     OW12328   2.642   2.853   6.178
 3810SOL    HW112329   2.654   2.937   6.126
 3810SOL    HW212330   2.673   2.868   6.272
 3811SOL     OW12331   0.475   0.717   6.105
 3811SOL    HW112332   0.523   0.801   6.079
 3811SOL    HW212333   0.478   0.652   6.029
 3812SOL     OW12334   5.243   1.444   5.571
 3812SOL    HW112335   5.251   1.516   5.639
 3812SOL    HW212336   5.170   1.468   5.506
 3813SOL     OW12337   3.942   4.786   1.827
 3813SOL    HW112338   3.900   4.712   1.773
 3813SOL    HW212339   3.870   4.847   1.861
 3814SOL     OW12340   1.709   6.589   2.450
 3814SOL    HW112341   1.735   6.627   2.361
 3814SOL    HW212342   1.791   6.566   2.502
 3815SOL     OW12343   5.422   2.126   1.464
 3815SOL    HW112344   5.425   2.128   1.564
 3815SOL    HW212345   5.472   2.047   1.430
 3816SOL     OW12346   0.398   6.560   1.132
 3816SOL    HW112347   0.345   6.514   1.061
 3816SOL    HW212348   0.378   6.658   1.130
 3817SOL     OW12349   4.609   1.343   5.601
 3817SOL    HW112350   4.699   1.315   5.565
 3817SOL    HW212351   4.612   1.440   5.626
 3818SOL     OW12352   4.759   5.510   2.956
 3818SOL    HW112353   4.801   5.598   2.976
 3818SOL    HW212354   4.745   5.459   3.041
 3819SOL     OW12355   5.634   4.464   6.051
 3819SOL    HW112356   5.660   4.387   6.109
 3819SOL    HW212357   5.534   4.471   6.048
 3820SOL     OW12358   5.105   6.144   4.163
 3820SOL    HW112359   5.060   6.219   4.114
 3820SOL    HW212360   5.194   6.174   4.195
 3821SOL     OW12361   0.640   4.317   1.311
 3821SOL    HW112362   0.598   4.362   1.232
 3821SOL    HW212363   0.736   4.300   1.292
 3822SOL     OW12364   1.160   4.776   1.749
 3822SOL    HW112365   1.213   4.856   1.719
 3822SOL    HW212366   1.218   4.716   1.804
 3823SOL     OW12367   2.631   2.937   5.656
 3823SOL    HW112368   2.571   3.015   5.639
 3823SOL    HW212369   2.586   2.874   5.720
 3824SOL     OW12370   6.674   2.130   6.661
 3824SOL    HW112371   6.765   2.094   6.684
 3824SOL    HW212372   6.645   2.091   6.573
 3825SOL     OW12373   6.487   6.631   6.147
 3825SOL    HW112374   6.477   6.643   6.246
 3825SOL    HW212375   6.397   6.621   6.106
 3826SOL     OW12376   6.811   2.115   0.723
 3826SOL    HW112377   6.800   2.123   0.624
 3826SOL    HW212378   6.739   2.057   0.760
 3827SOL     OW12379   5.572   2.575   1.260
 3827SOL    HW112380   5.643   2.510   1.286
 3827SOL    HW212381   5.483   2.542   1.294
 3828SOL     OW12382   3.893   1.273   1.446
 3828SOL    HW112383   3.818   1.323   1.489
 3828SOL    HW212384   3.979   1.323   1.461
 3829SOL     OW12385   0.423   5.145   3.669
 3829SOL    HW112386   0.482   5.213   3.713
 3829SOL    HW212387   0.478   5.066   3.642
 3830SOL     OW12388   3.013   0.792   5.582
 3830SOL    HW112389   3.093   0.823   5.633
 3830SOL    HW212390   2.997   0.853   5.505
 3831SOL     OW12391   4.572   2.101   2.220
 3831SOL    HW112392   4.656   2.064   2.180
 3831SOL    HW212393   4.590   2.129   2.314
 3832SOL     OW12394   5.070   0.256   2.594
 3832SOL    HW112395   5.028   0.169   2.621
 3832SOL    HW212396   5.162   0.240   2.560
 3833SOL     OW12397   1.665   5.993   1.159
 3833SOL    HW112398   1.687   5.969   1.064
 3833SOL    HW212399   1.614   5.918   1.201
 3834SOL     OW12400   2.481   2.419   0.954
 3834SOL    HW112401   2.564   2.382   0.997
 3834SOL    HW212402   2.401   2.389   1.006
 3835SOL     OW12403   3.578   6.025   3.847
 3835SOL    HW112404   3.615   5.955   3.786
 3835SOL    HW212405   3.653   6.065   3.901
 3836SOL     OW12406   1.777   2.948   5.272
 3836SOL    HW112407   1.838   3.001   5.212
 3836SOL    HW212408   1.795   2.850   5.259
 3837SOL     OW12409   3.031   3.657   6.892
 3837SOL    HW112410   3.005   3.743   6.848
 3837SOL    HW212411   2.991   3.653   6.984
 3838SOL     OW12412   5.902   3.077   5.215
 3838SOL    HW112413   5.899   3.092   5.116
 3838SOL    HW212414   5.956   2.995   5.235
 3839SOL     OW12415   6.874   6.197   5.965
 3839SOL    HW112416   6.964   6.225   5.933
 3839SOL    HW212417   6.804   6.253   5.919
 3840SOL     OW12418   2.503   0.940   3.761
 3840SOL    HW112419   2.556   0.895   3.690
 3840SOL    HW212420   2.410   0.904   3.762
 3841SOL     OW12421   1.245   3.533   4.753
 3841SOL    HW112422   1.303   3.457   4.782
 3841SOL    HW212423   1.302   3.607   4.717
 3842SOL     OW12424   1.595   4.976   6.517
 3842SOL    HW112425   1.546   4.896   6.553
 3842SOL    HW212426   1.596   4.972   6.417
 3843SOL     OW12427   5.639   3.951   0.451
 3843SOL    HW112428   5.660   3.917   0.542
 3843SOL    HW212429   5.693   4.033   0.432
 3844SOL     OW12430   2.542   3.977   5.900
 3844SOL    HW112431   2.590   3.995   5.986
 3844SOL    HW212432   2.457   3.928   5.919
 3845SOL     OW12433   3.167   3.309   3.597
 3845SOL    HW112434   3.130   3.217   3.583
 3845SOL    HW212435   3.185   3.352   3.509
 3846SOL     OW12436   0.193   4.164   4.152
 3846SOL    HW112437   0.104   4.171   4.107
 3846SOL    HW212438   0.257   4.116   4.091
 3847SOL     OW12439   0.809   6.890   0.841
 3847SOL    HW112440   0.740   6.919   0.775
 3847SOL    HW212441   0.766   6.872   0.929
 3848SOL     OW12442   2.863   5.387   1.229
 3848SOL    HW112443   2.841   5.315   1.294
 3848SOL    HW212444   2.894   5.346   1.143
 3849SOL     OW12445   2.429   1.658   6.386
 3849SOL    HW112446   2.474   1.731   6.437
 3849SOL    HW212447   2.406   1.691   6.294
 3850SOL     OW12448   2.093   4.175   1.077
 3850SOL    HW112449   2.057   4.262   1.110
 3850SOL    HW212450   2.193   4.180   1.069
 3851SOL     OW12451   2.205   2.919   1.363
 3851SOL    HW112452   2.216   2.882   1.455
 3851SOL    HW212453   2.291   2.960   1.332
 3852SOL     OW12454   4.953   0.653   5.352
 3852SOL    HW112455   5.018   0.577   5.353
 3852SOL    HW212456   4.942   0.687   5.258
 3853SOL     OW12457   1.023   2.904   2.077
 3853SOL    HW112458   1.086   2.842   2.125
 3853SOL    HW212459   1.005   2.869   1.985
 3854SOL     OW12460   1.931   3.106   5.129
 3854SOL    HW112461   1.884   3.155   5.056
 3854SOL    HW212462   2.029   3.111   5.116
 3855SOL     OW12463   6.832   2.108   5.066
 3855SOL    HW112464   6.775   2.079   4.989
 3855SOL    HW212465   6.910   2.160   5.032
 3856SOL     OW12466   0.759   6.483   5.713
 3856SOL    HW112467   0.765   6.583   5.710
 3856SOL    HW212468   0.812   6.450   5.791
 3857SOL     OW12469   1.059   0.230   6.585
 3857SOL    HW112470   0.993   0.304   6.574
 3857SOL    HW212471   1.100   0.234   6.675
 3858SOL     OW12472   2.414   5.176   0.007
 3858SOL    HW112473   2.390   5.098   6.968
 3858SOL    HW212474   2.361   5.173   0.092
 3859SOL     OW12475   6.475   2.913   1.388
 3859SOL    HW112476   6.511   2.821   1.404
 3859SOL    HW212477   6.495   2.940   1.294
 3860SOL     OW12478   2.194   6.015   4.910
 3860SOL    HW112479   2.223   5.920   4.922
 3860SOL    HW212480   2.180   6.032   4.812
 3861SOL     OW12481   4.204   4.285   6.961
 3861SOL    HW112482   4.259   4.354   7.009
 3861SOL    HW212483   4.201   4.201   7.015
 3862SOL     OW12484   0.924   5.504   5.692
 3862SOL    HW112485   0.945   5.407   5.678
 3862SOL    HW212486   0.931   5.525   5.789
 3863SOL     OW12487   2.949   3.552   0.479
 3863SOL    HW112488   2.994   3.638   0.455
 3863SOL    HW212489   2.852   3.557   0.454
 3864SOL     OW12490   3.071   1.403   0.294
 3864SOL    HW112491   3.146   1.347   0.259
 3864SOL    HW212492   2.988   1.382   0.243
 3865SOL     OW12493   4.254   0.605   2.297
 3865SOL    HW112494   4.170   0.624   2.349
 3865SOL    HW212495   4.274   0.682   2.237
 3866SOL     OW12496   3.033   6.631   6.342
 3866SOL    HW112497   3.026   6.578   6.258
 3866SOL    HW212498   2.954   6.612   6.400
 3867SOL     OW12499   1.931   4.171   3.221
 3867SOL    HW112500   1.912   4.239   3.292
 3867SOL    HW212501   2.029   4.151   3.220
 3868SOL     OW12502   2.714   5.220   2.925
 3868SOL    HW112503   2.767   5.181   3.000
 3868SOL    HW212504   2.773   5.280   2.870
 3869SOL     OW12505   0.398   1.526   3.939
 3869SOL    HW112506   0.328   1.471   3.894
 3869SOL    HW212507   0.478   1.533   3.879
 3870SOL     OW12508   3.894   4.090   0.463
 3870SOL    HW112509   3.893   4.103   0.364
 3870SOL    HW212510   3.917   4.177   0.508
 3871SOL     OW12511   3.451   1.298   4.941
 3871SOL    HW112512   3.406   1.386   4.927
 3871SOL    HW212513   3.440   1.242   4.859
 3872SOL     OW12514   4.186   4.243   0.301
 3872SOL    HW112515   4.159   4.275   0.392
 3872SOL    HW212516   4.146   4.153   0.285
 3873SOL     OW12517   5.019   4.672   1.928
 3873SOL    HW112518   5.016   4.735   1.850
 3873SOL    HW212519   5.077   4.594   1.905
 3874SOL     OW12520   4.716   5.950   5.866
 3874SOL    HW112521   4.690   5.903   5.782
 3874SOL    HW212522   4.791   6.014   5.847
 3875SOL     OW12523   1.977   4.322   0.481
 3875SOL    HW112524   1.892   4.318   0.430
 3875SOL    HW212525   2.034   4.243   0.459
 3876SOL     OW12526   5.606   3.785   2.109
 3876SOL    HW112527   5.687   3.839   2.089
 3876SOL    HW212528   5.632   3.698   2.151
 3877SOL     OW12529   4.810   1.732   2.033
 3877SOL    HW112530   4.821   1.831   2.042
 3877SOL    HW212531   4.884   1.686   2.084
 3878SOL     OW12532   4.451   6.159   4.511
 3878SOL    HW112533   4.433   6.099   4.589
 3878SOL    HW212534   4.367   6.173   4.460
 3879SOL     OW12535   2.498   5.819   1.267
 3879SOL    HW112536   2.540   5.731   1.245
 3879SOL    HW212537   2.443   5.850   1.190
 3880SOL     OW12538   5.628   1.642   4.132
 3880SOL    HW112539   5.559   1.573   4.110
 3880SOL    HW212540   5.672   1.672   4.047
 3881SOL     OW12541   0.879   5.740   0.918
 3881SOL    HW112542   0.875   5.820   0.978
 3881SOL    HW212543   0.893   5.769   0.823
 3882SOL     OW12544   0.298   5.795   6.950
 3882SOL    HW112545   0.341   5.885   6.941
 3882SOL    HW212546   0.200   5.805   6.965
 3883SOL     OW12547   3.253   2.119   6.931
 3883SOL    HW112548   3.272   2.172   6.848
 3883SOL    HW212549   3.167   2.069   6.920
 3884SOL     OW12550   2.009   4.993   5.495
 3884SOL    HW112551   1.977   5.088   5.495
 3884SOL    HW212552   1.932   4.931   5.485
 3885SOL     OW12553   6.699   1.291   4.712
 3885SOL    HW112554   6.657   1.330   4.794
 3885SOL    HW212555   6.640   1.218   4.677
 3886SOL     OW12556   0.191   6.337   5.461
 3886SOL    HW112557   0.196   6.238   5.454
 3886SOL    HW212558   0.219   6.366   5.553
 3887SOL     OW12559   5.666   2.817   4.709
 3887SOL    HW112560   5.658   2.718   4.714
 3887SOL    HW212561   5.624   2.859   4.789
 3888SOL     OW12562   5.913   2.073   2.328
 3888SOL    HW112563   5.884   2.026   2.245
 3888SOL    HW212564   6.012   2.082   2.329
 3889SOL     OW12565   6.670   5.848   6.575
 3889SOL    HW112566   6.635   5.755   6.586
 3889SOL    HW212567   6.649   5.881   6.483
 3890SOL     OW12568   6.969   3.121   2.925
 3890SOL    HW112569   0.014   3.148   2.852
 3890SOL    HW212570   6.876   3.120   2.890
 3891SOL     OW12571   4.925   5.459   5.741
 3891SOL    HW112572   4.841   5.482   5.691
 3891SOL    HW212573   4.914   5.483   5.837
 3892SOL     OW12574   5.575   5.646   4.040
 3892SOL    HW112575   5.518   5.684   4.113
 3892SOL    HW212576   5.667   5.631   4.074
 3893SOL     OW12577   2.661   6.642   4.494
 3893SOL    HW112578   2.719   6.655   4.573
 3893SOL    HW212579   2.666   6.722   4.435
 3894SOL     OW12580   5.297   5.343   6.944
 3894SOL    HW112581   5.382   5.385   6.976
 3894SOL    HW212582   5.311   5.245   6.930
 3895SOL     OW12583   1.802   1.883   5.712
 3895SOL    HW112584   1.806   1.796   5.760
 3895SOL    HW212585   1.881   1.939   5.736
 3896SOL     OW12586   6.142   3.437   6.952
 3896SOL    HW112587   6.186   3.475   0.016
 3896SOL    HW212588   6.194   3.357   6.921
 3897SOL     OW12589   3.297   6.589   3.329
 3897SOL    HW112590   3.305   6.689   3.333
 3897SOL    HW212591   3.349   6.554   3.252
 3898SOL     OW12592   2.912   3.418   4.328
 3898SOL    HW112593   2.949   3.349   4.265
 3898SOL    HW212594   2.812   3.416   4.326
 3899SOL     OW12595   4.275   2.043   6.088
 3899SOL    HW112596   4.280   2.142   6.101
 3899SOL    HW212597   4.360   2.001   6.119
 3900SOL     OW12598   0.507   2.824   3.979
 3900SOL    HW112599   0.533   2.890   3.908
 3900SOL    HW212600   0.457   2.748   3.938
 3901SOL     OW12601   2.836   5.244   5.468
 3901SOL    HW112602   2.917   5.216   5.417
 3901SOL    HW212603   2.861   5.266   5.562
 3902SOL     OW12604   4.596   4.978   3.248
 3902SOL    HW112605   4.602   5.037   3.329
 3902SOL    HW212606   4.689   4.955   3.217
 3903SOL     OW12607   3.734   3.764   6.195
 3903SOL    HW112608   3.756   3.691   6.131
 3903SOL    HW212609   3.635   3.765   6.211
 3904SOL     OW12610   2.127   6.736   0.205
 3904SOL    HW112611   2.071   6.653   0.200
 3904SOL    HW212612   2.078   6.812   0.161
 3905SOL     OW12613   4.908   7.017   6.102
 3905SOL    HW112614   4.980   0.022   6.167
 3905SOL    HW212615   4.819   0.003   6.147
 3906SOL     OW12616   6.769   5.978   4.775
 3906SOL    HW112617   6.752   5.894   4.722
 3906SOL    HW212618   6.815   6.045   4.716
 3907SOL     OW12619   0.568   1.774   4.560
 3907SOL    HW112620   0.609   1.728   4.482
 3907SOL    HW212621   0.608   1.866   4.569
 3908SOL     OW12622   2.093   0.856   4.658
 3908SOL    HW112623   2.002   0.886   4.687
 3908SOL    HW212624   2.142   0.933   4.618
 3909SOL     OW12625   5.303   3.679   1.762
 3909SOL    HW112626   5.289   3.624   1.844
 3909SOL    HW212627   5.307   3.619   1.682
 3910SOL     OW12628   2.497   2.765   1.212
 3910SOL    HW112629   2.458   2.717   1.292
 3910SOL    HW212630   2.519   2.859   1.238
 3911SOL     OW12631   0.108   1.078   1.305
 3911SOL    HW112632   0.064   1.166   1.287
 3911SOL    HW212633   0.050   1.004   1.271
 3912SOL     OW12634   4.675   4.062   0.246
 3912SOL    HW112635   4.628   3.990   0.196
 3912SOL    HW212636   4.622   4.146   0.242
 3913SOL     OW12637   3.809   5.249   1.581
 3913SOL    HW112638   3.879   5.237   1.510
 3913SOL    HW212639   3.739   5.312   1.548
 3914SOL     OW12640   6.944   1.181   0.439
 3914SOL    HW112641   6.932   1.280   0.433
 3914SOL    HW212642   6.860   1.139   0.475
 3915SOL     OW12643   5.917   0.683   5.406
 3915SOL    HW112644   6.004   0.729   5.387
 3915SOL    HW212645   5.866   0.671   5.320
 3916SOL     OW12646   1.675   2.178   2.480
 3916SOL    HW112647   1.681   2.262   2.428
 3916SOL    HW212648   1.756   2.169   2.538
 3917SOL     OW12649   4.184   4.973   2.354
 3917SOL    HW112650   4.095   4.933   2.332
 3917SOL    HW212651   4.171   5.054   2.410
 3918SOL     OW12652   4.709   0.204   0.710
 3918SOL    HW112653   4.688   0.271   0.639
 3918SOL    HW212654   4.774   0.243   0.775
 3919SOL     OW12655   5.304   5.666   3.345
 3919SOL    HW112656   5.277   5.572   3.364
 3919SOL    HW212657   5.223   5.724   3.338
 3920SOL     OW12658   3.476   1.658   5.361
 3920SOL    HW112659   3.536   1.729   5.324
 3920SOL    HW212660   3.384   1.669   5.324
 3921SOL     OW12661   1.365   3.610   6.136
 3921SOL    HW112662   1.375   3.514   6.108
 3921SOL    HW212663   1.356   3.668   6.055
 3922SOL     OW12664   5.087   2.529   4.132
 3922SOL    HW112665   5.158   2.484   4.187
 3922SOL    HW212666   5.023   2.576   4.193
 3923SOL     OW12667   5.568   1.139   1.570
 3923SOL    HW112668   5.478   1.183   1.572
 3923SOL    HW212669   5.560   1.045   1.603
 3924SOL     OW12670   5.145   4.557   4.425
 3924SOL    HW112671   5.236   4.559   4.385
 3924SOL    HW212672   5.130   4.639   4.480
 3925SOL     OW12673   4.098   5.708   1.754
 3925SOL    HW112674   4.072   5.693   1.850
 3925SOL    HW212675   4.192   5.744   1.751
 3926SOL     OW12676   0.684   6.059   5.214
 3926SOL    HW112677   0.758   6.047   5.147
 3926SOL    HW212678   0.673   5.975   5.267
 3927SOL     OW12679   6.011   0.300   5.312
 3927SOL    HW112680   5.925   0.338   5.347
 3927SOL    HW212681   6.049   0.236   5.378
 3928SOL     OW12682   4.615   5.858   2.327
 3928SOL    HW112683   4.555   5.788   2.287
 3928SOL    HW212684   4.571   5.896   2.408
 3929SOL     OW12685   1.372   1.147   5.525
 3929SOL    HW112686   1.296   1.186   5.578
 3929SOL    HW212687   1.412   1.071   5.575
 3930SOL     OW12688   1.566   5.957   4.147
 3930SOL    HW112689   1.605   5.962   4.055
 3930SOL    HW212690   1.484   5.899   4.145
 3931SOL     OW12691   0.541   2.192   0.197
 3931SOL    HW112692   0.529   2.231   0.288
 3931SOL    HW212693   0.501   2.101   0.194
 3932SOL     OW12694   2.286   4.290   2.447
 3932SOL    HW112695   2.305   4.388   2.440
 3932SOL    HW212696   2.222   4.264   2.376
 3933SOL     OW12697   2.062   6.023   1.304
 3933SOL    HW112698   1.964   6.035   1.318
 3933SOL    HW212699   2.106   6.112   1.299
 3934SOL     OW12700   2.144   6.501   1.458
 3934SOL    HW112701   2.185   6.431   1.516
 3934SOL    HW212702   2.070   6.461   1.404
 3935SOL     OW12703   0.202   2.537   4.673
 3935SOL    HW112704   0.263   2.589   4.613
 3935SOL    HW212705   0.251   2.459   4.710
 3936SOL     OW12706   0.407   4.554   3.909
 3936SOL    HW112707   0.507   4.545   3.917
 3936SOL    HW212708   0.368   4.566   4.000
 3937SOL     OW12709   0.866   6.452   0.377
 3937SOL    HW112710   0.814   6.366   0.373
 3937SOL    HW212711   0.832   6.514   0.307
 3938SOL     OW12712   0.682   3.787   0.222
 3938SOL    HW112713   0.775   3.759   0.199
 3938SOL    HW212714   0.626   3.789   0.139
 3939SOL     OW12715   1.809   6.498   3.902
 3939SOL    HW112716   1.843   6.405   3.891
 3939SOL    HW212717   1.752   6.522   3.823
 3940SOL     OW12718   2.456   6.015   6.341
 3940SOL    HW112719   2.479   6.006   6.438
 3940SOL    HW212720   2.359   5.997   6.327
 3941SOL     OW12721   5.570   5.658   2.403
 3941SOL    HW112722   5.506   5.583   2.418
 3941SOL    HW212723   5.620   5.642   2.318
 3942SOL     OW12724   6.446   6.459   6.674
 3942SOL    HW112725   6.407   6.546   6.645
 3942SOL    HW212726   6.482   6.468   6.767
 3943SOL     OW12727   1.652   3.623   6.980
 3943SOL    HW112728   1.564   3.607   0.007
 3943SOL    HW212729   1.672   3.547   6.918
 3944SOL     OW12730   4.738   3.525   6.304
 3944SOL    HW112731   4.688   3.612   6.303
 3944SOL    HW212732   4.805   3.525   6.378
 3945SOL     OW12733   6.485   0.695   3.118
 3945SOL    HW112734   6.539   0.630   3.064
 3945SOL    HW212735   6.506   0.683   3.215
 3946SOL     OW12736   6.511   2.885   0.771
 3946SOL    HW112737   6.576   2.894   0.847
 3946SOL    HW212738   6.418   2.887   0.808
 3947SOL     OW12739   5.577   6.285   2.251
 3947SOL    HW112740   5.608   6.195   2.280
 3947SOL    HW212741   5.481   6.280   2.225
 3948SOL     OW12742   2.082   0.969   5.149
 3948SOL    HW112743   2.160   0.949   5.089
 3948SOL    HW212744   2.055   0.885   5.197
 3949SOL     OW12745   5.890   0.067   2.181
 3949SOL    HW112746   5.949   0.038   2.256
 3949SOL    HW212747   5.797   0.081   2.216
 3950SOL     OW12748   2.952   4.673   1.654
 3950SOL    HW112749   2.918   4.595   1.707
 3950SOL    HW212750   2.947   4.756   1.710
 3951SOL     OW12751   6.842   2.556   3.455
 3951SOL    HW112752   6.857   2.572   3.357
 3951SOL    HW212753   6.924   2.582   3.506
 3952SOL     OW12754   5.518   4.480   6.775
 3952SOL    HW112755   5.521   4.388   6.816
 3952SOL    HW212756   5.423   4.506   6.759
 3953SOL     OW12757   3.466   3.922   5.807
 3953SOL    HW112758   3.376   3.893   5.777
 3953SOL    HW212759   3.528   3.844   5.806
 3954SOL     OW12760   1.199   3.343   5.076
 3954SOL    HW112761   1.138   3.265   5.066
 3954SOL    HW212762   1.241   3.364   4.988
 3955SOL     OW12763   6.136   3.473   0.354
 3955SOL    HW112764   6.151   3.448   0.450
 3955SOL    HW212765   6.056   3.425   0.319
 3956SOL     OW12766   0.002   2.777   5.525
 3956SOL    HW112767   0.086   2.825   5.500
 3956SOL    HW212768   0.024   2.694   5.576
 3957SOL     OW12769   0.889   2.083   1.618
 3957SOL    HW112770   0.985   2.104   1.599
 3957SOL    HW212771   0.873   2.085   1.717
 3958SOL     OW12772   5.768   6.085   1.223
 3958SOL    HW112773   5.724   6.072   1.312
 3958SOL    HW212774   5.824   6.005   1.203
 3959SOL     OW12775   2.426   4.769   1.873
 3959SOL    HW112776   2.379   4.816   1.948
 3959SOL    HW212777   2.441   4.674   1.898
 3960SOL     OW12778   5.696   2.963   0.689
 3960SOL    HW112779   5.666   3.056   0.707
 3960SOL    HW212780   5.645   2.926   0.610
 3961SOL     OW12781   6.815   1.081   1.395
 3961SOL    HW112782   6.718   1.103   1.400
 3961SOL    HW212783   6.826   0.983   1.379
 3962SOL     OW12784   0.328   0.440   6.055
 3962SOL    HW112785   0.235   0.475   6.060
 3962SOL    HW212786   0.363   0.422   6.147
 3963SOL     OW12787   5.125   4.241   4.085
 3963SOL    HW112788   5.130   4.318   4.021
 3963SOL    HW212789   5.215   4.197   4.091
 3964SOL     OW12790   5.892   4.786   0.187
 3964SOL    HW112791   5.796   4.813   0.184
 3964SOL    HW212792   5.948   4.859   0.147
 3965SOL     OW12793   3.547   3.991   1.197
 3965SOL    HW112794   3.610   3.960   1.269
 3965SOL    HW212795   3.454   3.994   1.233
 3966SOL     OW12796   6.876   3.647   5.858
 3966SOL    HW112797   6.927   3.673   5.776
 3966SOL    HW212798   6.785   3.615   5.833
 3967SOL     OW12799   2.343   6.676   0.073
 3967SOL    HW112800   2.376   6.582   0.081
 3967SOL    HW212801   2.267   6.690   0.137
 3968SOL     OW12802   4.710   2.365   0.951
 3968SOL    HW112803   4.661   2.449   0.927
 3968SOL    HW212804   4.647   2.300   0.993
 3969SOL     OW12805   0.041   6.327   0.955
 3969SOL    HW112806   0.001   6.239   0.980
 3969SOL    HW212807   0.140   6.320   0.958
 3970SOL     OW12808   5.517   4.548   3.721
 3970SOL    HW112809   5.525   4.614   3.795
 3970SOL    HW212810   5.571   4.579   3.642
 3971SOL     OW12811   0.114   5.916   3.811
 3971SOL    HW112812   0.184   5.982   3.835
 3971SOL    HW212813   0.065   5.947   3.730
 3972SOL     OW12814   1.161   0.079   6.010
 3972SOL    HW112815   1.128   0.033   5.927
 3972SOL    HW212816   1.185   0.174   5.988
 3973SOL     OW12817   4.169   3.473   2.645
 3973SOL    HW112818   4.075   3.462   2.612
 3973SOL    HW212819   4.231   3.421   2.585
 3974SOL     OW12820   4.921   0.728   6.278
 3974SOL    HW112821   5.011   0.741   6.237
 3974SOL    HW212822   4.900   0.805   6.338
 3975SOL     OW12823   0.236   0.007   4.776
 3975SOL    HW112824   0.234   7.011   4.677
 3975SOL    HW212825   0.309   6.969   4.816
 3976SOL     OW12826   1.050   3.154   5.986
 3976SOL    HW112827   1.146   3.179   5.986
 3976SOL    HW212828   1.041   3.055   5.998
 3977SOL     OW12829   3.361   5.375   5.021
 3977SOL    HW112830   3.330   5.424   4.939
 3977SOL    HW212831   3.445   5.326   5.000
 3978SOL     OW12832   5.852   3.514   6.401
 3978SOL    HW112833   5.882   3.432   6.353
 3978SOL    HW212834   5.929   3.576   6.412
 3979SOL     OW12835   0.946   6.203   3.234
 3979SOL    HW112836   0.916   6.185   3.141
 3979SOL    HW212837   0.974   6.299   3.242
 3980SOL     OW12838   5.332   3.703   4.190
 3980SOL    HW112839   5.397   3.642   4.235
 3980SOL    HW212840   5.337   3.691   4.091
 3981SOL     OW12841   6.805   1.334   6.418
 3981SOL    HW112842   6.873   1.314   6.488
 3981SOL    HW212843   6.850   1.344   6.330
 3982SOL     OW12844   2.252   2.674   4.445
 3982SOL    HW112845   2.214   2.755   4.490
 3982SOL    HW212846   2.300   2.618   4.513
 3983SOL     OW12847   3.046   0.693   3.618
 3983SOL    HW112848   3.057   0.645   3.531
 3983SOL    HW212849   3.048   0.626   3.693
 3984SOL     OW12850   1.667   5.604   2.222
 3984SOL    HW112851   1.713   5.521   2.254
 3984SOL    HW212852   1.637   5.657   2.302
 3985SOL     OW12853   1.964   2.221   1.488
 3985SOL    HW112854   2.039   2.179   1.439
 3985SOL    HW212855   1.888   2.239   1.425
 3986SOL     OW12856   0.652   2.107   2.278
 3986SOL    HW112857   0.743   2.109   2.320
 3986SOL    HW212858   0.652   2.043   2.202
 3987SOL     OW12859   1.648   4.262   4.980
 3987SOL    HW112860   1.612   4.355   4.979
 3987SOL    HW212861   1.645   4.227   5.074
 3988SOL     OW12862   5.033   0.167   1.693
 3988SOL    HW112863   5.069   0.244   1.744
 3988SOL    HW212864   4.946   0.139   1.733
 3989SOL     OW12865   3.995   0.583   5.572
 3989SOL    HW112866   3.978   0.485   5.571
 3989SOL    HW212867   3.918   0.632   5.532
 3990SOL     OW12868   6.248   1.688   3.724
 3990SOL    HW112869   6.308   1.754   3.770
 3990SOL    HW212870   6.166   1.674   3.780
 3991SOL     OW12871   0.019   2.093   3.175
 3991SOL    HW112872   0.079   2.081   3.254
 3991SOL    HW212873   0.021   2.012   3.118
 3992SOL     OW12874   5.199   3.505   6.419
 3992SOL    HW112875   5.252   3.426   6.451
 3992SOL    HW212876   5.243   3.542   6.337
 3993SOL     OW12877   1.719   0.752   4.065
 3993SOL    HW112878   1.728   0.662   4.109
 3993SOL    HW212879   1.805   0.776   4.021
 3994SOL     OW12880   3.433   2.118   3.543
 3994SOL    HW112881   3.532   2.127   3.548
 3994SOL    HW212882   3.407   2.024   3.565
 3995SOL     OW12883   1.283   3.590   2.388
 3995SOL    HW112884   1.227   3.543   2.457
 3995SOL    HW212885   1.326   3.522   2.328
 3996SOL     OW12886   6.386   6.362   5.202
 3996SOL    HW112887   6.464   6.396   5.255
 3996SOL    HW212888   6.326   6.439   5.178
 3997SOL     OW12889   5.547   3.574   4.305
 3997SOL    HW112890   5.590   3.493   4.265
 3997SOL    HW212891   5.596   3.599   4.389
 3998SOL     OW12892   4.715   2.220   3.518
 3998SOL    HW112893   4.733   2.184   3.609
 3998SOL    HW212894   4.689   2.317   3.525
 3999SOL     OW12895   4.889   3.311   0.669
 3999SOL    HW112896   4.933   3.340   0.584
 3999SOL    HW212897   4.959   3.289   0.738
 4000SOL     OW12898   2.451   4.886   3.410
 4000SOL    HW112899   2.430   4.807   3.353
 4000SOL    HW212900   2.456   4.858   3.506
 4001SOL     OW12901   0.349   6.092   4.397
 4001SOL    HW112902   0.388   6.158   4.333
 4001SOL    HW212903   0.320   6.140   4.480
 4002SOL     OW12904   4.052   3.848   4.448
 4002SOL    HW112905   4.148   3.868   4.464
 4002SOL    HW212906   4.020   3.781   4.516
 4003SOL     OW12907   2.060   1.143   4.621
 4003SOL    HW112908   2.030   1.135   4.525
 4003SOL    HW212909   2.094   1.235   4.637
 4004SOL     OW12910   1.885   4.648   4.962
 4004SOL    HW112911   1.935   4.564   4.983
 4004SOL    HW212912   1.946   4.727   4.971
 4005SOL     OW12913   5.048   2.971   0.231
 4005SOL    HW112914   5.019   2.923   0.314
 4005SOL    HW212915   4.970   3.014   0.187
 4006SOL     OW12916   6.751   5.376   2.010
 4006SOL    HW112917   6.757   5.289   1.961
 4006SOL    HW212918   6.840   5.397   2.050
 4007SOL     OW12919   0.556   0.875   1.728
 4007SOL    HW112920   0.533   0.879   1.630
 4007SOL    HW212921   0.649   0.908   1.741
 4008SOL     OW12922   2.971   1.165   1.276
 4008SOL    HW112923   2.878   1.187   1.247
 4008SOL    HW212924   2.997   1.223   1.353
 4009SOL     OW12925   4.259   2.332   0.406
 4009SOL    HW112926   4.197   2.402   0.372
 4009SOL    HW212927   4.239   2.244   0.363
 4010SOL     OW12928   1.782   4.040   0.919
 4010SOL    HW112929   1.862   4.060   0.862
 4010SOL    HW212930   1.742   3.953   0.890
 4011SOL     OW12931   6.246   6.627   6.033
 4011SOL    HW112932   6.159   6.653   6.076
 4011SOL    HW212933   6.234   6.540   5.985
 4012SOL     OW12934   6.017   5.941   2.474
 4012SOL    HW112935   6.033   5.925   2.377
 4012SOL    HW212936   6.100   5.918   2.526
 4013SOL     OW12937   6.866   1.498   0.060
 4013SOL    HW112938   6.780   1.521   0.014
 4013SOL    HW212939   6.924   1.579   0.066
 4014SOL     OW12940   3.896   5.511   2.472
 4014SOL    HW112941   3.862   5.592   2.424
 4014SOL    HW212942   3.961   5.463   2.413
 4015SOL     OW12943   4.376   5.414   5.897
 4015SOL    HW112944   4.341   5.371   5.981
 4015SOL    HW212945   4.411   5.505   5.919
 4016SOL     OW12946   5.122   4.758   4.591
 4016SOL    HW112947   5.178   4.839   4.573
 4016SOL    HW212948   5.112   4.747   4.690
 4017SOL     OW12949   1.820   5.950   5.261
 4017SOL    HW112950   1.873   5.966   5.345
 4017SOL    HW212951   1.833   5.856   5.230
 4018SOL     OW12952   4.097   5.512   1.167
 4018SOL    HW112953   4.030   5.520   1.242
 4018SOL    HW212954   4.057   5.548   1.083
 4019SOL     OW12955   6.691   3.586   2.344
 4019SOL    HW112956   6.732   3.500   2.313
 4019SOL    HW212957   6.763   3.655   2.356
 4020SOL     OW12958   6.903   5.659   4.281
 4020SOL    HW112959   6.997   5.635   4.255
 4020SOL    HW212960   6.882   5.750   4.245
 4021SOL     OW12961   4.420   5.049   6.158
 4021SOL    HW112962   4.345   5.022   6.098
 4021SOL    HW212963   4.454   5.139   6.131
 4022SOL     OW12964   2.633   6.047   1.278
 4022SOL    HW112965   2.567   5.974   1.261
 4022SOL    HW212966   2.588   6.135   1.264
 4023SOL     OW12967   0.159   1.645   4.389
 4023SOL    HW112968   0.184   1.576   4.321
 4023SOL    HW212969   0.229   1.717   4.390
 4024SOL     OW12970   0.173   6.725   5.272
 4024SOL    HW112971   0.185   6.626   5.274
 4024SOL    HW212972   0.211   6.765   5.355
 4025SOL     OW12973   6.832   5.015   3.818
 4025SOL    HW112974   6.830   4.918   3.841
 4025SOL    HW212975   6.753   5.037   3.760
 4026SOL     OW12976   0.526   6.849   3.960
 4026SOL    HW112977   0.476   6.910   4.021
 4026SOL    HW212978   0.466   6.773   3.933
 4027SOL     OW12979   3.473   4.924   5.193
 4027SOL    HW112980   3.549   4.978   5.231
 4027SOL    HW212981   3.476   4.831   5.230
 4028SOL     OW12982   5.106   1.169   3.861
 4028SOL    HW112983   5.194   1.135   3.892
 4028SOL    HW212984   5.033   1.126   3.914
 4029SOL     OW12985   1.379   6.264   0.839
 4029SOL    HW112986   1.430   6.209   0.773
 4029SOL    HW212987   1.351   6.208   0.916
 4030SOL     OW12988   0.642   1.679   2.320
 4030SOL    HW112989   0.654   1.650   2.415
 4030SOL    HW212990   0.555   1.644   2.285
 4031SOL     OW12991   5.764   6.224   0.458
 4031SOL    HW112992   5.716   6.305   0.492
 4031SOL    HW212993   5.726   6.142   0.502
 4032SOL     OW12994   4.994   0.909   2.604
 4032SOL    HW112995   5.063   0.872   2.667
 4032SOL    HW212996   5.016   0.881   2.511
 4033SOL     OW12997   2.579   2.459   2.669
 4033SOL    HW112998   2.636   2.463   2.587
 4033SOL    HW212999   2.572   2.365   2.701
 4034SOL     OW13000   1.365   2.607   4.489
 4034SOL    HW113001   1.410   2.560   4.414
 4034SOL    HW213002   1.420   2.686   4.517
 4035SOL     OW13003   4.710   2.201   1.844
 4035SOL    HW113004   4.618   2.164   1.861
 4035SOL    HW213005   4.705   2.269   1.771
 4036SOL     OW13006   3.179   5.828   3.571
 4036SOL    HW113007   3.157   5.848   3.666
 4036SOL    HW213008   3.121   5.884   3.512
 4037SOL     OW13009   2.165   1.997   6.286
 4037SOL    HW113010   2.116   1.988   6.373
 4037SOL    HW213011   2.180   1.906   6.247
 4038SOL     OW13012   3.609   4.953   5.847
 4038SOL    HW113013   3.637   4.863   5.880
 4038SOL    HW213014   3.598   5.015   5.924
 4039SOL     OW13015   5.438   4.794   1.582
 4039SOL    HW113016   5.526   4.792   1.630
 4039SOL    HW213017   5.382   4.869   1.618
 4040SOL     OW13018   3.166   0.626   5.230
 4040SOL    HW113019   3.140   0.720   5.255
 4040SOL    HW213020   3.264   0.615   5.242
 4041SOL     OW13021   1.644   5.434   1.810
 4041SOL    HW113022   1.676   5.467   1.899
 4041SOL    HW213023   1.714   5.452   1.741
 4042SOL     OW13024   0.327   1.930   2.755
 4042SOL    HW113025   0.397   1.959   2.690
 4042SOL    HW213026   0.268   2.008   2.777
 4043SOL     OW13027   5.116   2.945   6.189
 4043SOL    HW113028   5.040   2.911   6.245
 4043SOL    HW213029   5.158   2.869   6.141
 4044SOL     OW13030   4.769   4.111   3.284
 4044SOL    HW113031   4.766   4.062   3.197
 4044SOL    HW213032   4.783   4.046   3.359
 4045SOL     OW13033   4.458   1.175   5.264
 4045SOL    HW113034   4.451   1.090   5.317
 4045SOL    HW213035   4.544   1.176   5.214
 4046SOL     OW13036   5.222   1.590   3.518
 4046SOL    HW113037   5.310   1.585   3.564
 4046SOL    HW213038   5.196   1.499   3.486
 4047SOL     OW13039   3.180   3.066   6.682
 4047SOL    HW113040   3.267   3.024   6.655
 4047SOL    HW213041   3.180   3.083   6.781
 4048SOL     OW13042   4.980   1.978   2.633
 4048SOL    HW113043   4.936   1.947   2.548
 4048SOL    HW213044   4.975   1.904   2.701
 4049SOL     OW13045   4.065   3.921   0.692
 4049SOL    HW113046   4.005   3.871   0.755
 4049SOL    HW213047   4.019   4.004   0.662
 4050SOL     OW13048   0.387   5.222   2.725
 4050SOL    HW113049   0.363   5.183   2.636
 4050SOL    HW213050   0.392   5.322   2.718
 4051SOL     OW13051   5.400   0.990   5.337
 4051SOL    HW113052   5.419   0.951   5.427
 4051SOL    HW213053   5.361   1.082   5.349
 4052SOL     OW13054   5.275   1.856   3.414
 4052SOL    HW113055   5.190   1.906   3.396
 4052SOL    HW213056   5.253   1.764   3.449
 4053SOL     OW13057   0.723   4.722   3.880
 4053SOL    HW113058   0.822   4.736   3.883
 4053SOL    HW213059   0.677   4.795   3.930
 4054SOL     OW13060   4.321   3.923   0.812
 4054SOL    HW113061   4.350   3.830   0.838
 4054SOL    HW213062   4.229   3.920   0.773
 4055SOL     OW13063   0.164   4.126   0.470
 4055SOL    HW113064   0.199   4.046   0.519
 4055SOL    HW213065   0.129   4.193   0.535
 4056SOL     OW13066   4.872   3.333   6.950
 4056SOL    HW113067   4.793   3.393   6.962
 4056SOL    HW213068   4.861   3.251   7.006
 4057SOL     OW13069   6.929   3.550   0.418
 4057SOL    HW113070   6.994   3.590   0.353
 4057SOL    HW213071   6.907   3.456   0.390
 4058SOL     OW13072   2.318   0.651   4.957
 4058SOL    HW113073   2.307   0.596   4.874
 4058SOL    HW213074   2.391   0.612   5.014
 4059SOL     OW13075   0.154   1.528   3.666
 4059SOL    HW113076   0.113   1.441   3.696
 4059SOL    HW213077   0.249   1.512   3.640
 4060SOL     OW13078   6.844   6.225   4.600
 4060SOL    HW113079   6.931   6.258   4.563
 4060SOL    HW213080   6.772   6.238   4.532
 4061SOL     OW13081   1.235   4.682   1.324
 4061SOL    HW113082   1.266   4.773   1.350
 4061SOL    HW213083   1.138   4.672   1.346
 4062SOL     OW13084   1.679   3.749   0.807
 4062SOL    HW113085   1.738   3.730   0.886
 4062SOL    HW213086   1.619   3.670   0.790
 4063SOL     OW13087   4.226   0.410   0.325
 4063SOL    HW113088   4.279   0.364   0.396
 4063SOL    HW213089   4.160   0.346   0.286
 4064SOL     OW13090   1.946   1.064   6.047
 4064SOL    HW113091   1.943   0.966   6.031
 4064SOL    HW213092   1.859   1.105   6.017
 4065SOL     OW13093   2.378   0.277   1.056
 4065SOL    HW113094   2.390   0.224   0.971
 4065SOL    HW213095   2.317   0.227   1.117
 4066SOL     OW13096   0.870   3.815   3.600
 4066SOL    HW113097   0.838   3.723   3.578
 4066SOL    HW213098   0.951   3.808   3.658
 4067SOL     OW13099   5.665   5.069   0.777
 4067SOL    HW113100   5.601   5.130   0.730
 4067SOL    HW213101   5.724   5.122   0.837
 4068SOL     OW13102   2.314   2.710   4.926
 4068SOL    HW113103   2.333   2.807   4.934
 4068SOL    HW213104   2.385   2.658   4.974
 4069SOL     OW13105   4.832   6.466   6.606
 4069SOL    HW113106   4.832   6.366   6.601
 4069SOL    HW213107   4.800   6.503   6.519
 4070SOL     OW13108   1.323   3.451   3.589
 4070SOL    HW113109   1.391   3.379   3.579
 4070SOL    HW213110   1.362   3.528   3.640
 4071SOL     OW13111   1.278   0.807   5.093
 4071SOL    HW113112   1.231   0.744   5.031
 4071SOL    HW213113   1.345   0.861   5.042
 4072SOL     OW13114   2.620   5.895   3.251
 4072SOL    HW113115   2.646   5.980   3.298
 4072SOL    HW213116   2.529   5.867   3.282
 4073SOL     OW13117   4.561   4.979   6.804
 4073SOL    HW113118   4.534   4.997   6.709
 4073SOL    HW213119   4.481   4.984   6.863
 4074SOL     OW13120   1.622   5.832   2.764
 4074SOL    HW113121   1.532   5.861   2.731
 4074SOL    HW213122   1.655   5.756   2.709
 4075SOL     OW13123   6.532   0.527   0.810
 4075SOL    HW113124   6.446   0.479   0.796
 4075SOL    HW213125   6.593   0.471   0.866
 4076SOL     OW13126   2.293   4.848   4.350
 4076SOL    HW113127   2.263   4.943   4.358
 4076SOL    HW213128   2.350   4.825   4.429
 4077SOL     OW13129   2.776   0.541   2.068
 4077SOL    HW113130   2.733   0.537   2.158
 4077SOL    HW213131   2.705   0.551   1.998
 4078SOL     OW13132   3.740   4.946   2.149
 4078SOL    HW113133   3.792   5.024   2.114
 4078SOL    HW213134   3.672   4.918   2.080
 4079SOL     OW13135   0.404   2.268   3.850
 4079SOL    HW113136   0.499   2.273   3.820
 4079SOL    HW213137   0.389   2.181   3.897
 4080SOL     OW13138   6.959   2.303   5.331
 4080SOL    HW113139   6.886   2.235   5.330
 4080SOL    HW213140   6.923   2.391   5.299
 4081SOL     OW13141   1.548   3.293   3.628
 4081SOL    HW113142   1.622   3.358   3.610
 4081SOL    HW213143   1.544   3.274   3.726
 4082SOL     OW13144   0.634   3.715   0.864
 4082SOL    HW113145   0.552   3.710   0.807
 4082SOL    HW213146   0.621   3.657   0.945
 4083SOL     OW13147   6.154   2.964   4.768
 4083SOL    HW113148   6.194   2.880   4.730
 4083SOL    HW213149   6.226   3.019   4.809
 4084SOL     OW13150   6.722   1.703   4.146
 4084SOL    HW113151   6.772   1.677   4.229
 4084SOL    HW213152   6.726   1.802   4.133
 4085SOL     OW13153   2.387   6.273   0.331
 4085SOL    HW113154   2.289   6.266   0.311
 4085SOL    HW213155   2.429   6.339   0.270
 4086SOL     OW13156   0.989   4.378   0.723
 4086SOL    HW113157   0.952   4.367   0.631
 4086SOL    HW213158   1.075   4.329   0.730
 4087SOL     OW13159   2.652   1.792   2.797
 4087SOL    HW113160   2.672   1.846   2.715
 4087SOL    HW213161   2.578   1.835   2.849
 4088SOL     OW13162   6.345   2.014   0.626
 4088SOL    HW113163   6.318   2.000   0.721
 4088SOL    HW213164   6.266   2.000   0.566
 4089SOL     OW13165   1.480   1.508   5.613
 4089SOL    HW113166   1.393   1.459   5.606
 4089SOL    HW213167   1.468   1.602   5.579
 4090SOL     OW13168   1.735   4.773   6.091
 4090SOL    HW113169   1.813   4.721   6.126
 4090SOL    HW213170   1.692   4.823   6.166
 4091SOL     OW13171   3.913   6.955   0.486
 4091SOL    HW113172   3.983   6.883   0.489
 4091SOL    HW213173   3.952   0.020   0.447
 4092SOL     OW13174   0.090   2.007   4.735
 4092SOL    HW113175   0.025   1.932   4.742
 4092SOL    HW213176   0.047   2.085   4.690
 4093SOL     OW13177   5.811   7.002   4.857
 4093SOL    HW113178   5.712   7.018   4.859
 4093SOL    HW213179   5.856   0.046   4.921
 4094SOL     OW13180   2.969   4.359   5.377
 4094SOL    HW113181   2.964   4.428   5.304
 4094SOL    HW213182   3.056   4.309   5.370
 4095SOL     OW13183   1.854   4.157   5.775
 4095SOL    HW113184   1.931   4.098   5.748
 4095SOL    HW213185   1.840   4.150   5.874
 4096SOL     OW13186   4.374   4.671   2.136
 4096SOL    HW113187   4.353   4.632   2.046
 4096SOL    HW213188   4.426   4.604   2.189
 4097SOL     OW13189   2.882   3.642   3.928
 4097SOL    HW113190   2.911   3.675   3.838
 4097SOL    HW213191   2.920   3.702   3.999
 4098SOL     OW13192   0.437   2.553   2.264
 4098SOL    HW113193   0.529   2.594   2.266
 4098SOL    HW213194   0.391   2.581   2.180
 4099SOL     OW13195   3.133   6.290   1.819
 4099SOL    HW113196   3.046   6.243   1.833
 4099SOL    HW213197   3.161   6.281   1.723
 4100SOL     OW13198   3.454   6.472   3.127
 4100SOL    HW113199   3.422   6.507   3.039
 4100SOL    HW213200   3.475   6.375   3.118
 4101SOL     OW13201   4.437   1.219   6.672
 4101SOL    HW113202   4.349   1.241   6.715
 4101SOL    HW213203   4.502   1.191   6.743
 4102SOL     OW13204   5.421   1.272   0.397
 4102SOL    HW113205   5.515   1.239   0.403
 4102SOL    HW213206   5.396   1.285   0.301
 4103SOL     OW13207   0.286   0.308   2.359
 4103SOL    HW113208   0.208   0.312   2.420
 4103SOL    HW213209   0.334   0.396   2.360
 4104SOL     OW13210   1.641   4.869   2.529
 4104SOL    HW113211   1.644   4.876   2.629
 4104SOL    HW213212   1.648   4.773   2.502
 4105SOL     OW13213   5.483   5.254   0.278
 4105SOL    HW113214   5.508   5.250   0.181
 4105SOL    HW213215   5.557   5.216   0.333
 4106SOL     OW13216   0.185   3.877   5.041
 4106SOL    HW113217   0.251   3.882   4.967
 4106SOL    HW213218   0.092   3.882   5.004
 4107SOL     OW13219   7.003   1.304   1.220
 4107SOL    HW113220   0.030   1.323   1.133
 4107SOL    HW213221   0.007   1.375   1.286
 4108SOL     OW13222   6.649   3.020   5.284
 4108SOL    HW113223   6.616   3.106   5.323
 4108SOL    HW213224   6.671   2.956   5.358
 4109SOL     OW13225   2.947   6.630   3.545
 4109SOL    HW113226   2.925   6.716   3.590
 4109SOL    HW213227   3.038   6.599   3.576
 4110SOL     OW13228   4.566   3.165   5.481
 4110SOL    HW113229   4.555   3.069   5.456
 4110SOL    HW213230   4.662   3.184   5.503
 4111SOL     OW13231   4.435   3.314   6.781
 4111SOL    HW113232   4.450   3.413   6.788
 4111SOL    HW213233   4.473   3.280   6.696
 4112SOL     OW13234   3.719   0.602   4.575
 4112SOL    HW113235   3.699   0.658   4.656
 4112SOL    HW213236   3.646   0.614   4.508
 4113SOL     OW13237   3.910   5.505   4.554
 4113SOL    HW113238   3.833   5.476   4.612
 4113SOL    HW213239   3.882   5.582   4.497
 4114SOL     OW13240   2.939   1.901   2.840
 4114SOL    HW113241   2.886   1.829   2.885
 4114SOL    HW213242   2.886   1.986   2.839
 4115SOL     OW13243   5.257   4.942   2.250
 4115SOL    HW113244   5.213   5.003   2.316
 4115SOL    HW213245   5.277   4.993   2.166
 4116SOL     OW13246   3.227   1.153   2.436
 4116SOL    HW113247   3.143   1.099   2.426
 4116SOL    HW213248   3.215   1.242   2.391
 4117SOL     OW13249   0.861   5.369   2.185
 4117SOL    HW113250   0.818   5.284   2.155
 4117SOL    HW213251   0.951   5.350   2.223
 4118SOL     OW13252   2.546   6.563   0.531
 4118SOL    HW113253   2.576   6.617   0.610
 4118SOL    HW213254   2.553   6.619   0.448
 4119SOL     OW13255   4.613   0.860   3.334
 4119SOL    HW113256   4.600   0.835   3.430
 4119SOL    HW213257   4.697   0.913   3.324
 4120SOL     OW13258   3.452   0.967   2.290
 4120SOL    HW113259   3.476   1.034   2.220
 4120SOL    HW213260   3.357   0.979   2.318
 4121SOL     OW13261   6.476   3.387   4.602
 4121SOL    HW113262   6.564   3.339   4.594
 4121SOL    HW213263   6.464   3.417   4.696
 4122SOL     OW13264   1.853   5.540   6.529
 4122SOL    HW113265   1.844   5.546   6.429
 4122SOL    HW213266   1.765   5.564   6.571
 4123SOL     OW13267   4.789   4.163   6.098
 4123SOL    HW113268   4.801   4.205   6.008
 4123SOL    HW213269   4.727   4.085   6.090
 4124SOL     OW13270   4.685   6.581   3.675
 4124SOL    HW113271   4.631   6.619   3.600
 4124SOL    HW213272   4.624   6.527   3.734
 4125SOL     OW13273   5.159   1.228   0.699
 4125SOL    HW113274   5.227   1.248   0.770
 4125SOL    HW213275   5.070   1.213   0.742
 4126SOL     OW13276   1.813   4.799   4.359
 4126SOL    HW113277   1.878   4.796   4.284
 4126SOL    HW213278   1.746   4.726   4.349
 4127SOL     OW13279   6.268   4.164   4.845
 4127SOL    HW113280   6.274   4.192   4.940
 4127SOL    HW213281   6.188   4.207   4.802
 4128SOL     OW13282   1.178   2.016   2.488
 4128SOL    HW113283   1.187   1.977   2.579
 4128SOL    HW213284   1.263   2.003   2.437
 4129SOL     OW13285   5.701   2.141   6.245
 4129SOL    HW113286   5.741   2.072   6.185
 4129SOL    HW213287   5.723   2.120   6.340
 4130SOL     OW13288   6.052   3.742   1.226
 4130SOL    HW113289   5.990   3.709   1.297
 4130SOL    HW213290   5.999   3.785   1.153
 4131SOL     OW13291   6.927   4.058   3.447
 4131SOL    HW113292   0.003   4.050   3.481
 4131SOL    HW213293   6.866   4.006   3.507
 4132SOL     OW13294   5.134   2.106   4.447
 4132SOL    HW113295   5.181   2.191   4.468
 4132SOL    HW213296   5.103   2.108   4.351
 4133SOL     OW13297   2.838   2.031   1.130
 4133SOL    HW113298   2.771   1.959   1.109
 4133SOL    HW213299   2.826   2.061   1.225
 4134SOL     OW13300   1.235   1.627   6.799
 4134SOL    HW113301   1.157   1.669   6.751
 4134SOL    HW213302   1.228   1.528   6.793
 4135SOL     OW13303   1.318   0.494   1.038
 4135SOL    HW113304   1.353   0.407   1.074
 4135SOL    HW213305   1.223   0.507   1.070
 4136SOL     OW13306   1.159   1.704   3.107
 4136SOL    HW113307   1.144   1.607   3.091
 4136SOL    HW213308   1.114   1.732   3.191
 4137SOL     OW13309   3.801   3.855   5.231
 4137SOL    HW113310   3.766   3.849   5.325
 4137SOL    HW213311   3.816   3.951   5.207
 4138SOL     OW13312   4.085   5.273   2.925
 4138SOL    HW113313   4.133   5.186   2.933
 4138SOL    HW213314   3.988   5.259   2.943
 4139SOL     OW13315   2.190   0.809   0.338
 4139SOL    HW113316   2.239   0.881   0.289
 4139SOL    HW213317   2.255   0.758   0.395
 4140SOL     OW13318   4.670   1.576   5.307
 4140SOL    HW113319   4.583   1.534   5.329
 4140SOL    HW213320   4.717   1.603   5.392
 4141SOL     OW13321   5.594   5.464   0.742
 4141SOL    HW113322   5.539   5.383   0.718
 4141SOL    HW213323   5.574   5.491   0.836
 4142SOL     OW13324   6.399   2.844   1.919
 4142SOL    HW113325   6.320   2.809   1.968
 4142SOL    HW213326   6.393   2.820   1.822
 4143SOL     OW13327   0.355   2.209   1.509
 4143SOL    HW113328   0.402   2.144   1.449
 4143SOL    HW213329   0.258   2.187   1.514
 4144SOL     OW13330   4.444   0.973   2.451
 4144SOL    HW113331   4.514   0.987   2.521
 4144SOL    HW213332   4.376   1.046   2.455
 4145SOL     OW13333   3.049   0.112   2.808
 4145SOL    HW113334   3.050   0.048   2.731
 4145SOL    HW213335   3.058   0.060   2.893
 4146SOL     OW13336   5.036   5.507   0.438
 4146SOL    HW113337   5.052   5.442   0.363
 4146SOL    HW213338   4.990   5.588   0.402
 4147SOL     OW13339   3.311   2.464   5.668
 4147SOL    HW113340   3.335   2.554   5.705
 4147SOL    HW213341   3.244   2.420   5.728
 4148SOL     OW13342   5.743   0.049   2.892
 4148SOL    HW113343   5.662   0.102   2.915
 4148SOL    HW213344   5.800   0.039   2.974
 4149SOL     OW13345   5.148   4.191   1.605
 4149SOL    HW113346   5.081   4.132   1.650
 4149SOL    HW213347   5.104   4.276   1.578
 4150SOL     OW13348   5.123   0.596   5.726
 4150SOL    HW113349   5.174   0.680   5.743
 4150SOL    HW213350   5.135   0.533   5.802
 4151SOL     OW13351   0.175   5.082   0.738
 4151SOL    HW113352   0.109   5.111   0.668
 4151SOL    HW213353   0.179   4.983   0.741
 4152SOL     OW13354   3.733   4.499   1.344
 4152SOL    HW113355   3.668   4.571   1.365
 4152SOL    HW213356   3.689   4.410   1.354
 4153SOL     OW13357   5.900   5.552   6.321
 4153SOL    HW113358   5.947   5.483   6.376
 4153SOL    HW213359   5.882   5.517   6.229
 4154SOL     OW13360   4.697   2.792   5.575
 4154SOL    HW113361   4.720   2.724   5.645
 4154SOL    HW213362   4.730   2.762   5.486
 4155SOL     OW13363   1.329   2.902   1.360
 4155SOL    HW113364   1.247   2.925   1.307
 4155SOL    HW213365   1.302   2.857   1.446
 4156SOL     OW13366   6.373   6.978   5.590
 4156SOL    HW113367   6.326   6.927   5.662
 4156SOL    HW213368   6.457   6.932   5.565
 4157SOL     OW13369   3.350   0.471   4.577
 4157SOL    HW113370   3.255   0.469   4.546
 4157SOL    HW213371   3.402   0.535   4.520
 4158SOL     OW13372   0.840   0.052   4.438
 4158SOL    HW113373   0.907   0.043   4.365
 4158SOL    HW213374   0.749   0.029   4.403
 4159SOL     OW13375   0.716   3.408   5.484
 4159SOL    HW113376   0.625   3.372   5.509
 4159SOL    HW213377   0.732   3.391   5.387
 4160SOL     OW13378   1.487   1.136   0.881
 4160SOL    HW113379   1.452   1.180   0.798
 4160SOL    HW213380   1.506   1.040   0.862
 4161SOL     OW13381   6.122   1.953   0.497
 4161SOL    HW113382   6.094   2.002   0.580
 4161SOL    HW213383   6.045   1.900   0.462
 4162SOL     OW13384   6.813   0.048   5.030
 4162SOL    HW113385   6.804   6.996   5.100
 4162SOL    HW213386   6.904   0.088   5.034
 4163SOL     OW13387   6.286   0.934   4.044
 4163SOL    HW113388   6.253   0.847   4.081
 4163SOL    HW213389   6.224   0.965   3.972
 4164SOL     OW13390   2.499   6.942   6.506
 4164SOL    HW113391   2.501   7.001   6.587
 4164SOL    HW213392   2.513   6.847   6.534
 4165SOL     OW13393   2.970   5.863   2.838
 4165SOL    HW113394   2.968   5.957   2.872
 4165SOL    HW213395   2.903   5.808   2.886
 4166SOL     OW13396   6.244   2.860   1.181
 4166SOL    HW113397   6.225   2.951   1.143
 4166SOL    HW213398   6.341   2.838   1.168
 4167SOL     OW13399   2.366   3.208   1.127
 4167SOL    HW113400   2.370   3.292   1.181
 4167SOL    HW213401   2.280   3.205   1.076
 4168SOL     OW13402   1.664   4.741   1.189
 4168SOL    HW113403   1.609   4.816   1.152
 4168SOL    HW213404   1.669   4.667   1.121
 4169SOL     OW13405   6.523   3.707   4.463
 4169SOL    HW113406   6.539   3.675   4.557
 4169SOL    HW213407   6.425   3.719   4.449
 4170SOL     OW13408   4.166   2.384   5.414
 4170SOL    HW113409   4.158   2.418   5.320
 4170SOL    HW213410   4.258   2.346   5.428
 4171SOL     OW13411   5.504   3.597   1.388
 4171SOL    HW113412   5.555   3.512   1.369
 4171SOL    HW213413   5.558   3.655   1.448
 4172SOL     OW13414   2.560   1.099   0.087
 4172SOL    HW113415   2.509   1.029   0.137
 4172SOL    HW213416   2.658   1.081   0.095
 4173SOL     OW13417   5.568   3.370   5.416
 4173SOL    HW113418   5.662   3.385   5.447
 4173SOL    HW213419   5.537   3.449   5.363
 4174SOL     OW13420   5.150   0.494   4.331
 4174SOL    HW113421   5.203   0.420   4.372
 4174SOL    HW213422   5.183   0.511   4.239
 4175SOL     OW13423   3.651   1.817   3.565
 4175SOL    HW113424   3.687   1.910   3.566
 4175SOL    HW213425   3.551   1.819   3.565
 4176SOL     OW13426   6.232   5.665   2.927
 4176SOL    HW113427   6.248   5.609   2.846
 4176SOL    HW213428   6.211   5.759   2.899
 4177SOL     OW13429   6.832   5.141   2.842
 4177SOL    HW113430   6.815   5.108   2.750
 4177SOL    HW213431   6.808   5.070   2.908
 4178SOL     OW13432   4.054   2.655   6.121
 4178SOL    HW113433   4.142   2.686   6.085
 4178SOL    HW213434   4.046   2.556   6.107
 4179SOL     OW13435   6.263   2.946   6.301
 4179SOL    HW113436   6.257   2.854   6.341
 4179SOL    HW213437   6.347   2.954   6.248
 4180SOL     OW13438   4.270   3.601   1.153
 4180SOL    HW113439   4.187   3.637   1.112
 4180SOL    HW213440   4.293   3.653   1.235
 4181SOL     OW13441   0.154   1.052   0.353
 4181SOL    HW113442   0.078   1.102   0.394
 4181SOL    HW213443   0.192   1.106   0.277
 4182SOL     OW13444   5.805   1.207   3.710
 4182SOL    HW113445   5.708   1.220   3.691
 4182SOL    HW213446   5.851   1.295   3.712
 4183SOL     OW13447   1.757   1.825   1.226
 4183SOL    HW113448   1.774   1.799   1.321
 4183SOL    HW213449   1.820   1.898   1.199
 4184SOL     OW13450   3.878   5.282   0.104
 4184SOL    HW113451   3.968   5.323   0.088
 4184SOL    HW213452   3.819   5.348   0.151
 4185SOL     OW13453   0.082   6.680   4.246
 4185SOL    HW113454   0.067   6.726   4.159
 4185SOL    HW213455   0.013   6.609   4.259
 4186SOL     OW13456   3.603   4.160   1.913
 4186SOL    HW113457   3.582   4.132   2.007
 4186SOL    HW213458   3.673   4.100   1.875
 4187SOL     OW13459   4.382   4.669   6.271
 4187SOL    HW113460   4.397   4.754   6.322
 4187SOL    HW213461   4.458   4.655   6.207
 4188SOL     OW13462   4.918   6.154   4.888
 4188SOL    HW113463   5.015   6.175   4.901
 4188SOL    HW213464   4.898   6.149   4.791
 4189SOL     OW13465   1.637   3.068   3.189
 4189SOL    HW113466   1.716   3.108   3.143
 4189SOL    HW213467   1.666   3.027   3.276
 4190SOL     OW13468   3.524   6.845   1.639
 4190SOL    HW113469   3.430   6.820   1.617
 4190SOL    HW213470   3.578   6.850   1.555
 4191SOL     OW13471   0.215   2.889   1.947
 4191SOL    HW113472   0.134   2.847   1.989
 4191SOL    HW213473   0.200   2.987   1.937
 4192SOL     OW13474   5.845   1.053   2.776
 4192SOL    HW113475   5.772   1.058   2.708
 4192SOL    HW213476   5.806   1.057   2.868
 4193SOL     OW13477   2.187   6.503   2.384
 4193SOL    HW113478   2.186   6.589   2.333
 4193SOL    HW213479   2.161   6.428   2.323
 4194SOL     OW13480   6.668   1.174   3.605
 4194SOL    HW113481   6.624   1.109   3.542
 4194SOL    HW213482   6.600   1.210   3.668
 4195SOL     OW13483   5.166   0.867   2.859
 4195SOL    HW113484   5.119   0.779   2.872
 4195SOL    HW213485   5.135   0.931   2.929
 4196SOL     OW13486   4.535   2.245   3.199
 4196SOL    HW113487   4.566   2.163   3.152
 4196SOL    HW213488   4.556   2.326   3.144
 4197SOL     OW13489   4.838   4.024   4.746
 4197SOL    HW113490   4.845   4.038   4.647
 4197SOL    HW213491   4.842   3.926   4.766
 4198SOL     OW13492   5.469   4.217   5.914
 4198SOL    HW113493   5.376   4.199   5.882
 4198SOL    HW213494   5.526   4.241   5.836
 4199SOL     OW13495   3.224   3.802   5.192
 4199SOL    HW113496   3.126   3.808   5.209
 4199SOL    HW213497   3.247   3.710   5.159
 4200SOL     OW13498   2.451   6.918   6.029
 4200SOL    HW113499   2.427   6.998   6.084
 4200SOL    HW213500   2.549   6.899   6.038
 4201SOL     OW13501   6.323   6.751   4.777
 4201SOL    HW113502   6.369   6.665   4.755
 4201SOL    HW213503   6.229   6.732   4.807
 4202SOL     OW13504   5.711   3.740   4.957
 4202SOL    HW113505   5.783   3.670   4.964
 4202SOL    HW213506   5.626   3.697   4.926
 4203SOL     OW13507   4.956   5.369   4.134
 4203SOL    HW113508   4.925   5.441   4.072
 4203SOL    HW213509   4.878   5.335   4.187
 4204SOL     OW13510   2.271   4.373   0.771
 4204SOL    HW113511   2.357   4.364   0.822
 4204SOL    HW213512   2.282   4.336   0.679
 4205SOL     OW13513   2.822   5.589   3.329
 4205SOL    HW113514   2.877   5.655   3.278
 4205SOL    HW213515   2.800   5.626   3.419
 4206SOL     OW13516   5.838   6.821   4.678
 4206SOL    HW113517   5.825   6.897   4.742
 4206SOL    HW213518   5.935   6.815   4.653
 4207SOL     OW13519   0.875   0.677   0.825
 4207SOL    HW113520   0.797   0.615   0.830
 4207SOL    HW213521   0.959   0.625   0.816
 4208SOL     OW13522   1.134   2.813   0.383
 4208SOL    HW113523   1.127   2.884   0.453
 4208SOL    HW213524   1.076   2.736   0.409
 4209SOL     OW13525   2.665   0.857   5.077
 4209SOL    HW113526   2.594   0.890   5.139
 4209SOL    HW213527   2.635   0.871   4.982
 4210SOL     OW13528   5.086   2.484   0.061
 4210SOL    HW113529   5.038   2.555   0.114
 4210SOL    HW213530   5.171   2.522   0.024
 4211SOL     OW13531   5.193   3.449   4.035
 4211SOL    HW113532   5.109   3.413   3.994
 4211SOL    HW213533   5.170   3.494   4.122
 4212SOL     OW13534   6.349   6.601   2.889
 4212SOL    HW113535   6.420   6.616   2.958
 4212SOL    HW213536   6.390   6.563   2.806
 4213SOL     OW13537   0.961   6.917   1.433
 4213SOL    HW113538   1.003   6.837   1.391
 4213SOL    HW213539   0.981   6.998   1.378
 4214SOL     OW13540   2.167   4.755   5.003
 4214SOL    HW113541   2.186   4.741   5.100
 4214SOL    HW213542   2.179   4.668   4.954
 4215SOL     OW13543   0.696   5.535   5.338
 4215SOL    HW113544   0.614   5.523   5.394
 4215SOL    HW213545   0.777   5.517   5.394
 4216SOL     OW13546   2.847   3.192   5.362
 4216SOL    HW113547   2.798   3.106   5.359
 4216SOL    HW213548   2.900   3.198   5.447
 4217SOL     OW13549   0.037   1.028   2.988
 4217SOL    HW113550   6.998   0.949   2.966
 4217SOL    HW213551   0.120   1.025   2.931
 4218SOL     OW13552   3.048   6.438   2.184
 4218SOL    HW113553   3.116   6.501   2.221
 4218SOL    HW213554   3.043   6.357   2.243
 4219SOL     OW13555   5.044   6.977   3.137
 4219SOL    HW113556   5.094   7.009   3.218
 4219SOL    HW213557   5.015   0.038   3.083
 4220SOL     OW13558   0.980   3.971   3.386
 4220SOL    HW113559   0.941   4.061   3.370
 4220SOL    HW213560   0.919   3.917   3.443
 4221SOL     OW13561   5.534   5.967   5.924
 4221SOL    HW113562   5.606   5.939   5.860
 4221SOL    HW213563   5.445   5.939   5.888
 4222SOL     OW13564   3.235   2.767   0.004
 4222SOL    HW113565   3.150   2.790   6.975
 4222SOL    HW213566   3.302   2.733   6.957
 4223SOL     OW13567   2.846   3.447   2.477
 4223SOL    HW113568   2.874   3.436   2.382
 4223SOL    HW213569   2.882   3.534   2.513
 4224SOL     OW13570   4.137   1.987   5.862
 4224SOL    HW113571   4.056   2.040   5.835
 4224SOL    HW213572   4.182   2.032   5.939
 4225SOL     OW13573   5.195   0.243   4.462
 4225SOL    HW113574   5.197   0.241   4.562
 4225SOL    HW213575   5.133   0.171   4.429
 4226SOL     OW13576   1.915   1.270   3.041
 4226SOL    HW113577   1.942   1.329   3.117
 4226SOL    HW213578   1.821   1.293   3.013
 4227SOL     OW13579   5.867   3.977   0.012
 4227SOL    HW113580   5.808   3.943   6.957
 4227SOL    HW213581   5.934   3.906   0.037
 4228SOL     OW13582   5.691   5.363   3.071
 4228SOL    HW113583   5.655   5.343   2.980
 4228SOL    HW213584   5.741   5.449   3.068
 4229SOL     OW13585   4.490   4.787   5.329
 4229SOL    HW113586   4.495   4.881   5.363
 4229SOL    HW213587   4.485   4.724   5.406
 4230SOL     OW13588   2.933   0.505   4.737
 4230SOL    HW113589   2.871   0.459   4.801
 4230SOL    HW213590   3.013   0.538   4.786
 4231SOL     OW13591   3.815   6.272   5.445
 4231SOL    HW113592   3.716   6.271   5.429
 4231SOL    HW213593   3.835   6.235   5.535
 4232SOL     OW13594   2.345   4.334   1.434
 4232SOL    HW113595   2.300   4.373   1.354
 4232SOL    HW213596   2.411   4.399   1.471
 4233SOL     OW13597   5.505   6.752   1.001
 4233SOL    HW113598   5.542   6.821   0.938
 4233SOL    HW213599   5.578   6.692   1.032
 4234SOL     OW13600   3.233   3.730   5.490
 4234SOL    HW113601   3.194   3.812   5.447
 4234SOL    HW213602   3.221   3.652   5.429
 4235SOL     OW13603   0.338   3.757   5.242
 4235SOL    HW113604   0.294   3.791   5.160
 4235SOL    HW213605   0.405   3.823   5.275
 4236SOL     OW13606   0.875   3.895   4.827
 4236SOL    HW113607   0.963   3.852   4.850
 4236SOL    HW213608   0.838   3.855   4.744
 4237SOL     OW13609   5.367   4.594   5.201
 4237SOL    HW113610   5.465   4.608   5.192
 4237SOL    HW213611   5.345   4.498   5.181
 4238SOL     OW13612   4.621   4.426   4.581
 4238SOL    HW113613   4.551   4.379   4.527
 4238SOL    HW213614   4.645   4.369   4.660
 4239SOL     OW13615   5.474   5.735   6.093
 4239SOL    HW113616   5.384   5.692   6.077
 4239SOL    HW213617   5.474   5.827   6.055
 4240SOL     OW13618   2.488   4.971   6.239
 4240SOL    HW113619   2.509   4.955   6.142
 4240SOL    HW213620   2.450   5.063   6.250
 4241SOL     OW13621   4.197   1.515   0.069
 4241SOL    HW113622   4.112   1.566   0.082
 4241SOL    HW213623   4.270   1.558   0.124
 4242SOL     OW13624   1.513   0.503   2.488
 4242SOL    HW113625   1.483   0.481   2.581
 4242SOL    HW213626   1.435   0.501   2.426
 4243SOL     OW13627   1.448   2.697   2.881
 4243SOL    HW113628   1.465   2.743   2.967
 4243SOL    HW213629   1.482   2.752   2.805
 4244SOL     OW13630   3.058   0.258   0.733
 4244SOL    HW113631   3.026   0.166   0.712
 4244SOL    HW213632   3.010   0.324   0.675
 4245SOL     OW13633   6.669   2.054   1.044
 4245SOL    HW113634   6.720   2.084   1.125
 4245SOL    HW213635   6.732   2.017   0.977
 4246SOL     OW13636   4.748   2.912   3.851
 4246SOL    HW113637   4.707   2.894   3.761
 4246SOL    HW213638   4.713   2.846   3.917
 4247SOL     OW13639   1.557   4.393   6.575
 4247SOL    HW113640   1.560   4.334   6.494
 4247SOL    HW213641   1.611   4.351   6.649
 4248SOL     OW13642   2.103   0.692   3.325
 4248SOL    HW113643   2.129   0.782   3.360
 4248SOL    HW213644   2.096   0.695   3.226
 4249SOL     OW13645   5.947   0.492   6.007
 4249SOL    HW113646   5.932   0.546   6.090
 4249SOL    HW213647   5.948   0.552   5.928
 4250SOL     OW13648   6.776   6.285   4.856
 4250SOL    HW113649   6.725   6.216   4.906
 4250SOL    HW213650   6.796   6.253   4.764
 4251SOL     OW13651   4.771   2.213   5.583
 4251SOL    HW113652   4.773   2.124   5.630
 4251SOL    HW213653   4.712   2.276   5.633
 4252SOL     OW13654   6.967   6.950   6.742
 4252SOL    HW113655   0.034   6.944   6.690
 4252SOL    HW213656   6.986   6.941   6.840
 4253SOL     OW13657   4.532   6.240   2.831
 4253SOL    HW113658   4.584   6.318   2.867
 4253SOL    HW213659   4.590   6.186   2.770
 4254SOL     OW13660   1.505   2.385   6.007
 4254SOL    HW113661   1.412   2.422   6.002
 4254SOL    HW213662   1.518   2.316   5.937
 4255SOL     OW13663   0.859   2.721   3.152
 4255SOL    HW113664   0.915   2.639   3.145
 4255SOL    HW213665   0.771   2.706   3.106
 4256SOL     OW13666   6.650   5.913   0.962
 4256SOL    HW113667   6.627   6.005   0.993
 4256SOL    HW213668   6.642   5.909   0.862
 4257SOL     OW13669   6.251   0.939   3.506
 4257SOL    HW113670   6.280   0.863   3.565
 4257SOL    HW213671   6.238   0.905   3.412
 4258SOL     OW13672   2.696   5.765   0.843
 4258SOL    HW113673   2.681   5.859   0.874
 4258SOL    HW213674   2.779   5.729   0.885
 4259SOL     OW13675   1.326   0.368   0.709
 4259SOL    HW113676   1.377   0.313   0.775
 4259SOL    HW213677   1.308   0.314   0.627
 4260SOL     OW13678   5.917   0.518   4.904
 4260SOL    HW113679   5.826   0.528   4.944
 4260SOL    HW213680   5.978   0.473   4.970
 4261SOL     OW13681   2.080   5.965   4.300
 4261SOL    HW113682   2.100   6.023   4.221
 4261SOL    HW213683   1.988   5.984   4.334
 4262SOL     OW13684   1.926   5.009   5.217
 4262SOL    HW113685   1.971   4.957   5.290
 4262SOL    HW213686   1.994   5.068   5.173
 4263SOL     OW13687   2.586   1.549   3.404
 4263SOL    HW113688   2.505   1.587   3.358
 4263SOL    HW213689   2.669   1.584   3.360
 4264SOL     OW13690   4.576   2.117   5.904
 4264SOL    HW113691   4.588   2.092   6.000
 4264SOL    HW213692   4.483   2.152   5.891
 4265SOL     OW13693   2.575   6.670   6.329
 4265SOL    HW113694   2.544   6.638   6.418
 4265SOL    HW213695   2.522   6.627   6.257
 4266SOL     OW13696   1.069   5.144   1.883
 4266SOL    HW113697   1.092   5.220   1.944
 4266SOL    HW213698   1.088   5.170   1.788
 4267SOL     OW13699   1.240   3.643   4.321
 4267SOL    HW113700   1.337   3.657   4.343
 4267SOL    HW213701   1.231   3.623   4.223
 4268SOL     OW13702   1.185   4.560   5.891
 4268SOL    HW113703   1.147   4.648   5.862
 4268SOL    HW213704   1.284   4.560   5.875
 4269SOL     OW13705   3.202   1.458   4.245
 4269SOL    HW113706   3.233   1.551   4.269
 4269SOL    HW213707   3.109   1.446   4.278
 4270SOL     OW13708   4.090   3.987   0.240
 4270SOL    HW113709   4.122   3.990   0.145
 4270SOL    HW213710   4.008   3.930   0.245
 4271SOL     OW13711   0.067   0.369   1.118
 4271SOL    HW113712   7.002   0.345   1.167
 4271SOL    HW213713   0.044   0.410   1.030
 4272SOL     OW13714   6.887   1.634   5.843
 4272SOL    HW113715   6.872   1.632   5.744
 4272SOL    HW213716   6.968   1.578   5.865
 4273SOL     OW13717   2.731   5.941   3.985
 4273SOL    HW113718   2.634   5.923   3.968
 4273SOL    HW213719   2.741   6.029   4.032
 4274SOL     OW13720   0.812   1.286   1.792
 4274SOL    HW113721   0.745   1.264   1.721
 4274SOL    HW213722   0.904   1.283   1.753
 4275SOL     OW13723   6.941   2.262   3.915
 4275SOL    HW113724   0.015   2.299   3.913
 4275SOL    HW213725   6.888   2.308   3.987
 4276SOL     OW13726   1.460   6.554   2.881
 4276SOL    HW113727   1.475   6.622   2.810
 4276SOL    HW213728   1.540   6.493   2.886
 4277SOL     OW13729   6.585   5.474   2.863
 4277SOL    HW113730   6.596   5.413   2.784
 4277SOL    HW213731   6.625   5.432   2.944
 4278SOL     OW13732   0.965   6.854   1.153
 4278SOL    HW113733   0.925   6.784   1.213
 4278SOL    HW213734   1.025   6.810   1.087
 4279SOL     OW13735   0.884   2.305   3.385
 4279SOL    HW113736   0.925   2.258   3.307
 4279SOL    HW213737   0.842   2.391   3.354
 4280SOL     OW13738   1.920   6.046   6.191
 4280SOL    HW113739   1.942   5.988   6.112
 4280SOL    HW213740   1.930   5.992   6.275
 4281SOL     OW13741   6.091   5.963   3.600
 4281SOL    HW113742   6.179   5.967   3.647
 4281SOL    HW213743   6.018   5.950   3.667
 4282SOL     OW13744   5.322   5.489   2.111
 4282SOL    HW113745   5.227   5.508   2.137
 4282SOL    HW213746   5.367   5.438   2.185
 4283SOL     OW13747   5.860   0.884   4.796
 4283SOL    HW113748   5.950   0.845   4.778
 4283SOL    HW213749   5.864   0.984   4.790
 4284SOL     OW13750   4.858   5.862   6.878
 4284SOL    HW113751   4.874   5.809   6.962
 4284SOL    HW213752   4.759   5.871   6.863
 4285SOL     OW13753   3.074   1.750   6.320
 4285SOL    HW113754   3.132   1.826   6.348
 4285SOL    HW213755   3.080   1.676   6.388
 4286SOL     OW13756   4.927   0.162   6.870
 4286SOL    HW113757   4.859   0.089   6.879
 4286SOL    HW213758   5.018   0.126   6.891
 4287SOL     OW13759   3.125   0.932   1.383
 4287SOL    HW113760   3.096   0.908   1.475
 4287SOL    HW213761   3.088   1.021   1.358
 4288SOL     OW13762   6.993   6.051   2.004
 4288SOL    HW113763   0.015   6.015   2.089
 4288SOL    HW213764   0.039   6.114   1.960
 4289SOL     OW13765   6.995   4.500   5.409
 4289SOL    HW113766   6.943   4.478   5.326
 4289SOL    HW213767   6.936   4.494   5.489
 4290SOL     OW13768   6.845   1.856   3.035
 4290SOL    HW113769   6.757   1.813   3.016
 4290SOL    HW213770   6.883   1.820   3.120
 4291SOL     OW13771   4.467   4.620   6.589
 4291SOL    HW113772   4.513   4.691   6.536
 4291SOL    HW213773   4.507   4.531   6.567
 4292SOL     OW13774   6.534   0.988   1.689
 4292SOL    HW113775   6.604   1.023   1.751
 4292SOL    HW213776   6.542   0.888   1.683
 4293SOL     OW13777   3.755   3.017   0.196
 4293SOL    HW113778   3.731   3.114   0.187
 4293SOL    HW213779   3.702   2.963   0.131
 4294SOL     OW13780   2.920   1.517   6.521
 4294SOL    HW113781   2.986   1.559   6.583
 4294SOL    HW213782   2.873   1.589   6.470
 4295SOL     OW13783   4.807   6.303   3.173
 4295SOL    HW113784   4.798   6.374   3.243
 4295SOL    HW213785   4.744   6.228   3.193
 4296SOL     OW13786   2.208   6.507   1.985
 4296SOL    HW113787   2.295   6.533   2.025
 4296SOL    HW213788   2.151   6.588   1.973
 4297SOL     OW13789   5.002   5.310   0.248
 4297SOL    HW113790   5.061   5.231   0.264
 4297SOL    HW213791   4.909   5.279   0.229
 4298SOL     OW13792   1.646   0.235   0.746
 4298SOL    HW113793   1.576   0.196   0.806
 4298SOL    HW213794   1.715   0.167   0.725
 4299SOL     OW13795   0.911   3.202   6.472
 4299SOL    HW113796   0.858   3.236   6.395
 4299SOL    HW213797   0.897   3.262   6.551
 4300SOL     OW13798   2.944   0.736   2.055
 4300SOL    HW113799   2.869   0.673   2.034
 4300SOL    HW213800   2.913   0.830   2.040
 4301SOL     OW13801   2.356   5.886   5.798
 4301SOL    HW113802   2.442   5.895   5.848
 4301SOL    HW213803   2.320   5.976   5.776
 4302SOL     OW13804   3.534   4.898   6.237
 4302SOL    HW113805   3.507   4.879   6.331
 4302SOL    HW213806   3.457   4.877   6.176
 4303SOL     OW13807   4.093   5.563   3.530
 4303SOL    HW113808   4.084   5.594   3.435
 4303SOL    HW213809   4.152   5.627   3.580
 4304SOL     OW13810   3.006   3.980   1.782
 4304SOL    HW113811   3.025   4.077   1.767
 4304SOL    HW213812   3.067   3.945   1.853
 4305SOL     OW13813   0.728   5.911   6.218
 4305SOL    HW113814   0.671   5.937   6.140
 4305SOL    HW213815   0.825   5.914   6.192
 4306SOL     OW13816   5.654   3.318   5.005
 4306SOL    HW113817   5.565   3.331   5.050
 4306SOL    HW213818   5.710   3.399   5.016
 4307SOL     OW13819   6.652   1.241   5.379
 4307SOL    HW113820   6.627   1.249   5.475
 4307SOL    HW213821   6.732   1.181   5.371
 4308SOL     OW13822   3.894   5.856   6.255
 4308SOL    HW113823   3.950   5.904   6.322
 4308SOL    HW213824   3.951   5.790   6.205
 4309SOL     OW13825   2.005   1.441   0.805
 4309SOL    HW113826   1.950   1.374   0.754
 4309SOL    HW213827   2.002   1.529   0.757
 4310SOL     OW13828   5.964   2.364   2.955
 4310SOL    HW113829   5.987   2.409   2.869
 4310SOL    HW213830   5.994   2.269   2.952
 4311SOL     OW13831   0.837   0.083   1.727
 4311SOL    HW113832   0.851   0.180   1.709
 4311SOL    HW213833   0.918   0.046   1.774
 4312SOL     OW13834   0.090   3.701   1.859
 4312SOL    HW113835   0.077   3.771   1.929
 4312SOL    HW213836   0.187   3.697   1.835
 4313SOL     OW13837   1.241   3.978   6.784
 4313SOL    HW113838   1.251   3.958   6.687
 4313SOL    HW213839   1.153   3.942   6.816
 4314SOL     OW13840   1.451   1.327   5.341
 4314SOL    HW113841   1.549   1.341   5.323
 4314SOL    HW213842   1.440   1.267   5.420
 4315SOL     OW13843   2.467   2.029   5.591
 4315SOL    HW113844   2.566   2.035   5.579
 4315SOL    HW213845   2.442   1.935   5.617
 4316SOL     OW13846   4.362   5.502   1.953
 4316SOL    HW113847   4.460   5.487   1.966
 4316SOL    HW213848   4.331   5.455   1.870
 4317SOL     OW13849   5.251   0.533   5.054
 4317SOL    HW113850   5.184   0.601   5.023
 4317SOL    HW213851   5.265   0.464   4.983
 4318SOL     OW13852   1.440   6.163   4.309
 4318SOL    HW113853   1.441   6.149   4.408
 4318SOL    HW213854   1.476   6.082   4.264
 4319SOL     OW13855   1.175   4.433   2.474
 4319SOL    HW113856   1.184   4.439   2.375
 4319SOL    HW213857   1.229   4.356   2.508
 4320SOL     OW13858   3.340   0.307   0.794
 4320SOL    HW113859   3.241   0.306   0.776
 4320SOL    HW213860   3.367   0.398   0.825
 4321SOL     OW13861   6.599   6.528   3.050
 4321SOL    HW113862   6.660   6.606   3.066
 4321SOL    HW213863   6.650   6.454   3.005
 4322SOL     OW13864   2.012   1.891   4.453
 4322SOL    HW113865   1.963   1.903   4.366
 4322SOL    HW213866   2.028   1.793   4.468
 4323SOL     OW13867   4.591   4.836   0.310
 4323SOL    HW113868   4.590   4.752   0.256
 4323SOL    HW213869   4.523   4.830   0.383
 4324SOL     OW13870   0.509   4.558   5.692
 4324SOL    HW113871   0.457   4.498   5.753
 4324SOL    HW213872   0.531   4.509   5.608
 4325SOL     OW13873   1.778   6.593   1.479
 4325SOL    HW113874   1.824   6.647   1.550
 4325SOL    HW213875   1.709   6.650   1.434
 4326SOL     OW13876   4.610   2.530   2.524
 4326SOL    HW113877   4.700   2.550   2.563
 4326SOL    HW213878   4.551   2.491   2.595
 4327SOL     OW13879   2.453   5.809   3.672
 4327SOL    HW113880   2.502   5.891   3.701
 4327SOL    HW213881   2.407   5.769   3.751
 4328SOL     OW13882   5.815   0.295   3.236
 4328SOL    HW113883   5.741   0.228   3.229
 4328SOL    HW213884   5.903   0.249   3.236
 4329SOL     OW13885   6.130   3.877   6.832
 4329SOL    HW113886   6.224   3.858   6.860
 4329SOL    HW213887   6.095   3.955   6.884
 4330SOL     OW13888   2.666   4.599   4.327
 4330SOL    HW113889   2.704   4.621   4.417
 4330SOL    HW213890   2.581   4.547   4.339
 4331SOL     OW13891   5.903   1.791   2.474
 4331SOL    HW113892   5.809   1.818   2.453
 4331SOL    HW213893   5.902   1.704   2.524
 4332SOL     OW13894   0.073   5.750   1.568
 4332SOL    HW113895   0.028   5.782   1.652
 4332SOL    HW213896   0.003   5.722   1.502
 4333SOL     OW13897   3.855   2.996   6.054
 4333SOL    HW113898   3.885   3.038   5.969
 4333SOL    HW213899   3.840   2.898   6.039
 4334SOL     OW13900   6.963   2.859   3.775
 4334SOL    HW113901   0.029   2.836   3.823
 4334SOL    HW213902   6.884   2.841   3.834
 4335SOL     OW13903   2.217   4.356   1.682
 4335SOL    HW113904   2.252   4.385   1.593
 4335SOL    HW213905   2.217   4.256   1.687
 4336SOL     OW13906   2.634   5.494   5.401
 4336SOL    HW113907   2.717   5.439   5.408
 4336SOL    HW213908   2.580   5.464   5.322
 4337SOL     OW13909   6.871   4.491   3.430
 4337SOL    HW113910   6.832   4.479   3.522
 4337SOL    HW213911   6.856   4.586   3.400
 4338SOL     OW13912   2.933   2.233   6.349
 4338SOL    HW113913   2.989   2.313   6.325
 4338SOL    HW213914   2.899   2.243   6.442
 4339SOL     OW13915   4.156   4.875   4.977
 4339SOL    HW113916   4.245   4.836   5.000
 4339SOL    HW213917   4.089   4.848   5.046
 4340SOL     OW13918   0.290   4.357   1.000
 4340SOL    HW113919   0.229   4.435   1.004
 4340SOL    HW213920   0.275   4.298   1.080
 4341SOL     OW13921   6.032   5.696   1.340
 4341SOL    HW113922   6.055   5.744   1.256
 4341SOL    HW213923   6.087   5.732   1.415
 4342SOL     OW13924   5.211   3.040   2.557
 4342SOL    HW113925   5.311   3.030   2.561
 4342SOL    HW213926   5.170   2.995   2.636
 4343SOL     OW13927   3.607   0.383   6.315
 4343SOL    HW113928   3.592   0.285   6.300
 4343SOL    HW213929   3.616   0.429   6.226
 4344SOL     OW13930   0.690   3.955   2.956
 4344SOL    HW113931   0.609   3.940   3.012
 4344SOL    HW213932   0.666   3.949   2.859
 4345SOL     OW13933   3.866   3.746   2.671
 4345SOL    HW113934   3.888   3.693   2.589
 4345SOL    HW213935   3.931   3.724   2.743
 4346SOL     OW13936   0.816   2.941   2.827
 4346SOL    HW113937   0.856   2.982   2.745
 4346SOL    HW213938   0.744   3.001   2.861
 4347SOL     OW13939   6.476   5.120   0.529
 4347SOL    HW113940   6.383   5.115   0.493
 4347SOL    HW213941   6.479   5.079   0.621
 4348SOL     OW13942   5.746   4.899   5.406
 4348SOL    HW113943   5.706   4.829   5.466
 4348SOL    HW213944   5.746   4.987   5.453
 4349SOL     OW13945   0.935   3.642   4.022
 4349SOL    HW113946   0.945   3.556   4.072
 4349SOL    HW213947   1.023   3.688   4.017
 4350SOL     OW13948   4.167   0.969   4.135
 4350SOL    HW113949   4.099   0.919   4.189
 4350SOL    HW213950   4.158   1.067   4.154
 4351SOL     OW13951   0.085   5.747   1.032
 4351SOL    HW113952   0.109   5.843   1.015
 4351SOL    HW213953   0.018   5.717   0.965
 4352SOL     OW13954   3.678   4.960   1.822
 4352SOL    HW113955   3.653   4.874   1.867
 4352SOL    HW213956   3.595   5.004   1.788
 4353SOL     OW13957   2.883   3.412   0.883
 4353SOL    HW113958   2.942   3.440   0.959
 4353SOL    HW213959   2.926   3.437   0.797
 4354SOL     OW13960   5.753   5.898   2.174
 4354SOL    HW113961   5.830   5.863   2.227
 4354SOL    HW213962   5.786   5.929   2.084
 4355SOL     OW13963   2.127   4.841   2.803
 4355SOL    HW113964   2.215   4.832   2.851
 4355SOL    HW213965   2.114   4.937   2.777
 4356SOL     OW13966   6.061   2.865   5.592
 4356SOL    HW113967   6.007   2.934   5.640
 4356SOL    HW213968   6.043   2.871   5.494
 4357SOL     OW13969   5.558   6.744   1.837
 4357SOL    HW113970   5.506   6.692   1.905
 4357SOL    HW213971   5.656   6.726   1.849
 4358SOL     OW13972   2.810   1.089   0.175
 4358SOL    HW113973   2.880   1.017   0.178
 4358SOL    HW213974   2.852   1.175   0.148
 4359SOL     OW13975   2.307   2.009   1.086
 4359SOL    HW113976   2.312   2.045   0.993
 4359SOL    HW213977   2.399   1.985   1.118
 4360SOL     OW13978   2.359   5.512   4.384
 4360SOL    HW113979   2.298   5.445   4.426
 4360SOL    HW213980   2.446   5.514   4.434
 4361SOL     OW13981   0.835   1.973   0.220
 4361SOL    HW113982   0.783   2.038   0.276
 4361SOL    HW213983   0.921   2.015   0.192
 4362SOL     OW13984   1.009   4.872   3.380
 4362SOL    HW113985   0.977   4.941   3.445
 4362SOL    HW213986   0.930   4.828   3.337
 4363SOL     OW13987   3.785   0.599   2.036
 4363SOL    HW113988   3.810   0.613   1.941
 4363SOL    HW213989   3.830   0.668   2.093
 4364SOL     OW13990   3.001   3.772   2.849
 4364SOL    HW113991   3.093   3.811   2.853
 4364SOL    HW213992   2.967   3.758   2.943
 4365SOL     OW13993   2.198   0.989   1.172
 4365SOL    HW113994   2.115   1.042   1.193
 4365SOL    HW213995   2.207   0.914   1.237
 4366SOL     OW13996   5.115   6.394   4.396
 4366SOL    HW113997   5.136   6.415   4.491
 4366SOL    HW213998   5.096   6.480   4.347
 4367SOL     OW13999   2.265   6.103   2.374
 4367SOL    HW114000   2.210   6.050   2.439
 4367SOL    HW214001   2.204   6.157   2.315
 4368SOL     OW14002   4.924   4.105   4.163
 4368SOL    HW114003   5.008   4.157   4.148
 4368SOL    HW214004   4.889   4.123   4.255
 4369SOL     OW14005   5.510   3.976   3.667
 4369SOL    HW114006   5.554   3.887   3.680
 4369SOL    HW214007   5.429   3.982   3.725
 4370SOL     OW14008   4.171   4.996   0.780
 4370SOL    HW114009   4.173   4.991   0.680
 4370SOL    HW214010   4.141   4.908   0.817
 4371SOL     OW14011   3.291   1.005   2.652
 4371SOL    HW114012   3.276   1.055   2.566
 4371SOL    HW214013   3.256   0.911   2.641
 4372SOL     OW14014   1.864   4.191   4.278
 4372SOL    HW114015   1.784   4.243   4.250
 4372SOL    HW214016   1.947   4.244   4.259
 4373SOL     OW14017   4.582   0.705   0.093
 4373SOL    HW114018   4.567   0.690   0.191
 4373SOL    HW214019   4.530   0.638   0.040
 4374SOL     OW14020   2.598   6.735   0.225
 4374SOL    HW114021   2.534   6.733   0.147
 4374SOL    HW214022   2.670   6.802   0.207
 4375SOL     OW14023   4.012   1.252   5.785
 4375SOL    HW114024   4.052   1.315   5.718
 4375SOL    HW214025   4.037   1.158   5.761
 4376SOL     OW14026   2.132   5.218   0.165
 4376SOL    HW114027   2.188   5.143   0.200
 4376SOL    HW214028   2.186   5.302   0.164
 4377SOL     OW14029   5.464   6.101   7.009
 4377SOL    HW114030   5.503   6.018   6.968
 4377SOL    HW214031   5.388   6.133   6.953
 4378SOL     OW14032   2.759   4.814   2.812
 4378SOL    HW114033   2.758   4.764   2.898
 4378SOL    HW214034   2.840   4.873   2.807
 4379SOL     OW14035   0.683   6.635   1.525
 4379SOL    HW114036   0.601   6.659   1.473
 4379SOL    HW214037   0.764   6.666   1.476
 4380SOL     OW14038   1.904   5.414   4.345
 4380SOL    HW114039   1.833   5.358   4.303
 4380SOL    HW214040   1.950   5.469   4.275
 4381SOL     OW14041   4.823   5.629   4.968
 4381SOL    HW114042   4.896   5.569   4.934
 4381SOL    HW214043   4.736   5.581   4.962
 4382SOL     OW14044   5.438   3.838   3.249
 4382SOL    HW114045   5.423   3.922   3.301
 4382SOL    HW214046   5.397   3.847   3.158
 4383SOL     OW14047   1.072   1.749   0.344
 4383SOL    HW114048   1.136   1.825   0.329
 4383SOL    HW214049   1.113   1.664   0.314
 4384SOL     OW14050   4.167   6.470   1.357
 4384SOL    HW114051   4.180   6.493   1.260
 4384SOL    HW214052   4.074   6.434   1.370
 4385SOL     OW14053   6.064   2.592   2.454
 4385SOL    HW114054   6.152   2.596   2.501
 4385SOL    HW214055   6.056   2.668   2.390
 4386SOL     OW14056   1.633   4.248   6.784
 4386SOL    HW114057   1.596   4.160   6.815
 4386SOL    HW214058   1.672   4.297   6.862
 4387SOL     OW14059   6.595   2.543   1.639
 4387SOL    HW114060   6.504   2.506   1.660
 4387SOL    HW214061   6.596   2.577   1.545
 4388SOL     OW14062   3.497   1.939   5.757
 4388SOL    HW114063   3.518   1.999   5.834
 4388SOL    HW214064   3.475   1.848   5.791
 4389SOL     OW14065   5.765   2.172   2.524
 4389SOL    HW114066   5.826   2.243   2.559
 4389SOL    HW214067   5.815   2.112   2.462
 4390SOL     OW14068   4.217   2.555   1.504
 4390SOL    HW114069   4.142   2.583   1.444
 4390SOL    HW214070   4.253   2.636   1.551
 4391SOL     OW14071   0.284   6.603   0.725
 4391SOL    HW114072   0.339   6.521   0.740
 4391SOL    HW214073   0.344   6.679   0.701
 4392SOL     OW14074   5.420   4.122   4.768
 4392SOL    HW114075   5.323   4.145   4.761
 4392SOL    HW214076   5.433   4.058   4.845
 4393SOL     OW14077   5.553   6.192   3.546
 4393SOL    HW114078   5.474   6.253   3.533
 4393SOL    HW214079   5.573   6.185   3.644
 4394SOL     OW14080   4.448   1.243   2.666
 4394SOL    HW114081   4.414   1.217   2.576
 4394SOL    HW214082   4.412   1.180   2.735
 4395SOL     OW14083   5.209   1.741   1.374
 4395SOL    HW114084   5.120   1.771   1.409
 4395SOL    HW214085   5.196   1.691   1.289
 4396SOL     OW14086   1.483   1.371   3.771
 4396SOL    HW114087   1.543   1.328   3.704
 4396SOL    HW214088   1.516   1.349   3.863
 4397SOL     OW14089   5.511   0.247   6.413
 4397SOL    HW114090   5.512   0.167   6.473
 4397SOL    HW214091   5.453   0.318   6.454
 4398SOL     OW14092   0.148   5.595   4.213
 4398SOL    HW114093   0.189   5.634   4.296
 4398SOL    HW214094   0.172   5.651   4.134
 4399SOL     OW14095   2.756   1.192   2.172
 4399SOL    HW114096   2.834   1.254   2.161
 4399SOL    HW214097   2.684   1.237   2.224
 4400SOL     OW14098   3.854   6.176   3.605
 4400SOL    HW114099   3.758   6.206   3.608
 4400SOL    HW214100   3.873   6.137   3.515
 4401SOL     OW14101   5.871   6.047   4.967
 4401SOL    HW114102   5.791   6.035   5.026
 4401SOL    HW214103   5.844   6.035   4.872
 4402SOL     OW14104   6.705   6.682   2.744
 4402SOL    HW114105   6.774   6.722   2.684
 4402SOL    HW214106   6.635   6.636   2.689
 4403SOL     OW14107   0.024   0.718   2.706
 4403SOL    HW114108   0.040   0.781   2.630
 4403SOL    HW214109   0.095   0.732   2.775
 4404SOL     OW14110   2.084   4.634   3.114
 4404SOL    HW114111   2.059   4.669   3.024
 4404SOL    HW214112   2.091   4.710   3.179
 4405SOL     OW14113   2.762   3.790   6.101
 4405SOL    HW114114   2.814   3.853   6.044
 4405SOL    HW214115   2.760   3.823   6.195
 4406SOL     OW14116   5.776   3.427   1.723
 4406SOL    HW114117   5.847   3.497   1.727
 4406SOL    HW214118   5.690   3.464   1.758
 4407SOL     OW14119   6.913   0.589   0.045
 4407SOL    HW114120   6.897   0.673   7.012
 4407SOL    HW214121   6.945   0.611   0.137
 4408SOL     OW14122   4.163   6.250   0.641
 4408SOL    HW114123   4.087   6.186   0.655
 4408SOL    HW214124   4.190   6.289   0.729
 4409SOL     OW14125   2.589   1.643   3.094
 4409SOL    HW114126   2.683   1.676   3.082
 4409SOL    HW214127   2.530   1.681   3.024
 4410SOL     OW14128   2.044   5.707   1.570
 4410SOL    HW114129   2.065   5.801   1.598
 4410SOL    HW214130   2.095   5.685   1.487
 4411SOL     OW14131   3.892   3.564   2.472
 4411SOL    HW114132   3.893   3.472   2.510
 4411SOL    HW214133   3.818   3.572   2.405
 4412SOL     OW14134   3.513   1.728   5.955
 4412SOL    HW114135   3.510   1.682   6.043
 4412SOL    HW214136   3.587   1.690   5.900
 4413SOL     OW14137   4.860   5.232   3.698
 4413SOL    HW114138   4.880   5.148   3.649
 4413SOL    HW214139   4.889   5.223   3.793
 4414SOL     OW14140   3.304   5.687   1.790
 4414SOL    HW114141   3.301   5.670   1.691
 4414SOL    HW214142   3.234   5.631   1.835
 4415SOL     OW14143   4.460   1.660   1.148
 4415SOL    HW114144   4.411   1.738   1.109
 4415SOL    HW214145   4.398   1.608   1.206
 4416SOL     OW14146   2.835   1.963   4.996
 4416SOL    HW114147   2.841   2.062   5.013
 4416SOL    HW214148   2.906   1.935   4.932
 4417SOL     OW14149   6.505   0.378   1.239
 4417SOL    HW114150   6.575   0.309   1.255
 4417SOL    HW214151   6.548   0.466   1.220
 4418SOL     OW14152   4.945   0.962   3.972
 4418SOL    HW114153   4.938   0.921   4.063
 4418SOL    HW214154   4.913   0.897   3.904
 4419SOL     OW14155   6.988   5.542   6.983
 4419SOL    HW114156   6.959   5.628   0.006
 4419SOL    HW214157   6.918   5.510   6.919
 4420SOL     OW14158   4.538   0.829   6.696
 4420SOL    HW114159   4.468   0.901   6.697
 4420SOL    HW214160   4.627   0.870   6.714
 4421SOL     OW14161   0.657   1.674   3.405
 4421SOL    HW114162   0.756   1.662   3.407
 4421SOL    HW214163   0.616   1.610   3.340
 4422SOL     OW14164   1.787   4.497   5.920
 4422SOL    HW114165   1.865   4.436   5.931
 4422SOL    HW214166   1.749   4.519   6.010
 4423SOL     OW14167   0.096   1.504   6.343
 4423SOL    HW114168   0.045   1.490   6.428
 4423SOL    HW214169   0.108   1.602   6.327
 4424SOL     OW14170   0.585   6.329   3.658
 4424SOL    HW114171   0.612   6.348   3.753
 4424SOL    HW214172   0.536   6.408   3.621
 4425SOL     OW14173   5.295   4.209   0.450
 4425SOL    HW114174   5.305   4.109   0.455
 4425SOL    HW214175   5.371   4.247   0.398
 4426SOL     OW14176   0.422   0.609   5.835
 4426SOL    HW114177   0.382   0.529   5.880
 4426SOL    HW214178   0.454   0.583   5.744
 4427SOL     OW14179   0.795   5.942   3.768
 4427SOL    HW114180   0.811   5.853   3.725
 4427SOL    HW214181   0.882   5.980   3.799
 4428SOL     OW14182   1.978   6.375   3.241
 4428SOL    HW114183   1.916   6.323   3.299
 4428SOL    HW214184   1.955   6.472   3.246
 4429SOL     OW14185   3.831   7.017   2.985
 4429SOL    HW114186   3.802   6.928   3.019
 4429SOL    HW214187   3.776   0.023   2.905
 4430SOL     OW14188   1.059   0.605   1.663
 4430SOL    HW114189   1.079   0.699   1.691
 4430SOL    HW214190   1.134   0.545   1.691
 4431SOL     OW14191   2.505   1.963   3.587
 4431SOL    HW114192   2.501   2.061   3.566
 4431SOL    HW214193   2.500   1.911   3.502
 4432SOL     OW14194   3.070   3.073   3.577
 4432SOL    HW114195   3.125   3.004   3.529
 4432SOL    HW214196   2.999   3.108   3.515
 4433SOL     OW14197   6.171   0.521   3.214
 4433SOL    HW114198   6.225   0.441   3.240
 4433SOL    HW214199   6.214   0.567   3.136
 4434SOL     OW14200   4.756   2.093   5.008
 4434SOL    HW114201   4.748   2.187   5.041
 4434SOL    HW214202   4.808   2.038   5.074
 4435SOL     OW14203   3.985   3.407   2.135
 4435SOL    HW114204   3.933   3.322   2.132
 4435SOL    HW214205   4.036   3.418   2.050
 4436SOL     OW14206   4.994   0.586   0.785
 4436SOL    HW114207   5.075   0.544   0.825
 4436SOL    HW214208   4.996   0.573   0.686
 4437SOL     OW14209   3.108   0.243   4.879
 4437SOL    HW114210   3.129   0.198   4.966
 4437SOL    HW214211   3.021   0.208   4.844
 4438SOL     OW14212   3.879   3.556   6.760
 4438SOL    HW114213   3.934   3.498   6.701
 4438SOL    HW214214   3.940   3.613   6.816
 4439SOL     OW14215   2.351   4.834   2.510
 4439SOL    HW114216   2.383   4.896   2.438
 4439SOL    HW214217   2.401   4.853   2.595
 4440SOL     OW14218   6.358   1.165   0.221
 4440SOL    HW114219   6.365   1.138   0.317
 4440SOL    HW214220   6.445   1.145   0.175
 4441SOL     OW14221   6.135   1.360   3.428
 4441SOL    HW114222   6.187   1.443   3.449
 4441SOL    HW214223   6.134   1.300   3.508
 4442SOL     OW14224   1.846   5.900   1.896
 4442SOL    HW114225   1.777   5.829   1.902
 4442SOL    HW214226   1.885   5.916   1.987
 4443SOL     OW14227   2.868   1.260   6.386
 4443SOL    HW114228   2.784   1.268   6.333
 4443SOL    HW214229   2.914   1.348   6.391
 4444SOL     OW14230   4.818   1.365   2.939
 4444SOL    HW114231   4.791   1.457   2.912
 4444SOL    HW214232   4.795   1.301   2.865
 4445SOL     OW14233   1.050   0.932   6.540
 4445SOL    HW114234   0.996   0.875   6.601
 4445SOL    HW214235   1.148   0.915   6.555
 4446SOL     OW14236   5.248   4.718   3.717
 4446SOL    HW114237   5.317   4.646   3.711
 4446SOL    HW214238   5.257   4.764   3.806
 4447SOL     OW14239   5.192   2.824   4.874
 4447SOL    HW114240   5.224   2.830   4.969
 4447SOL    HW214241   5.259   2.867   4.813
 4448SOL     OW14242   1.977   2.972   6.753
 4448SOL    HW114243   1.898   3.031   6.738
 4448SOL    HW214244   1.974   2.933   6.845
 4449SOL     OW14245   0.074   1.636   5.128
 4449SOL    HW114246   0.103   1.653   5.034
 4449SOL    HW214247   0.065   1.724   5.176
 4450SOL     OW14248   2.959   3.748   2.568
 4450SOL    HW114249   2.988   3.831   2.520
 4450SOL    HW214250   2.958   3.764   2.666
 4451SOL     OW14251   0.132   4.082   1.087
 4451SOL    HW114252   0.174   4.008   1.140
 4451SOL    HW214253   0.074   4.137   1.147
 4452SOL     OW14254   6.532   3.929   6.329
 4452SOL    HW114255   6.567   3.881   6.248
 4452SOL    HW214256   6.506   3.861   6.399
 4453SOL     OW14257   5.138   1.613   0.899
 4453SOL    HW114258   5.127   1.686   0.832
 4453SOL    HW214259   5.218   1.558   0.875
 4454SOL     OW14260   5.064   2.797   1.323
 4454SOL    HW114261   5.043   2.776   1.228
 4454SOL    HW214262   4.980   2.798   1.377
 4455SOL     OW14263   4.161   2.133   1.989
 4455SOL    HW114264   4.072   2.177   1.975
 4455SOL    HW214265   4.183   2.133   2.086
 4456SOL     OW14266   0.825   5.648   2.677
 4456SOL    HW114267   0.771   5.568   2.702
 4456SOL    HW214268   0.900   5.621   2.617
 4457SOL     OW14269   4.657   1.748   6.681
 4457SOL    HW114270   4.757   1.750   6.685
 4457SOL    HW214271   4.626   1.655   6.662
 4458SOL     OW14272   4.204   1.533   0.555
 4458SOL    HW114273   4.221   1.440   0.520
 4458SOL    HW214274   4.164   1.527   0.646
 4459SOL     OW14275   5.139   6.668   5.363
 4459SOL    HW114276   5.107   6.763   5.358
 4459SOL    HW214277   5.147   6.631   5.270
 4460SOL     OW14278   1.331   1.303   6.672
 4460SOL    HW114279   1.255   1.240   6.659
 4460SOL    HW214280   1.308   1.392   6.632
 4461SOL     OW14281   1.840   6.756   2.264
 4461SOL    HW114282   1.798   6.846   2.264
 4461SOL    HW214283   1.936   6.764   2.291
 4462SOL     OW14284   0.089   4.807   0.808
 4462SOL    HW114285   0.045   4.843   0.890
 4462SOL    HW214286   0.121   4.713   0.825
 4463SOL     OW14287   1.469   3.926   6.144
 4463SOL    HW114288   1.454   3.873   6.227
 4463SOL    HW214289   1.381   3.946   6.100
 4464SOL     OW14290   5.962   2.761   0.287
 4464SOL    HW114291   5.984   2.858   0.292
 4464SOL    HW214292   5.937   2.727   0.378
 4465SOL     OW14293   1.000   5.988   1.043
 4465SOL    HW114294   1.023   6.073   1.091
 4465SOL    HW214295   1.076   5.923   1.053
 4466SOL     OW14296   0.046   3.035   3.154
 4466SOL    HW114297   0.139   3.062   3.176
 4466SOL    HW214298   0.020   3.074   3.065
 4467SOL     OW14299   1.555   0.419   3.393
 4467SOL    HW114300   1.628   0.372   3.443
 4467SOL    HW214301   1.559   0.395   3.296
 4468SOL     OW14302   2.084   2.255   0.627
 4468SOL    HW114303   2.036   2.181   0.675
 4468SOL    HW214304   2.137   2.308   0.692
 4469SOL     OW14305   4.731   0.095   0.378
 4469SOL    HW114306   4.733   0.194   0.386
 4469SOL    HW214307   4.643   0.066   0.342
 4470SOL     OW14308   4.323   5.081   1.570
 4470SOL    HW114309   4.391   5.026   1.618
 4470SOL    HW214310   4.235   5.032   1.569
 4471SOL     OW14311   6.411   2.667   0.573
 4471SOL    HW114312   6.455   2.706   0.654
 4471SOL    HW214313   6.481   2.628   0.513
 4472SOL     OW14314   2.341   4.735   1.635
 4472SOL    HW114315   2.373   4.787   1.715
 4472SOL    HW214316   2.335   4.797   1.556
 4473SOL     OW14317   0.415   0.503   6.457
 4473SOL    HW114318   0.451   0.583   6.505
 4473SOL    HW214319   0.317   0.515   6.441
 4474SOL     OW14320   5.986   0.377   4.671
 4474SOL    HW114321   5.909   0.335   4.622
 4474SOL    HW214322   5.952   0.427   4.751
 4475SOL     OW14323   2.010   3.611   0.588
 4475SOL    HW114324   2.041   3.685   0.648
 4475SOL    HW214325   1.911   3.600   0.598
 4476SOL     OW14326   4.962   6.492   2.314
 4476SOL    HW114327   5.009   6.561   2.259
 4476SOL    HW214328   4.883   6.533   2.360
 4477SOL     OW14329   0.801   1.369   0.568
 4477SOL    HW114330   0.734   1.443   0.553
 4477SOL    HW214331   0.793   1.335   0.661
 4478SOL     OW14332   1.754   4.880   2.068
 4478SOL    HW114333   1.843   4.899   2.028
 4478SOL    HW214334   1.684   4.937   2.024
 4479SOL     OW14335   0.677   0.471   5.926
 4479SOL    HW114336   0.727   0.558   5.925
 4479SOL    HW214337   0.628   0.461   6.012
 4480SOL     OW14338   0.348   4.359   3.646
 4480SOL    HW114339   0.405   4.304   3.708
 4480SOL    HW214340   0.259   4.315   3.637
 4481SOL     OW14341   0.858   0.683   3.931
 4481SOL    HW114342   0.872   0.678   3.832
 4481SOL    HW214343   0.910   0.609   3.975
 4482SOL     OW14344   1.059   4.099   3.676
 4482SOL    HW114345   1.053   4.002   3.657
 4482SOL    HW214346   0.986   4.125   3.739
 4483SOL     OW14347   5.494   2.869   1.024
 4483SOL    HW114348   5.500   2.940   1.094
 4483SOL    HW214349   5.572   2.807   1.032
 4484SOL     OW14350   3.670   3.417   6.611
 4484SOL    HW114351   3.734   3.455   6.678
 4484SOL    HW214352   3.577   3.444   6.636
 4485SOL     OW14353   4.766   0.630   6.526
 4485SOL    HW114354   4.845   0.649   6.467
 4485SOL    HW214355   4.696   0.701   6.513
 4486SOL     OW14356   6.009   2.771   3.882
 4486SOL    HW114357   6.084   2.711   3.912
 4486SOL    HW214358   5.938   2.772   3.952
 4487SOL     OW14359   2.880   3.031   5.734
 4487SOL    HW114360   2.934   2.952   5.761
 4487SOL    HW214361   2.791   3.001   5.701
 4488SOL     OW14362   0.162   1.753   6.349
 4488SOL    HW114363   0.107   1.756   6.433
 4488SOL    HW214364   0.242   1.811   6.359
 4489SOL     OW14365   6.961   1.290   3.028
 4489SOL    HW114366   6.980   1.192   3.033
 4489SOL    HW214367   0.001   1.338   3.094
 4490SOL     OW14368   6.823   2.320   3.603
 4490SOL    HW114369   6.876   2.313   3.688
 4490SOL    HW214370   6.841   2.408   3.560
 4491SOL     OW14371   1.457   3.693   2.982
 4491SOL    HW114372   1.425   3.695   3.076
 4491SOL    HW214373   1.461   3.599   2.950
 4492SOL     OW14374   4.911   5.017   6.206
 4492SOL    HW114375   4.965   5.079   6.149
 4492SOL    HW214376   4.900   5.056   6.297
 4493SOL     OW14377   5.897   4.949   3.382
 4493SOL    HW114378   5.873   4.906   3.469
 4493SOL    HW214379   5.983   4.911   3.349
 4494SOL     OW14380   5.752   2.459   3.184
 4494SOL    HW114381   5.670   2.494   3.139
 4494SOL    HW214382   5.758   2.496   3.277
 4495SOL     OW14383   4.326   6.270   2.016
 4495SOL    HW114384   4.415   6.226   2.005
 4495SOL    HW214385   4.295   6.261   2.110
 4496SOL     OW14386   5.372   4.650   5.786
 4496SOL    HW114387   5.395   4.748   5.782
 4496SOL    HW214388   5.428   4.601   5.719
 4497SOL     OW14389   6.169   5.052   1.241
 4497SOL    HW114390   6.070   5.050   1.248
 4497SOL    HW214391   6.205   5.133   1.287
 4498SOL     OW14392   0.825   4.115   6.765
 4498SOL    HW114393   0.738   4.163   6.752
 4498SOL    HW214394   0.855   4.125   6.860
 4499SOL     OW14395   5.397   3.599   6.199
 4499SOL    HW114396   5.408   3.586   6.101
 4499SOL    HW214397   5.473   3.652   6.235
 4500SOL     OW14398   3.040   3.690   3.382
 4500SOL    HW114399   3.043   3.626   3.459
 4500SOL    HW214400   3.130   3.695   3.339
 4501SOL     OW14401   1.573   5.029   4.618
 4501SOL    HW114402   1.492   4.998   4.568
 4501SOL    HW214403   1.600   4.959   4.684
 4502SOL     OW14404   6.420   2.808   6.918
 4502SOL    HW114405   6.489   2.752   6.873
 4502SOL    HW214406   6.332   2.796   6.872
 4503SOL     OW14407   1.704   3.284   2.516
 4503SOL    HW114408   1.683   3.283   2.418
 4503SOL    HW214409   1.632   3.236   2.566
 4504SOL     OW14410   4.560   2.532   4.187
 4504SOL    HW114411   4.558   2.473   4.268
 4504SOL    HW214412   4.500   2.494   4.117
 4505SOL     OW14413   1.882   4.756   6.773
 4505SOL    HW114414   1.925   4.842   6.746
 4505SOL    HW214415   1.862   4.702   6.691
 4506SOL     OW14416   4.271   6.894   4.636
 4506SOL    HW114417   4.286   6.802   4.672
 4506SOL    HW214418   4.192   6.935   4.681
 4507SOL     OW14419   6.432   3.614   1.810
 4507SOL    HW114420   6.366   3.539   1.811
 4507SOL    HW214421   6.391   3.695   1.851
 4508SOL     OW14422   1.956   4.181   6.674
 4508SOL    HW114423   1.948   4.134   6.762
 4508SOL    HW214424   2.004   4.122   6.609
 4509SOL     OW14425   0.243   1.988   3.312
 4509SOL    HW114426   0.314   2.056   3.330
 4509SOL    HW214427   0.255   1.911   3.374
 4510SOL     OW14428   3.743   6.437   5.219
 4510SOL    HW114429   3.746   6.378   5.299
 4510SOL    HW214430   3.746   6.381   5.136
 4511SOL     OW14431   6.368   2.379   6.092
 4511SOL    HW114432   6.461   2.374   6.130
 4511SOL    HW214433   6.326   2.466   6.119
 4512SOL     OW14434   2.687   4.821   6.898
 4512SOL    HW114435   2.754   4.887   6.865
 4512SOL    HW214436   2.723   4.729   6.890
 4513SOL     OW14437   5.701   1.316   2.050
 4513SOL    HW114438   5.613   1.273   2.030
 4513SOL    HW214439   5.742   1.273   2.130
 4514SOL     OW14440   3.508   0.825   5.680
 4514SOL    HW114441   3.458   0.911   5.666
 4514SOL    HW214442   3.446   0.748   5.665
 4515SOL     OW14443   6.566   4.660   1.035
 4515SOL    HW114444   6.478   4.655   0.988
 4515SOL    HW214445   6.590   4.570   1.071
 4516SOL     OW14446   0.674   0.283   4.086
 4516SOL    HW114447   0.602   0.351   4.100
 4516SOL    HW214448   0.759   0.330   4.061
 4517SOL     OW14449   3.668   6.995   6.040
 4517SOL    HW114450   3.644   6.945   6.123
 4517SOL    HW214451   3.766   7.014   6.039
 4518SOL     OW14452   1.402   0.692   3.713
 4518SOL    HW114453   1.499   0.685   3.737
 4518SOL    HW214454   1.348   0.704   3.797
 4519SOL     OW14455   6.036   2.663   4.986
 4519SOL    HW114456   5.978   2.591   5.024
 4519SOL    HW214457   5.980   2.730   4.937
 4520SOL     OW14458   0.196   3.812   2.374
 4520SOL    HW114459   0.263   3.740   2.355
 4520SOL    HW214460   0.227   3.869   2.449
 4521SOL     OW14461   4.882   1.708   6.379
 4521SOL    HW114462   4.851   1.781   6.439
 4521SOL    HW214463   4.805   1.674   6.325
 4522SOL     OW14464   5.348   0.600   2.865
 4522SOL    HW114465   5.285   0.525   2.881
 4522SOL    HW214466   5.438   0.564   2.838
 4523SOL     OW14467   4.510   3.368   6.332
 4523SOL    HW114468   4.598   3.413   6.320
 4523SOL    HW214469   4.513   3.308   6.412
 4524SOL     OW14470   6.542   0.157   5.076
 4524SOL    HW114471   6.625   0.101   5.069
 4524SOL    HW214472   6.537   0.199   5.166
 4525SOL     OW14473   6.182   2.197   5.449
 4525SOL    HW114474   6.250   2.204   5.522
 4525SOL    HW214475   6.228   2.180   5.362
 4526SOL     OW14476   3.591   0.974   1.039
 4526SOL    HW114477   3.608   0.892   0.984
 4526SOL    HW214478   3.662   1.042   1.021
 4527SOL     OW14479   3.932   0.006   3.968
 4527SOL    HW114480   3.849   0.063   3.970
 4527SOL    HW214481   3.914   6.938   4.016
 4528SOL     OW14482   5.182   6.816   5.690
 4528SOL    HW114483   5.083   6.809   5.705
 4528SOL    HW214484   5.200   6.856   5.601
 4529SOL     OW14485   3.833   0.210   3.665
 4529SOL    HW114486   3.852   0.303   3.635
 4529SOL    HW214487   3.829   0.207   3.765
 4530SOL     OW14488   0.380   2.774   4.621
 4530SOL    HW114489   0.356   2.820   4.706
 4530SOL    HW214490   0.480   2.770   4.612
 4531SOL     OW14491   0.343   3.996   3.952
 4531SOL    HW114492   0.422   4.051   3.926
 4531SOL    HW214493   0.340   3.913   3.896
 4532SOL     OW14494   6.283   1.687   0.763
 4532SOL    HW114495   6.343   1.738   0.702
 4532SOL    HW214496   6.227   1.624   0.710
 4533SOL     OW14497   3.517   6.041   2.005
 4533SOL    HW114498   3.581   6.007   2.074
 4533SOL    HW214499   3.480   6.129   2.034
 4534SOL     OW14500   0.050   4.098   5.416
 4534SOL    HW114501   0.049   4.037   5.496
 4534SOL    HW214502   6.996   4.070   5.352
 4535SOL     OW14503   5.000   2.357   3.003
 4535SOL    HW114504   5.013   2.268   2.959
 4535SOL    HW214505   4.938   2.347   3.081
 4536SOL     OW14506   6.930   0.888   4.060
 4536SOL    HW114507   6.988   0.880   4.141
 4536SOL    HW214508   6.951   0.814   3.996
 4537SOL     OW14509   3.903   3.257   6.415
 4537SOL    HW114510   3.950   3.340   6.385
 4537SOL    HW214511   3.851   3.218   6.339
 4538SOL     OW14512   3.376   1.538   1.977
 4538SOL    HW114513   3.472   1.565   1.982
 4538SOL    HW214514   3.323   1.611   1.934
 4539SOL     OW14515   2.296   2.292   2.629
 4539SOL    HW114516   2.202   2.271   2.602
 4539SOL    HW214517   2.333   2.218   2.685
 4540SOL     OW14518   3.324   2.886   5.155
 4540SOL    HW114519   3.331   2.846   5.063
 4540SOL    HW214520   3.238   2.936   5.163
 4541SOL     OW14521   6.128   1.203   1.550
 4541SOL    HW114522   6.169   1.114   1.570
 4541SOL    HW214523   6.033   1.204   1.580
 4542SOL     OW14524   5.029   0.106   3.376
 4542SOL    HW114525   5.017   0.061   3.465
 4542SOL    HW214526   5.035   0.205   3.389
 4543SOL     OW14527   5.748   2.400   1.702
 4543SOL    HW114528   5.668   2.341   1.702
 4543SOL    HW214529   5.779   2.414   1.797
 4544SOL     OW14530   4.085   4.858   6.872
 4544SOL    HW114531   4.104   4.773   6.823
 4544SOL    HW214532   4.000   4.898   6.837
 4545SOL     OW14533   4.458   3.700   5.974
 4545SOL    HW114534   4.412   3.623   5.932
 4545SOL    HW214535   4.508   3.670   6.056
 4546SOL     OW14536   0.290   6.492   0.084
 4546SOL    HW114537   0.232   6.574   0.086
 4546SOL    HW214538   0.376   6.512   0.131
 4547SOL     OW14539   4.215   1.745   1.616
 4547SOL    HW114540   4.159   1.824   1.591
 4547SOL    HW214541   4.173   1.698   1.694
 4548SOL     OW14542   1.550   3.267   3.883
 4548SOL    HW114543   1.469   3.304   3.929
 4548SOL    HW214544   1.622   3.250   3.951
 4549SOL     OW14545   4.285   1.712   2.240
 4549SOL    HW114546   4.343   1.644   2.285
 4549SOL    HW214547   4.314   1.804   2.268
 4550SOL     OW14548   1.477   6.144   4.583
 4550SOL    HW114549   1.545   6.181   4.647
 4550SOL    HW214550   1.506   6.054   4.552
 4551SOL     OW14551   0.211   2.687   6.925
 4551SOL    HW114552   0.291   2.687   6.865
 4551SOL    HW214553   0.179   2.781   6.937
 4552SOL     OW14554   6.471   2.800   3.896
 4552SOL    HW114555   6.504   2.883   3.940
 4552SOL    HW214556   6.542   2.730   3.897
 4553SOL     OW14557   5.275   4.900   0.104
 4553SOL    HW114558   5.302   4.845   0.183
 4553SOL    HW214559   5.243   4.840   0.031
 4554SOL     OW14560   5.612   0.114   3.249
 4554SOL    HW114561   5.666   0.034   3.224
 4554SOL    HW214562   5.525   0.112   3.198
 4555SOL     OW14563   4.638   1.998   6.560
 4555SOL    HW114564   4.678   2.049   6.635
 4555SOL    HW214565   4.587   1.919   6.596
 4556SOL     OW14566   4.990   0.986   4.999
 4556SOL    HW114567   5.007   1.042   5.079
 4556SOL    HW214568   4.984   0.889   5.026
 4557SOL     OW14569   5.372   0.067   5.134
 4557SOL    HW114570   5.425   0.053   5.218
 4557SOL    HW214571   5.375   0.164   5.108
 4558SOL     OW14572   5.976   3.386   5.990
 4558SOL    HW114573   5.946   3.354   6.080
 4558SOL    HW214574   6.066   3.347   5.968
 4559SOL     OW14575   0.386   6.369   1.803
 4559SOL    HW114576   0.361   6.463   1.823
 4559SOL    HW214577   0.405   6.359   1.706
 4560SOL     OW14578   4.992   2.824   2.604
 4560SOL    HW114579   5.036   2.848   2.691
 4560SOL    HW214580   5.035   2.743   2.566
 4561SOL     OW14581   2.954   0.743   6.745
 4561SOL    HW114582   3.026   0.802   6.709
 4561SOL    HW214583   2.989   0.650   6.757
 4562SOL     OW14584   2.806   4.847   5.564
 4562SOL    HW114585   2.802   4.761   5.617
 4562SOL    HW214586   2.769   4.921   5.619
 4563SOL     OW14587   5.734   2.462   6.282
 4563SOL    HW114588   5.802   2.536   6.284
 4563SOL    HW214589   5.778   2.375   6.300
 4564SOL     OW14590   0.828   5.559   0.102
 4564SOL    HW114591   0.840   5.645   0.153
 4564SOL    HW214592   0.752   5.568   0.039
 4565SOL     OW14593   2.985   0.882   3.881
 4565SOL    HW114594   2.911   0.944   3.856
 4565SOL    HW214595   3.038   0.922   3.956
 4566SOL     OW14596   1.168   1.473   0.397
 4566SOL    HW114597   1.224   1.421   0.332
 4566SOL    HW214598   1.133   1.412   0.467
 4567SOL     OW14599   6.255   1.506   1.167
 4567SOL    HW114600   6.260   1.603   1.192
 4567SOL    HW214601   6.224   1.453   1.246
 4568SOL     OW14602   3.530   4.920   4.134
 4568SOL    HW114603   3.620   4.905   4.094
 4568SOL    HW214604   3.536   4.914   4.233
 4569SOL     OW14605   0.251   2.307   3.138
 4569SOL    HW114606   0.203   2.219   3.137
 4569SOL    HW214607   0.277   2.329   3.232
 4570SOL     OW14608   6.163   5.097   4.264
 4570SOL    HW114609   6.074   5.069   4.226
 4570SOL    HW214610   6.177   5.195   4.248
 4571SOL     OW14611   3.626   3.079   4.172
 4571SOL    HW114612   3.639   3.098   4.269
 4571SOL    HW214613   3.586   3.159   4.127
 4572SOL     OW14614   2.334   5.421   2.162
 4572SOL    HW114615   2.377   5.445   2.074
 4572SOL    HW214616   2.257   5.484   2.179
 4573SOL     OW14617   4.845   6.920   0.543
 4573SOL    HW114618   4.936   6.956   0.567
 4573SOL    HW214619   4.791   6.994   0.502
 4574SOL     OW14620   0.359   4.582   1.396
 4574SOL    HW114621   0.320   4.598   1.487
 4574SOL    HW214622   0.311   4.637   1.328
 4575SOL     OW14623   6.829   6.396   2.339
 4575SOL    HW114624   6.786   6.320   2.386
 4575SOL    HW214625   6.929   6.387   2.344
 4576SOL     OW14626   3.584   6.335   3.964
 4576SOL    HW114627   3.573   6.277   4.044
 4576SOL    HW214628   3.510   6.403   3.962
 4577SOL     OW14629   1.714   1.982   3.806
 4577SOL    HW114630   1.650   2.009   3.734
 4577SOL    HW214631   1.790   1.932   3.765
 4578SOL     OW14632   0.090   5.132   3.988
 4578SOL    HW114633   0.004   5.170   3.955
 4578SOL    HW214634   0.155   5.207   4.006
 4579SOL     OW14635   5.033   1.888   4.586
 4579SOL    HW114636   4.994   1.938   4.664
 4579SOL    HW214637   5.062   1.954   4.516
 4580SOL     OW14638   0.245   5.805   0.307
 4580SOL    HW114639   0.168   5.744   0.285
 4580SOL    HW214640   0.230   5.844   0.398
 4581SOL     OW14641   3.216   6.162   3.696
 4581SOL    HW114642   3.234   6.094   3.767
 4581SOL    HW214643   3.138   6.132   3.640
 4582SOL     OW14644   4.869   6.808   3.484
 4582SOL    HW114645   4.771   6.808   3.504
 4582SOL    HW214646   4.891   6.887   3.426
 4583SOL     OW14647   3.940   1.164   5.374
 4583SOL    HW114648   3.914   1.130   5.465
 4583SOL    HW214649   3.993   1.248   5.384
 4584SOL     OW14650   1.403   5.154   6.040
 4584SOL    HW114651   1.331   5.087   6.056
 4584SOL    HW214652   1.463   5.122   5.967
 4585SOL     OW14653   3.165   6.294   2.786
 4585SOL    HW114654   3.133   6.199   2.793
 4585SOL    HW214655   3.258   6.295   2.748
 4586SOL     OW14656   2.750   6.599   2.118
 4586SOL    HW114657   2.776   6.502   2.115
 4586SOL    HW214658   2.786   6.639   2.202
 4587SOL     OW14659   3.192   5.367   0.919
 4587SOL    HW114660   3.159   5.275   0.941
 4587SOL    HW214661   3.115   5.430   0.910
 4588SOL     OW14662   3.833   4.055   5.528
 4588SOL    HW114663   3.919   4.003   5.532
 4588SOL    HW214664   3.756   3.993   5.534
 4589SOL     OW14665   1.398   1.979   3.180
 4589SOL    HW114666   1.390   2.079   3.186
 4589SOL    HW214667   1.329   1.945   3.116
 4590SOL     OW14668   4.433   6.097   3.041
 4590SOL    HW114669   4.472   6.151   2.966
 4590SOL    HW214670   4.376   6.024   3.004
 4591SOL     OW14671   6.117   6.581   5.473
 4591SOL    HW114672   6.092   6.536   5.388
 4591SOL    HW214673   6.037   6.585   5.534
 4592SOL     OW14674   3.331   1.463   5.780
 4592SOL    HW114675   3.300   1.369   5.769
 4592SOL    HW214676   3.346   1.483   5.877
 4593SOL     OW14677   4.360   6.475   1.833
 4593SOL    HW114678   4.369   6.394   1.890
 4593SOL    HW214679   4.450   6.511   1.812
 4594SOL     OW14680   3.212   2.022   2.879
 4594SOL    HW114681   3.132   1.974   2.843
 4594SOL    HW214682   3.260   2.068   2.804
 4595SOL     OW14683   5.021   3.354   5.921
 4595SOL    HW114684   5.068   3.290   5.982
 4595SOL    HW214685   4.957   3.409   5.975
 4596SOL     OW14686   5.666   6.733   2.184
 4596SOL    HW114687   5.635   6.801   2.118
 4596SOL    HW214688   5.714   6.779   2.259
 4597SOL     OW14689   6.375   4.897   5.825
 4597SOL    HW114690   6.440   4.907   5.901
 4597SOL    HW214691   6.325   4.812   5.836
 4598SOL     OW14692   3.196   4.214   1.043
 4598SOL    HW114693   3.244   4.290   0.999
 4598SOL    HW214694   3.144   4.249   1.121
 4599SOL     OW14695   2.382   5.121   0.679
 4599SOL    HW114696   2.461   5.179   0.696
 4599SOL    HW214697   2.342   5.144   0.590
 4600SOL     OW14698   3.712   4.992   1.492
 4600SOL    HW114699   3.772   5.053   1.543
 4600SOL    HW214700   3.667   4.929   1.555
 4601SOL     OW14701   1.523   5.886   4.508
 4601SOL    HW114702   1.429   5.857   4.489
 4601SOL    HW214703   1.586   5.813   4.481
 4602SOL     OW14704   1.502   0.902   1.295
 4602SOL    HW114705   1.590   0.854   1.288
 4602SOL    HW214706   1.430   0.846   1.254
 4603SOL     OW14707   3.122   1.568   1.745
 4603SOL    HW114708   3.154   1.639   1.807
 4603SOL    HW214709   3.197   1.504   1.727
 4604SOL     OW14710   1.701   0.685   2.375
 4604SOL    HW114711   1.656   0.610   2.422
 4604SOL    HW214712   1.714   0.662   2.279
 4605SOL     OW14713   4.975   6.514   5.818
 4605SOL    HW114714   4.985   6.610   5.844
 4605SOL    HW214715   5.032   6.494   5.739
 4606SOL     OW14716   6.729   6.056   5.436
 4606SOL    HW114717   6.771   6.070   5.346
 4606SOL    HW214718   6.796   6.019   5.499
 4607SOL     OW14719   2.977   2.256   1.360
 4607SOL    HW114720   2.998   2.292   1.269
 4607SOL    HW214721   3.045   2.290   1.425
 4608SOL     OW14722   1.763   3.721   5.205
 4608SOL    HW114723   1.773   3.803   5.149
 4608SOL    HW214724   1.853   3.687   5.231
 4609SOL     OW14725   3.274   7.005   0.202
 4609SOL    HW114726   3.326   6.994   0.287
 4609SOL    HW214727   3.335   6.993   0.124
 4610SOL     OW14728   0.096   3.187   6.790
 4610SOL    HW114729   0.073   3.198   6.693
 4610SOL    HW214730   0.038   3.247   6.845
 4611SOL     OW14731   0.841   3.694   6.591
 4611SOL    HW114732   0.887   3.606   6.604
 4611SOL    HW214733   0.893   3.749   6.526
 4612SOL     OW14734   2.548   0.496   6.550
 4612SOL    HW114735   2.589   0.550   6.623
 4612SOL    HW214736   2.579   0.530   6.461
 4613SOL     OW14737   3.474   5.445   1.818
 4613SOL    HW114738   3.474   5.544   1.826
 4613SOL    HW214739   3.411   5.406   1.885
 4614SOL     OW14740   2.568   5.021   0.330
 4614SOL    HW114741   2.533   4.930   0.349
 4614SOL    HW214742   2.628   5.018   0.250
 4615SOL     OW14743   6.871   3.294   0.317
 4615SOL    HW114744   6.798   3.325   0.256
 4615SOL    HW214745   6.844   3.208   0.360
 4616SOL     OW14746   6.268   0.396   0.556
 4616SOL    HW114747   6.350   0.402   0.499
 4616SOL    HW214748   6.296   0.384   0.652
 4617SOL     OW14749   0.236   3.990   2.140
 4617SOL    HW114750   0.210   3.920   2.207
 4617SOL    HW214751   0.221   4.081   2.180
 4618SOL     OW14752   0.764   2.282   6.132
 4618SOL    HW114753   0.706   2.299   6.052
 4618SOL    HW214754   0.714   2.229   6.199
 4619SOL     OW14755   3.291   0.234   3.893
 4619SOL    HW114756   3.280   0.245   3.992
 4619SOL    HW214757   3.347   0.310   3.857
 4620SOL     OW14758   2.485   5.259   6.641
 4620SOL    HW114759   2.423   5.180   6.636
 4620SOL    HW214760   2.566   5.241   6.586
 4621SOL     OW14761   0.111   6.763   6.333
 4621SOL    HW114762   0.119   6.692   6.402
 4621SOL    HW214763   0.014   6.777   6.311
 4622SOL     OW14764   2.548   3.300   0.847
 4622SOL    HW114765   2.562   3.312   0.749
 4622SOL    HW214766   2.468   3.242   0.863
 4623SOL     OW14767   5.740   4.811   2.346
 4623SOL    HW114768   5.649   4.794   2.308
 4623SOL    HW214769   5.806   4.748   2.306
 4624SOL     OW14770   4.983   0.398   5.596
 4624SOL    HW114771   4.971   0.414   5.498
 4624SOL    HW214772   5.024   0.479   5.638
 4625SOL     OW14773   1.870   3.641   6.263
 4625SOL    HW114774   1.969   3.645   6.271
 4625SOL    HW214775   1.830   3.614   6.351
 4626SOL     OW14776   5.797   5.554   2.262
 4626SOL    HW114777   5.775   5.457   2.269
 4626SOL    HW214778   5.875   5.575   2.322
 4627SOL     OW14779   1.826   6.911   5.833
 4627SOL    HW114780   1.884   6.986   5.800
 4627SOL    HW214781   1.857   6.882   5.923
 4628SOL     OW14782   0.279   3.411   1.857
 4628SOL    HW114783   0.379   3.415   1.852
 4628SOL    HW214784   0.243   3.497   1.892
 4629SOL     OW14785   3.775   4.897   4.007
 4629SOL    HW114786   3.764   4.920   3.910
 4629SOL    HW214787   3.872   4.877   4.025
 4630SOL     OW14788   1.873   6.523   2.742
 4630SOL    HW114789   1.868   6.439   2.795
 4630SOL    HW214790   1.969   6.551   2.732
 4631SOL     OW14791   1.380   1.043   2.696
 4631SOL    HW114792   1.367   0.944   2.708
 4631SOL    HW214793   1.388   1.063   2.598
 4632SOL     OW14794   5.821   5.562   4.136
 4632SOL    HW114795   5.831   5.606   4.226
 4632SOL    HW214796   5.902   5.506   4.118
 4633SOL     OW14797   5.613   2.566   5.875
 4633SOL    HW114798   5.530   2.567   5.819
 4633SOL    HW214799   5.627   2.656   5.916
 4634SOL     OW14800   3.757   5.028   0.737
 4634SOL    HW114801   3.771   4.970   0.656
 4634SOL    HW214802   3.676   5.085   0.723
 4635SOL     OW14803   5.064   3.928   1.018
 4635SOL    HW114804   5.019   3.839   1.005
 4635SOL    HW214805   5.078   3.971   0.929
 4636SOL     OW14806   1.080   5.522   1.349
 4636SOL    HW114807   1.033   5.609   1.333
 4636SOL    HW214808   1.129   5.495   1.266
 4637SOL     OW14809   1.302   0.497   4.629
 4637SOL    HW114810   1.376   0.518   4.692
 4637SOL    HW214811   1.224   0.462   4.679
 4638SOL     OW14812   4.494   4.235   6.222
 4638SOL    HW114813   4.506   4.139   6.197
 4638SOL    HW214814   4.538   4.293   6.153
 4639SOL     OW14815   0.110   2.874   5.044
 4639SOL    HW114816   0.014   2.851   5.025
 4639SOL    HW214817   0.169   2.800   5.011
 4640SOL     OW14818   6.300   4.531   2.544
 4640SOL    HW114819   6.275   4.573   2.457
 4640SOL    HW214820   6.323   4.602   2.610
 4641SOL     OW14821   2.753   4.208   5.816
 4641SOL    HW114822   2.750   4.274   5.741
 4641SOL    HW214823   2.799   4.125   5.785
 4642SOL     OW14824   6.660   6.177   3.821
 4642SOL    HW114825   6.582   6.158   3.761
 4642SOL    HW214826   6.630   6.177   3.916
 4643SOL     OW14827   4.145   2.866   0.963
 4643SOL    HW114828   4.101   2.949   0.996
 4643SOL    HW214829   4.201   2.888   0.883
 4644SOL     OW14830   2.760   5.005   5.347
 4644SOL    HW114831   2.790   5.067   5.420
 4644SOL    HW214832   2.797   4.914   5.363
 4645SOL     OW14833   1.783   6.431   4.701
 4645SOL    HW114834   1.828   6.349   4.738
 4645SOL    HW214835   1.733   6.478   4.773
 4646SOL     OW14836   3.902   0.691   1.809
 4646SOL    HW114837   3.959   0.772   1.824
 4646SOL    HW214838   3.876   0.687   1.712
 4647SOL     OW14839   6.942   0.750   5.050
 4647SOL    HW114840   6.916   0.656   5.073
 4647SOL    HW214841   6.877   0.814   5.093
 4648SOL     OW14842   1.751   4.648   2.383
 4648SOL    HW114843   1.710   4.628   2.294
 4648SOL    HW214844   1.847   4.672   2.371
 4649SOL     OW14845   5.391   6.540   6.048
 4649SOL    HW114846   5.351   6.449   6.057
 4649SOL    HW214847   5.387   6.588   6.136
 4650SOL     OW14848   0.168   4.612   1.620
 4650SOL    HW114849   0.185   4.513   1.618
 4650SOL    HW214850   0.070   4.629   1.627
 4651SOL     OW14851   6.438   1.812   2.316
 4651SOL    HW114852   6.509   1.875   2.350
 4651SOL    HW214853   6.349   1.856   2.324
 4652SOL     OW14854   6.870   5.933   5.636
 4652SOL    HW114855   6.780   5.912   5.673
 4652SOL    HW214856   6.914   6.003   5.692
 4653SOL     OW14857   0.583   5.531   6.988
 4653SOL    HW114858   0.542   5.552   6.899
 4653SOL    HW214859   0.543   5.591   0.039
 4654SOL     OW14860   0.867   1.749   6.229
 4654SOL    HW114861   0.927   1.672   6.206
 4654SOL    HW214862   0.830   1.789   6.145
 4655SOL     OW14863   0.538   5.177   3.346
 4655SOL    HW114864   0.555   5.093   3.398
 4655SOL    HW214865   0.445   5.209   3.365
 4656SOL     OW14866   2.378   0.039   3.046
 4656SOL    HW114867   2.449   6.993   3.016
 4656SOL    HW214868   2.420   0.111   3.101
 4657SOL     OW14869   5.816   0.204   6.590
 4657SOL    HW114870   5.905   0.187   6.547
 4657SOL    HW214871   5.744   0.200   6.520
 4658SOL     OW14872   4.721   0.961   3.593
 4658SOL    HW114873   4.652   0.906   3.640
 4658SOL    HW214874   4.702   1.058   3.609
 4659SOL     OW14875   2.744   2.296   4.797
 4659SOL    HW114876   2.796   2.266   4.876
 4659SOL    HW214877   2.677   2.365   4.825
 4660SOL     OW14878   6.682   1.424   5.823
 4660SOL    HW114879   6.760   1.482   5.848
 4660SOL    HW214880   6.635   1.394   5.905
 4661SOL     OW14881   4.014   3.836   3.577
 4661SOL    HW114882   4.037   3.853   3.672
 4661SOL    HW214883   4.052   3.748   3.549
 4662SOL     OW14884   5.698   0.403   3.498
 4662SOL    HW114885   5.660   0.493   3.518
 4662SOL    HW214886   5.715   0.395   3.400
 4663SOL     OW14887   1.156   1.388   2.066
 4663SOL    HW114888   1.186   1.416   2.157
 4663SOL    HW214889   1.120   1.468   2.017
 4664SOL     OW14890   3.477   3.531   0.249
 4664SOL    HW114891   3.467   3.616   0.197
 4664SOL    HW214892   3.525   3.550   0.335
 4665SOL     OW14893   5.074   0.623   6.557
 4665SOL    HW114894   5.078   0.540   6.501
 4665SOL    HW214895   5.087   0.599   6.653
 4666SOL     OW14896   2.569   1.696   0.486
 4666SOL    HW114897   2.587   1.703   0.388
 4666SOL    HW214898   2.480   1.651   0.501
 4667SOL     OW14899   0.220   5.581   4.857
 4667SOL    HW114900   0.250   5.519   4.785
 4667SOL    HW214901   0.149   5.537   4.912
 4668SOL     OW14902   5.524   1.373   5.126
 4668SOL    HW114903   5.533   1.279   5.161
 4668SOL    HW214904   5.510   1.371   5.027
 4669SOL     OW14905   2.583   0.865   1.087
 4669SOL    HW114906   2.535   0.952   1.094
 4669SOL    HW214907   2.679   0.877   1.113
 4670SOL     OW14908   1.960   1.159   4.933
 4670SOL    HW114909   2.017   1.159   5.015
 4670SOL    HW214910   2.013   1.124   4.856
 4671SOL     OW14911   5.603   3.032   1.301
 4671SOL    HW114912   5.676   2.974   1.337
 4671SOL    HW214913   5.642   3.109   1.250
 4672SOL     OW14914   2.997   2.890   5.261
 4672SOL    HW114915   3.067   2.962   5.274
 4672SOL    HW214916   2.906   2.931   5.267
 4673SOL     OW14917   4.147   0.511   2.656
 4673SOL    HW114918   4.063   0.565   2.666
 4673SOL    HW214919   4.225   0.565   2.689
 4674SOL     OW14920   4.858   6.423   5.398
 4674SOL    HW114921   4.852   6.519   5.371
 4674SOL    HW214922   4.768   6.390   5.425
 4675SOL     OW14923   1.022   4.430   6.053
 4675SOL    HW114924   1.090   4.482   6.002
 4675SOL    HW214925   0.931   4.448   6.016
 4676SOL     OW14926   0.326   4.933   4.000
 4676SOL    HW114927   0.300   4.836   3.998
 4676SOL    HW214928   0.266   4.985   3.939
 4677SOL     OW14929   1.700   3.092   0.589
 4677SOL    HW114930   1.663   3.130   0.504
 4677SOL    HW214931   1.773   3.151   0.623
 4678SOL     OW14932   1.226   4.441   2.213
 4678SOL    HW114933   1.134   4.474   2.189
 4678SOL    HW214934   1.234   4.344   2.189
 4679SOL     OW14935   4.329   0.090   1.624
 4679SOL    HW114936   4.293   7.015   1.632
 4679SOL    HW214937   4.253   0.155   1.631
 4680SOL     OW14938   1.949   0.722   6.812
 4680SOL    HW114939   2.023   0.702   6.747
 4680SOL    HW214940   1.977   0.693   6.903
 4681SOL     OW14941   5.036   5.578   2.246
 4681SOL    HW114942   5.069   5.584   2.340
 4681SOL    HW214943   4.938   5.558   2.247
 4682SOL     OW14944   3.644   4.035   6.481
 4682SOL    HW114945   3.578   4.093   6.529
 4682SOL    HW214946   3.718   4.011   6.543
 4683SOL     OW14947   6.020   4.261   3.788
 4683SOL    HW114948   6.103   4.296   3.746
 4683SOL    HW214949   5.940   4.306   3.748
 4684SOL     OW14950   5.810   6.206   6.984
 4684SOL    HW114951   5.771   6.237   6.897
 4684SOL    HW214952   5.769   6.258   0.041
 4685SOL     OW14953   3.150   4.018   4.178
 4685SOL    HW114954   3.211   4.083   4.132
 4685SOL    HW214955   3.122   4.055   4.267
 4686SOL     OW14956   1.628   6.451   0.321
 4686SOL    HW114957   1.651   6.516   0.393
 4686SOL    HW214958   1.683   6.368   0.331
 4687SOL     OW14959   2.429   0.489   2.726
 4687SOL    HW114960   2.360   0.449   2.666
 4687SOL    HW214961   2.501   0.532   2.671
 4688SOL     OW14962   5.461   2.515   6.243
 4688SOL    HW114963   5.557   2.494   6.263
 4688SOL    HW214964   5.456   2.595   6.183
 4689SOL     OW14965   6.725   0.480   1.979
 4689SOL    HW114966   6.657   0.459   1.908
 4689SOL    HW214967   6.791   0.405   1.986
 4690SOL     OW14968   2.371   1.981   0.820
 4690SOL    HW114969   2.394   1.886   0.844
 4690SOL    HW214970   2.453   2.028   0.789
 4691SOL     OW14971   6.479   3.975   2.112
 4691SOL    HW114972   6.575   4.003   2.115
 4691SOL    HW214973   6.438   3.989   2.202
 4692SOL     OW14974   4.867   3.189   2.368
 4692SOL    HW114975   4.858   3.094   2.399
 4692SOL    HW214976   4.843   3.194   2.270
 4693SOL     OW14977   0.989   0.720   3.168
 4693SOL    HW114978   0.931   0.776   3.108
 4693SOL    HW214979   1.042   0.656   3.113
 4694SOL     OW14980   2.130   0.410   6.465
 4694SOL    HW114981   2.079   0.324   6.458
 4694SOL    HW214982   2.225   0.393   6.438
 4695SOL     OW14983   2.094   5.254   2.441
 4695SOL    HW114984   2.077   5.158   2.418
 4695SOL    HW214985   2.183   5.282   2.403
 4696SOL     OW14986   1.367   6.109   6.191
 4696SOL    HW114987   1.401   6.026   6.147
 4696SOL    HW214988   1.308   6.159   6.127
 4697SOL     OW14989   4.305   5.374   1.656
 4697SOL    HW114990   4.293   5.474   1.651
 4697SOL    HW214991   4.364   5.344   1.581
 4698SOL     OW14992   5.529   0.930   4.886
 4698SOL    HW114993   5.517   0.939   4.787
 4698SOL    HW214994   5.607   0.986   4.914
 4699SOL     OW14995   1.483   0.090   2.722
 4699SOL    HW114996   1.527   0.001   2.706
 4699SOL    HW214997   1.416   0.080   2.795
 4700SOL     OW14998   6.167   1.832   2.371
 4700SOL    HW114999   6.145   1.893   2.294
 4700SOL    HW215000   6.082   1.809   2.420
 4701SOL     OW15001   2.898   2.481   1.670
 4701SOL    HW115002   2.907   2.479   1.769
 4701SOL    HW215003   2.830   2.550   1.644
 4702SOL     OW15004   5.695   5.181   6.621
 4702SOL    HW115005   5.612   5.125   6.619
 4702SOL    HW215006   5.671   5.274   6.646
 4703SOL     OW15007   0.774   5.240   3.510
 4703SOL    HW115008   0.795   5.156   3.559
 4703SOL    HW215009   0.727   5.218   3.424
 4704SOL     OW15010   1.231   4.759   4.102
 4704SOL    HW115011   1.239   4.691   4.175
 4704SOL    HW215012   1.271   4.845   4.132
 4705SOL     OW15013   3.591   1.780   1.771
 4705SOL    HW115014   3.591   1.754   1.674
 4705SOL    HW215015   3.606   1.879   1.778
 4706SOL     OW15016   2.497   0.609   1.240
 4706SOL    HW115017   2.413   0.565   1.207
 4706SOL    HW215018   2.515   0.691   1.185
 4707SOL     OW15019   1.558   5.247   2.122
 4707SOL    HW115020   1.465   5.284   2.121
 4707SOL    HW215021   1.619   5.309   2.171
 4708SOL     OW15022   1.865   2.695   5.256
 4708SOL    HW115023   1.786   2.645   5.292
 4708SOL    HW215024   1.949   2.657   5.295
 4709SOL     OW15025   4.885   4.359   5.917
 4709SOL    HW115026   4.892   4.381   5.820
 4709SOL    HW215027   4.969   4.388   5.964
 4710SOL     OW15028   5.817   6.123   5.396
 4710SOL    HW115029   5.817   6.054   5.468
 4710SOL    HW215030   5.905   6.124   5.350
 4711SOL     OW15031   5.195   4.230   2.683
 4711SOL    HW115032   5.128   4.301   2.704
 4711SOL    HW215033   5.166   4.179   2.602
 4712SOL     OW15034   4.331   4.233   5.765
 4712SOL    HW115035   4.419   4.241   5.811
 4712SOL    HW215036   4.270   4.176   5.819
 4713SOL     OW15037   5.462   4.562   0.673
 4713SOL    HW115038   5.443   4.558   0.575
 4713SOL    HW215039   5.443   4.655   0.707
 4714SOL     OW15040   4.101   2.015   6.455
 4714SOL    HW115041   4.045   1.996   6.374
 4714SOL    HW215042   4.198   2.001   6.433
 4715SOL     OW15043   6.561   1.551   1.791
 4715SOL    HW115044   6.487   1.510   1.737
 4715SOL    HW215045   6.555   1.651   1.784
 4716SOL     OW15046   4.017   4.786   5.558
 4716SOL    HW115047   4.043   4.778   5.462
 4716SOL    HW215048   3.918   4.775   5.567
 4717SOL     OW15049   2.550   4.602   5.492
 4717SOL    HW115050   2.614   4.653   5.434
 4717SOL    HW215051   2.493   4.544   5.434
 4718SOL     OW15052   4.544   4.742   0.694
 4718SOL    HW115053   4.493   4.772   0.774
 4718SOL    HW215054   4.633   4.786   0.692
 4719SOL     OW15055   0.073   4.291   3.687
 4719SOL    HW115056   0.054   4.376   3.735
 4719SOL    HW215057   0.015   4.286   3.605
 4720SOL     OW15058   2.294   3.279   6.956
 4720SOL    HW115059   2.296   3.186   6.991
 4720SOL    HW215060   2.287   3.344   0.014
 4721SOL     OW15061   0.291   2.707   2.867
 4721SOL    HW115062   0.314   2.797   2.904
 4721SOL    HW215063   0.296   2.639   2.940
 4722SOL     OW15064   1.079   5.923   0.165
 4722SOL    HW115065   1.070   5.927   0.066
 4722SOL    HW215066   1.173   5.902   0.189
 4723SOL     OW15067   3.536   4.685   6.455
 4723SOL    HW115068   3.621   4.704   6.406
 4723SOL    HW215069   3.542   4.721   6.548
 4724SOL     OW15070   0.744   0.257   4.623
 4724SOL    HW115071   0.704   0.338   4.580
 4724SOL    HW215072   0.799   0.208   4.556
 4725SOL     OW15073   5.497   5.513   1.580
 4725SOL    HW115074   5.456   5.424   1.562
 4725SOL    HW215075   5.479   5.574   1.503
 4726SOL     OW15076   1.737   2.763   5.580
 4726SOL    HW115077   1.685   2.682   5.552
 4726SOL    HW215078   1.835   2.744   5.572
 4727SOL     OW15079   6.738   4.208   1.302
 4727SOL    HW115080   6.692   4.199   1.390
 4727SOL    HW215081   6.836   4.191   1.313
 4728SOL     OW15082   6.097   1.610   4.400
 4728SOL    HW115083   6.181   1.561   4.373
 4728SOL    HW215084   6.078   1.683   4.334
 4729SOL     OW15085   6.158   1.197   1.975
 4729SOL    HW115086   6.098   1.266   1.935
 4729SOL    HW215087   6.153   1.202   2.075
 4730SOL     OW15088   2.993   0.294   4.307
 4730SOL    HW115089   2.903   0.276   4.269
 4730SOL    HW215090   3.013   0.229   4.380
 4731SOL     OW15091   3.007   6.336   1.000
 4731SOL    HW115092   2.918   6.377   1.021
 4731SOL    HW215093   2.999   6.236   1.005
 4732SOL     OW15094   0.513   5.277   5.119
 4732SOL    HW115095   0.588   5.342   5.110
 4732SOL    HW215096   0.427   5.322   5.095
 4733SOL     OW15097   2.197   3.897   2.347
 4733SOL    HW115098   2.274   3.854   2.300
 4733SOL    HW215099   2.194   3.995   2.324
 4734SOL     OW15100   4.843   4.281   6.661
 4734SOL    HW115101   4.927   4.251   6.615
 4734SOL    HW215102   4.847   4.253   6.757
 4735SOL     OW15103   0.548   0.627   5.094
 4735SOL    HW115104   0.482   0.666   5.029
 4735SOL    HW215105   0.584   0.541   5.058
 4736SOL     OW15106   6.564   1.831   3.357
 4736SOL    HW115107   6.473   1.846   3.397
 4736SOL    HW215108   6.618   1.915   3.363
 4737SOL     OW15109   2.315   4.765   6.965
 4737SOL    HW115110   2.386   4.826   7.003
 4737SOL    HW215111   2.300   4.787   6.869
 4738SOL     OW15112   1.001   5.473   4.052
 4738SOL    HW115113   0.954   5.495   4.137
 4738SOL    HW215114   1.084   5.421   4.072
 4739SOL     OW15115   5.864   3.523   2.983
 4739SOL    HW115116   5.809   3.602   2.953
 4739SOL    HW215117   5.879   3.462   2.905
 4740SOL     OW15118   1.039   0.436   0.771
 4740SOL    HW115119   0.953   0.412   0.727
 4740SOL    HW215120   1.109   0.369   0.746
 4741SOL     OW15121   5.105   4.869   1.490
 4741SOL    HW115122   5.101   4.931   1.411
 4741SOL    HW215123   5.196   4.873   1.531
 4742SOL     OW15124   2.279   5.448   2.738
 4742SOL    HW115125   2.192   5.427   2.783
 4742SOL    HW215126   2.297   5.546   2.744
 4743SOL     OW15127   2.675   3.541   0.483
 4743SOL    HW115128   2.645   3.621   0.536
 4743SOL    HW215129   2.615   3.464   0.502
 4744SOL     OW15130   2.231   1.799   5.206
 4744SOL    HW115131   2.175   1.787   5.288
 4744SOL    HW215132   2.323   1.766   5.224
 4745SOL     OW15133   3.608   5.271   5.025
 4745SOL    HW115134   3.616   5.172   5.036
 4745SOL    HW215135   3.675   5.303   4.959
 4746SOL     OW15136   5.866   1.005   1.439
 4746SOL    HW115137   5.827   0.929   1.387
 4746SOL    HW215138   5.895   0.972   1.529
 4747SOL     OW15139   0.032   2.462   1.828
 4747SOL    HW115140   0.081   2.411   1.899
 4747SOL    HW215141   6.959   2.424   1.816
 4748SOL     OW15142   1.719   0.694   1.289
 4748SOL    HW115143   1.720   0.603   1.248
 4748SOL    HW215144   1.792   0.749   1.250
 4749SOL     OW15145   2.788   0.118   6.120
 4749SOL    HW115146   2.881   0.154   6.107
 4749SOL    HW215147   2.793   0.022   6.145
 4750SOL     OW15148   0.893   1.857   4.315
 4750SOL    HW115149   0.954   1.852   4.395
 4750SOL    HW215150   0.814   1.798   4.330
 4751SOL     OW15151   1.054   3.643   5.668
 4751SOL    HW115152   1.005   3.558   5.685
 4751SOL    HW215153   0.997   3.721   5.696
 4752SOL     OW15154   1.644   5.736   1.966
 4752SOL    HW115155   1.553   5.775   1.983
 4752SOL    HW215156   1.683   5.704   2.052
 4753SOL     OW15157   0.560   6.885   5.597
 4753SOL    HW115158   0.467   6.879   5.559
 4753SOL    HW215159   0.612   6.955   5.548
 4754SOL     OW15160   0.822   0.236   6.991
 4754SOL    HW115161   0.758   0.197   6.925
 4754SOL    HW215162   0.887   0.295   6.943
 4755SOL     OW15163   2.780   0.649   1.264
 4755SOL    HW115164   2.792   0.748   1.273
 4755SOL    HW215165   2.683   0.626   1.263
 4756SOL     OW15166   4.862   3.253   1.102
 4756SOL    HW115167   4.825   3.345   1.095
 4756SOL    HW215168   4.855   3.221   1.196
 4757SOL     OW15169   2.381   1.438   1.564
 4757SOL    HW115170   2.394   1.440   1.465
 4757SOL    HW215171   2.360   1.345   1.593
 4758SOL     OW15172   5.454   3.947   5.510
 4758SOL    HW115173   5.435   3.850   5.525
 4758SOL    HW215174   5.477   3.962   5.414
 4759SOL     OW15175   6.010   4.288   6.027
 4759SOL    HW115176   5.958   4.366   5.992
 4759SOL    HW215177   5.996   4.210   5.966
 4760SOL     OW15178   1.573   2.588   1.021
 4760SOL    HW115179   1.517   2.510   1.051
 4760SOL    HW215180   1.620   2.627   1.100
 4761SOL     OW15181   1.278   5.837   5.883
 4761SOL    HW115182   1.323   5.915   5.839
 4761SOL    HW215183   1.293   5.755   5.828
 4762SOL     OW15184   3.887   6.682   2.200
 4762SOL    HW115185   3.798   6.725   2.206
 4762SOL    HW215186   3.886   6.596   2.251
 4763SOL     OW15187   5.759   5.428   4.530
 4763SOL    HW115188   5.679   5.406   4.587
 4763SOL    HW215189   5.810   5.344   4.511
 4764SOL     OW15190   3.704   4.190   4.463
 4764SOL    HW115191   3.787   4.136   4.450
 4764SOL    HW215192   3.674   4.227   4.375
 4765SOL     OW15193   6.445   4.606   5.695
 4765SOL    HW115194   6.364   4.660   5.672
 4765SOL    HW215195   6.474   4.552   5.616
 4766SOL     OW15196   3.388   0.615   3.019
 4766SOL    HW115197   3.329   0.555   2.965
 4766SOL    HW215198   3.332   0.673   3.078
 4767SOL     OW15199   4.239   6.249   6.873
 4767SOL    HW115200   4.146   6.219   6.852
 4767SOL    HW215201   4.237   6.305   6.956
 4768SOL     OW15202   0.560   1.090   5.032
 4768SOL    HW115203   0.630   1.024   5.058
 4768SOL    HW215204   0.470   1.059   5.065
 4769SOL     OW15205   3.477   0.610   1.751
 4769SOL    HW115206   3.521   0.534   1.703
 4769SOL    HW215207   3.518   0.696   1.720
 4770SOL     OW15208   2.418   0.250   3.789
 4770SOL    HW115209   2.419   0.348   3.809
 4770SOL    HW215210   2.392   0.199   3.871
 4771SOL     OW15211   4.056   4.172   5.275
 4771SOL    HW115212   4.042   4.271   5.278
 4771SOL    HW215213   4.117   4.144   5.350
 4772SOL     OW15214   1.941   3.180   0.348
 4772SOL    HW115215   1.951   3.210   0.253
 4772SOL    HW215216   1.909   3.085   0.350
 4773SOL     OW15217   0.296   5.066   4.263
 4773SOL    HW115218   0.275   5.016   4.178
 4773SOL    HW215219   0.258   5.158   4.258
 4774SOL     OW15220   1.438   4.561   6.782
 4774SOL    HW115221   1.360   4.593   6.728
 4774SOL    HW215222   1.474   4.476   6.743
 4775SOL     OW15223   2.360   1.602   2.266
 4775SOL    HW115224   2.429   1.659   2.311
 4775SOL    HW215225   2.285   1.660   2.233
 4776SOL     OW15226   3.988   4.839   2.230
 4776SOL    HW115227   4.054   4.864   2.159
 4776SOL    HW215228   3.896   4.835   2.190
 4777SOL     OW15229   2.834   4.026   1.429
 4777SOL    HW115230   2.806   4.121   1.443
 4777SOL    HW215231   2.816   3.973   1.512
 4778SOL     OW15232   5.203   3.874   2.721
 4778SOL    HW115233   5.194   3.958   2.668
 4778SOL    HW215234   5.112   3.844   2.751
 4779SOL     OW15235   4.615   1.027   2.930
 4779SOL    HW115236   4.699   1.018   2.983
 4779SOL    HW215237   4.571   1.115   2.950
 4780SOL     OW15238   1.754   0.202   5.519
 4780SOL    HW115239   1.676   0.192   5.581
 4780SOL    HW215240   1.724   0.188   5.425
 4781SOL     OW15241   1.985   5.749   2.981
 4781SOL    HW115242   2.021   5.661   3.012
 4781SOL    HW215243   2.053   5.820   2.997
 4782SOL     OW15244   5.903   5.977   0.222
 4782SOL    HW115245   5.889   5.913   0.296
 4782SOL    HW215246   5.977   6.040   0.245
 4783SOL     OW15247   6.394   3.885   2.545
 4783SOL    HW115248   6.400   3.958   2.477
 4783SOL    HW215249   6.297   3.866   2.565
 4784SOL     OW15250   6.006   4.260   4.784
 4784SOL    HW115251   5.976   4.171   4.752
 4784SOL    HW215252   5.987   4.329   4.714
 4785SOL     OW15253   6.034   6.971   1.038
 4785SOL    HW115254   6.092   6.956   0.958
 4785SOL    HW215255   6.086   6.953   1.121
 4786SOL     OW15256   1.443   3.041   2.393
 4786SOL    HW115257   1.374   3.113   2.393
 4786SOL    HW215258   1.429   2.980   2.315
 4787SOL     OW15259   4.517   2.381   2.738
 4787SOL    HW115260   4.463   2.352   2.817
 4787SOL    HW215261   4.511   2.312   2.666
 4788SOL     OW15262   1.461   6.171   5.576
 4788SOL    HW115263   1.416   6.145   5.661
 4788SOL    HW215264   1.454   6.097   5.510
 4789SOL     OW15265   6.192   6.912   0.843
 4789SOL    HW115266   6.260   6.846   0.874
 4789SOL    HW215267   6.133   6.868   0.775
 4790SOL     OW15268   5.144   0.599   6.802
 4790SOL    HW115269   5.219   0.665   6.809
 4790SOL    HW215270   5.166   0.518   6.858
 4791SOL     OW15271   4.420   1.421   3.463
 4791SOL    HW115272   4.505   1.473   3.452
 4791SOL    HW215273   4.406   1.364   3.382
 4792SOL     OW15274   3.173   2.516   1.361
 4792SOL    HW115275   3.248   2.452   1.380
 4792SOL    HW215276   3.211   2.608   1.346
 4793SOL     OW15277   0.734   0.154   6.547
 4793SOL    HW115278   0.662   0.165   6.479
 4793SOL    HW215279   0.806   0.094   6.510
 4794SOL     OW15280   4.091   0.919   1.882
 4794SOL    HW115281   4.054   0.980   1.952
 4794SOL    HW215282   4.185   0.894   1.905
 4795SOL     OW15283   5.568   2.565   4.290
 4795SOL    HW115284   5.665   2.589   4.281
 4795SOL    HW215285   5.525   2.626   4.357
 4796SOL     OW15286   5.979   3.954   1.003
 4796SOL    HW115287   5.916   4.023   0.967
 4796SOL    HW215288   5.947   3.863   0.977
 4797SOL     OW15289   0.531   4.790   4.953
 4797SOL    HW115290   0.552   4.877   4.999
 4797SOL    HW215291   0.432   4.781   4.943
 4798SOL     OW15292   6.853   4.254   5.761
 4798SOL    HW115293   6.827   4.319   5.833
 4798SOL    HW215294   6.857   4.302   5.674
 4799SOL     OW15295   3.856   1.229   4.907
 4799SOL    HW115296   3.859   1.299   4.837
 4799SOL    HW215297   3.838   1.271   4.996
 4800SOL     OW15298   2.268   1.742   3.947
 4800SOL    HW115299   2.307   1.786   4.027
 4800SOL    HW215300   2.168   1.740   3.955
 4801SOL     OW15301   1.070   2.761   0.747
 4801SOL    HW115302   1.024   2.756   0.835
 4801SOL    HW215303   1.081   2.857   0.720
 4802SOL     OW15304   1.994   0.122   2.160
 4802SOL    HW115305   1.909   0.143   2.209
 4802SOL    HW215306   2.052   0.204   2.157
 4803SOL     OW15307   0.734   6.993   1.147
 4803SOL    HW115308   0.700   7.013   1.239
 4803SOL    HW215309   0.817   6.938   1.153
 4804SOL     OW15310   3.716   5.480   0.224
 4804SOL    HW115311   3.671   5.451   0.308
 4804SOL    HW215312   3.792   5.541   0.247
 4805SOL     OW15313   0.547   1.025   1.215
 4805SOL    HW115314   0.596   1.024   1.128
 4805SOL    HW215315   0.613   1.032   1.290
 4806SOL     OW15316   0.467   2.898   3.213
 4806SOL    HW115317   0.402   2.841   3.263
 4806SOL    HW215318   0.558   2.888   3.252
 4807SOL     OW15319   0.770   6.343   2.216
 4807SOL    HW115320   0.726   6.408   2.154
 4807SOL    HW215321   0.867   6.336   2.194
 4808SOL     OW15322   5.169   3.013   1.211
 4808SOL    HW115323   5.157   2.999   1.112
 4808SOL    HW215324   5.152   2.928   1.259
 4809SOL     OW15325   4.051   6.510   6.396
 4809SOL    HW115326   4.032   6.414   6.378
 4809SOL    HW215327   3.986   6.545   6.463
 4810SOL     OW15328   1.078   0.167   1.129
 4810SOL    HW115329   1.140   0.245   1.140
 4810SOL    HW215330   0.988   0.200   1.103
 4811SOL     OW15331   5.627   5.921   2.870
 4811SOL    HW115332   5.550   5.856   2.871
 4811SOL    HW215333   5.632   5.965   2.780
 4812SOL     OW15334   6.624   5.066   4.150
 4812SOL    HW115335   6.674   5.005   4.211
 4812SOL    HW215336   6.602   5.018   4.065
 4813SOL     OW15337   5.594   3.214   3.102
 4813SOL    HW115338   5.517   3.275   3.083
 4813SOL    HW215339   5.646   3.198   3.018
 4814SOL     OW15340   6.685   3.539   1.861
 4814SOL    HW115341   6.723   3.500   1.777
 4814SOL    HW215342   6.594   3.576   1.843
 4815SOL     OW15343   4.208   6.779   2.959
 4815SOL    HW115344   4.193   6.681   2.967
 4815SOL    HW215345   4.266   6.811   3.034
 4816SOL     OW15346   5.106   5.028   3.108
 4816SOL    HW115347   5.179   5.069   3.054
 4816SOL    HW215348   5.145   4.990   3.192
 4817SOL     OW15349   0.074   1.721   0.125
 4817SOL    HW115350   0.103   1.700   0.218
 4817SOL    HW215351   0.005   1.793   0.127
 4818SOL     OW15352   0.139   6.037   3.282
 4818SOL    HW115353   0.144   6.050   3.183
 4818SOL    HW215354   0.083   5.957   3.302
 4819SOL     OW15355   2.031   3.258   1.248
 4819SOL    HW115356   1.962   3.303   1.305
 4819SOL    HW215357   2.096   3.210   1.306
 4820SOL     OW15358   0.411   3.284   2.672
 4820SOL    HW115359   0.408   3.354   2.600
 4820SOL    HW215360   0.356   3.315   2.750
 4821SOL     OW15361   0.440   5.611   3.661
 4821SOL    HW115362   0.386   5.532   3.634
 4821SOL    HW215363   0.401   5.694   3.621
 4822SOL     OW15364   2.067   4.375   4.244
 4822SOL    HW115365   2.074   4.449   4.310
 4822SOL    HW215366   2.088   4.410   4.153
 4823SOL     OW15367   1.555   3.057   1.323
 4823SOL    HW115368   1.468   3.007   1.324
 4823SOL    HW215369   1.577   3.084   1.229
 4824SOL     OW15370   6.621   1.534   6.975
 4824SOL    HW115371   6.580   1.458   6.926
 4824SOL    HW215372   6.555   1.572   0.022
 4825SOL     OW15373   0.980   6.557   3.792
 4825SOL    HW115374   1.003   6.615   3.714
 4825SOL    HW215375   0.911   6.603   3.848
 4826SOL     OW15376   3.879   0.074   1.098
 4826SOL    HW115377   3.851   0.064   1.002
 4826SOL    HW215378   3.812   0.130   1.147
 4827SOL     OW15379   6.859   1.501   0.891
 4827SOL    HW115380   6.764   1.487   0.922
 4827SOL    HW215381   6.875   1.449   0.807
 4828SOL     OW15382   5.630   1.800   5.635
 4828SOL    HW115383   5.534   1.790   5.609
 4828SOL    HW215384   5.648   1.895   5.662
 4829SOL     OW15385   4.082   6.445   4.948
 4829SOL    HW115386   4.006   6.386   4.975
 4829SOL    HW215387   4.049   6.538   4.934
 4830SOL     OW15388   2.190   6.451   3.664
 4830SOL    HW115389   2.253   6.394   3.717
 4830SOL    HW215390   2.120   6.393   3.623
 4831SOL     OW15391   3.149   4.620   5.304
 4831SOL    HW115392   3.075   4.595   5.242
 4831SOL    HW215393   3.177   4.540   5.358
 4832SOL     OW15394   4.049   3.506   4.315
 4832SOL    HW115395   3.950   3.497   4.320
 4832SOL    HW215396   4.078   3.592   4.355
 4833SOL     OW15397   6.380   2.999   5.072
 4833SOL    HW115398   6.419   3.024   5.160
 4833SOL    HW215399   6.304   2.937   5.086
 4834SOL     OW15400   1.159   5.225   1.625
 4834SOL    HW115401   1.240   5.241   1.569
 4834SOL    HW215402   1.083   5.281   1.590
 4835SOL     OW15403   0.045   3.071   6.256
 4835SOL    HW115404   0.130   3.025   6.284
 4835SOL    HW215405   0.046   3.086   6.157
 4836SOL     OW15406   4.325   2.207   5.840
 4836SOL    HW115407   4.279   2.290   5.872
 4836SOL    HW215408   4.261   2.152   5.787
 4837SOL     OW15409   1.213   3.764   4.046
 4837SOL    HW115410   1.313   3.772   4.048
 4837SOL    HW215411   1.172   3.852   4.069
 4838SOL     OW15412   2.063   3.832   6.151
 4838SOL    HW115413   2.069   3.916   6.098
 4838SOL    HW215414   1.974   3.789   6.135
 4839SOL     OW15415   2.539   1.045   0.827
 4839SOL    HW115416   2.476   1.110   0.871
 4839SOL    HW215417   2.548   0.964   0.886
 4840SOL     OW15418   5.296   3.125   5.154
 4840SOL    HW115419   5.352   3.045   5.136
 4840SOL    HW215420   5.283   3.136   5.252
 4841SOL     OW15421   2.552   6.416   2.944
 4841SOL    HW115422   2.454   6.399   2.947
 4841SOL    HW215423   2.583   6.451   3.032
 4842SOL     OW15424   3.453   5.996   3.541
 4842SOL    HW115425   3.388   6.038   3.603
 4842SOL    HW215426   3.522   6.063   3.513
 4843SOL     OW15427   6.706   1.340   0.327
 4843SOL    HW115428   6.648   1.421   0.332
 4843SOL    HW215429   6.798   1.363   0.358
 4844SOL     OW15430   1.280   5.468   6.253
 4844SOL    HW115431   1.279   5.455   6.153
 4844SOL    HW215432   1.188   5.455   6.290
 4845SOL     OW15433   4.877   3.867   5.022
 4845SOL    HW115434   4.951   3.911   4.970
 4845SOL    HW215435   4.856   3.779   4.980
 4846SOL     OW15436   6.063   3.331   4.808
 4846SOL    HW115437   6.086   3.359   4.715
 4846SOL    HW215438   6.147   3.306   4.857
 4847SOL     OW15439   2.726   6.716   6.746
 4847SOL    HW115440   2.663   6.673   6.682
 4847SOL    HW215441   2.780   6.786   6.698
 4848SOL     OW15442   4.816   1.267   3.990
 4848SOL    HW115443   4.862   1.206   4.055
 4848SOL    HW215444   4.732   1.224   3.957
 4849SOL     OW15445   2.346   6.891   1.259
 4849SOL    HW115446   2.382   6.800   1.280
 4849SOL    HW215447   2.409   6.961   1.293
 4850SOL     OW15448   3.381   6.642   1.367
 4850SOL    HW115449   3.398   6.544   1.363
 4850SOL    HW215450   3.411   6.686   1.282
 4851SOL     OW15451   3.804   4.848   0.062
 4851SOL    HW115452   3.893   4.806   0.081
 4851SOL    HW215453   3.817   4.933   0.011
 4852SOL     OW15454   4.998   5.222   6.035
 4852SOL    HW115455   5.000   5.141   5.976
 4852SOL    HW215456   5.089   5.262   6.040
 4853SOL     OW15457   4.391   0.274   2.560
 4853SOL    HW115458   4.381   0.177   2.580
 4853SOL    HW215459   4.352   0.295   2.471
 4854SOL     OW15460   4.429   6.669   2.209
 4854SOL    HW115461   4.433   6.751   2.267
 4854SOL    HW215462   4.522   6.636   2.191
 4855SOL     OW15463   4.797   4.976   5.499
 4855SOL    HW115464   4.793   4.876   5.498
 4855SOL    HW215465   4.735   5.011   5.569
 4856SOL     OW15466   0.599   3.144   2.876
 4856SOL    HW115467   0.537   3.161   2.800
 4856SOL    HW215468   0.593   3.220   2.942
 4857SOL     OW15469   2.492   2.566   5.093
 4857SOL    HW115470   2.510   2.604   5.183
 4857SOL    HW215471   2.440   2.481   5.102
 4858SOL     OW15472   1.655   6.360   5.066
 4858SOL    HW115473   1.578   6.298   5.055
 4858SOL    HW215474   1.698   6.345   5.155
 4859SOL     OW15475   6.858   5.955   2.904
 4859SOL    HW115476   6.836   5.958   2.807
 4859SOL    HW215477   6.792   6.009   2.955
 4860SOL     OW15478   3.805   5.235   2.437
 4860SOL    HW115479   3.773   5.189   2.354
 4860SOL    HW215480   3.818   5.332   2.419
 4861SOL     OW15481   0.343   4.868   5.502
 4861SOL    HW115482   0.291   4.789   5.470
 4861SOL    HW215483   0.399   4.841   5.581
 4862SOL     OW15484   1.861   6.304   4.446
 4862SOL    HW115485   1.844   6.205   4.453
 4862SOL    HW215486   1.801   6.352   4.510
 4863SOL     OW15487   5.615   1.535   1.776
 4863SOL    HW115488   5.680   1.550   1.850
 4863SOL    HW215489   5.660   1.551   1.688
 4864SOL     OW15490   2.047   1.933   0.993
 4864SOL    HW115491   2.041   1.836   1.016
 4864SOL    HW215492   2.136   1.969   1.020
 4865SOL     OW15493   3.778   6.269   4.966
 4865SOL    HW115494   3.826   6.184   4.940
 4865SOL    HW215495   3.681   6.249   4.979
 4866SOL     OW15496   0.623   5.548   1.921
 4866SOL    HW115497   0.600   5.626   1.980
 4866SOL    HW215498   0.592   5.565   1.828
 4867SOL     OW15499   5.444   4.490   4.876
 4867SOL    HW115500   5.431   4.589   4.879
 4867SOL    HW215501   5.355   4.445   4.870
 4868SOL     OW15502   1.877   5.498   1.687
 4868SOL    HW115503   1.941   5.556   1.638
 4868SOL    HW215504   1.911   5.481   1.780
 4869SOL     OW15505   6.317   1.889   1.665
 4869SOL    HW115506   6.278   1.805   1.701
 4869SOL    HW215507   6.244   1.947   1.629
 4870SOL     OW15508   6.391   0.842   1.370
 4870SOL    HW115509   6.396   0.860   1.271
 4870SOL    HW215510   6.299   0.865   1.403
 4871SOL     OW15511   1.402   3.713   4.634
 4871SOL    HW115512   1.462   3.710   4.554
 4871SOL    HW215513   1.334   3.785   4.622
 4872SOL     OW15514   1.142   1.079   3.805
 4872SOL    HW115515   1.067   1.123   3.853
 4872SOL    HW215516   1.106   1.033   3.723
 4873SOL     OW15517   1.150   6.235   5.583
 4873SOL    HW115518   1.053   6.259   5.590
 4873SOL    HW215519   1.170   6.202   5.491
 4874SOL     OW15520   6.121   2.889   3.155
 4874SOL    HW115521   6.058   2.817   3.126
 4874SOL    HW215522   6.074   2.955   3.213
 4875SOL     OW15523   6.960   3.146   6.501
 4875SOL    HW115524   6.981   3.062   6.551
 4875SOL    HW215525   6.983   3.134   6.404
 4876SOL     OW15526   0.234   1.636   6.928
 4876SOL    HW115527   0.189   1.640   7.017
 4876SOL    HW215528   0.333   1.637   6.941
 4877SOL     OW15529   5.933   1.346   1.846
 4877SOL    HW115530   5.865   1.344   1.919
 4877SOL    HW215531   5.897   1.297   1.766
 4878SOL     OW15532   0.495   2.723   1.682
 4878SOL    HW115533   0.430   2.648   1.680
 4878SOL    HW215534   0.455   2.801   1.730
 4879SOL     OW15535   4.657   5.738   3.196
 4879SOL    HW115536   4.748   5.703   3.218
 4879SOL    HW215537   4.661   5.794   3.114
 4880SOL     OW15538   5.963   2.122   5.641
 4880SOL    HW115539   6.026   2.160   5.573
 4880SOL    HW215540   6.009   2.048   5.691
 4881SOL     OW15541   2.825   5.476   6.191
 4881SOL    HW115542   2.735   5.514   6.169
 4881SOL    HW215543   2.896   5.538   6.159
 4882SOL     OW15544   5.244   6.197   6.893
 4882SOL    HW115545   5.221   6.294   6.897
 4882SOL    HW215546   5.205   6.150   6.972
 4883SOL     OW15547   6.175   5.607   6.982
 4883SOL    HW115548   6.222   5.670   0.025
 4883SOL    HW215549   6.199   5.628   6.887
 4884SOL     OW15550   4.449   6.755   1.424
 4884SOL    HW115551   4.386   6.694   1.472
 4884SOL    HW215552   4.442   6.740   1.326
 4885SOL     OW15553   2.165   0.012   2.574
 4885SOL    HW115554   2.120   0.019   2.485
 4885SOL    HW215555   2.097   0.002   2.646
 4886SOL     OW15556   5.866   1.228   6.105
 4886SOL    HW115557   5.945   1.227   6.042
 4886SOL    HW215558   5.868   1.313   6.158
 4887SOL     OW15559   0.453   2.147   5.442
 4887SOL    HW115560   0.389   2.117   5.514
 4887SOL    HW215561   0.511   2.070   5.416
 4888SOL     OW15562   3.147   6.029   2.025
 4888SOL    HW115563   3.197   5.995   1.946
 4888SOL    HW215564   3.202   6.099   2.072
 4889SOL     OW15565   1.442   2.774   6.310
 4889SOL    HW115566   1.502   2.766   6.230
 4889SOL    HW215567   1.497   2.767   6.394
 4890SOL     OW15568   0.180   0.776   4.195
 4890SOL    HW115569   0.133   0.694   4.163
 4890SOL    HW215570   0.176   0.780   4.295
 4891SOL     OW15571   1.286   4.413   0.409
 4891SOL    HW115572   1.286   4.349   0.332
 4891SOL    HW215573   1.242   4.371   0.488
 4892SOL     OW15574   1.940   5.468   2.488
 4892SOL    HW115575   1.989   5.547   2.526
 4892SOL    HW215576   1.999   5.388   2.493
 4893SOL     OW15577   0.587   3.884   7.017
 4893SOL    HW115578   0.646   3.871   6.937
 4893SOL    HW215579   0.530   3.965   7.002
 4894SOL     OW15580   1.927   0.528   3.435
 4894SOL    HW115581   1.839   0.575   3.434
 4894SOL    HW215582   1.993   0.578   3.380
 4895SOL     OW15583   5.773   4.243   6.977
 4895SOL    HW115584   5.795   4.149   7.003
 4895SOL    HW215585   5.849   4.282   6.925
 4896SOL     OW15586   4.046   6.551   3.564
 4896SOL    HW115587   4.016   6.552   3.469
 4896SOL    HW215588   4.001   6.625   3.614
 4897SOL     OW15589   2.619   5.724   6.520
 4897SOL    HW115590   2.648   5.816   6.545
 4897SOL    HW215591   2.587   5.676   6.601
 4898SOL     OW15592   6.248   1.928   4.297
 4898SOL    HW115593   6.199   2.014   4.284
 4898SOL    HW215594   6.228   1.865   4.221
 4899SOL     OW15595   4.908   4.867   4.428
 4899SOL    HW115596   4.966   4.807   4.483
 4899SOL    HW215597   4.897   4.954   4.475
 4900SOL     OW15598   0.605   6.676   4.866
 4900SOL    HW115599   0.704   6.689   4.869
 4900SOL    HW215600   0.582   6.583   4.896
 4901SOL     OW15601   0.107   6.826   3.188
 4901SOL    HW115602   0.078   6.908   3.139
 4901SOL    HW215603   0.164   6.852   3.266
 4902SOL     OW15604   3.574   4.783   1.594
 4902SOL    HW115605   3.525   4.839   1.661
 4902SOL    HW215606   3.592   4.693   1.633
 4903SOL     OW15607   5.705   5.395   6.103
 4903SOL    HW115608   5.804   5.396   6.088
 4903SOL    HW215609   5.659   5.354   6.025
 4904SOL     OW15610   3.032   0.065   3.457
 4904SOL    HW115611   3.105   0.110   3.508
 4904SOL    HW215612   2.970   0.020   3.522
 4905SOL     OW15613   6.563   3.282   3.347
 4905SOL    HW115614   6.481   3.236   3.312
 4905SOL    HW215615   6.605   3.337   3.275
 4906SOL     OW15616   4.660   0.776   1.041
 4906SOL    HW115617   4.751   0.803   1.007
 4906SOL    HW215618   4.611   0.856   1.074
 4907SOL     OW15619   2.621   1.899   1.817
 4907SOL    HW115620   2.549   1.861   1.875
 4907SOL    HW215621   2.699   1.837   1.815
 4908SOL     OW15622   4.152   5.511   0.765
 4908SOL    HW115623   4.226   5.464   0.814
 4908SOL    HW215624   4.111   5.447   0.699
 4909SOL     OW15625   6.226   0.138   5.458
 4909SOL    HW115626   6.289   0.068   5.492
 4909SOL    HW215627   6.262   0.228   5.479
 4910SOL     OW15628   5.720   6.702   6.236
 4910SOL    HW115629   5.730   6.612   6.196
 4910SOL    HW215630   5.628   6.736   6.219
 4911SOL     OW15631   1.110   4.090   6.293
 4911SOL    HW115632   1.165   4.099   6.376
 4911SOL    HW215633   1.150   4.145   6.220
 4912SOL     OW15634   2.503   2.628   1.821
 4912SOL    HW115635   2.581   2.677   1.783
 4912SOL    HW215636   2.533   2.538   1.854
 4913SOL     OW15637   2.537   2.998   1.668
 4913SOL    HW115638   2.611   3.024   1.730
 4913SOL    HW215639   2.508   3.078   1.616
 4914SOL     OW15640   1.242   6.746   2.676
 4914SOL    HW115641   1.335   6.724   2.706
 4914SOL    HW215642   1.193   6.793   2.750
 4915SOL     OW15643   2.204   6.224   3.297
 4915SOL    HW115644   2.141   6.288   3.254
 4915SOL    HW215645   2.293   6.231   3.253
 4916SOL     OW15646   2.057   2.211   2.526
 4916SOL    HW115647   2.008   2.280   2.579
 4916SOL    HW215648   2.047   2.230   2.428
 4917SOL     OW15649   1.826   4.150   6.038
 4917SOL    HW115650   1.782   4.076   6.089
 4917SOL    HW215651   1.822   4.234   6.092
 4918SOL     OW15652   2.264   0.819   3.763
 4918SOL    HW115653   2.222   0.755   3.699
 4918SOL    HW215654   2.213   0.819   3.849
 4919SOL     OW15655   2.455   3.228   1.519
 4919SOL    HW115656   2.381   3.285   1.484
 4919SOL    HW215657   2.505   3.277   1.590
 4920SOL     OW15658   3.825   0.512   0.474
 4920SOL    HW115659   3.908   0.566   0.488
 4920SOL    HW215660   3.850   0.426   0.429
 4921SOL     OW15661   0.346   4.851   1.656
 4921SOL    HW115662   0.445   4.853   1.643
 4921SOL    HW215663   0.315   4.756   1.654
 4922SOL     OW15664   1.145   2.904   6.038
 4922SOL    HW115665   1.130   2.805   6.037
 4922SOL    HW215666   1.233   2.924   5.995
 4923SOL     OW15667   2.957   1.878   0.351
 4923SOL    HW115668   3.010   1.895   0.434
 4923SOL    HW215669   3.018   1.873   0.273
 4924SOL     OW15670   6.980   3.819   4.197
 4924SOL    HW115671   6.982   3.913   4.230
 4924SOL    HW215672   6.888   3.781   4.211
 4925SOL     OW15673   4.670   5.943   6.128
 4925SOL    HW115674   4.676   5.935   6.029
 4925SOL    HW215675   4.592   5.889   6.161
 4926SOL     OW15676   4.478   3.108   0.675
 4926SOL    HW115677   4.560   3.096   0.731
 4926SOL    HW215678   4.492   3.184   0.612
 4927SOL     OW15679   3.298   3.599   2.044
 4927SOL    HW115680   3.295   3.501   2.066
 4927SOL    HW215681   3.257   3.652   2.118
 4928SOL     OW15682   0.905   0.016   0.479
 4928SOL    HW115683   1.000   0.001   0.506
 4928SOL    HW215684   0.895   0.110   0.445
 4929SOL     OW15685   1.119   4.597   4.547
 4929SOL    HW115686   1.094   4.586   4.643
 4929SOL    HW215687   1.065   4.670   4.506
 4930SOL     OW15688   0.335   3.062   0.737
 4930SOL    HW115689   0.358   2.991   0.671
 4930SOL    HW215690   0.248   3.040   0.782
 4931SOL     OW15691   6.408   6.754   1.097
 4931SOL    HW115692   6.418   6.666   1.143
 4931SOL    HW215693   6.470   6.757   1.018
 4932SOL     OW15694   3.256   1.657   1.066
 4932SOL    HW115695   3.304   1.740   1.094
 4932SOL    HW215696   3.312   1.577   1.089
 4933SOL     OW15697   2.590   0.442   4.642
 4933SOL    HW115698   2.680   0.444   4.598
 4933SOL    HW215699   2.580   0.355   4.691
 4934SOL     OW15700   1.857   5.876   4.957
 4934SOL    HW115701   1.820   5.800   5.011
 4934SOL    HW215702   1.899   5.943   5.018
 4935SOL     OW15703   1.987   1.669   0.675
 4935SOL    HW115704   2.048   1.738   0.639
 4935SOL    HW215705   1.892   1.698   0.662
 4936SOL     OW15706   5.349   5.958   1.360
 4936SOL    HW115707   5.346   6.027   1.288
 4936SOL    HW215708   5.346   6.003   1.449
 4937SOL     OW15709   1.285   3.086   4.832
 4937SOL    HW115710   1.200   3.124   4.870
 4937SOL    HW215711   1.263   3.007   4.774
 4938SOL     OW15712   3.376   4.867   1.832
 4938SOL    HW115713   3.322   4.793   1.793
 4938SOL    HW215714   3.449   4.829   1.888
 4939SOL     OW15715   1.384   1.309   0.659
 4939SOL    HW115716   1.427   1.400   0.663
 4939SOL    HW215717   1.287   1.319   0.637
 4940SOL     OW15718   1.413   1.844   5.698
 4940SOL    HW115719   1.398   1.795   5.612
 4940SOL    HW215720   1.510   1.838   5.724
 4941SOL     OW15721   3.952   2.553   5.393
 4941SOL    HW115722   3.981   2.517   5.304
 4941SOL    HW215723   3.990   2.497   5.466
 4942SOL     OW15724   7.012   1.756   3.244
 4942SOL    HW115725   0.059   1.826   3.272
 4942SOL    HW215726   6.999   1.691   3.318
 4943SOL     OW15727   5.231   2.805   6.800
 4943SOL    HW115728   5.264   2.820   6.894
 4943SOL    HW215729   5.268   2.719   6.766
 4944SOL     OW15730   1.003   4.827   0.326
 4944SOL    HW115731   1.090   4.779   0.332
 4944SOL    HW215732   0.930   4.767   0.360
 4945SOL     OW15733   2.689   0.366   6.029
 4945SOL    HW115734   2.752   0.435   6.063
 4945SOL    HW215735   2.715   0.276   6.064
 4946SOL     OW15736   2.590   5.643   6.783
 4946SOL    HW115737   2.687   5.634   6.806
 4946SOL    HW215738   2.536   5.584   6.843
 4947SOL     OW15739   0.657   0.513   0.839
 4947SOL    HW115740   0.706   0.473   0.761
 4947SOL    HW215741   0.579   0.455   0.861
 4948SOL     OW15742   1.925   2.176   2.241
 4948SOL    HW115743   1.870   2.260   2.249
 4948SOL    HW215744   1.949   2.161   2.145
 4949SOL     OW15745   0.166   4.338   6.120
 4949SOL    HW115746   0.205   4.350   6.211
 4949SOL    HW215747   0.075   4.296   6.127
 4950SOL     OW15748   4.020   4.312   5.558
 4950SOL    HW115749   3.954   4.249   5.517
 4950SOL    HW215750   4.068   4.363   5.486
 4951SOL     OW15751   4.927   5.684   2.754
 4951SOL    HW115752   4.914   5.585   2.745
 4951SOL    HW215753   4.885   5.730   2.675
 4952SOL     OW15754   1.043   0.704   6.893
 4952SOL    HW115755   1.131   0.739   6.859
 4952SOL    HW215756   1.054   0.671   6.986
 4953SOL     OW15757   1.201   2.213   4.873
 4953SOL    HW115758   1.141   2.289   4.900
 4953SOL    HW215759   1.271   2.247   4.811
 4954SOL     OW15760   2.885   3.878   5.215
 4954SOL    HW115761   2.804   3.933   5.238
 4954SOL    HW215762   2.860   3.781   5.216
 4955SOL     OW15763   3.793   6.018   6.047
 4955SOL    HW115764   3.695   6.037   6.047
 4955SOL    HW215765   3.815   5.950   6.117
 4956SOL     OW15766   2.787   0.366   4.931
 4956SOL    HW115767   2.757   0.371   5.026
 4956SOL    HW215768   2.823   0.274   4.912
 4957SOL     OW15769   5.527   4.679   6.996
 4957SOL    HW115770   5.430   4.697   7.013
 4957SOL    HW215771   5.536   4.612   6.922
 4958SOL     OW15772   3.587   5.396   1.100
 4958SOL    HW115773   3.522   5.337   1.051
 4958SOL    HW215774   3.677   5.389   1.058
 4959SOL     OW15775   6.891   2.834   3.051
 4959SOL    HW115776   6.967   2.808   2.991
 4959SOL    HW215777   6.919   2.911   3.108
 4960SOL     OW15778   5.113   4.418   3.885
 4960SOL    HW115779   5.037   4.482   3.869
 4960SOL    HW215780   5.199   4.462   3.860
 4961SOL     OW15781   3.369   2.384   1.726
 4961SOL    HW115782   3.292   2.445   1.747
 4961SOL    HW215783   3.455   2.426   1.754
 4962SOL     OW15784   1.489   2.969   0.413
 4962SOL    HW115785   1.463   2.873   0.401
 4962SOL    HW215786   1.549   2.997   0.339
 4963SOL     OW15787   0.688   3.898   5.661
 4963SOL    HW115788   0.755   3.906   5.587
 4963SOL    HW215789   0.660   3.803   5.670
 4964SOL     OW15790   2.243   5.465   4.746
 4964SOL    HW115791   2.149   5.498   4.735
 4964SOL    HW215792   2.251   5.373   4.706
 4965SOL     OW15793   1.485   6.393   3.385
 4965SOL    HW115794   1.520   6.374   3.293
 4965SOL    HW215795   1.425   6.472   3.382
 4966SOL     OW15796   3.680   6.906   4.201
 4966SOL    HW115797   3.619   6.984   4.218
 4966SOL    HW215798   3.631   6.836   4.150
 4967SOL     OW15799   4.008   4.792   4.294
 4967SOL    HW115800   3.983   4.861   4.362
 4967SOL    HW215801   4.034   4.707   4.339
 4968SOL     OW15802   0.291   2.742   3.358
 4968SOL    HW115803   0.204   2.763   3.313
 4968SOL    HW215804   0.289   2.777   3.451
 4969SOL     OW15805   0.374   6.153   4.109
 4969SOL    HW115806   0.468   6.167   4.078
 4969SOL    HW215807   0.325   6.096   4.042
 4970SOL     OW15808   1.843   1.693   1.473
 4970SOL    HW115809   1.809   1.601   1.493
 4970SOL    HW215810   1.927   1.686   1.419
 4971SOL     OW15811   0.302   6.119   2.069
 4971SOL    HW115812   0.257   6.208   2.065
 4971SOL    HW215813   0.397   6.128   2.042
 4972SOL     OW15814   1.086   4.061   0.300
 4972SOL    HW115815   1.047   4.138   0.351
 4972SOL    HW215816   1.050   4.062   0.207
 4973SOL     OW15817   5.995   1.248   0.275
 4973SOL    HW115818   5.973   1.160   0.233
 4973SOL    HW215819   6.020   1.234   0.371
 4974SOL     OW15820   3.012   0.129   4.522
 4974SOL    HW115821   3.037   0.038   4.489
 4974SOL    HW215822   2.950   0.120   4.600
 4975SOL     OW15823   5.284   4.865   1.207
 4975SOL    HW115824   5.222   4.944   1.208
 4975SOL    HW215825   5.378   4.898   1.194
 4976SOL     OW15826   1.104   0.140   3.380
 4976SOL    HW115827   1.071   0.159   3.472
 4976SOL    HW215828   1.107   0.225   3.326
 4977SOL     OW15829   1.545   4.240   5.998
 4977SOL    HW115830   1.476   4.200   6.058
 4977SOL    HW215831   1.592   4.167   5.949
 4978SOL     OW15832   6.126   4.385   4.407
 4978SOL    HW115833   6.107   4.373   4.504
 4978SOL    HW215834   6.111   4.298   4.360
 4979SOL     OW15835   2.277   6.846   6.336
 4979SOL    HW115836   2.292   6.749   6.354
 4979SOL    HW215837   2.361   6.897   6.351
 4980SOL     OW15838   5.483   2.565   4.022
 4980SOL    HW115839   5.512   2.527   4.110
 4980SOL    HW215840   5.545   2.534   3.950
 4981SOL     OW15841   3.308   5.452   2.984
 4981SOL    HW115842   3.349   5.414   2.901
 4981SOL    HW215843   3.346   5.544   3.001
 4982SOL     OW15844   3.780   2.340   5.269
 4982SOL    HW115845   3.799   2.423   5.322
 4982SOL    HW215846   3.740   2.271   5.328
 4983SOL     OW15847   5.916   4.337   2.454
 4983SOL    HW115848   5.922   4.311   2.550
 4983SOL    HW215849   5.993   4.398   2.432
 4984SOL     OW15850   4.925   3.758   4.474
 4984SOL    HW115851   5.019   3.728   4.485
 4984SOL    HW215852   4.883   3.711   4.396
 4985SOL     OW15853   5.511   0.500   2.215
 4985SOL    HW115854   5.448   0.560   2.164
 4985SOL    HW215855   5.497   0.514   2.314
 4986SOL     OW15856   0.905   5.352   1.146
 4986SOL    HW115857   1.001   5.378   1.130
 4986SOL    HW215858   0.897   5.252   1.145
 4987SOL     OW15859   2.194   1.628   2.793
 4987SOL    HW115860   2.225   1.562   2.861
 4987SOL    HW215861   2.198   1.586   2.702
 4988SOL     OW15862   6.292   5.746   3.797
 4988SOL    HW115863   6.311   5.843   3.786
 4988SOL    HW215864   6.293   5.723   3.895
 4989SOL     OW15865   5.395   6.968   3.522
 4989SOL    HW115866   5.469   6.965   3.589
 4989SOL    HW215867   5.308   6.975   3.571
 4990SOL     OW15868   4.480   1.882   6.154
 4990SOL    HW115869   4.451   1.806   6.212
 4990SOL    HW215870   4.559   1.927   6.194
 4991SOL     OW15871   2.187   5.366   5.732
 4991SOL    HW115872   2.280   5.338   5.712
 4991SOL    HW215873   2.150   5.310   5.806
 4992SOL     OW15874   1.497   3.624   4.058
 4992SOL    HW115875   1.473   3.615   3.961
 4992SOL    HW215876   1.460   3.547   4.109
 4993SOL     OW15877   2.234   5.999   4.009
 4993SOL    HW115878   2.234   6.030   3.914
 4993SOL    HW215879   2.280   6.066   4.067
 4994SOL     OW15880   3.860   4.703   5.273
 4994SOL    HW115881   3.838   4.688   5.369
 4994SOL    HW215882   3.874   4.801   5.256
 4995SOL     OW15883   0.122   0.774   5.958
 4995SOL    HW115884   0.189   0.756   5.885
 4995SOL    HW215885   0.071   0.690   5.977
 4996SOL     OW15886   0.256   1.304   3.843
 4996SOL    HW115887   0.181   1.254   3.887
 4996SOL    HW215888   0.301   1.246   3.776
 4997SOL     OW15889   4.227   1.247   0.776
 4997SOL    HW115890   4.254   1.222   0.683
 4997SOL    HW215891   4.304   1.235   0.838
 4998SOL     OW15892   0.543   3.659   3.397
 4998SOL    HW115893   0.527   3.758   3.389
 4998SOL    HW215894   0.573   3.623   3.309
 4999SOL     OW15895   0.720   2.870   3.313
 4999SOL    HW115896   0.784   2.807   3.269
 4999SOL    HW215897   0.679   2.827   3.393
 5000SOL     OW15898   2.368   6.080   2.948
 5000SOL    HW115899   2.429   6.074   2.869
 5000SOL    HW215900   2.284   6.128   2.923
 5001SOL     OW15901   0.261   6.196   2.923
 5001SOL    HW115902   0.269   6.194   2.824
 5001SOL    HW215903   0.225   6.109   2.956
 5002SOL     OW15904   1.324   4.670   3.793
 5002SOL    HW115905   1.257   4.647   3.722
 5002SOL    HW215906   1.281   4.728   3.863
 5003SOL     OW15907   3.971   0.514   3.064
 5003SOL    HW115908   3.958   0.580   3.138
 5003SOL    HW215909   4.064   0.477   3.070
 5004SOL     OW15910   3.975   6.167   7.010
 5004SOL    HW115911   3.988   6.076   6.972
 5004SOL    HW215912   4.012   6.171   0.084
 5005SOL     OW15913   2.956   2.976   0.707
 5005SOL    HW115914   3.054   2.998   0.708
 5005SOL    HW215915   2.910   3.025   0.781
 5006SOL     OW15916   4.702   1.290   2.446
 5006SOL    HW115917   4.767   1.353   2.488
 5006SOL    HW215918   4.718   1.197   2.479
 5007SOL     OW15919   5.878   5.658   1.995
 5007SOL    HW115920   5.859   5.608   2.080
 5007SOL    HW215921   5.797   5.655   1.936
 5008SOL     OW15922   5.553   0.553   3.262
 5008SOL    HW115923   5.521   0.466   3.300
 5008SOL    HW215924   5.581   0.614   3.337
 5009SOL     OW15925   0.000   2.284   0.803
 5009SOL    HW115926   0.032   2.228   0.880
 5009SOL    HW215927   6.936   2.244   0.764
 5010SOL     OW15928   3.886   3.812   0.877
 5010SOL    HW115929   3.957   3.745   0.900
 5010SOL    HW215930   3.818   3.769   0.817
 5011SOL     OW15931   1.374   2.768   6.848
 5011SOL    HW115932   1.465   2.739   6.880
 5011SOL    HW215933   1.361   2.865   6.867
 5012SOL     OW15934   6.186   1.499   6.591
 5012SOL    HW115935   6.100   1.544   6.565
 5012SOL    HW215936   6.185   1.481   6.689
 5013SOL     OW15937   5.798   0.357   5.790
 5013SOL    HW115938   5.851   0.408   5.858
 5013SOL    HW215939   5.722   0.310   5.835
 5014SOL     OW15940   5.623   3.348   1.325
 5014SOL    HW115941   5.717   3.329   1.297
 5014SOL    HW215942   5.587   3.271   1.377
 5015SOL     OW15943   6.281   5.708   4.074
 5015SOL    HW115944   6.366   5.708   4.126
 5015SOL    HW215945   6.205   5.730   4.135
 5016SOL     OW15946   1.818   3.714   5.812
 5016SOL    HW115947   1.822   3.647   5.886
 5016SOL    HW215948   1.724   3.748   5.803
 5017SOL     OW15949   0.388   3.172   1.592
 5017SOL    HW115950   0.377   3.253   1.649
 5017SOL    HW215951   0.413   3.093   1.649
 5018SOL     OW15952   0.981   0.443   6.854
 5018SOL    HW115953   1.010   0.539   6.858
 5018SOL    HW215954   0.940   0.425   6.765
 5019SOL     OW15955   1.360   4.614   4.320
 5019SOL    HW115956   1.447   4.650   4.285
 5019SOL    HW215957   1.370   4.588   4.416
 5020SOL     OW15958   2.216   0.168   4.859
 5020SOL    HW115959   2.211   0.073   4.889
 5020SOL    HW215960   2.301   0.183   4.809
 5021SOL     OW15961   1.908   0.933   0.945
 5021SOL    HW115962   1.913   0.865   0.872
 5021SOL    HW215963   1.968   1.010   0.923
 5022SOL     OW15964   6.866   2.900   1.264
 5022SOL    HW115965   6.884   2.824   1.326
 5022SOL    HW215966   6.846   2.983   1.316
 5023SOL     OW15967   0.526   4.284   2.549
 5023SOL    HW115968   0.533   4.342   2.630
 5023SOL    HW215969   0.465   4.327   2.482
 5024SOL     OW15970   4.776   3.999   0.877
 5024SOL    HW115971   4.807   3.948   0.796
 5024SOL    HW215972   4.758   3.934   0.951
 5025SOL     OW15973   4.973   1.404   4.647
 5025SOL    HW115974   4.973   1.459   4.731
 5025SOL    HW215975   5.043   1.333   4.655
 5026SOL     OW15976   5.098   6.908   4.473
 5026SOL    HW115977   5.078   6.870   4.563
 5026SOL    HW215978   5.185   6.871   4.440
 5027SOL     OW15979   5.074   5.949   1.064
 5027SOL    HW115980   5.054   6.032   1.115
 5027SOL    HW215981   5.084   5.872   1.127
 5028SOL     OW15982   6.149   1.997   2.164
 5028SOL    HW115983   6.179   2.087   2.132
 5028SOL    HW215984   6.154   1.931   2.088
 5029SOL     OW15985   5.874   1.853   1.707
 5029SOL    HW115986   5.898   1.757   1.692
 5029SOL    HW215987   5.781   1.870   1.673
 5030SOL     OW15988   0.662   3.974   6.535
 5030SOL    HW115989   0.741   3.971   6.597
 5030SOL    HW215990   0.630   4.068   6.526
 5031SOL     OW15991   6.298   6.982   6.034
 5031SOL    HW115992   6.377   7.017   6.084
 5031SOL    HW215993   6.277   0.025   5.958
 5032SOL     OW15994   3.180   3.394   5.775
 5032SOL    HW115995   3.103   3.329   5.770
 5032SOL    HW215996   3.174   3.446   5.860
 5033SOL     OW15997   2.334   0.282   6.327
 5033SOL    HW115998   2.423   0.240   6.313
 5033SOL    HW215999   2.321   0.357   6.263
 5034SOL     OW16000   4.197   6.238   4.420
 5034SOL    HW116001   4.166   6.239   4.515
 5034SOL    HW216002   4.134   6.183   4.365
 5035SOL     OW16003   2.163   3.311   3.698
 5035SOL    HW116004   2.090   3.269   3.644
 5035SOL    HW216005   2.221   3.240   3.738
 5036SOL     OW16006   0.842   2.619   4.622
 5036SOL    HW116007   0.906   2.557   4.575
 5036SOL    HW216008   0.890   2.664   4.698
 5037SOL     OW16009   4.324   4.111   1.014
 5037SOL    HW116010   4.227   4.109   1.037
 5037SOL    HW216011   4.344   4.037   0.950
 5038SOL     OW16012   3.632   3.700   3.256
 5038SOL    HW116013   3.679   3.720   3.343
 5038SOL    HW216014   3.679   3.624   3.210
 5039SOL     OW16015   1.277   3.919   6.515
 5039SOL    HW116016   1.338   3.997   6.498
 5039SOL    HW216017   1.319   3.835   6.481
 5040SOL     OW16018   0.057   1.434   5.905
 5040SOL    HW116019   0.044   1.390   5.817
 5040SOL    HW216020   0.153   1.459   5.916
 5041SOL     OW16021   6.842   2.292   1.200
 5041SOL    HW116022   6.813   2.298   1.295
 5041SOL    HW216023   6.866   2.383   1.166
 5042SOL     OW16024   1.161   2.606   6.309
 5042SOL    HW116025   1.179   2.519   6.262
 5042SOL    HW216026   1.243   2.633   6.359
 5043SOL     OW16027   3.436   6.544   1.752
 5043SOL    HW116028   3.530   6.558   1.783
 5043SOL    HW216029   3.414   6.447   1.755
 5044SOL     OW16030   6.572   5.145   0.070
 5044SOL    HW116031   6.621   5.174   7.006
 5044SOL    HW216032   6.513   5.219   0.102
 5045SOL     OW16033   5.843   2.688   6.610
 5045SOL    HW116034   5.764   2.627   6.606
 5045SOL    HW216035   5.866   2.717   6.517
 5046SOL     OW16036   3.825   3.267   2.526
 5046SOL    HW116037   3.727   3.278   2.541
 5046SOL    HW216038   3.855   3.179   2.563
 5047SOL     OW16039   2.137   3.574   3.631
 5047SOL    HW116040   2.163   3.631   3.710
 5047SOL    HW216041   2.147   3.478   3.654
 5048SOL     OW16042   2.312   0.836   6.104
 5048SOL    HW116043   2.388   0.897   6.129
 5048SOL    HW216044   2.344   0.741   6.104
 5049SOL     OW16045   4.436   1.476   6.462
 5049SOL    HW116046   4.470   1.392   6.421
 5049SOL    HW216047   4.487   1.496   6.546
 5050SOL     OW16048   1.873   0.067   0.723
 5050SOL    HW116049   1.901   0.090   0.816
 5050SOL    HW216050   1.945   0.095   0.659
 5051SOL     OW16051   4.857   4.957   1.338
 5051SOL    HW116052   4.783   5.007   1.292
 5051SOL    HW216053   4.846   4.859   1.321
 5052SOL     OW16054   2.489   1.689   5.254
 5052SOL    HW116055   2.524   1.639   5.333
 5052SOL    HW216056   2.552   1.762   5.230
 5053SOL     OW16057   6.919   0.857   1.733
 5053SOL    HW116058   7.014   0.889   1.731
 5053SOL    HW216059   6.859   0.932   1.762
 5054SOL     OW16060   3.683   5.423   3.844
 5054SOL    HW116061   3.734   5.346   3.882
 5054SOL    HW216062   3.740   5.470   3.777
 5055SOL     OW16063   0.242   3.851   6.018
 5055SOL    HW116064   0.316   3.866   6.084
 5055SOL    HW216065   0.219   3.937   5.973
 5056SOL     OW16066   5.788   3.989   4.160
 5056SOL    HW116067   5.848   4.006   4.082
 5056SOL    HW216068   5.693   3.980   4.128
 5057SOL     OW16069   1.013   5.470   2.508
 5057SOL    HW116070   1.040   5.395   2.447
 5057SOL    HW216071   1.043   5.557   2.469
 5058SOL     OW16072   2.911   5.241   5.748
 5058SOL    HW116073   3.001   5.206   5.723
 5058SOL    HW216074   2.912   5.274   5.842
 5059SOL     OW16075   6.769   0.229   2.249
 5059SOL    HW116076   6.742   0.314   2.295
 5059SOL    HW216077   6.689   0.188   2.206
 5060SOL     OW16078   6.814   2.513   5.900
 5060SOL    HW116079   6.750   2.442   5.927
 5060SOL    HW216080   6.843   2.564   5.981
 5061SOL     OW16081   5.287   4.857   0.734
 5061SOL    HW116082   5.280   4.902   0.644
 5061SOL    HW216083   5.198   4.857   0.779
 5062SOL     OW16084   6.791   0.607   0.989
 5062SOL    HW116085   6.730   0.616   1.067
 5062SOL    HW216086   6.886   0.604   1.020
 5063SOL     OW16087   1.419   5.857   2.080
 5063SOL    HW116088   1.373   5.900   2.158
 5063SOL    HW216089   1.376   5.888   1.995
 5064SOL     OW16090   5.105   3.313   0.060
 5064SOL    HW116091   5.022   3.304   0.005
 5064SOL    HW216092   5.185   3.314   0.000
 5065SOL     OW16093   2.873   6.929   5.737
 5065SOL    HW116094   2.919   6.855   5.688
 5065SOL    HW216095   2.937   7.004   5.750
 5066SOL     OW16096   4.769   4.854   1.043
 5066SOL    HW116097   4.673   4.860   1.017
 5066SOL    HW216098   4.778   4.793   1.122
 5067SOL     OW16099   5.352   0.961   6.648
 5067SOL    HW116100   5.379   0.890   6.583
 5067SOL    HW216101   5.321   1.042   6.598
 5068SOL     OW16102   3.496   5.143   1.721
 5068SOL    HW116103   3.402   5.110   1.717
 5068SOL    HW216104   3.497   5.243   1.715
 5069SOL     OW16105   0.109   5.044   2.599
 5069SOL    HW116106   0.086   5.137   2.624
 5069SOL    HW216107   0.187   5.044   2.536
 5070SOL     OW16108   5.095   3.560   4.289
 5070SOL    HW116109   5.180   3.512   4.310
 5070SOL    HW216110   5.018   3.498   4.300
 5071SOL     OW16111   4.009   0.771   6.845
 5071SOL    HW116112   3.978   0.716   6.923
 5071SOL    HW216113   4.069   0.716   6.787
 5072SOL     OW16114   1.189   4.300   1.392
 5072SOL    HW116115   1.267   4.359   1.413
 5072SOL    HW216116   1.220   4.208   1.372
 5073SOL     OW16117   4.411   2.042   4.515
 5073SOL    HW116118   4.372   1.986   4.442
 5073SOL    HW216119   4.357   2.031   4.598
 5074SOL     OW16120   3.602   5.121   5.336
 5074SOL    HW116121   3.690   5.167   5.334
 5074SOL    HW216122   3.596   5.063   5.418
 5075SOL     OW16123   6.760   6.707   4.025
 5075SOL    HW116124   6.790   6.632   4.084
 5075SOL    HW216125   6.660   6.715   4.028
 5076SOL     OW16126   3.877   0.651   0.735
 5076SOL    HW116127   3.959   0.674   0.683
 5076SOL    HW216128   3.802   0.629   0.672
 5077SOL     OW16129   0.115   2.444   2.310
 5077SOL    HW116130   0.098   2.412   2.217
 5077SOL    HW216131   0.210   2.474   2.318
 5078SOL     OW16132   0.023   0.870   3.751
 5078SOL    HW116133   0.022   0.960   3.795
 5078SOL    HW216134   7.002   0.878   3.659
 5079SOL     OW16135   3.825   5.015   4.686
 5079SOL    HW116136   3.902   4.970   4.641
 5079SOL    HW216137   3.752   4.948   4.701
 5080SOL     OW16138   5.813   6.953   5.829
 5080SOL    HW116139   5.749   6.885   5.794
 5080SOL    HW216140   5.839   7.014   5.754
 5081SOL     OW16141   3.253   3.403   2.723
 5081SOL    HW116142   3.229   3.472   2.791
 5081SOL    HW216143   3.350   3.378   2.733
 5082SOL     OW16144   6.697   0.469   6.426
 5082SOL    HW116145   6.772   0.404   6.414
 5082SOL    HW216146   6.670   0.505   6.337
 5083SOL     OW16147   1.323   5.367   2.152
 5083SOL    HW116148   1.258   5.367   2.075
 5083SOL    HW216149   1.334   5.460   2.186
 5084SOL     OW16150   2.101   5.928   2.557
 5084SOL    HW116151   2.097   6.014   2.608
 5084SOL    HW216152   2.040   5.862   2.600
 5085SOL     OW16153   6.679   3.066   6.498
 5085SOL    HW116154   6.771   3.082   6.463
 5085SOL    HW216155   6.660   3.129   6.573
 5086SOL     OW16156   6.789   4.886   4.254
 5086SOL    HW116157   6.878   4.849   4.282
 5086SOL    HW216158   6.733   4.812   4.216
 5087SOL     OW16159   0.013   5.452   4.981
 5087SOL    HW116160   0.018   5.471   5.079
 5087SOL    HW216161   6.940   5.476   4.946
 5088SOL     OW16162   6.121   0.622   6.919
 5088SOL    HW116163   6.213   0.661   6.915
 5088SOL    HW216164   6.078   0.629   6.829
 5089SOL     OW16165   5.309   2.618   3.796
 5089SOL    HW116166   5.216   2.582   3.789
 5089SOL    HW216167   5.348   2.593   3.884
 5090SOL     OW16168   1.251   4.801   0.718
 5090SOL    HW116169   1.340   4.787   0.760
 5090SOL    HW216170   1.248   4.891   0.674
 5091SOL     OW16171   1.389   6.696   3.401
 5091SOL    HW116172   1.463   6.735   3.455
 5091SOL    HW216173   1.330   6.769   3.367
 5092SOL     OW16174   3.698   2.913   1.552
 5092SOL    HW116175   3.636   2.989   1.572
 5092SOL    HW216176   3.664   2.829   1.595
 5093SOL     OW16177   0.900   1.612   0.774
 5093SOL    HW116178   0.902   1.672   0.694
 5093SOL    HW216179   0.807   1.605   0.809
 5094SOL     OW16180   6.498   0.463   6.703
 5094SOL    HW116181   6.590   0.489   6.673
 5094SOL    HW216182   6.448   0.424   6.626
 5095SOL     OW16183   3.301   0.265   5.225
 5095SOL    HW116184   3.246   0.209   5.163
 5095SOL    HW216185   3.381   0.300   5.176
 5096SOL     OW16186   4.130   5.546   2.971
 5096SOL    HW116187   4.044   5.577   3.012
 5096SOL    HW216188   4.138   5.447   2.981
 5097SOL     OW16189   0.874   0.987   6.377
 5097SOL    HW116190   0.958   0.967   6.427
 5097SOL    HW216191   0.823   0.903   6.362
 5098SOL     OW16192   6.919   2.983   2.582
 5098SOL    HW116193   6.826   2.982   2.619
 5098SOL    HW216194   6.958   2.891   2.588
 5099SOL     OW16195   1.184   0.123   4.336
 5099SOL    HW116196   1.192   0.026   4.314
 5099SOL    HW216197   1.266   0.153   4.386
 5100SOL     OW16198   4.537   5.641   5.979
 5100SOL    HW116199   4.513   5.738   5.967
 5100SOL    HW216200   4.636   5.631   5.973
 5101SOL     OW16201   3.973   6.070   0.699
 5101SOL    HW116202   3.921   6.116   0.770
 5101SOL    HW216203   3.911   6.019   0.640
 5102SOL     OW16204   4.161   5.533   3.856
 5102SOL    HW116205   4.127   5.499   3.944
 5102SOL    HW216206   4.084   5.562   3.800
 5103SOL     OW16207   1.552   0.984   4.279
 5103SOL    HW116208   1.482   1.049   4.251
 5103SOL    HW216209   1.516   0.925   4.351
 5104SOL     OW16210   1.168   6.993   0.924
 5104SOL    HW116211   1.137   7.008   1.018
 5104SOL    HW216212   1.122   0.039   0.863
 5105SOL     OW16213   2.340   2.864   6.483
 5105SOL    HW116214   2.245   2.896   6.484
 5105SOL    HW216215   2.401   2.943   6.489
 5106SOL     OW16216   2.964   6.999   2.275
 5106SOL    HW116217   2.979   6.985   2.373
 5106SOL    HW216218   2.963   0.078   2.255
 5107SOL     OW16219   0.954   0.638   6.217
 5107SOL    HW116220   0.979   0.545   6.191
 5107SOL    HW216221   0.982   0.701   6.145
 5108SOL     OW16222   2.896   3.402   3.575
 5108SOL    HW116223   2.978   3.357   3.611
 5108SOL    HW216224   2.879   3.487   3.625
 5109SOL     OW16225   0.153   1.259   1.846
 5109SOL    HW116226   0.202   1.311   1.916
 5109SOL    HW216227   0.139   1.317   1.765
 5110SOL     OW16228   2.262   5.789   5.070
 5110SOL    HW116229   2.185   5.795   5.134
 5110SOL    HW216230   2.298   5.695   5.070
 5111SOL     OW16231   1.781   1.076   6.722
 5111SOL    HW116232   1.743   1.167   6.741
 5111SOL    HW216233   1.835   1.080   6.638
 5112SOL     OW16234   0.566   0.164   3.530
 5112SOL    HW116235   0.660   0.190   3.552
 5112SOL    HW216236   0.564   0.069   3.502
 5113SOL     OW16237   0.695   6.855   6.382
 5113SOL    HW116238   0.638   6.853   6.464
 5113SOL    HW216239   0.789   6.880   6.407
 5114SOL     OW16240   4.398   5.263   6.585
 5114SOL    HW116241   4.338   5.317   6.526
 5114SOL    HW216242   4.344   5.191   6.630
 5115SOL     OW16243   2.168   3.889   4.816
 5115SOL    HW116244   2.126   3.803   4.846
 5115SOL    HW216245   2.217   3.930   4.894
 5116SOL     OW16246   6.818   3.477   0.995
 5116SOL    HW116247   6.757   3.556   0.998
 5116SOL    HW216248   6.912   3.509   0.979
 5117SOL     OW16249   2.379   4.819   3.677
 5117SOL    HW116250   2.294   4.769   3.690
 5117SOL    HW216251   2.454   4.770   3.722
 5118SOL     OW16252   4.678   6.868   1.561
 5118SOL    HW116253   4.627   6.863   1.476
 5118SOL    HW216254   4.769   6.828   1.548
 5119SOL     OW16255   6.399   0.003   2.491
 5119SOL    HW116256   6.330   6.952   2.510
 5119SOL    HW216257   6.407   0.066   2.568
 5120SOL     OW16258   3.722   1.657   2.576
 5120SOL    HW116259   3.642   1.629   2.522
 5120SOL    HW216260   3.783   1.712   2.518
 5121SOL     OW16261   1.451   2.970   4.275
 5121SOL    HW116262   1.527   2.908   4.289
 5121SOL    HW216263   1.459   3.013   4.185
 5122SOL     OW16264   2.371   5.789   3.405
 5122SOL    HW116265   2.340   5.695   3.396
 5122SOL    HW216266   2.399   5.807   3.499
 5123SOL     OW16267   6.334   4.050   1.649
 5123SOL    HW116268   6.246   4.004   1.661
 5123SOL    HW216269   6.337   4.093   1.559
 5124SOL     OW16270   2.609   6.073   0.895
 5124SOL    HW116271   2.605   6.170   0.871
 5124SOL    HW216272   2.529   6.026   0.857
 5125SOL     OW16273   6.783   2.402   5.629
 5125SOL    HW116274   6.804   2.304   5.621
 5125SOL    HW216275   6.773   2.426   5.726
 5126SOL     OW16276   4.418   2.219   6.871
 5126SOL    HW116277   4.427   2.142   6.809
 5126SOL    HW216278   4.322   2.227   6.900
 5127SOL     OW16279   5.615   3.434   6.600
 5127SOL    HW116280   5.706   3.403   6.572
 5127SOL    HW216281   5.548   3.362   6.581
 5128SOL     OW16282   0.197   6.895   6.925
 5128SOL    HW116283   0.209   6.888   6.826
 5128SOL    HW216284   0.279   6.862   6.971
 5129SOL     OW16285   4.709   2.581   3.366
 5129SOL    HW116286   4.612   2.578   3.341
 5129SOL    HW216287   4.759   2.638   3.301
 5130SOL     OW16288   1.047   6.435   5.056
 5130SOL    HW116289   1.038   6.375   4.976
 5130SOL    HW216290   0.957   6.468   5.084
 5131SOL     OW16291   4.013   4.890   3.636
 5131SOL    HW116292   4.069   4.827   3.689
 5131SOL    HW216293   4.013   4.862   3.540
 5132SOL     OW16294   3.322   1.671   6.553
 5132SOL    HW116295   3.376   1.640   6.631
 5132SOL    HW216296   3.383   1.692   6.476
 5133SOL     OW16297   4.880   4.860   6.577
 5133SOL    HW116298   4.890   4.863   6.677
 5133SOL    HW216299   4.960   4.814   6.537
 5134SOL     OW16300   6.131   5.763   0.444
 5134SOL    HW116301   6.165   5.847   0.488
 5134SOL    HW216302   6.033   5.754   0.462
 5135SOL     OW16303   6.845   2.555   2.079
 5135SOL    HW116304   6.761   2.504   2.099
 5135SOL    HW216305   6.898   2.567   2.163
 5136SOL     OW16306   0.898   1.613   5.276
 5136SOL    HW116307   0.863   1.550   5.206
 5136SOL    HW216308   0.950   1.561   5.344
 5137SOL     OW16309   5.628   0.422   3.009
 5137SOL    HW116310   5.696   0.440   2.937
 5137SOL    HW216311   5.644   0.483   3.086
 5138SOL     OW16312   3.446   2.918   2.409
 5138SOL    HW116313   3.350   2.901   2.386
 5138SOL    HW216314   3.505   2.882   2.336
 5139SOL     OW16315   3.217   0.323   5.470
 5139SOL    HW116316   3.247   0.306   5.376
 5139SOL    HW216317   3.168   0.410   5.474
 5140SOL     OW16318   3.276   3.724   6.526
 5140SOL    HW116319   3.240   3.635   6.497
 5140SOL    HW216320   3.374   3.728   6.507
 5141SOL     OW16321   0.823   2.559   1.317
 5141SOL    HW116322   0.905   2.570   1.373
 5141SOL    HW216323   0.801   2.461   1.309
 5142SOL     OW16324   0.648   0.173   2.367
 5142SOL    HW116325   0.608   0.213   2.449
 5142SOL    HW216326   0.676   0.246   2.305
 5143SOL     OW16327   0.241   6.114   2.650
 5143SOL    HW116328   0.316   6.049   2.637
 5143SOL    HW216329   0.154   6.072   2.625
 5144SOL     OW16330   2.270   2.920   5.340
 5144SOL    HW116331   2.358   2.949   5.303
 5144SOL    HW216332   2.200   2.987   5.315
 5145SOL     OW16333   2.445   5.625   5.712
 5145SOL    HW116334   2.392   5.605   5.630
 5145SOL    HW216335   2.410   5.709   5.755
 5146SOL     OW16336   5.593   5.781   6.862
 5146SOL    HW116337   5.668   5.823   6.914
 5146SOL    HW216338   5.584   5.828   6.774
 5147SOL     OW16339   5.401   2.014   3.635
 5147SOL    HW116340   5.363   1.993   3.545
 5147SOL    HW216341   5.452   2.100   3.631
 5148SOL     OW16342   6.605   1.160   0.074
 5148SOL    HW116343   6.679   1.199   0.129
 5148SOL    HW216344   6.610   1.196   6.999
 5149SOL     OW16345   4.052   5.868   4.049
 5149SOL    HW116346   4.103   5.891   4.132
 5149SOL    HW216347   4.113   5.870   3.970
 5150SOL     OW16348   6.430   0.319   3.707
 5150SOL    HW116349   6.345   0.343   3.660
 5150SOL    HW216350   6.507   0.363   3.660
 5151SOL     OW16351   5.382   5.406   1.863
 5151SOL    HW116352   5.342   5.460   1.938
 5151SOL    HW216353   5.463   5.357   1.897
 5152SOL     OW16354   2.151   1.591   0.338
 5152SOL    HW116355   2.069   1.572   0.284
 5152SOL    HW216356   2.173   1.689   0.332
 5153SOL     OW16357   1.558   1.816   0.375
 5153SOL    HW116358   1.580   1.903   0.420
 5153SOL    HW216359   1.623   1.746   0.404
 5154SOL     OW16360   0.490   2.602   0.695
 5154SOL    HW116361   0.481   2.515   0.744
 5154SOL    HW216362   0.479   2.586   0.596
 5155SOL     OW16363   1.712   1.844   0.114
 5155SOL    HW116364   1.714   1.810   0.208
 5155SOL    HW216365   1.761   1.780   0.054
 5156SOL     OW16366   5.749   5.276   5.174
 5156SOL    HW116367   5.713   5.342   5.108
 5156SOL    HW216368   5.747   5.316   5.266
 5157SOL     OW16369   3.391   0.923   1.806
 5157SOL    HW116370   3.484   0.961   1.815
 5157SOL    HW216371   3.388   0.833   1.849
 5158SOL     OW16372   1.590   2.220   1.935
 5158SOL    HW116373   1.510   2.175   1.975
 5158SOL    HW216374   1.649   2.151   1.892
 5159SOL     OW16375   6.452   3.397   6.221
 5159SOL    HW116376   6.456   3.311   6.273
 5159SOL    HW216377   6.543   3.421   6.189
 5160SOL     OW16378   6.421   0.085   3.867
 5160SOL    HW116379   6.417   0.143   3.785
 5160SOL    HW216380   6.516   0.081   3.900
 5161SOL     OW16381   1.079   2.071   0.160
 5161SOL    HW116382   1.046   2.047   0.069
 5161SOL    HW216383   1.075   2.170   0.172
 5162SOL     OW16384   0.011   0.243   5.011
 5162SOL    HW116385   0.086   0.231   4.947
 5162SOL    HW216386   0.040   0.300   5.088
 5163SOL     OW16387   3.105   6.934   2.042
 5163SOL    HW116388   3.051   6.944   2.126
 5163SOL    HW216389   3.054   6.973   1.965
 5164SOL     OW16390   2.742   3.903   0.122
 5164SOL    HW116391   2.708   3.952   0.202
 5164SOL    HW216392   2.714   3.951   0.039
 5165SOL     OW16393   1.603   4.944   5.890
 5165SOL    HW116394   1.575   4.887   5.813
 5165SOL    HW216395   1.663   4.892   5.950
 5166SOL     OW16396   0.182   5.069   6.814
 5166SOL    HW116397   0.206   4.982   6.857
 5166SOL    HW216398   0.234   5.143   6.857
 5167SOL     OW16399   5.434   3.592   5.277
 5167SOL    HW116400   5.498   3.662   5.246
 5167SOL    HW216401   5.414   3.605   5.374
 5168SOL     OW16402   4.435   1.898   3.083
 5168SOL    HW116403   4.450   1.828   3.152
 5168SOL    HW216404   4.358   1.955   3.110
 5169SOL     OW16405   5.641   5.142   4.414
 5169SOL    HW116406   5.622   5.187   4.326
 5169SOL    HW216407   5.736   5.157   4.439
 5170SOL     OW16408   2.122   4.324   6.213
 5170SOL    HW116409   2.216   4.289   6.217
 5170SOL    HW216410   2.124   4.421   6.190
 5171SOL     OW16411   2.185   6.870   5.929
 5171SOL    HW116412   2.277   6.881   5.968
 5171SOL    HW216413   2.124   6.938   5.969
 5172SOL     OW16414   6.018   5.794   6.234
 5172SOL    HW116415   5.965   5.721   6.276
 5172SOL    HW216416   6.115   5.781   6.255
 5173SOL     OW16417   4.383   6.069   4.766
 5173SOL    HW116418   4.402   6.040   4.859
 5173SOL    HW216419   4.356   6.166   4.766
 5174SOL     OW16420   2.116   6.583   2.643
 5174SOL    HW116421   2.128   6.565   2.545
 5174SOL    HW216422   2.196   6.549   2.693
 5175SOL     OW16423   2.607   2.826   6.662
 5175SOL    HW116424   2.522   2.805   6.710
 5175SOL    HW216425   2.669   2.874   6.723
 5176SOL     OW16426   6.082   6.071   6.561
 5176SOL    HW116427   6.111   6.121   6.642
 5176SOL    HW216428   6.051   6.135   6.491
 5177SOL     OW16429   5.853   6.622   0.616
 5177SOL    HW116430   5.897   6.711   0.605
 5177SOL    HW216431   5.919   6.550   0.596
 5178SOL     OW16432   0.850   4.588   1.638
 5178SOL    HW116433   0.787   4.584   1.561
 5178SOL    HW216434   0.892   4.679   1.642
 5179SOL     OW16435   5.094   5.793   3.213
 5179SOL    HW116436   5.013   5.848   3.232
 5179SOL    HW216437   5.145   5.835   3.137
 5180SOL     OW16438   1.422   4.597   2.511
 5180SOL    HW116439   1.362   4.517   2.517
 5180SOL    HW216440   1.516   4.568   2.529
 5181SOL     OW16441   6.430   1.444   5.981
 5181SOL    HW116442   6.444   1.385   6.061
 5181SOL    HW216443   6.411   1.387   5.901
 5182SOL     OW16444   2.019   6.139   2.717
 5182SOL    HW116445   1.925   6.151   2.747
 5182SOL    HW216446   2.080   6.194   2.774
 5183SOL     OW16447   4.355   2.366   3.530
 5183SOL    HW116448   4.365   2.284   3.474
 5183SOL    HW216449   4.445   2.398   3.559
 5184SOL     OW16450   1.975   1.579   3.553
 5184SOL    HW116451   2.075   1.569   3.550
 5184SOL    HW216452   1.945   1.638   3.479
 5185SOL     OW16453   0.090   0.262   2.569
 5185SOL    HW116454   0.168   0.238   2.627
 5185SOL    HW216455   0.075   0.361   2.571
 5186SOL     OW16456   6.089   2.878   6.588
 5186SOL    HW116457   6.112   2.802   6.649
 5186SOL    HW216458   6.040   2.948   6.638
 5187SOL     OW16459   1.269   4.655   5.135
 5187SOL    HW116460   1.230   4.580   5.188
 5187SOL    HW216461   1.195   4.712   5.098
 5188SOL     OW16462   6.470   0.599   2.211
 5188SOL    HW116463   6.414   0.654   2.272
 5188SOL    HW216464   6.564   0.633   2.210
 5189SOL     OW16465   4.541   6.456   6.878
 5189SOL    HW116466   4.632   6.414   6.873
 5189SOL    HW216467   4.493   6.442   6.792
 5190SOL     OW16468   1.747   4.345   0.356
 5190SOL    HW116469   1.732   4.248   0.336
 5190SOL    HW216470   1.682   4.400   0.304
 5191SOL     OW16471   2.533   4.511   1.898
 5191SOL    HW116472   2.563   4.454   1.822
 5191SOL    HW216473   2.611   4.559   1.937
 5192SOL     OW16474   0.791   5.000   2.722
 5192SOL    HW116475   0.829   5.080   2.676
 5192SOL    HW216476   0.703   5.023   2.763
 5193SOL     OW16477   4.808   0.954   5.282
 5193SOL    HW116478   4.900   0.920   5.303
 5193SOL    HW216479   4.765   0.894   5.214
 5194SOL     OW16480   4.421   1.471   5.300
 5194SOL    HW116481   4.346   1.483   5.235
 5194SOL    HW216482   4.422   1.376   5.331
 5195SOL     OW16483   0.732   0.616   5.496
 5195SOL    HW116484   0.710   0.713   5.502
 5195SOL    HW216485   0.668   0.572   5.433
 5196SOL     OW16486   5.328   6.674   3.256
 5196SOL    HW116487   5.345   6.613   3.179
 5196SOL    HW216488   5.237   6.655   3.294
 5197SOL     OW16489   0.907   2.779   4.850
 5197SOL    HW116490   0.982   2.732   4.896
 5197SOL    HW216491   0.831   2.793   4.915
 5198SOL     OW16492   5.923   4.985   3.106
 5198SOL    HW116493   5.877   4.902   3.073
 5198SOL    HW216494   5.904   4.998   3.203
 5199SOL     OW16495   0.041   4.287   0.657
 5199SOL    HW116496   0.117   4.279   0.721
 5199SOL    HW216497   0.015   4.383   0.648
 5200SOL     OW16498   6.352   3.608   5.326
 5200SOL    HW116499   6.412   3.531   5.307
 5200SOL    HW216500   6.384   3.688   5.274
 5201SOL     OW16501   0.555   6.065   4.783
 5201SOL    HW116502   0.536   6.145   4.725
 5201SOL    HW216503   0.469   6.019   4.806
 5202SOL     OW16504   0.989   4.562   2.186
 5202SOL    HW116505   0.912   4.542   2.124
 5202SOL    HW216506   0.955   4.611   2.266
 5203SOL     OW16507   6.325   3.150   6.673
 5203SOL    HW116508   6.227   3.165   6.687
 5203SOL    HW216509   6.341   3.052   6.659
 5204SOL     OW16510   4.839   5.103   6.476
 5204SOL    HW116511   4.744   5.137   6.481
 5204SOL    HW216512   4.847   5.019   6.529
 5205SOL     OW16513   2.142   6.961   6.887
 5205SOL    HW116514   2.086   6.979   6.969
 5205SOL    HW216515   2.137   6.864   6.863
 5206SOL     OW16516   0.513   3.997   5.289
 5206SOL    HW116517   0.582   3.952   5.232
 5206SOL    HW216518   0.447   4.045   5.230
 5207SOL     OW16519   1.905   4.324   3.446
 5207SOL    HW116520   1.880   4.416   3.415
 5207SOL    HW216521   1.922   4.327   3.545
 5208SOL     OW16522   4.879   0.620   6.868
 5208SOL    HW116523   4.835   0.642   6.781
 5208SOL    HW216524   4.943   0.545   6.855
 5209SOL     OW16525   6.021   5.766   3.165
 5209SOL    HW116526   5.944   5.758   3.228
 5209SOL    HW216527   6.078   5.844   3.192
 5210SOL     OW16528   5.094   4.128   3.135
 5210SOL    HW116529   5.047   4.057   3.082
 5210SOL    HW216530   5.080   4.111   3.233
 5211SOL     OW16531   3.220   3.974   2.029
 5211SOL    HW116532   3.198   3.904   2.096
 5211SOL    HW216533   3.199   4.065   2.066
 5212SOL     OW16534   1.119   0.317   0.084
 5212SOL    HW116535   1.068   0.360   0.010
 5212SOL    HW216536   1.092   0.221   0.093
 5213SOL     OW16537   4.350   2.291   6.156
 5213SOL    HW116538   4.442   2.279   6.193
 5213SOL    HW216539   4.329   2.389   6.152
 5214SOL     OW16540   5.285   1.788   0.112
 5214SOL    HW116541   5.367   1.730   0.113
 5214SOL    HW216542   5.310   1.882   0.137
 5215SOL     OW16543   5.357   5.159   3.051
 5215SOL    HW116544   5.434   5.145   3.112
 5215SOL    HW216545   5.349   5.256   3.028
 5216SOL     OW16546   4.618   5.804   1.693
 5216SOL    HW116547   4.662   5.876   1.640
 5216SOL    HW216548   4.612   5.720   1.637
 5217SOL     OW16549   3.042   4.883   3.295
 5217SOL    HW116550   3.046   4.947   3.371
 5217SOL    HW216551   2.985   4.805   3.321
 5218SOL     OW16552   2.006   0.237   4.485
 5218SOL    HW116553   2.061   0.320   4.478
 5218SOL    HW216554   1.946   0.242   4.565
 5219SOL     OW16555   2.413   6.936   0.640
 5219SOL    HW116556   2.494   6.878   0.641
 5219SOL    HW216557   2.373   6.934   0.548
 5220SOL     OW16558   1.168   0.014   1.986
 5220SOL    HW116559   1.128   0.103   1.963
 5220SOL    HW216560   1.105   6.960   1.958
 5221SOL     OW16561   4.498   1.154   6.133
 5221SOL    HW116562   4.506   1.177   6.230
 5221SOL    HW216563   4.464   1.234   6.083
 5222SOL     OW16564   0.779   0.455   2.863
 5222SOL    HW116565   0.722   0.522   2.815
 5222SOL    HW216566   0.763   0.462   2.962
 5223SOL     OW16567   4.953   6.508   0.547
 5223SOL    HW116568   5.001   6.586   0.505
 5223SOL    HW216569   4.896   6.464   0.478
 5224SOL     OW16570   5.028   1.400   3.110
 5224SOL    HW116571   4.956   1.382   3.044
 5224SOL    HW216572   5.000   1.472   3.173
 5225SOL     OW16573   6.445   6.542   5.753
 5225SOL    HW116574   6.526   6.525   5.809
 5225SOL    HW216575   6.446   6.479   5.674
 5226SOL     OW16576   2.741   6.304   4.302
 5226SOL    HW116577   2.838   6.316   4.283
 5226SOL    HW216578   2.699   6.394   4.319
 5227SOL     OW16579   4.920   3.483   3.762
 5227SOL    HW116580   4.941   3.578   3.784
 5227SOL    HW216581   4.928   3.427   3.844
 5228SOL     OW16582   5.068   0.791   1.319
 5228SOL    HW116583   5.158   0.768   1.280
 5228SOL    HW216584   5.010   0.710   1.317
 5229SOL     OW16585   1.329   4.058   4.264
 5229SOL    HW116586   1.279   4.057   4.351
 5229SOL    HW216587   1.265   4.075   4.189
 5230SOL     OW16588   1.074   6.220   6.171
 5230SOL    HW116589   1.100   6.261   6.083
 5230SOL    HW216590   1.054   6.293   6.237
 5231SOL     OW16591   3.575   3.547   2.957
 5231SOL    HW116592   3.619   3.523   3.044
 5231SOL    HW216593   3.600   3.640   2.932
 5232SOL     OW16594   4.875   3.086   4.996
 5232SOL    HW116595   4.966   3.127   5.007
 5232SOL    HW216596   4.848   3.090   4.900
 5233SOL     OW16597   0.586   0.668   2.860
 5233SOL    HW116598   0.551   0.760   2.878
 5233SOL    HW216599   0.630   0.632   2.942
 5234SOL     OW16600   4.093   5.363   1.508
 5234SOL    HW116601   4.063   5.456   1.529
 5234SOL    HW216602   4.169   5.339   1.569
 5235SOL     OW16603   1.165   3.489   1.265
 5235SOL    HW116604   1.145   3.513   1.360
 5235SOL    HW216605   1.136   3.394   1.249
 5236SOL     OW16606   5.317   3.650   1.200
 5236SOL    HW116607   5.383   3.642   1.275
 5236SOL    HW216608   5.299   3.747   1.182
 5237SOL     OW16609   1.997   1.755   3.954
 5237SOL    HW116610   1.913   1.804   3.975
 5237SOL    HW216611   2.003   1.674   4.013
 5238SOL     OW16612   2.142   3.838   1.259
 5238SOL    HW116613   2.130   3.913   1.324
 5238SOL    HW216614   2.086   3.855   1.178
 5239SOL     OW16615   3.386   3.188   5.172
 5239SOL    HW116616   3.301   3.177   5.223
 5239SOL    HW216617   3.445   3.253   5.220
 5240SOL     OW16618   3.076   1.907   4.863
 5240SOL    HW116619   3.139   1.984   4.847
 5240SOL    HW216620   3.127   1.830   4.900
 5241SOL     OW16621   2.647   5.903   5.631
 5241SOL    HW116622   2.647   5.995   5.670
 5241SOL    HW216623   2.653   5.835   5.704
 5242SOL     OW16624   4.550   0.471   5.464
 5242SOL    HW116625   4.618   0.543   5.449
 5242SOL    HW216626   4.513   0.480   5.557
 5243SOL     OW16627   0.589   4.059   0.268
 5243SOL    HW116628   0.608   4.126   0.196
 5243SOL    HW216629   0.630   3.971   0.243
 5244SOL     OW16630   6.298   3.550   0.139
 5244SOL    HW116631   6.358   3.629   0.130
 5244SOL    HW216632   6.285   3.528   0.235
 5245SOL     OW16633   4.649   4.782   6.476
 5245SOL    HW116634   4.724   4.797   6.541
 5245SOL    HW216635   4.668   4.830   6.391
 5246SOL     OW16636   1.199   3.147   2.945
 5246SOL    HW116637   1.116   3.137   3.000
 5246SOL    HW216638   1.194   3.086   2.866
 5247SOL     OW16639   0.243   5.014   1.047
 5247SOL    HW116640   0.306   4.944   1.080
 5247SOL    HW216641   0.296   5.091   1.009
 5248SOL     OW16642   4.898   0.202   0.161
 5248SOL    HW116643   4.857   0.111   0.164
 5248SOL    HW216644   4.832   0.266   0.123
 5249SOL     OW16645   0.842   5.562   5.964
 5249SOL    HW116646   0.839   5.537   6.061
 5249SOL    HW216647   0.816   5.658   5.954
 5250SOL     OW16648   1.063   1.724   5.636
 5250SOL    HW116649   1.120   1.691   5.561
 5250SOL    HW216650   1.098   1.811   5.669
 5251SOL     OW16651   1.021   3.221   1.301
 5251SOL    HW116652   0.953   3.232   1.228
 5251SOL    HW216653   1.081   3.144   1.280
 5252SOL     OW16654   4.700   6.458   1.128
 5252SOL    HW116655   4.791   6.420   1.144
 5252SOL    HW216656   4.705   6.530   1.060
 5253SOL     OW16657   5.951   2.647   3.073
 5253SOL    HW116658   5.915   2.679   3.161
 5253SOL    HW216659   5.933   2.549   3.064
 5254SOL     OW16660   4.741   0.694   4.572
 5254SOL    HW116661   4.765   0.767   4.636
 5254SOL    HW216662   4.825   0.656   4.532
 5255SOL     OW16663   3.193   6.304   4.461
 5255SOL    HW116664   3.126   6.230   4.466
 5255SOL    HW216665   3.154   6.387   4.501
 5256SOL     OW16666   5.665   6.461   2.069
 5256SOL    HW116667   5.645   6.538   2.129
 5256SOL    HW216668   5.649   6.375   2.119
 5257SOL     OW16669   3.608   0.933   3.206
 5257SOL    HW116670   3.602   0.849   3.260
 5257SOL    HW216671   3.664   1.000   3.255
 5258SOL     OW16672   5.544   2.103   1.718
 5258SOL    HW116673   5.568   2.077   1.811
 5258SOL    HW216674   5.594   2.046   1.653
 5259SOL     OW16675   5.440   4.277   1.659
 5259SOL    HW116676   5.363   4.219   1.633
 5259SOL    HW216677   5.413   4.373   1.654
 5260SOL     OW16678   5.104   3.163   2.227
 5260SOL    HW116679   5.054   3.152   2.141
 5260SOL    HW216680   5.041   3.152   2.303
 5261SOL     OW16681   2.601   2.503   4.848
 5261SOL    HW116682   2.552   2.510   4.935
 5261SOL    HW216683   2.663   2.582   4.839
 5262SOL     OW16684   2.370   0.238   2.264
 5262SOL    HW116685   2.289   0.268   2.214
 5262SOL    HW216686   2.434   0.193   2.202
 5263SOL     OW16687   0.479   6.388   0.307
 5263SOL    HW116688   0.456   6.475   0.350
 5263SOL    HW216689   0.480   6.316   0.376
 5264SOL     OW16690   0.532   1.838   0.884
 5264SOL    HW116691   0.585   1.918   0.912
 5264SOL    HW216692   0.588   1.756   0.893
 5265SOL     OW16693   5.702   5.196   2.673
 5265SOL    HW116694   5.727   5.157   2.762
 5265SOL    HW216695   5.681   5.122   2.609
 5266SOL     OW16696   1.012   6.710   1.651
 5266SOL    HW116697   0.987   6.629   1.599
 5266SOL    HW216698   1.011   6.790   1.590
 5267SOL     OW16699   4.906   3.450   5.383
 5267SOL    HW116700   4.940   3.522   5.444
 5267SOL    HW216701   4.902   3.484   5.289
 5268SOL     OW16702   5.978   5.405   5.084
 5268SOL    HW116703   5.993   5.456   4.998
 5268SOL    HW216704   5.908   5.335   5.069
 5269SOL     OW16705   1.644   4.373   5.721
 5269SOL    HW116706   1.716   4.303   5.714
 5269SOL    HW216707   1.661   4.430   5.802
 5270SOL     OW16708   6.317   2.661   2.581
 5270SOL    HW116709   6.401   2.608   2.586
 5270SOL    HW216710   6.329   2.747   2.630
 5271SOL     OW16711   5.096   4.317   5.352
 5271SOL    HW116712   5.011   4.311   5.300
 5271SOL    HW216713   5.173   4.319   5.289
 5272SOL     OW16714   1.744   1.119   4.139
 5272SOL    HW116715   1.669   1.078   4.192
 5272SOL    HW216716   1.753   1.071   4.052
 5273SOL     OW16717   0.499   0.672   4.487
 5273SOL    HW116718   0.532   0.738   4.556
 5273SOL    HW216719   0.401   0.685   4.474
 5274SOL     OW16720   0.153   5.679   4.532
 5274SOL    HW116721   0.253   5.678   4.544
 5274SOL    HW216722   0.111   5.736   4.602
 5275SOL     OW16723   1.473   6.075   6.685
 5275SOL    HW116724   1.439   6.153   6.738
 5275SOL    HW216725   1.411   6.058   6.608
 5276SOL     OW16726   0.313   0.194   0.636
 5276SOL    HW116727   0.287   0.143   0.718
 5276SOL    HW216728   0.244   0.263   0.617
 5277SOL     OW16729   1.409   1.322   2.331
 5277SOL    HW116730   1.478   1.379   2.376
 5277SOL    HW216731   1.380   1.365   2.246
 5278SOL     OW16732   0.393   4.030   6.351
 5278SOL    HW116733   0.445   4.093   6.408
 5278SOL    HW216734   0.456   3.973   6.298
 5279SOL     OW16735   2.249   6.214   6.560
 5279SOL    HW116736   2.285   6.126   6.590
 5279SOL    HW216737   2.191   6.200   6.479
 5280SOL     OW16738   4.810   6.598   5.060
 5280SOL    HW116739   4.725   6.597   5.008
 5280SOL    HW216740   4.799   6.653   5.143
 5281SOL     OW16741   2.508   6.911   5.482
 5281SOL    HW116742   2.517   7.011   5.478
 5281SOL    HW216743   2.592   6.872   5.520
 5282SOL     OW16744   1.026   6.666   0.933
 5282SOL    HW116745   1.103   6.674   0.870
 5282SOL    HW216746   0.951   6.723   0.901
 5283SOL     OW16747   1.070   1.020   3.499
 5283SOL    HW116748   1.069   0.931   3.454
 5283SOL    HW216749   1.146   1.074   3.464
 5284SOL     OW16750   4.775   3.106   1.592
 5284SOL    HW116751   4.769   3.021   1.646
 5284SOL    HW216752   4.792   3.183   1.654
 5285SOL     OW16753   0.945   1.799   3.614
 5285SOL    HW116754   0.952   1.897   3.597
 5285SOL    HW216755   0.974   1.780   3.708
 5286SOL     OW16756   6.224   3.229   1.613
 5286SOL    HW116757   6.253   3.133   1.618
 5286SOL    HW216758   6.294   3.283   1.567
 5287SOL     OW16759   1.611   4.960   0.954
 5287SOL    HW116760   1.709   4.952   0.938
 5287SOL    HW216761   1.573   5.033   0.897
 5288SOL     OW16762   4.095   0.721   1.517
 5288SOL    HW116763   3.996   0.714   1.517
 5288SOL    HW216764   4.129   0.711   1.423
 5289SOL     OW16765   2.169   4.550   6.051
 5289SOL    HW116766   2.254   4.596   6.079
 5289SOL    HW216767   2.137   4.589   5.965
 5290SOL     OW16768   2.123   3.568   4.508
 5290SOL    HW116769   2.111   3.668   4.511
 5290SOL    HW216770   2.132   3.533   4.601
 5291SOL     OW16771   3.381   4.938   4.418
 5291SOL    HW116772   3.353   4.960   4.512
 5291SOL    HW216773   3.300   4.935   4.360
 5292SOL     OW16774   0.385   3.472   5.297
 5292SOL    HW116775   0.372   3.571   5.300
 5292SOL    HW216776   0.482   3.451   5.285
 5293SOL     OW16777   2.132   6.870   4.785
 5293SOL    HW116778   2.170   6.778   4.781
 5293SOL    HW216779   2.056   6.878   4.720
 5294SOL     OW16780   4.592   0.109   5.079
 5294SOL    HW116781   4.561   0.140   5.169
 5294SOL    HW216782   4.586   0.184   5.013
 5295SOL     OW16783   2.437   1.181   2.494
 5295SOL    HW116784   2.469   1.228   2.412
 5295SOL    HW216785   2.499   1.105   2.515
 5296SOL     OW16786   4.559   4.694   1.751
 5296SOL    HW116787   4.631   4.708   1.683
 5296SOL    HW216788   4.583   4.616   1.808
 5297SOL     OW16789   2.827   5.493   6.479
 5297SOL    HW116790   2.851   5.470   6.385
 5297SOL    HW216791   2.782   5.583   6.481
 5298SOL     OW16792   2.050   1.048   0.608
 5298SOL    HW116793   2.108   0.967   0.617
 5298SOL    HW216794   2.039   1.070   0.511
 5299SOL     OW16795   2.644   1.566   1.557
 5299SOL    HW116796   2.549   1.544   1.581
 5299SOL    HW216797   2.704   1.539   1.632
 5300SOL     OW16798   3.219   4.898   6.623
 5300SOL    HW116799   3.178   4.840   6.552
 5300SOL    HW216800   3.313   4.920   6.597
 5301SOL     OW16801   5.990   6.728   6.179
 5301SOL    HW116802   5.982   6.762   6.086
 5301SOL    HW216803   5.901   6.728   6.223
 5302SOL     OW16804   5.800   6.054   2.609
 5302SOL    HW116805   5.793   6.146   2.649
 5302SOL    HW216806   5.895   6.035   2.585
 5303SOL     OW16807   1.050   5.256   5.899
 5303SOL    HW116808   1.075   5.255   5.802
 5303SOL    HW216809   1.114   5.314   5.949
 5304SOL     OW16810   0.017   0.504   2.536
 5304SOL    HW116811   7.010   0.536   2.445
 5304SOL    HW216812   0.000   0.576   2.603
 5305SOL     OW16813   0.157   5.085   3.432
 5305SOL    HW116814   0.222   5.156   3.404
 5305SOL    HW216815   0.087   5.124   3.491
 5306SOL     OW16816   0.023   3.107   5.975
 5306SOL    HW116817   6.963   3.170   5.982
 5306SOL    HW216818   0.046   3.093   5.878
 5307SOL     OW16819   6.601   1.746   1.238
 5307SOL    HW116820   6.571   1.721   1.146
 5307SOL    HW216821   6.523   1.746   1.301
 5308SOL     OW16822   1.561   4.099   3.460
 5308SOL    HW116823   1.624   4.056   3.396
 5308SOL    HW216824   1.477   4.046   3.465
 5309SOL     OW16825   5.972   5.346   2.852
 5309SOL    HW116826   5.950   5.364   2.756
 5309SOL    HW216827   5.967   5.431   2.905
 5310SOL     OW16828   5.534   2.497   2.636
 5310SOL    HW116829   5.581   2.414   2.663
 5310SOL    HW216830   5.494   2.541   2.716
 5311SOL     OW16831   5.791   0.285   0.582
 5311SOL    HW116832   5.742   0.274   0.668
 5311SOL    HW216833   5.889   0.268   0.596
 5312SOL     OW16834   0.098   6.701   0.148
 5312SOL    HW116835   0.015   6.752   0.126
 5312SOL    HW216836   0.130   6.726   0.239
 5313SOL     OW16837   1.033   6.098   5.895
 5313SOL    HW116838   1.023   6.039   5.815
 5313SOL    HW216839   1.119   6.149   5.888
 5314SOL     OW16840   5.952   0.927   1.686
 5314SOL    HW116841   5.980   0.838   1.648
 5314SOL    HW216842   5.948   0.920   1.786
 5315SOL     OW16843   4.770   1.453   4.254
 5315SOL    HW116844   4.688   1.493   4.213
 5315SOL    HW216845   4.774   1.356   4.232
 5316SOL     OW16846   0.799   2.255   4.654
 5316SOL    HW116847   0.831   2.318   4.584
 5316SOL    HW216848   0.878   2.213   4.699
 5317SOL     OW16849   5.949   2.823   6.989
 5317SOL    HW116850   5.931   2.774   0.056
 5317SOL    HW216851   5.991   2.912   7.009
 5318SOL     OW16852   6.550   3.970   6.702
 5318SOL    HW116853   6.501   3.917   6.772
 5318SOL    HW216854   6.485   4.029   6.654
 5319SOL     OW16855   4.235   6.847   1.710
 5319SOL    HW116856   4.245   6.754   1.675
 5319SOL    HW216857   4.257   6.848   1.808
 5320SOL     OW16858   4.136   5.809   1.036
 5320SOL    HW116859   4.074   5.748   0.987
 5320SOL    HW216860   4.096   5.837   1.123
 5321SOL     OW16861   1.624   4.435   5.304
 5321SOL    HW116862   1.544   4.380   5.327
 5321SOL    HW216863   1.705   4.397   5.349
 5322SOL     OW16864   5.393   6.596   2.016
 5322SOL    HW116865   5.344   6.515   2.048
 5322SOL    HW216866   5.380   6.671   2.081
 5323SOL     OW16867   4.452   0.445   5.711
 5323SOL    HW116868   4.418   0.351   5.712
 5323SOL    HW216869   4.514   0.459   5.788
 5324SOL     OW16870   1.766   1.505   1.065
 5324SOL    HW116871   1.858   1.525   1.098
 5324SOL    HW216872   1.770   1.429   1.001
 5325SOL     OW16873   2.096   1.653   4.999
 5325SOL    HW116874   2.045   1.593   5.061
 5325SOL    HW216875   2.150   1.717   5.054
 5326SOL     OW16876   6.503   6.630   2.172
 5326SOL    HW116877   6.544   6.603   2.258
 5326SOL    HW216878   6.447   6.713   2.186
 5327SOL     OW16879   6.712   2.830   5.477
 5327SOL    HW116880   6.671   2.832   5.568
 5327SOL    HW216881   6.812   2.828   5.485
 5328SOL     OW16882   4.422   5.311   0.263
 5328SOL    HW116883   4.479   5.234   0.291
 5328SOL    HW216884   4.480   5.388   0.238
 5329SOL     OW16885   1.241   6.706   6.275
 5329SOL    HW116886   1.330   6.668   6.300
 5329SOL    HW216887   1.176   6.690   6.350
 5330SOL     OW16888   2.471   4.586   1.203
 5330SOL    HW116889   2.481   4.567   1.301
 5330SOL    HW216890   2.548   4.641   1.172
 5331SOL     OW16891   6.142   0.608   6.425
 5331SOL    HW116892   6.093   0.650   6.349
 5331SOL    HW216893   6.208   0.673   6.462
 5332SOL     OW16894   0.776   4.745   1.917
 5332SOL    HW116895   0.858   4.784   1.959
 5332SOL    HW216896   0.792   4.650   1.893
 5333SOL     OW16897   0.990   6.369   4.539
 5333SOL    HW116898   1.062   6.436   4.556
 5333SOL    HW216899   1.031   6.280   4.523
 5334SOL     OW16900   2.830   0.440   4.497
 5334SOL    HW116901   2.877   0.454   4.584
 5334SOL    HW216902   2.892   0.394   4.433
 5335SOL     OW16903   6.739   5.745   0.298
 5335SOL    HW116904   6.839   5.739   0.295
 5335SOL    HW216905   6.701   5.652   0.300
 5336SOL     OW16906   1.063   4.002   2.069
 5336SOL    HW116907   0.970   4.033   2.088
 5336SOL    HW216908   1.061   3.933   1.997
 5337SOL     OW16909   4.962   4.479   1.315
 5337SOL    HW116910   4.911   4.397   1.339
 5337SOL    HW216911   4.996   4.472   1.222
 5338SOL     OW16912   6.694   1.711   6.757
 5338SOL    HW116913   6.676   1.657   6.839
 5338SOL    HW216914   6.614   1.708   6.697
 5339SOL     OW16915   6.000   0.660   2.703
 5339SOL    HW116916   6.000   0.753   2.667
 5339SOL    HW216917   6.030   0.661   2.799
 5340SOL     OW16918   5.150   2.474   6.237
 5340SOL    HW116919   5.163   2.391   6.183
 5340SOL    HW216920   5.237   2.498   6.281
 5341SOL     OW16921   4.221   0.135   0.012
 5341SOL    HW116922   4.267   0.052   6.999
 5341SOL    HW216923   4.158   0.112   0.087
 5342SOL     OW16924   3.016   0.842   6.013
 5342SOL    HW116925   3.082   0.843   6.087
 5342SOL    HW216926   3.062   0.858   5.926
 5343SOL     OW16927   3.496   3.790   1.978
 5343SOL    HW116928   3.402   3.756   1.967
 5343SOL    HW216929   3.560   3.717   1.956
 5344SOL     OW16930   2.639   2.020   3.108
 5344SOL    HW116931   2.689   1.981   3.185
 5344SOL    HW216932   2.675   2.111   3.088
 5345SOL     OW16933   4.297   6.750   1.964
 5345SOL    HW116934   4.329   6.729   2.056
 5345SOL    HW216935   4.294   6.666   1.910
 5346SOL     OW16936   1.900   6.114   3.103
 5346SOL    HW116937   1.983   6.156   3.140
 5346SOL    HW216938   1.918   6.079   3.011
 5347SOL     OW16939   6.974   1.929   1.991
 5347SOL    HW116940   6.967   1.834   1.959
 5347SOL    HW216941   6.916   1.942   2.071
 5348SOL     OW16942   6.725   1.152   0.627
 5348SOL    HW116943   6.775   1.070   0.655
 5348SOL    HW216944   6.670   1.132   0.546
 5349SOL     OW16945   6.289   0.624   1.758
 5349SOL    HW116946   6.357   0.629   1.684
 5349SOL    HW216947   6.198   0.641   1.720
 5350SOL     OW16948   2.509   0.838   6.857
 5350SOL    HW116949   2.504   0.938   6.847
 5350SOL    HW216950   2.417   0.801   6.867
 5351SOL     OW16951   4.525   0.835   1.983
 5351SOL    HW116952   4.452   0.837   2.052
 5351SOL    HW216953   4.484   0.845   1.892
 5352SOL     OW16954   2.986   6.093   3.559
 5352SOL    HW116955   3.010   6.092   3.462
 5352SOL    HW216956   2.917   6.163   3.576
 5353SOL     OW16957   5.930   0.063   5.594
 5353SOL    HW116958   5.959   6.987   5.573
 5353SOL    HW216959   6.006   0.111   5.639
 5354SOL     OW16960   1.006   3.974   0.940
 5354SOL    HW116961   0.919   4.022   0.927
 5354SOL    HW216962   0.988   3.883   0.977
 5355SOL     OW16963   4.104   1.794   5.331
 5355SOL    HW116964   4.159   1.757   5.405
 5355SOL    HW216965   4.053   1.719   5.287
 5356SOL     OW16966   6.351   3.781   1.086
 5356SOL    HW116967   6.329   3.692   1.047
 5356SOL    HW216968   6.302   3.853   1.036
 5357SOL     OW16969   3.262   6.750   0.458
 5357SOL    HW116970   3.330   6.823   0.450
 5357SOL    HW216971   3.195   6.774   0.529
 5358SOL     OW16972   4.307   2.909   1.318
 5358SOL    HW116973   4.338   2.826   1.271
 5358SOL    HW216974   4.211   2.926   1.296
 5359SOL     OW16975   2.444   0.290   6.725
 5359SOL    HW116976   2.500   0.338   6.793
 5359SOL    HW216977   2.442   0.343   6.640
 5360SOL     OW16978   3.747   6.908   6.798
 5360SOL    HW116979   3.786   6.864   6.879
 5360SOL    HW216980   3.819   6.956   6.748
 5361SOL     OW16981   1.744   0.412   5.902
 5361SOL    HW116982   1.815   0.377   5.963
 5361SOL    HW216983   1.782   0.483   5.843
 5362SOL     OW16984   4.321   5.860   3.446
 5362SOL    HW116985   4.409   5.890   3.484
 5362SOL    HW216986   4.261   5.834   3.522
 5363SOL     OW16987   0.414   5.147   5.819
 5363SOL    HW116988   0.499   5.195   5.844
 5363SOL    HW216989   0.424   5.050   5.840
 5364SOL     OW16990   0.645   6.001   0.121
 5364SOL    HW116991   0.642   5.992   0.021
 5364SOL    HW216992   0.553   6.015   0.156
 5365SOL     OW16993   4.114   2.319   6.515
 5365SOL    HW116994   4.020   2.355   6.517
 5365SOL    HW216995   4.111   2.219   6.507
 5366SOL     OW16996   3.860   4.032   6.679
 5366SOL    HW116997   3.928   4.049   6.751
 5366SOL    HW216998   3.812   3.947   6.699
 5367SOL     OW16999   0.348   4.403   0.621
 5367SOL    HW117000   0.310   4.335   0.684
 5367SOL    HW217001   0.442   4.378   0.597
 5368SOL     OW17002   6.173   1.163   3.616
 5368SOL    HW117003   6.178   1.076   3.568
 5368SOL    HW217004   6.260   1.181   3.662
 5369SOL     OW17005   1.598   3.972   2.434
 5369SOL    HW117006   1.506   3.946   2.465
 5369SOL    HW217007   1.598   4.069   2.409
 5370SOL     OW17008   3.958   2.857   1.488
 5370SOL    HW117009   4.019   2.899   1.555
 5370SOL    HW217010   3.863   2.882   1.508
 5371SOL     OW17011   1.263   3.864   5.533
 5371SOL    HW117012   1.220   3.775   5.544
 5371SOL    HW217013   1.328   3.861   5.457
 5372SOL     OW17014   2.425   5.062   3.036
 5372SOL    HW117015   2.407   5.112   2.951
 5372SOL    HW217016   2.409   5.123   3.114
 5373SOL     OW17017   2.481   5.098   3.740
 5373SOL    HW117018   2.484   5.005   3.702
 5373SOL    HW217019   2.548   5.155   3.691
 5374SOL     OW17020   3.195   2.387   0.613
 5374SOL    HW117021   3.236   2.457   0.554
 5374SOL    HW217022   3.118   2.344   0.565
 5375SOL     OW17023   1.651   4.647   4.199
 5375SOL    HW117024   1.658   4.703   4.117
 5375SOL    HW217025   1.711   4.567   4.191
 5376SOL     OW17026   2.531   4.495   0.325
 5376SOL    HW117027   2.583   4.411   0.342
 5376SOL    HW217028   2.435   4.479   0.348
 5377SOL     OW17029   0.831   1.438   1.242
 5377SOL    HW117030   0.867   1.486   1.162
 5377SOL    HW217031   0.818   1.503   1.317
 5378SOL     OW17032   4.513   6.981   0.128
 5378SOL    HW117033   4.593   6.982   0.067
 5378SOL    HW217034   4.527   6.912   0.199
 5379SOL     OW17035   6.726   6.669   1.720
 5379SOL    HW117036   6.756   6.756   1.760
 5379SOL    HW217037   6.652   6.631   1.775
 5380SOL     OW17038   2.305   0.302   4.262
 5380SOL    HW117039   2.395   0.330   4.296
 5380SOL    HW217040   2.280   0.215   4.303
 5381SOL     OW17041   5.326   4.104   1.419
 5381SOL    HW117042   5.392   4.178   1.402
 5381SOL    HW217043   5.259   4.135   1.486
 5382SOL     OW17044   1.267   0.450   1.751
 5382SOL    HW117045   1.297   0.414   1.839
 5382SOL    HW217046   1.231   0.375   1.695
 5383SOL     OW17047   2.353   2.336   5.022
 5383SOL    HW117048   2.319   2.319   4.929
 5383SOL    HW217049   2.335   2.256   5.079
 5384SOL     OW17050   5.988   6.785   3.873
 5384SOL    HW117051   5.919   6.715   3.854
 5384SOL    HW217052   5.969   6.866   3.819
 5385SOL     OW17053   3.066   3.775   2.176
 5385SOL    HW117054   2.999   3.781   2.102
 5385SOL    HW217055   3.050   3.692   2.229
 5386SOL     OW17056   5.295   6.993   5.470
 5386SOL    HW117057   5.247   0.057   5.500
 5386SOL    HW217058   5.380   0.001   5.424
 5387SOL     OW17059   3.048   5.325   1.633
 5387SOL    HW117060   3.060   5.366   1.543
 5387SOL    HW217061   2.956   5.343   1.667
 5388SOL     OW17062   5.903   6.652   2.427
 5388SOL    HW117063   5.888   6.553   2.437
 5388SOL    HW217064   5.888   6.697   2.515
 5389SOL     OW17065   4.841   2.162   1.274
 5389SOL    HW117066   4.872   2.229   1.342
 5389SOL    HW217067   4.778   2.098   1.317
 5390SOL     OW17068   6.004   4.663   6.103
 5390SOL    HW117069   5.974   4.757   6.091
 5390SOL    HW217070   5.973   4.608   6.025
 5391SOL     OW17071   2.645   3.498   0.136
 5391SOL    HW117072   2.604   3.568   0.193
 5391SOL    HW217073   2.650   3.530   0.042
 5392SOL     OW17074   6.145   3.064   2.539
 5392SOL    HW117075   6.215   3.036   2.605
 5392SOL    HW217076   6.113   2.984   2.488
 5393SOL     OW17077   5.921   6.858   6.587
 5393SOL    HW117078   5.931   6.762   6.565
 5393SOL    HW217079   6.011   6.903   6.583
 5394SOL     OW17080   0.960   4.074   5.746
 5394SOL    HW117081   1.030   4.141   5.722
 5394SOL    HW217082   0.997   4.009   5.813
 5395SOL     OW17083   4.598   1.171   6.913
 5395SOL    HW117084   4.569   1.107   6.984
 5395SOL    HW217085   4.670   1.231   6.949
 5396SOL     OW17086   5.114   2.870   2.309
 5396SOL    HW117087   5.137   2.939   2.378
 5396SOL    HW217088   5.131   2.778   2.347
 5397SOL     OW17089   0.177   2.862   1.658
 5397SOL    HW117090   0.246   2.900   1.597
 5397SOL    HW217091   0.211   2.865   1.752
 5398SOL     OW17092   3.809   2.944   1.847
 5398SOL    HW117093   3.816   2.974   1.751
 5398SOL    HW217094   3.892   2.970   1.896
 5399SOL     OW17095   0.908   6.061   0.636
 5399SOL    HW117096   0.925   6.094   0.543
 5399SOL    HW217097   0.995   6.042   0.681
 5400SOL     OW17098   2.460   4.492   6.737
 5400SOL    HW117099   2.415   4.426   6.676
 5400SOL    HW217100   2.559   4.487   6.725
 5401SOL     OW17101   6.283   2.703   1.692
 5401SOL    HW117102   6.346   2.628   1.716
 5401SOL    HW217103   6.194   2.665   1.670
 5402SOL     OW17104   1.618   6.159   2.322
 5402SOL    HW117105   1.693   6.155   2.388
 5402SOL    HW217106   1.537   6.199   2.365
 5403SOL     OW17107   6.243   3.527   6.671
 5403SOL    HW117108   6.327   3.483   6.639
 5403SOL    HW217109   6.244   3.530   6.771
 5404SOL     OW17110   1.499   3.191   2.662
 5404SOL    HW117111   1.535   3.130   2.733
 5404SOL    HW217112   1.404   3.168   2.643
 5405SOL     OW17113   6.513   4.406   6.322
 5405SOL    HW117114   6.473   4.326   6.367
 5405SOL    HW217115   6.610   4.412   6.344
 5406SOL     OW17116   1.761   6.961   4.956
 5406SOL    HW117117   1.662   6.968   4.946
 5406SOL    HW217118   1.805   0.013   4.900
 5407SOL     OW17119   3.959   3.406   0.136
 5407SOL    HW117120   4.005   3.494   0.130
 5407SOL    HW217121   3.955   3.377   0.232
 5408SOL     OW17122   3.227   1.261   0.057
 5408SOL    HW117123   3.211   1.193   7.004
 5408SOL    HW217124   3.186   1.348   0.030
 5409SOL     OW17125   4.013   0.703   2.424
 5409SOL    HW117126   3.937   0.639   2.428
 5409SOL    HW217127   4.023   0.748   2.513
 5410SOL     OW17128   2.146   2.485   2.275
 5410SOL    HW117129   2.226   2.483   2.335
 5410SOL    HW217130   2.094   2.569   2.292
 5411SOL     OW17131   0.731   5.281   4.824
 5411SOL    HW117132   0.766   5.203   4.876
 5411SOL    HW217133   0.732   5.363   4.881
 5412SOL     OW17134   6.133   3.131   1.307
 5412SOL    HW117135   6.116   3.201   1.377
 5412SOL    HW217136   6.190   3.059   1.345
 5413SOL     OW17137   2.546   0.021   1.753
 5413SOL    HW117138   2.613   6.966   1.746
 5413SOL    HW217139   2.584   0.097   1.804
 5414SOL     OW17140   4.403   0.742   6.123
 5414SOL    HW117141   4.393   0.648   6.090
 5414SOL    HW217142   4.469   0.744   6.198
 5415SOL     OW17143   5.830   4.580   2.010
 5415SOL    HW117144   5.817   4.561   1.913
 5415SOL    HW217145   5.749   4.549   2.061
 5416SOL     OW17146   4.370   5.595   4.057
 5416SOL    HW117147   4.282   5.598   4.010
 5416SOL    HW217148   4.393   5.687   4.091
 5417SOL     OW17149   3.700   7.001   5.219
 5417SOL    HW117150   3.681   0.007   5.315
 5417SOL    HW217151   3.620   6.955   5.180
 5418SOL     OW17152   3.438   0.232   2.777
 5418SOL    HW117153   3.492   0.268   2.852
 5418SOL    HW217154   3.347   0.275   2.777
 5419SOL     OW17155   3.270   4.298   6.529
 5419SOL    HW117156   3.296   4.215   6.478
 5419SOL    HW217157   3.307   4.378   6.483
 5420SOL     OW17158   1.608   1.408   2.534
 5420SOL    HW117159   1.686   1.441   2.587
 5420SOL    HW217160   1.575   1.321   2.572
 5421SOL     OW17161   1.388   3.459   1.528
 5421SOL    HW117162   1.432   3.532   1.580
 5421SOL    HW217163   1.443   3.436   1.447
 5422SOL     OW17164   2.373   4.180   1.069
 5422SOL    HW117165   2.433   4.204   1.146
 5422SOL    HW217166   2.421   4.117   1.008
 5423SOL     OW17167   5.813   3.858   6.151
 5423SOL    HW117168   5.826   3.898   6.060
 5423SOL    HW217169   5.849   3.921   6.220
 5424SOL     OW17170   5.652   3.716   5.219
 5424SOL    HW117171   5.690   3.727   5.128
 5424SOL    HW217172   5.686   3.788   5.279
 5425SOL     OW17173   5.347   0.374   4.861
 5425SOL    HW117174   5.348   0.450   4.796
 5425SOL    HW217175   5.320   0.291   4.813
 5426SOL     OW17176   6.776   0.193   5.470
 5426SOL    HW117177   6.700   0.199   5.406
 5426SOL    HW217178   6.793   0.097   5.493
 5427SOL     OW17179   4.326   5.987   6.775
 5427SOL    HW117180   4.422   5.963   6.768
 5427SOL    HW217181   4.317   6.082   6.805
 5428SOL     OW17182   1.253   0.443   6.530
 5428SOL    HW117183   1.225   0.366   6.588
 5428SOL    HW217184   1.174   0.501   6.512
 5429SOL     OW17185   1.603   2.619   6.842
 5429SOL    HW117186   1.542   2.543   6.864
 5429SOL    HW217187   1.694   2.601   6.880
 5430SOL     OW17188   2.410   2.320   5.534
 5430SOL    HW117189   2.448   2.326   5.626
 5430SOL    HW217190   2.318   2.281   5.538
 5431SOL     OW17191   3.664   6.121   4.451
 5431SOL    HW117192   3.700   6.180   4.524
 5431SOL    HW217193   3.565   6.134   4.445
 5432SOL     OW17194   5.451   6.389   1.255
 5432SOL    HW117195   5.522   6.435   1.200
 5432SOL    HW217196   5.481   6.384   1.350
 5433SOL     OW17197   0.043   1.905   4.172
 5433SOL    HW117198   0.011   1.980   4.113
 5433SOL    HW217199   0.043   1.819   4.120
 5434SOL     OW17200   2.970   6.689   5.639
 5434SOL    HW117201   3.031   6.610   5.631
 5434SOL    HW217202   2.880   6.658   5.670
 5435SOL     OW17203   4.306   1.496   1.763
 5435SOL    HW117204   4.319   1.547   1.848
 5435SOL    HW217205   4.389   1.500   1.708
 5436SOL     OW17206   5.631   3.899   2.404
 5436SOL    HW117207   5.536   3.872   2.420
 5436SOL    HW217208   5.650   3.896   2.306
 5437SOL     OW17209   3.045   3.835   6.505
 5437SOL    HW117210   3.132   3.787   6.508
 5437SOL    HW217211   3.042   3.893   6.423
 5438SOL     OW17212   6.360   1.711   1.374
 5438SOL    HW117213   6.351   1.664   1.462
 5438SOL    HW217214   6.276   1.762   1.355
 5439SOL     OW17215   1.342   2.246   1.338
 5439SOL    HW117216   1.311   2.332   1.379
 5439SOL    HW217217   1.368   2.182   1.410
 5440SOL     OW17218   1.673   2.000   0.820
 5440SOL    HW117219   1.595   2.056   0.848
 5440SOL    HW217220   1.659   1.905   0.849
 5441SOL     OW17221   4.271   1.563   4.113
 5441SOL    HW117222   4.220   1.648   4.124
 5441SOL    HW217223   4.259   1.506   4.194
 5442SOL     OW17224   3.860   0.478   2.655
 5442SOL    HW117225   3.884   0.433   2.741
 5442SOL    HW217226   3.820   0.411   2.593
 5443SOL     OW17227   2.876   6.711   4.983
 5443SOL    HW117228   2.800   6.707   5.048
 5443SOL    HW217229   2.850   6.665   4.898
 5444SOL     OW17230   0.344   6.988   3.364
 5444SOL    HW117231   0.307   6.934   3.439
 5444SOL    HW217232   0.279   0.042   3.340
 5445SOL     OW17233   5.388   3.324   2.001
 5445SOL    HW117234   5.305   3.379   2.016
 5445SOL    HW217235   5.394   3.252   2.069
 5446SOL     OW17236   6.645   5.667   5.809
 5446SOL    HW117237   6.597   5.631   5.729
 5446SOL    HW217238   6.643   5.767   5.807
 5447SOL     OW17239   3.339   1.748   0.489
 5447SOL    HW117240   3.383   1.726   0.576
 5447SOL    HW217241   3.257   1.691   0.477
 5448SOL     OW17242   5.503   2.262   6.114
 5448SOL    HW117243   5.574   2.212   6.164
 5448SOL    HW217244   5.500   2.357   6.146
 5449SOL     OW17245   0.533   3.526   6.780
 5449SOL    HW117246   0.442   3.542   6.819
 5449SOL    HW217247   0.549   3.593   6.707
 5450SOL     OW17248   2.056   6.772   0.529
 5450SOL    HW117249   2.119   6.849   0.533
 5450SOL    HW217250   2.103   6.694   0.487
 5451SOL     OW17251   1.499   0.037   2.429
 5451SOL    HW117252   1.516   0.092   2.511
 5451SOL    HW217253   1.422   6.994   2.446
 5452SOL     OW17254   2.864   3.966   5.641
 5452SOL    HW117255   2.769   3.980   5.613
 5452SOL    HW217256   2.924   3.979   5.562
 5453SOL     OW17257   6.214   5.078   6.545
 5453SOL    HW117258   6.254   4.987   6.540
 5453SOL    HW217259   6.118   5.071   6.573
 5454SOL     OW17260   0.435   4.590   6.478
 5454SOL    HW117261   0.482   4.533   6.545
 5454SOL    HW217262   0.392   4.533   6.408
 5455SOL     OW17263   6.843   3.229   1.156
 5455SOL    HW117264   6.825   3.183   1.243
 5455SOL    HW217265   6.772   3.297   1.140
 5456SOL     OW17266   3.681   6.723   0.911
 5456SOL    HW117267   3.692   6.779   0.829
 5456SOL    HW217268   3.744   6.754   0.982
 5457SOL     OW17269   5.966   3.695   0.481
 5457SOL    HW117270   5.980   3.778   0.535
 5457SOL    HW217271   6.054   3.663   0.446
 5458SOL     OW17272   2.610   4.406   6.483
 5458SOL    HW117273   2.686   4.462   6.515
 5458SOL    HW217274   2.625   4.311   6.509
 5459SOL     OW17275   2.176   4.711   5.823
 5459SOL    HW117276   2.162   4.809   5.841
 5459SOL    HW217277   2.257   4.699   5.766
 5460SOL     OW17278   3.563   0.420   1.598
 5460SOL    HW117279   3.497   0.350   1.625
 5460SOL    HW217280   3.656   0.385   1.611
 5461SOL     OW17281   4.564   6.618   4.898
 5461SOL    HW117282   4.533   6.713   4.887
 5461SOL    HW217283   4.554   6.570   4.811
 5462SOL     OW17284   0.866   0.320   1.599
 5462SOL    HW117285   0.881   0.396   1.662
 5462SOL    HW217286   0.898   0.344   1.508
 5463SOL     OW17287   7.017   3.068   0.468
 5463SOL    HW117288   6.948   3.043   0.536
 5463SOL    HW217289   0.061   3.137   0.507
 5464SOL     OW17290   2.314   6.880   4.105
 5464SOL    HW117291   2.336   6.895   4.202
 5464SOL    HW217292   2.229   6.828   4.098
 5465SOL     OW17293   2.685   6.901   6.280
 5465SOL    HW117294   2.685   6.801   6.267
 5465SOL    HW217295   2.591   6.933   6.290
 5466SOL     OW17296   4.796   4.635   4.763
 5466SOL    HW117297   4.784   4.568   4.689
 5466SOL    HW217298   4.885   4.679   4.754
 5467SOL     OW17299   6.236   1.816   1.994
 5467SOL    HW117300   6.327   1.791   2.026
 5467SOL    HW217301   6.221   1.780   1.902
 5468SOL     OW17302   4.053   1.408   5.405
 5468SOL    HW117303   3.992   1.486   5.396
 5468SOL    HW217304   4.108   1.418   5.488
 5469SOL     OW17305   4.301   5.002   6.677
 5469SOL    HW117306   4.345   4.962   6.597
 5469SOL    HW217307   4.259   4.930   6.732
 5470SOL     OW17308   1.041   5.339   3.467
 5470SOL    HW117309   0.951   5.324   3.508
 5470SOL    HW217310   1.046   5.294   3.378
 5471SOL     OW17311   6.216   4.702   2.008
 5471SOL    HW117312   6.271   4.785   1.997
 5471SOL    HW217313   6.250   4.649   2.085
 5472SOL     OW17314   4.026   4.980   5.729
 5472SOL    HW117315   4.036   4.899   5.671
 5472SOL    HW217316   3.930   5.007   5.734
 5473SOL     OW17317   1.494   3.323   3.278
 5473SOL    HW117318   1.400   3.332   3.243
 5473SOL    HW217319   1.506   3.231   3.315
 5474SOL     OW17320   2.172   6.031   3.710
 5474SOL    HW117321   2.268   6.022   3.683
 5474SOL    HW217322   2.128   6.100   3.652
 5475SOL     OW17323   2.950   2.699   1.438
 5475SOL    HW117324   2.881   2.691   1.366
 5475SOL    HW217325   3.001   2.613   1.445
 5476SOL     OW17326   1.083   3.609   6.247
 5476SOL    HW117327   1.073   3.696   6.296
 5476SOL    HW217328   1.175   3.573   6.261
 5477SOL     OW17329   1.901   3.184   2.181
 5477SOL    HW117330   1.960   3.265   2.176
 5477SOL    HW217331   1.812   3.210   2.218
 5478SOL     OW17332   6.801   6.146   6.204
 5478SOL    HW117333   6.853   6.195   6.274
 5478SOL    HW217334   6.845   6.160   6.115
 5479SOL     OW17335   4.392   0.342   4.493
 5479SOL    HW117336   4.300   0.310   4.514
 5479SOL    HW217337   4.412   0.425   4.547
 5480SOL     OW17338   0.347   3.162   4.606
 5480SOL    HW117339   0.355   3.063   4.607
 5480SOL    HW217340   0.280   3.191   4.675
 5481SOL     OW17341   4.482   6.754   4.061
 5481SOL    HW117342   4.397   6.789   4.099
 5481SOL    HW217343   4.476   6.654   4.054
 5482SOL     OW17344   1.475   4.331   1.946
 5482SOL    HW117345   1.422   4.347   2.029
 5482SOL    HW217346   1.512   4.418   1.913
 5483SOL     OW17347   0.897   2.723   6.286
 5483SOL    HW117348   0.865   2.800   6.341
 5483SOL    HW217349   0.990   2.698   6.314
 5484SOL     OW17350   4.845   0.018   5.131
 5484SOL    HW117351   4.900   0.082   5.078
 5484SOL    HW217352   4.748   0.033   5.112
 5485SOL     OW17353   3.325   0.141   4.764
 5485SOL    HW117354   3.323   0.192   4.678
 5485SOL    HW217355   3.245   0.165   4.819
 5486SOL     OW17356   2.173   5.189   4.720
 5486SOL    HW117357   2.136   5.197   4.627
 5486SOL    HW217358   2.194   5.094   4.740
 5487SOL     OW17359   3.342   5.230   5.322
 5487SOL    HW117360   3.430   5.184   5.309
 5487SOL    HW217361   3.345   5.320   5.279
 5488SOL     OW17362   5.450   2.398   1.043
 5488SOL    HW117363   5.494   2.424   0.957
 5488SOL    HW217364   5.430   2.480   1.097
 5489SOL     OW17365   6.945   3.612   3.828
 5489SOL    HW117366   6.961   3.699   3.780
 5489SOL    HW217367   7.000   3.611   3.911
 5490SOL     OW17368   1.494   5.967   3.120
 5490SOL    HW117369   1.538   5.902   3.058
 5490SOL    HW217370   1.449   5.917   3.194
 5491SOL     OW17371   6.246   4.307   0.611
 5491SOL    HW117372   6.169   4.258   0.652
 5491SOL    HW217373   6.315   4.325   0.682
 5492SOL     OW17374   6.987   1.964   6.144
 5492SOL    HW117375   6.916   1.905   6.107
 5492SOL    HW217376   0.053   1.953   6.090
 5493SOL     OW17377   3.657   3.987   0.533
 5493SOL    HW117378   3.625   3.934   0.454
 5493SOL    HW217379   3.742   4.035   0.509
 5494SOL     OW17380   6.081   3.294   5.263
 5494SOL    HW117381   6.017   3.219   5.246
 5494SOL    HW217382   6.060   3.336   5.352
 5495SOL     OW17383   6.082   6.859   0.603
 5495SOL    HW117384   6.002   6.914   0.578
 5495SOL    HW217385   6.164   6.917   0.600
 5496SOL     OW17386   3.884   0.183   4.762
 5496SOL    HW117387   3.827   0.247   4.814
 5496SOL    HW217388   3.974   0.224   4.747
 5497SOL     OW17389   0.920   0.444   5.077
 5497SOL    HW117390   0.953   0.474   4.988
 5497SOL    HW217391   0.820   0.438   5.076
 5498SOL     OW17392   0.227   5.701   1.333
 5498SOL    HW117393   0.184   5.721   1.421
 5498SOL    HW217394   0.168   5.733   1.259
 5499SOL     OW17395   1.925   0.100   4.769
 5499SOL    HW117396   2.020   0.075   4.791
 5499SOL    HW217397   1.918   0.200   4.763
 5500SOL     OW17398   2.980   0.489   1.177
 5500SOL    HW117399   3.064   0.543   1.185
 5500SOL    HW217400   2.902   0.542   1.210
 5501SOL     OW17401   3.662   3.635   7.012
 5501SOL    HW117402   3.742   3.640   0.054
 5501SOL    HW217403   3.662   3.546   6.966
 5502SOL     OW17404   4.716   3.076   6.677
 5502SOL    HW117405   4.744   2.985   6.707
 5502SOL    HW217406   4.797   3.135   6.672
 5503SOL     OW17407   6.075   3.379   1.065
 5503SOL    HW117408   6.047   3.290   1.028
 5503SOL    HW217409   5.995   3.437   1.075
 5504SOL     OW17410   3.893   1.934   6.775
 5504SOL    HW117411   3.978   1.887   6.753
 5504SOL    HW217412   3.873   2.001   6.704
 5505SOL     OW17413   3.337   4.960   3.412
 5505SOL    HW117414   3.317   4.887   3.347
 5505SOL    HW217415   3.418   4.935   3.466
 5506SOL     OW17416   6.480   2.929   6.103
 5506SOL    HW117417   6.568   2.900   6.064
 5506SOL    HW217418   6.426   2.975   6.034
 5507SOL     OW17419   3.589   6.982   6.586
 5507SOL    HW117420   3.572   0.062   6.583
 5507SOL    HW217421   3.624   6.958   6.677
 5508SOL     OW17422   0.260   0.863   6.162
 5508SOL    HW117423   0.206   0.832   6.084
 5508SOL    HW217424   0.352   0.823   6.156
 5509SOL     OW17425   6.484   4.798   0.326
 5509SOL    HW117426   6.426   4.850   0.389
 5509SOL    HW217427   6.580   4.806   0.354
 5510SOL     OW17428   4.988   5.130   6.922
 5510SOL    HW117429   5.062   5.197   6.927
 5510SOL    HW217430   4.946   5.134   6.831
 5511SOL     OW17431   0.443   2.584   6.102
 5511SOL    HW117432   0.462   2.682   6.092
 5511SOL    HW217433   0.470   2.537   6.018
 5512SOL     OW17434   2.328   0.422   2.480
 5512SOL    HW117435   2.354   0.517   2.464
 5512SOL    HW217436   2.351   0.366   2.400
 5513SOL     OW17437   3.797   4.639   6.892
 5513SOL    HW117438   3.795   4.697   6.974
 5513SOL    HW217439   3.771   4.546   6.917
 5514SOL     OW17440   3.648   0.889   0.280
 5514SOL    HW117441   3.735   0.888   0.231
 5514SOL    HW217442   3.661   0.852   0.372
 5515SOL     OW17443   2.728   5.560   2.597
 5515SOL    HW117444   2.743   5.616   2.516
 5515SOL    HW217445   2.814   5.519   2.627
 5516SOL     OW17446   1.763   2.185   5.743
 5516SOL    HW117447   1.824   2.234   5.804
 5516SOL    HW217448   1.782   2.087   5.748
 5517SOL     OW17449   1.620   1.833   3.152
 5517SOL    HW117450   1.652   1.885   3.072
 5517SOL    HW217451   1.527   1.862   3.175
 5518SOL     OW17452   4.648   5.252   6.771
 5518SOL    HW117453   4.717   5.295   6.714
 5518SOL    HW217454   4.653   5.153   6.761
 5519SOL     OW17455   4.919   2.643   4.798
 5519SOL    HW117456   5.002   2.697   4.811
 5519SOL    HW217457   4.944   2.548   4.778
 5520SOL     OW17458   4.518   0.676   1.513
 5520SOL    HW117459   4.599   0.625   1.541
 5520SOL    HW217460   4.437   0.638   1.558
 5521SOL     OW17461   4.678   6.228   2.386
 5521SOL    HW117462   4.760   6.191   2.341
 5521SOL    HW217463   4.655   6.171   2.465
 5522SOL     OW17464   5.977   6.119   0.686
 5522SOL    HW117465   6.074   6.126   0.660
 5522SOL    HW217466   5.938   6.038   0.642
 5523SOL     OW17467   5.428   1.933   0.902
 5523SOL    HW117468   5.375   1.962   0.982
 5523SOL    HW217469   5.476   2.012   0.863
 5524SOL     OW17470   2.563   1.318   3.970
 5524SOL    HW117471   2.507   1.401   3.958
 5524SOL    HW217472   2.505   1.244   4.004
 5525SOL     OW17473   6.151   0.985   1.193
 5525SOL    HW117474   6.182   0.950   1.105
 5525SOL    HW217475   6.055   0.963   1.206
 5526SOL     OW17476   5.410   5.103   3.901
 5526SOL    HW117477   5.315   5.134   3.896
 5526SOL    HW217478   5.428   5.067   3.993
 5527SOL     OW17479   5.839   0.455   2.841
 5527SOL    HW117480   5.845   0.535   2.782
 5527SOL    HW217481   5.925   0.404   2.837
 5528SOL     OW17482   1.309   1.887   6.847
 5528SOL    HW117483   1.339   1.891   6.943
 5528SOL    HW217484   1.314   1.792   6.815
 5529SOL     OW17485   3.627   0.889   2.491
 5529SOL    HW117486   3.580   0.896   2.579
 5529SOL    HW217487   3.568   0.925   2.418
 5530SOL     OW17488   6.904   1.793   0.967
 5530SOL    HW117489   6.916   1.694   0.972
 5530SOL    HW217490   6.892   1.830   1.059
 5531SOL     OW17491   1.925   4.233   1.483
 5531SOL    HW117492   1.987   4.168   1.441
 5531SOL    HW217493   1.836   4.190   1.498
 5532SOL     OW17494   0.839   2.925   6.676
 5532SOL    HW117495   0.930   2.904   6.640
 5532SOL    HW217496   0.775   2.936   6.600
 5533SOL     OW17497   3.442   1.313   2.555
 5533SOL    HW117498   3.532   1.268   2.559
 5533SOL    HW217499   3.379   1.255   2.503
 5534SOL     OW17500   1.460   0.174   4.475
 5534SOL    HW117501   1.426   0.088   4.513
 5534SOL    HW217502   1.519   0.219   4.542
 5535SOL     OW17503   0.159   2.156   2.696
 5535SOL    HW117504   0.114   2.164   2.785
 5535SOL    HW217505   0.134   2.234   2.639
 5536SOL     OW17506   4.513   6.506   4.650
 5536SOL    HW117507   4.548   6.576   4.589
 5536SOL    HW217508   4.526   6.416   4.609
 5537SOL     OW17509   3.011   2.150   3.873
 5537SOL    HW117510   3.040   2.151   3.778
 5537SOL    HW217511   2.916   2.121   3.879
 5538SOL     OW17512   4.567   5.171   4.479
 5538SOL    HW117513   4.508   5.252   4.484
 5538SOL    HW217514   4.589   5.140   4.572
 5539SOL     OW17515   2.411   4.541   0.081
 5539SOL    HW117516   2.461   4.562   0.165
 5539SOL    HW217517   2.387   4.626   0.035
 5540SOL     OW17518   4.162   5.506   2.324
 5540SOL    HW117519   4.088   5.525   2.259
 5540SOL    HW217520   4.178   5.588   2.380
 5541SOL     OW17521   4.050   1.182   6.031
 5541SOL    HW117522   4.048   1.201   5.933
 5541SOL    HW217523   4.099   1.097   6.047
 5542SOL     OW17524   5.247   4.468   6.749
 5542SOL    HW117525   5.280   4.463   6.655
 5542SOL    HW217526   5.207   4.381   6.776
 5543SOL     OW17527   0.378   2.334   4.761
 5543SOL    HW117528   0.458   2.380   4.723
 5543SOL    HW217529   0.396   2.237   4.771
 5544SOL     OW17530   5.370   0.776   6.850
 5544SOL    HW117531   5.422   0.810   6.928
 5544SOL    HW217532   5.366   0.847   6.780
 5545SOL     OW17533   2.620   2.399   1.897
 5545SOL    HW117534   2.718   2.411   1.912
 5545SOL    HW217535   2.605   2.316   1.843
 5546SOL     OW17536   4.198   4.645   5.718
 5546SOL    HW117537   4.127   4.678   5.657
 5546SOL    HW217538   4.245   4.567   5.676
 5547SOL     OW17539   3.439   5.861   4.118
 5547SOL    HW117540   3.412   5.789   4.181
 5547SOL    HW217541   3.498   5.823   4.047
 5548SOL     OW17542   0.368   2.330   4.315
 5548SOL    HW117543   0.412   2.419   4.333
 5548SOL    HW217544   0.272   2.334   4.343
 5549SOL     OW17545   3.422   5.071   6.822
 5549SOL    HW117546   3.425   4.971   6.815
 5549SOL    HW217547   3.511   5.105   6.852
 5550SOL     OW17548   2.914   6.443   2.471
 5550SOL    HW117549   2.889   6.523   2.417
 5550SOL    HW217550   2.844   6.372   2.459
 5551SOL     OW17551   0.730   1.229   3.041
 5551SOL    HW117552   0.677   1.311   3.064
 5551SOL    HW217553   0.799   1.213   3.111
 5552SOL     OW17554   0.842   2.587   2.092
 5552SOL    HW117555   0.917   2.522   2.082
 5552SOL    HW217556   0.787   2.586   2.009
 5553SOL     OW17557   4.332   5.976   6.508
 5553SOL    HW117558   4.338   6.004   6.604
 5553SOL    HW217559   4.340   6.057   6.449
 5554SOL     OW17560   3.718   1.122   4.472
 5554SOL    HW117561   3.806   1.116   4.425
 5554SOL    HW217562   3.698   1.035   4.516
 5555SOL     OW17563   0.840   5.879   1.657
 5555SOL    HW117564   0.913   5.929   1.702
 5555SOL    HW217565   0.762   5.869   1.720
 5556SOL     OW17566   0.797   0.859   4.361
 5556SOL    HW117567   0.885   0.886   4.400
 5556SOL    HW217568   0.729   0.930   4.380
 5557SOL     OW17569   2.347   0.710   2.902
 5557SOL    HW117570   2.389   0.673   2.819
 5557SOL    HW217571   2.291   0.639   2.945
 5558SOL     OW17572   4.987   2.534   5.416
 5558SOL    HW117573   5.066   2.583   5.379
 5558SOL    HW217574   4.903   2.582   5.390
 5559SOL     OW17575   2.242   0.783   1.331
 5559SOL    HW117576   2.206   0.690   1.321
 5559SOL    HW217577   2.318   0.782   1.395
 5560SOL     OW17578   0.092   1.059   4.402
 5560SOL    HW117579   0.025   0.985   4.401
 5560SOL    HW217580   0.165   1.037   4.467
 5561SOL     OW17581   1.703   3.923   2.196
 5561SOL    HW117582   1.657   3.995   2.143
 5561SOL    HW217583   1.663   3.919   2.287
 5562SOL     OW17584   3.011   1.978   6.928
 5562SOL    HW117585   2.934   2.036   6.953
 5562SOL    HW217586   3.025   1.981   6.829
 5563SOL     OW17587   4.057   4.252   1.632
 5563SOL    HW117588   3.979   4.189   1.632
 5563SOL    HW217589   4.053   4.310   1.551
 5564SOL     OW17590   5.151   2.177   1.388
 5564SOL    HW117591   5.163   2.211   1.295
 5564SOL    HW217592   5.241   2.160   1.429
 5565SOL     OW17593   2.479   2.543   5.368
 5565SOL    HW117594   2.564   2.576   5.408
 5565SOL    HW217595   2.468   2.446   5.388
 5566SOL     OW17596   2.246   4.169   0.457
 5566SOL    HW117597   2.257   4.126   0.367
 5566SOL    HW217598   2.331   4.160   0.509
 5567SOL     OW17599   1.687   5.380   2.900
 5567SOL    HW117600   1.605   5.430   2.872
 5567SOL    HW217601   1.660   5.304   2.960
 5568SOL     OW17602   3.666   2.827   0.421
 5568SOL    HW117603   3.650   2.756   0.352
 5568SOL    HW217604   3.676   2.915   0.375
 5569SOL     OW17605   4.929   1.942   6.570
 5569SOL    HW117606   4.842   1.989   6.563
 5569SOL    HW217607   5.002   2.009   6.584
 5570SOL     OW17608   1.565   3.192   5.179
 5570SOL    HW117609   1.551   3.143   5.093
 5570SOL    HW217610   1.517   3.145   5.253
 5571SOL     OW17611   6.755   4.486   6.558
 5571SOL    HW117612   6.740   4.391   6.528
 5571SOL    HW217613   6.702   4.503   6.641
 5572SOL     OW17614   0.153   3.317   4.740
 5572SOL    HW117615   0.067   3.297   4.786
 5572SOL    HW217616   0.185   3.408   4.768
 5573SOL     OW17617   6.980   3.982   0.146
 5573SOL    HW117618   6.949   4.070   0.182
 5573SOL    HW217619   6.900   3.927   0.120
 5574SOL     OW17620   1.317   0.025   3.912
 5574SOL    HW117621   1.408   0.066   3.898
 5574SOL    HW217622   1.270   0.018   3.825
 5575SOL     OW17623   1.098   0.969   2.065
 5575SOL    HW117624   1.020   1.028   2.042
 5575SOL    HW217625   1.174   0.989   2.003
 5576SOL     OW17626   5.683   6.408   6.072
 5576SOL    HW117627   5.597   6.448   6.041
 5576SOL    HW217628   5.757   6.436   6.011
 5577SOL     OW17629   2.294   4.658   4.761
 5577SOL    HW117630   2.365   4.694   4.701
 5577SOL    HW217631   2.335   4.616   4.841
 5578SOL     OW17632   3.140   2.043   6.386
 5578SOL    HW117633   3.068   2.110   6.367
 5578SOL    HW217634   3.196   2.031   6.303
 5579SOL     OW17635   5.079   5.187   2.087
 5579SOL    HW117636   5.040   5.218   2.000
 5579SOL    HW217637   5.177   5.168   2.075
 5580SOL     OW17638   5.282   1.095   1.425
 5580SOL    HW117639   5.202   1.077   1.368
 5580SOL    HW217640   5.253   1.143   1.508
 5581SOL     OW17641   2.943   2.628   0.520
 5581SOL    HW117642   2.852   2.588   0.507
 5581SOL    HW217643   2.986   2.643   0.430
 5582SOL     OW17644   3.868   3.143   3.087
 5582SOL    HW117645   3.913   3.125   2.999
 5582SOL    HW217646   3.770   3.155   3.073
 5583SOL     OW17647   4.383   0.611   6.736
 5583SOL    HW117648   4.304   0.641   6.682
 5583SOL    HW217649   4.455   0.680   6.732
 5584SOL     OW17650   4.885   3.463   3.475
 5584SOL    HW117651   4.868   3.439   3.570
 5584SOL    HW217652   4.903   3.381   3.422
 5585SOL     OW17653   0.761   0.020   4.133
 5585SOL    HW117654   0.706   6.963   4.171
 5585SOL    HW217655   0.726   0.107   4.167
 5586SOL     OW17656   2.621   1.364   6.996
 5586SOL    HW117657   2.595   1.273   0.011
 5586SOL    HW217658   2.636   1.360   6.897
 5587SOL     OW17659   3.223   6.589   3.595
 5587SOL    HW117660   3.304   6.595   3.653
 5587SOL    HW217661   3.250   6.587   3.499
 5588SOL     OW17662   5.105   6.820   6.441
 5588SOL    HW117663   5.046   6.852   6.515
 5588SOL    HW217664   5.140   6.898   6.389
 5589SOL     OW17665   2.609   3.993   0.359
 5589SOL    HW117666   2.514   3.963   0.368
 5589SOL    HW217667   2.660   3.967   0.441
 5590SOL     OW17668   6.691   0.268   3.429
 5590SOL    HW117669   6.623   0.195   3.431
 5590SOL    HW217670   6.737   0.275   3.518
 5591SOL     OW17671   5.265   0.188   0.711
 5591SOL    HW117672   5.303   0.266   0.761
 5591SOL    HW217673   5.274   0.105   0.766
 5592SOL     OW17674   1.170   2.694   2.207
 5592SOL    HW117675   1.183   2.653   2.298
 5592SOL    HW217676   1.137   2.624   2.144
 5593SOL     OW17677   2.509   4.612   4.935
 5593SOL    HW117678   2.587   4.646   4.884
 5593SOL    HW217679   2.536   4.597   5.030
 5594SOL     OW17680   3.166   1.451   6.752
 5594SOL    HW117681   3.258   1.417   6.733
 5594SOL    HW217682   3.156   1.543   6.716
 5595SOL     OW17683   0.711   2.946   6.434
 5595SOL    HW117684   0.624   2.936   6.384
 5595SOL    HW217685   0.740   3.041   6.430
 5596SOL     OW17686   4.874   3.285   4.524
 5596SOL    HW117687   4.960   3.235   4.537
 5596SOL    HW217688   4.820   3.279   4.609
 5597SOL     OW17689   6.836   1.930   6.829
 5597SOL    HW117690   6.928   1.893   6.845
 5597SOL    HW217691   6.783   1.866   6.775
 5598SOL     OW17692   6.463   1.261   3.758
 5598SOL    HW117693   6.497   1.181   3.807
 5598SOL    HW217694   6.490   1.344   3.808
 5599SOL     OW17695   5.881   2.786   3.307
 5599SOL    HW117696   5.833   2.874   3.307
 5599SOL    HW217697   5.823   2.716   3.348
 5600SOL     OW17698   1.953   3.135   1.934
 5600SOL    HW117699   1.864   3.147   1.890
 5600SOL    HW217700   1.942   3.133   2.033
 5601SOL     OW17701   5.699   2.909   5.777
 5601SOL    HW117702   5.730   2.858   5.857
 5601SOL    HW217703   5.602   2.930   5.785
 5602SOL     OW17704   5.997   2.043   3.025
 5602SOL    HW117705   5.929   1.981   3.066
 5602SOL    HW217706   5.972   2.061   2.930
 5603SOL     OW17707   3.456   2.302   6.449
 5603SOL    HW117708   3.468   2.220   6.393
 5603SOL    HW217709   3.362   2.307   6.482
 5604SOL     OW17710   1.099   5.918   3.600
 5604SOL    HW117711   1.040   5.838   3.596
 5604SOL    HW217712   1.056   5.995   3.554
 5605SOL     OW17713   4.336   0.486   4.001
 5605SOL    HW117714   4.386   0.402   4.021
 5605SOL    HW217715   4.238   0.466   4.000
 5606SOL     OW17716   4.776   3.575   0.721
 5606SOL    HW117717   4.826   3.489   0.707
 5606SOL    HW217718   4.839   3.647   0.748
 5607SOL     OW17719   6.833   2.519   3.178
 5607SOL    HW117720   6.898   2.483   3.111
 5607SOL    HW217721   6.765   2.576   3.131
 5608SOL     OW17722   5.594   0.271   3.986
 5608SOL    HW117723   5.601   0.232   3.894
 5608SOL    HW217724   5.678   0.320   4.008
 5609SOL     OW17725   6.388   0.770   0.492
 5609SOL    HW117726   6.478   0.768   0.535
 5609SOL    HW217727   6.321   0.724   0.551
 5610SOL     OW17728   5.851   5.897   5.874
 5610SOL    HW117729   5.813   5.812   5.911
 5610SOL    HW217730   5.950   5.892   5.873
 5611SOL     OW17731   6.570   3.915   1.712
 5611SOL    HW117732   6.490   3.941   1.659
 5611SOL    HW217733   6.564   3.818   1.735
 5612SOL     OW17734   4.122   2.051   0.973
 5612SOL    HW117735   4.118   2.080   0.878
 5612SOL    HW217736   4.074   2.117   1.030
 5613SOL     OW17737   6.238   5.129   5.776
 5613SOL    HW117738   6.167   5.104   5.841
 5613SOL    HW217739   6.293   5.049   5.754
 5614SOL     OW17740   4.838   1.969   5.223
 5614SOL    HW117741   4.781   2.028   5.280
 5614SOL    HW217742   4.932   1.973   5.255
 5615SOL     OW17743   0.685   3.145   3.262
 5615SOL    HW117744   0.694   3.046   3.271
 5615SOL    HW217745   0.643   3.167   3.174
 5616SOL     OW17746   1.483   3.293   1.818
 5616SOL    HW117747   1.562   3.345   1.788
 5616SOL    HW217748   1.460   3.225   1.748
 5617SOL     OW17749   1.003   5.376   6.338
 5617SOL    HW117750   0.965   5.459   6.296
 5617SOL    HW217751   1.008   5.388   6.437
 5618SOL     OW17752   4.601   6.849   2.573
 5618SOL    HW117753   4.531   6.866   2.503
 5618SOL    HW217754   4.559   6.807   2.653
 5619SOL     OW17755   3.186   3.412   3.337
 5619SOL    HW117756   3.118   3.367   3.280
 5619SOL    HW217757   3.230   3.485   3.284
 5620SOL     OW17758   5.184   4.361   4.852
 5620SOL    HW117759   5.150   4.339   4.760
 5620SOL    HW217760   5.115   4.335   4.920
 5621SOL     OW17761   0.812   2.744   6.926
 5621SOL    HW117762   0.906   2.722   6.955
 5621SOL    HW217763   0.815   2.801   6.844
 5622SOL     OW17764   4.998   5.929   3.862
 5622SOL    HW117765   5.007   5.901   3.766
 5622SOL    HW217766   4.944   5.861   3.912
 5623SOL     OW17767   4.674   4.447   3.935
 5623SOL    HW117768   4.687   4.359   3.890
 5623SOL    HW217769   4.585   4.448   3.982
 5624SOL     OW17770   4.986   3.814   3.821
 5624SOL    HW117771   4.949   3.892   3.872
 5624SOL    HW217772   4.948   3.813   3.729
 5625SOL     OW17773   3.172   6.189   6.119
 5625SOL    HW117774   3.258   6.219   6.162
 5625SOL    HW217775   3.142   6.104   6.161
 5626SOL     OW17776   1.518   5.516   6.502
 5626SOL    HW117777   1.529   5.551   6.408
 5626SOL    HW217778   1.482   5.423   6.498
 5627SOL     OW17779   1.241   5.576   0.893
 5627SOL    HW117780   1.340   5.572   0.880
 5627SOL    HW217781   1.199   5.621   0.815
 5628SOL     OW17782   1.681   3.018   0.233
 5628SOL    HW117783   1.670   3.114   0.208
 5628SOL    HW217784   1.769   3.005   0.278
 5629SOL     OW17785   6.706   3.688   4.242
 5629SOL    HW117786   6.705   3.758   4.313
 5629SOL    HW217787   6.650   3.719   4.164
 5630SOL     OW17788   1.073   3.825   0.482
 5630SOL    HW117789   1.153   3.878   0.453
 5630SOL    HW217790   1.020   3.878   0.549
 5631SOL     OW17791   3.817   0.335   1.610
 5631SOL    HW117792   3.822   0.265   1.539
 5631SOL    HW217793   3.896   0.327   1.671
 5632SOL     OW17794   4.063   5.918   6.920
 5632SOL    HW117795   4.144   5.924   6.862
 5632SOL    HW217796   4.085   5.868   7.003
 5633SOL     OW17797   1.109   5.889   5.501
 5633SOL    HW117798   1.021   5.920   5.537
 5633SOL    HW217799   1.113   5.789   5.507
 5634SOL     OW17800   2.635   0.881   1.890
 5634SOL    HW117801   2.663   0.823   1.813
 5634SOL    HW217802   2.574   0.829   1.949
 5635SOL     OW17803   3.520   0.637   2.228
 5635SOL    HW117804   3.539   0.717   2.284
 5635SOL    HW217805   3.603   0.584   2.216
 5636SOL     OW17806   5.715   0.730   5.592
 5636SOL    HW117807   5.780   0.754   5.520
 5636SOL    HW217808   5.648   0.804   5.603
 5637SOL     OW17809   5.023   6.797   4.709
 5637SOL    HW117810   4.992   6.703   4.718
 5637SOL    HW217811   4.944   6.856   4.689
 5638SOL     OW17812   6.819   5.233   0.252
 5638SOL    HW117813   6.803   5.184   0.338
 5638SOL    HW217814   6.755   5.200   0.182
 5639SOL     OW17815   3.402   0.280   1.969
 5639SOL    HW117816   3.347   0.218   1.912
 5639SOL    HW217817   3.372   0.271   2.065
 5640SOL     OW17818   2.859   6.952   3.628
 5640SOL    HW117819   2.838   0.007   3.692
 5640SOL    HW217820   2.776   6.901   3.606
 5641SOL     OW17821   6.731   4.549   3.702
 5641SOL    HW117822   6.648   4.515   3.659
 5641SOL    HW217823   6.715   4.640   3.740
 5642SOL     OW17824   1.759   3.082   6.412
 5642SOL    HW117825   1.801   2.993   6.392
 5642SOL    HW217826   1.826   3.142   6.455
 5643SOL     OW17827   6.184   2.570   3.965
 5643SOL    HW117828   6.116   2.510   4.008
 5643SOL    HW217829   6.227   2.522   3.889
 5644SOL     OW17830   3.849   0.459   5.927
 5644SOL    HW117831   3.930   0.411   5.895
 5644SOL    HW217832   3.800   0.498   5.849
 5645SOL     OW17833   5.797   6.444   3.129
 5645SOL    HW117834   5.699   6.435   3.109
 5645SOL    HW217835   5.809   6.507   3.205
 5646SOL     OW17836   6.162   0.114   3.965
 5646SOL    HW117837   6.098   0.092   3.891
 5646SOL    HW217838   6.255   0.095   3.936
 5647SOL     OW17839   6.756   3.808   6.619
 5647SOL    HW117840   6.671   3.857   6.640
 5647SOL    HW217841   6.833   3.857   6.661
 5648SOL     OW17842   2.741   1.669   4.510
 5648SOL    HW117843   2.791   1.731   4.571
 5648SOL    HW217844   2.644   1.671   4.533
 5649SOL     OW17845   0.876   0.651   5.892
 5649SOL    HW117846   0.955   0.593   5.874
 5649SOL    HW217847   0.902   0.747   5.885
 5650SOL     OW17848   6.851   5.072   5.333
 5650SOL    HW117849   6.901   5.088   5.418
 5650SOL    HW217850   6.863   4.976   5.306
 5651SOL     OW17851   5.957   1.447   2.350
 5651SOL    HW117852   6.035   1.395   2.316
 5651SOL    HW217853   5.978   1.485   2.440
 5652SOL     OW17854   5.401   4.280   0.131
 5652SOL    HW117855   5.409   4.308   0.035
 5652SOL    HW217856   5.486   4.300   0.179
 5653SOL     OW17857   2.100   5.593   0.018
 5653SOL    HW117858   2.004   5.622   0.015
 5653SOL    HW217859   2.149   5.650   0.083
 5654SOL     OW17860   1.571   6.057   0.091
 5654SOL    HW117861   1.482   6.098   0.070
 5654SOL    HW217862   1.607   6.012   0.009
 5655SOL     OW17863   6.499   5.136   2.800
 5655SOL    HW117864   6.562   5.176   2.734
 5655SOL    HW217865   6.517   5.174   2.891
 5656SOL     OW17866   3.618   5.348   6.772
 5656SOL    HW117867   3.525   5.346   6.734
 5656SOL    HW217868   3.623   5.416   6.845
 5657SOL     OW17869   4.637   5.223   2.093
 5657SOL    HW117870   4.560   5.275   2.129
 5657SOL    HW217871   4.717   5.238   2.152
 5658SOL     OW17872   5.145   6.227   5.921
 5658SOL    HW117873   5.209   6.259   5.990
 5658SOL    HW217874   5.188   6.153   5.869
 5659SOL     OW17875   3.062   3.285   3.119
 5659SOL    HW117876   3.035   3.352   3.050
 5659SOL    HW217877   3.114   3.211   3.075
 5660SOL     OW17878   6.477   6.242   1.479
 5660SOL    HW117879   6.555   6.245   1.542
 5660SOL    HW217880   6.408   6.308   1.509
 5661SOL     OW17881   6.298   5.718   4.532
 5661SOL    HW117882   6.380   5.770   4.509
 5661SOL    HW217883   6.324   5.633   4.577
 5662SOL     OW17884   2.064   5.028   4.968
 5662SOL    HW117885   2.009   4.978   5.035
 5662SOL    HW217886   2.098   4.964   4.899
 5663SOL     OW17887   2.460   4.083   1.465
 5663SOL    HW117888   2.511   4.099   1.549
 5663SOL    HW217889   2.412   4.166   1.438
 5664SOL     OW17890   6.766   6.209   2.015
 5664SOL    HW117891   6.849   6.155   2.002
 5664SOL    HW217892   6.790   6.303   2.039
 5665SOL     OW17893   1.058   1.581   5.861
 5665SOL    HW117894   1.119   1.501   5.859
 5665SOL    HW217895   1.063   1.627   5.772
 5666SOL     OW17896   5.777   5.718   0.165
 5666SOL    HW117897   5.763   5.769   0.080
 5666SOL    HW217898   5.818   5.629   0.145
 5667SOL     OW17899   5.964   4.759   2.702
 5667SOL    HW117900   5.964   4.694   2.626
 5667SOL    HW217901   5.958   4.852   2.667
 5668SOL     OW17902   6.015   3.024   6.184
 5668SOL    HW117903   6.037   3.043   6.089
 5668SOL    HW217904   6.085   2.964   6.224
 5669SOL     OW17905   0.622   3.230   4.558
 5669SOL    HW117906   0.525   3.205   4.558
 5669SOL    HW217907   0.661   3.213   4.467
 5670SOL     OW17908   1.322   3.844   2.515
 5670SOL    HW117909   1.242   3.902   2.503
 5670SOL    HW217910   1.316   3.766   2.452
 5671SOL     OW17911   0.937   0.824   5.015
 5671SOL    HW117912   0.971   0.918   5.014
 5671SOL    HW217913   1.002   0.766   5.063
 5672SOL     OW17914   5.012   4.112   5.903
 5672SOL    HW117915   4.945   4.185   5.892
 5672SOL    HW217916   5.053   4.117   5.994
 5673SOL     OW17917   1.690   6.891   0.662
 5673SOL    HW117918   1.674   6.917   0.567
 5673SOL    HW217919   1.765   6.945   0.700
 5674SOL     OW17920   6.948   3.447   1.409
 5674SOL    HW117921   6.912   3.389   1.336
 5674SOL    HW217922   6.989   3.529   1.369
 5675SOL     OW17923   3.913   0.949   6.166
 5675SOL    HW117924   3.985   0.880   6.164
 5675SOL    HW217925   3.942   1.029   6.113
 5676SOL     OW17926   3.268   6.763   1.579
 5676SOL    HW117927   3.229   6.686   1.629
 5676SOL    HW217928   3.309   6.730   1.494
 5677SOL     OW17929   6.792   0.354   3.138
 5677SOL    HW117930   6.889   0.341   3.119
 5677SOL    HW217931   6.763   0.288   3.208
 5678SOL     OW17932   1.501   5.720   3.469
 5678SOL    HW117933   1.525   5.784   3.542
 5678SOL    HW217934   1.470   5.634   3.510
 5679SOL     OW17935   3.159   5.430   5.629
 5679SOL    HW117936   3.128   5.436   5.534
 5679SOL    HW217937   3.257   5.453   5.633
 5680SOL     OW17938   1.629   6.691   6.575
 5680SOL    HW117939   1.679   6.608   6.551
 5680SOL    HW217940   1.665   6.728   6.661
 5681SOL     OW17941   2.676   4.027   6.909
 5681SOL    HW117942   2.764   4.014   6.863
 5681SOL    HW217943   2.610   3.959   6.875
 5682SOL     OW17944   1.597   3.668   4.323
 5682SOL    HW117945   1.557   3.642   4.234
 5682SOL    HW217946   1.677   3.612   4.341
 5683SOL     OW17947   4.040   3.810   5.057
 5683SOL    HW117948   3.980   3.830   4.979
 5683SOL    HW217949   3.996   3.741   5.115
 5684SOL     OW17950   3.160   3.035   3.167
 5684SOL    HW117951   3.175   3.010   3.071
 5684SOL    HW217952   3.064   3.059   3.181
 5685SOL     OW17953   0.343   5.662   1.887
 5685SOL    HW117954   0.329   5.743   1.830
 5685SOL    HW217955   0.408   5.683   1.959
 5686SOL     OW17956   3.519   4.870   0.031
 5686SOL    HW117957   3.609   4.827   0.030
 5686SOL    HW217958   3.489   4.883   0.126
 5687SOL     OW17959   4.191   5.359   6.418
 5687SOL    HW117960   4.189   5.456   6.396
 5687SOL    HW217961   4.104   5.332   6.458
 5688SOL     OW17962   5.620   1.793   1.953
 5688SOL    HW117963   5.647   1.723   2.018
 5688SOL    HW217964   5.587   1.750   1.869
 5689SOL     OW17965   4.350   3.277   6.133
 5689SOL    HW117966   4.325   3.183   6.153
 5689SOL    HW217967   4.412   3.312   6.203
 5690SOL     OW17968   4.218   6.452   2.524
 5690SOL    HW117969   4.217   6.443   2.424
 5690SOL    HW217970   4.175   6.539   2.549
 5691SOL     OW17971   2.718   0.544   3.994
 5691SOL    HW117972   2.630   0.502   4.016
 5691SOL    HW217973   2.736   0.535   3.896
 5692SOL     OW17974   5.690   2.901   6.298
 5692SOL    HW117975   5.783   2.876   6.323
 5692SOL    HW217976   5.626   2.866   6.366
 5693SOL     OW17977   5.083   2.356   2.507
 5693SOL    HW117978   5.038   2.277   2.466
 5693SOL    HW217979   5.025   2.394   2.579
 5694SOL     OW17980   1.057   1.741   3.883
 5694SOL    HW117981   1.138   1.790   3.917
 5694SOL    HW217982   1.067   1.644   3.903
 5695SOL     OW17983   1.972   3.495   3.369
 5695SOL    HW117984   2.014   3.411   3.405
 5695SOL    HW217985   2.037   3.571   3.377
 5696SOL     OW17986   3.231   0.630   5.908
 5696SOL    HW117987   3.269   0.637   6.000
 5696SOL    HW217988   3.154   0.566   5.908
 5697SOL     OW17989   6.444   3.801   0.161
 5697SOL    HW117990   6.511   3.797   0.235
 5697SOL    HW217991   6.376   3.872   0.181
 5698SOL     OW17992   1.268   4.092   3.153
 5698SOL    HW117993   1.313   4.180   3.166
 5698SOL    HW217994   1.265   4.043   3.239
 5699SOL     OW17995   6.781   2.647   5.071
 5699SOL    HW117996   6.687   2.657   5.103
 5699SOL    HW217997   6.844   2.673   5.144
 5700SOL     OW17998   0.899   5.690   3.670
 5700SOL    HW117999   0.830   5.656   3.606
 5700SOL    HW218000   0.983   5.637   3.659
 5701SOL     OW18001   5.450   4.179   2.197
 5701SOL    HW118002   5.511   4.237   2.251
 5701SOL    HW218003   5.478   4.180   2.101
 5702SOL     OW18004   2.813   0.205   6.826
 5702SOL    HW118005   2.892   0.176   6.773
 5702SOL    HW218006   2.817   0.163   6.917
 5703SOL     OW18007   4.789   4.173   2.003
 5703SOL    HW118008   4.706   4.215   1.967
 5703SOL    HW218009   4.853   4.245   2.031
 5704SOL     OW18010   5.099   4.050   3.510
 5704SOL    HW118011   5.001   4.044   3.493
 5704SOL    HW218012   5.116   4.058   3.609
 5705SOL     OW18013   6.292   1.721   3.149
 5705SOL    HW118014   6.375   1.672   3.176
 5705SOL    HW218015   6.212   1.674   3.187
 5706SOL     OW18016   2.182   1.401   6.524
 5706SOL    HW118017   2.108   1.461   6.555
 5706SOL    HW218018   2.145   1.310   6.504
 5707SOL     OW18019   2.963   1.271   6.679
 5707SOL    HW118020   3.047   1.325   6.678
 5707SOL    HW218021   2.919   1.275   6.590
 5708SOL     OW18022   6.584   0.262   1.575
 5708SOL    HW118023   6.679   0.260   1.547
 5708SOL    HW218024   6.557   0.171   1.608
 5709SOL     OW18025   1.253   1.954   1.570
 5709SOL    HW118026   1.262   1.857   1.547
 5709SOL    HW218027   1.337   2.002   1.548
 5710SOL     OW18028   3.324   4.534   6.390
 5710SOL    HW118029   3.351   4.492   6.303
 5710SOL    HW218030   3.400   4.589   6.425
 5711SOL     OW18031   5.225   1.001   4.833
 5711SOL    HW118032   5.315   0.985   4.875
 5711SOL    HW218033   5.154   0.977   4.899
 5712SOL     OW18034   6.606   6.170   6.897
 5712SOL    HW118035   6.677   6.146   6.831
 5712SOL    HW218036   6.524   6.115   6.880
 5713SOL     OW18037   0.284   2.748   2.586
 5713SOL    HW118038   0.275   2.732   2.684
 5713SOL    HW218039   0.364   2.805   2.569
 5714SOL     OW18040   2.024   0.797   6.244
 5714SOL    HW118041   1.973   0.819   6.162
 5714SOL    HW218042   2.104   0.857   6.251
 5715SOL     OW18043   1.380   0.072   3.564
 5715SOL    HW118044   1.397   0.140   3.635
 5715SOL    HW218045   1.466   0.035   3.531
 5716SOL     OW18046   1.999   2.355   5.017
 5716SOL    HW118047   2.063   2.428   5.038
 5716SOL    HW218048   1.985   2.298   5.098
 5717SOL     OW18049   0.715   3.843   6.794
 5717SOL    HW118050   0.758   3.780   6.729
 5717SOL    HW218051   0.652   3.903   6.745
 5718SOL     OW18052   2.572   5.177   5.467
 5718SOL    HW118053   2.582   5.121   5.384
 5718SOL    HW218054   2.656   5.228   5.484
 5719SOL     OW18055   2.143   0.614   0.762
 5719SOL    HW118056   2.208   0.681   0.727
 5719SOL    HW218057   2.109   0.643   0.851
 5720SOL     OW18058   0.949   5.740   3.947
 5720SOL    HW118059   0.962   5.642   3.964
 5720SOL    HW218060   0.913   5.754   3.855
 5721SOL     OW18061   6.851   4.546   0.813
 5721SOL    HW118062   6.872   4.548   0.716
 5721SOL    HW218063   6.865   4.453   0.848
 5722SOL     OW18064   5.521   1.397   4.066
 5722SOL    HW118065   5.444   1.334   4.070
 5722SOL    HW218066   5.584   1.379   4.141
 5723SOL     OW18067   1.229   4.313   1.041
 5723SOL    HW118068   1.316   4.296   1.087
 5723SOL    HW218069   1.215   4.245   0.969
 5724SOL     OW18070   4.925   2.403   5.821
 5724SOL    HW118071   4.847   2.384   5.881
 5724SOL    HW218072   4.967   2.490   5.850
 5725SOL     OW18073   5.284   6.201   5.521
 5725SOL    HW118074   5.331   6.283   5.553
 5725SOL    HW218075   5.349   6.142   5.473
 5726SOL     OW18076   4.521   3.841   5.529
 5726SOL    HW118077   4.540   3.764   5.469
 5726SOL    HW218078   4.507   3.924   5.473
 5727SOL     OW18079   5.605   2.202   3.957
 5727SOL    HW118080   5.524   2.152   3.988
 5727SOL    HW218081   5.582   2.257   3.877
 5728SOL     OW18082   4.724   0.711   5.463
 5728SOL    HW118083   4.763   0.735   5.552
 5728SOL    HW218084   4.798   0.684   5.400
 5729SOL     OW18085   1.435   2.875   4.559
 5729SOL    HW118086   1.347   2.877   4.604
 5729SOL    HW218087   1.425   2.908   4.465
 5730SOL     OW18088   4.023   5.352   0.594
 5730SOL    HW118089   4.001   5.276   0.656
 5730SOL    HW218090   3.938   5.395   0.564
 5731SOL     OW18091   4.338   1.719   4.755
 5731SOL    HW118092   4.330   1.644   4.821
 5731SOL    HW218093   4.415   1.703   4.694
 5732SOL     OW18094   5.619   4.260   3.938
 5732SOL    HW118095   5.564   4.235   4.017
 5732SOL    HW218096   5.587   4.348   3.901
 5733SOL     OW18097   2.867   0.049   1.437
 5733SOL    HW118098   2.931   0.125   1.445
 5733SOL    HW218099   2.903   6.988   1.486
 5734SOL     OW18100   1.588   6.413   6.227
 5734SOL    HW118101   1.618   6.411   6.132
 5734SOL    HW218102   1.668   6.411   6.287
 5735SOL     OW18103   5.431   0.956   1.746
 5735SOL    HW118104   5.426   0.882   1.679
 5735SOL    HW218105   5.341   0.996   1.759
 5736SOL     OW18106   5.882   4.060   6.344
 5736SOL    HW118107   5.906   4.010   6.427
 5736SOL    HW218108   5.910   4.156   6.353
 5737SOL     OW18109   5.348   5.858   2.259
 5737SOL    HW118110   5.395   5.861   2.347
 5737SOL    HW218111   5.286   5.936   2.252
 5738SOL     OW18112   2.244   0.790   0.957
 5738SOL    HW118113   2.226   0.865   1.020
 5738SOL    HW218114   2.276   0.710   1.009
 5739SOL     OW18115   2.430   0.801   5.751
 5739SOL    HW118116   2.397   0.894   5.769
 5739SOL    HW218117   2.529   0.804   5.734
 5740SOL     OW18118   4.914   3.749   3.008
 5740SOL    HW118119   4.865   3.684   2.950
 5740SOL    HW218120   4.973   3.699   3.071
 5741SOL     OW18121   1.637   3.293   4.211
 5741SOL    HW118122   1.627   3.314   4.308
 5741SOL    HW218123   1.734   3.293   4.187
 5742SOL     OW18124   5.896   6.680   2.983
 5742SOL    HW118125   5.946   6.720   3.059
 5742SOL    HW218126   5.834   6.610   3.017
 5743SOL     OW18127   3.617   5.776   0.242
 5743SOL    HW118128   3.669   5.756   0.159
 5743SOL    HW218129   3.676   5.821   0.309
 5744SOL     OW18130   5.154   6.207   3.597
 5744SOL    HW118131   5.233   6.209   3.659
 5744SOL    HW218132   5.178   6.155   3.515
 5745SOL     OW18133   1.090   2.960   2.389
 5745SOL    HW118134   1.038   2.960   2.303
 5745SOL    HW218135   1.115   2.867   2.414
 5746SOL     OW18136   5.182   0.346   2.853
 5746SOL    HW118137   5.211   0.292   2.775
 5746SOL    HW218138   5.161   0.286   2.930
 5747SOL     OW18139   1.676   6.846   1.178
 5747SOL    HW118140   1.622   6.852   1.094
 5747SOL    HW218141   1.627   6.890   1.253
 5748SOL     OW18142   6.668   6.274   0.411
 5748SOL    HW118143   6.600   6.253   0.340
 5748SOL    HW218144   6.746   6.320   0.370
 5749SOL     OW18145   1.695   5.739   5.943
 5749SOL    HW118146   1.785   5.781   5.959
 5749SOL    HW218147   1.690   5.706   5.849
 5750SOL     OW18148   6.909   2.660   4.326
 5750SOL    HW118149   6.954   2.601   4.394
 5750SOL    HW218150   6.825   2.697   4.364
 5751SOL     OW18151   1.162   3.881   4.633
 5751SOL    HW118152   1.167   3.980   4.638
 5751SOL    HW218153   1.163   3.843   4.726
 5752SOL     OW18154   5.270   0.641   0.124
 5752SOL    HW118155   5.223   0.567   0.077
 5752SOL    HW218156   5.343   0.676   0.066
 5753SOL     OW18157   3.190   4.036   4.463
 5753SOL    HW118158   3.174   4.031   4.562
 5753SOL    HW218159   3.278   4.080   4.445
 5754SOL     OW18160   0.021   6.087   1.188
 5754SOL    HW118161   6.954   6.037   1.204
 5754SOL    HW218162   0.058   6.118   1.276
 5755SOL     OW18163   0.972   3.482   6.695
 5755SOL    HW118164   0.888   3.452   6.740
 5755SOL    HW218165   1.037   3.515   6.763
 5756SOL     OW18166   6.178   5.892   1.897
 5756SOL    HW118167   6.188   5.952   1.976
 5756SOL    HW218168   6.227   5.930   1.819
 5757SOL     OW18169   6.824   1.214   3.864
 5757SOL    HW118170   6.757   1.225   3.937
 5757SOL    HW218171   6.793   1.142   3.801
 5758SOL     OW18172   6.097   6.533   2.669
 5758SOL    HW118173   6.137   6.557   2.581
 5758SOL    HW218174   6.008   6.577   2.679
 5759SOL     OW18175   2.974   0.243   2.279
 5759SOL    HW118176   3.034   0.304   2.226
 5759SOL    HW218177   2.880   0.278   2.276
 5760SOL     OW18178   1.817   2.562   0.077
 5760SOL    HW118179   1.789   2.653   0.044
 5760SOL    HW218180   1.814   2.561   0.177
 5761SOL     OW18181   6.444   6.957   4.607
 5761SOL    HW118182   6.391   6.874   4.622
 5761SOL    HW218183   6.536   6.944   4.643
 5762SOL     OW18184   0.741   5.467   6.220
 5762SOL    HW118185   0.691   5.516   6.292
 5762SOL    HW218186   0.694   5.381   6.199
 5763SOL     OW18187   5.814   0.018   0.465
 5763SOL    HW118188   5.834   0.025   0.367
 5763SOL    HW218189   5.819   0.109   0.507
 5764SOL     OW18190   4.275   6.449   4.025
 5764SOL    HW118191   4.272   6.354   4.058
 5764SOL    HW218192   4.360   6.492   4.054
 5765SOL     OW18193   6.438   4.830   2.260
 5765SOL    HW118194   6.514   4.881   2.299
 5765SOL    HW218195   6.354   4.885   2.265
 5766SOL     OW18196   0.631   1.403   4.201
 5766SOL    HW118197   0.639   1.321   4.146
 5766SOL    HW218198   0.552   1.397   4.261
 5767SOL     OW18199   3.993   6.693   6.816
 5767SOL    HW118200   4.061   6.742   6.762
 5767SOL    HW218201   4.005   6.714   6.913
 5768SOL     OW18202   0.848   1.235   5.131
 5768SOL    HW118203   0.797   1.321   5.131
 5768SOL    HW218204   0.795   1.166   5.181
 5769SOL     OW18205   1.504   3.438   5.709
 5769SOL    HW118206   1.567   3.363   5.691
 5769SOL    HW218207   1.550   3.509   5.763
 5770SOL     OW18208   1.872   4.191   2.042
 5770SOL    HW118209   1.843   4.107   1.997
 5770SOL    HW218210   1.848   4.270   1.986
 5771SOL     OW18211   3.240   5.022   3.824
 5771SOL    HW118212   3.257   5.077   3.742
 5771SOL    HW218213   3.147   4.985   3.820
 5772SOL     OW18214   3.262   6.884   2.838
 5772SOL    HW118215   3.328   6.852   2.769
 5772SOL    HW218216   3.311   6.934   2.910
 5773SOL     OW18217   5.565   1.230   2.429
 5773SOL    HW118218   5.636   1.227   2.358
 5773SOL    HW218219   5.486   1.281   2.394
 5774SOL     OW18220   0.758   6.549   2.934
 5774SOL    HW118221   0.747   6.645   2.958
 5774SOL    HW218222   0.801   6.542   2.844
 5775SOL     OW18223   6.522   5.108   1.731
 5775SOL    HW118224   6.497   5.043   1.659
 5775SOL    HW218225   6.569   5.059   1.805
 5776SOL     OW18226   2.624   0.916   4.206
 5776SOL    HW118227   2.533   0.907   4.248
 5776SOL    HW218228   2.676   0.986   4.255
 5777SOL     OW18229   1.904   6.768   1.775
 5777SOL    HW118230   1.896   6.764   1.874
 5777SOL    HW218231   1.990   6.812   1.750
 5778SOL     OW18232   6.977   1.004   1.006
 5778SOL    HW118233   0.008   1.008   0.919
 5778SOL    HW218234   6.914   1.082   1.012
 5779SOL     OW18235   5.950   1.168   6.423
 5779SOL    HW118236   5.973   1.121   6.508
 5779SOL    HW218237   5.902   1.106   6.362
 5780SOL     OW18238   5.439   4.953   4.129
 5780SOL    HW118239   5.358   4.974   4.183
 5780SOL    HW218240   5.472   4.862   4.152
 5781SOL     OW18241   1.292   5.380   5.992
 5781SOL    HW118242   1.364   5.444   5.966
 5781SOL    HW218243   1.330   5.288   5.998
 5782SOL     OW18244   0.364   0.583   0.490
 5782SOL    HW118245   0.345   0.551   0.583
 5782SOL    HW218246   0.366   0.683   0.489
 5783SOL     OW18247   2.413   2.430   0.543
 5783SOL    HW118248   2.450   2.337   0.535
 5783SOL    HW218249   2.320   2.426   0.581
 5784SOL     OW18250   6.781   6.072   6.708
 5784SOL    HW118251   6.879   6.055   6.712
 5784SOL    HW218252   6.739   6.011   6.641
 5785SOL     OW18253   1.229   1.184   0.279
 5785SOL    HW118254   1.174   1.168   0.361
 5785SOL    HW218255   1.257   1.096   0.240
 5786SOL     OW18256   6.292   5.274   1.367
 5786SOL    HW118257   6.357   5.326   1.311
 5786SOL    HW218258   6.342   5.223   1.437
 5787SOL     OW18259   2.100   3.000   6.499
 5787SOL    HW118260   2.028   2.958   6.443
 5787SOL    HW218261   2.069   3.005   6.594
 5788SOL     OW18262   3.136   0.548   3.383
 5788SOL    HW118263   3.161   0.587   3.294
 5788SOL    HW218264   3.212   0.491   3.416
 5789SOL     OW18265   3.944   4.742   6.109
 5789SOL    HW118266   4.024   4.684   6.093
 5789SOL    HW218267   3.966   4.837   6.086
 5790SOL     OW18268   1.218   3.272   3.199
 5790SOL    HW118269   1.125   3.245   3.223
 5790SOL    HW218270   1.253   3.212   3.127
 5791SOL     OW18271   2.149   0.590   3.042
 5791SOL    HW118272   2.108   0.680   3.055
 5791SOL    HW218273   2.092   0.521   3.086
 5792SOL     OW18274   0.022   2.741   2.588
 5792SOL    HW118275   0.116   2.708   2.588
 5792SOL    HW218276   6.994   2.712   2.671
 5793SOL     OW18277   0.037   1.095   3.939
 5793SOL    HW118278   7.008   1.027   3.995
 5793SOL    HW218279   6.989   1.165   3.909
 5794SOL     OW18280   5.325   4.829   6.165
 5794SOL    HW118281   5.289   4.759   6.227
 5794SOL    HW218282   5.261   4.842   6.089
 5795SOL     OW18283   5.543   4.158   6.473
 5795SOL    HW118284   5.556   4.075   6.418
 5795SOL    HW218285   5.632   4.194   6.500
 5796SOL     OW18286   3.591   2.594   0.755
 5796SOL    HW118287   3.601   2.533   0.677
 5796SOL    HW218288   3.532   2.671   0.730
 5797SOL     OW18289   3.303   3.053   6.103
 5797SOL    HW118290   3.372   3.124   6.115
 5797SOL    HW218291   3.237   3.058   6.178
 5798SOL     OW18292   6.846   5.392   4.311
 5798SOL    HW118293   6.881   5.481   4.280
 5798SOL    HW218294   6.918   5.345   4.362
 5799SOL     OW18295   5.323   0.631   3.543
 5799SOL    HW118296   5.391   0.558   3.535
 5799SOL    HW218297   5.329   0.672   3.634
 5800SOL     OW18298   6.194   5.396   0.242
 5800SOL    HW118299   6.116   5.402   0.179
 5800SOL    HW218300   6.162   5.364   0.331
 5801SOL     OW18301   2.397   1.203   2.942
 5801SOL    HW118302   2.336   1.129   2.914
 5801SOL    HW218303   2.473   1.209   2.877
 5802SOL     OW18304   0.134   2.408   4.430
 5802SOL    HW118305   0.127   2.414   4.530
 5802SOL    HW218306   0.170   2.494   4.395
 5803SOL     OW18307   1.801   4.989   0.519
 5803SOL    HW118308   1.716   4.953   0.557
 5803SOL    HW218309   1.812   4.954   0.426
 5804SOL     OW18310   6.379   3.105   5.923
 5804SOL    HW118311   6.346   3.195   5.950
 5804SOL    HW218312   6.426   3.112   5.835
 5805SOL     OW18313   6.071   3.117   6.761
 5805SOL    HW118314   6.043   3.112   6.857
 5805SOL    HW218315   6.010   3.180   6.712
 5806SOL     OW18316   0.403   6.806   0.130
 5806SOL    HW118317   0.347   6.819   0.211
 5806SOL    HW218318   0.498   6.792   0.157
 5807SOL     OW18319   2.012   3.647   1.937
 5807SOL    HW118320   1.933   3.635   1.997
 5807SOL    HW218321   2.085   3.585   1.964
 5808SOL     OW18322   6.449   2.349   3.149
 5808SOL    HW118323   6.467   2.412   3.073
 5808SOL    HW218324   6.352   2.349   3.170
 5809SOL     OW18325   6.575   3.050   4.003
 5809SOL    HW118326   6.616   3.105   3.930
 5809SOL    HW218327   6.632   3.056   4.085
 5810SOL     OW18328   2.714   2.383   2.453
 5810SOL    HW118329   2.759   2.413   2.368
 5810SOL    HW218330   2.636   2.325   2.430
 5811SOL     OW18331   2.778   1.327   2.864
 5811SOL    HW118332   2.693   1.317   2.812
 5811SOL    HW218333   2.816   1.418   2.850
 5812SOL     OW18334   4.381   0.450   4.815
 5812SOL    HW118335   4.341   0.482   4.901
 5812SOL    HW218336   4.415   0.528   4.763
 5813SOL     OW18337   1.303   1.123   5.160
 5813SOL    HW118338   1.324   1.212   5.201
 5813SOL    HW218339   1.383   1.064   5.166
 5814SOL     OW18340   0.522   5.124   1.028
 5814SOL    HW118341   0.496   5.211   1.070
 5814SOL    HW218342   0.537   5.137   0.931
 5815SOL     OW18343   3.572   1.324   3.485
 5815SOL    HW118344   3.527   1.401   3.439
 5815SOL    HW218345   3.654   1.355   3.532
 5816SOL     OW18346   4.751   6.673   0.977
 5816SOL    HW118347   4.673   6.732   0.959
 5816SOL    HW218348   4.813   6.675   0.898
 5817SOL     OW18349   5.335   2.276   5.412
 5817SOL    HW118350   5.259   2.231   5.460
 5817SOL    HW218351   5.416   2.217   5.415
 5818SOL     OW18352   6.197   6.409   5.882
 5818SOL    HW118353   6.282   6.390   5.832
 5818SOL    HW218354   6.128   6.341   5.856
 5819SOL     OW18355   5.749   0.263   0.861
 5819SOL    HW118356   5.775   0.357   0.881
 5819SOL    HW218357   5.674   0.236   0.922
 5820SOL     OW18358   6.259   6.103   2.966
 5820SOL    HW118359   6.217   6.102   3.057
 5820SOL    HW218360   6.239   6.191   2.922
 5821SOL     OW18361   3.677   0.347   1.956
 5821SOL    HW118362   3.715   0.431   1.994
 5821SOL    HW218363   3.580   0.360   1.936
 5822SOL     OW18364   0.454   1.263   2.704
 5822SOL    HW118365   0.435   1.260   2.802
 5822SOL    HW218366   0.369   1.274   2.653
 5823SOL     OW18367   2.345   2.633   4.171
 5823SOL    HW118368   2.270   2.569   4.155
 5823SOL    HW218369   2.336   2.673   4.262
 5824SOL     OW18370   4.405   0.717   3.579
 5824SOL    HW118371   4.332   0.652   3.557
 5824SOL    HW218372   4.494   0.672   3.567
 5825SOL     OW18373   2.610   0.972   0.550
 5825SOL    HW118374   2.654   0.883   0.565
 5825SOL    HW218375   2.586   1.012   0.638
 5826SOL     OW18376   6.389   0.577   4.702
 5826SOL    HW118377   6.414   0.525   4.783
 5826SOL    HW218378   6.340   0.517   4.638
 5827SOL     OW18379   1.020   5.226   5.189
 5827SOL    HW118380   0.974   5.145   5.153
 5827SOL    HW218381   1.114   5.202   5.215
 5828SOL     OW18382   6.950   3.144   1.953
 5828SOL    HW118383   6.930   3.047   1.971
 5828SOL    HW218384   6.879   3.182   1.894
 5829SOL     OW18385   1.381   1.324   1.912
 5829SOL    HW118386   1.336   1.302   1.825
 5829SOL    HW218387   1.317   1.310   1.987
 5830SOL     OW18388   2.209   1.020   5.604
 5830SOL    HW118389   2.210   1.067   5.692
 5830SOL    HW218390   2.162   0.932   5.614
 5831SOL     OW18391   5.794   6.002   3.075
 5831SOL    HW118392   5.761   6.069   3.141
 5831SOL    HW218393   5.722   5.981   3.009
 5832SOL     OW18394   3.602   3.791   4.785
 5832SOL    HW118395   3.556   3.727   4.723
 5832SOL    HW218396   3.539   3.819   4.857
 5833SOL     OW18397   3.671   3.213   4.817
 5833SOL    HW118398   3.739   3.209   4.744
 5833SOL    HW218399   3.685   3.296   4.871
 5834SOL     OW18400   6.131   0.692   0.214
 5834SOL    HW118401   6.127   0.790   0.195
 5834SOL    HW218402   6.199   0.649   0.155
 5835SOL     OW18403   5.056   2.469   3.856
 5835SOL    HW118404   4.994   2.531   3.808
 5835SOL    HW218405   5.060   2.494   3.952
 5836SOL     OW18406   3.346   6.200   2.565
 5836SOL    HW118407   3.420   6.191   2.632
 5836SOL    HW218408   3.365   6.140   2.487
 5837SOL     OW18409   5.031   4.783   6.115
 5837SOL    HW118410   4.980   4.869   6.124
 5837SOL    HW218411   5.028   4.733   6.201
 5838SOL     OW18412   0.341   2.149   5.175
 5838SOL    HW118413   0.254   2.194   5.150
 5838SOL    HW218414   0.371   2.183   5.264
 5839SOL     OW18415   0.076   3.197   2.700
 5839SOL    HW118416   0.080   3.286   2.653
 5839SOL    HW218417   0.134   3.132   2.651
 5840SOL     OW18418   1.934   5.163   6.994
 5840SOL    HW118419   1.885   5.249   6.978
 5840SOL    HW218420   2.017   5.182   0.027
 5841SOL     OW18421   6.588   2.384   2.832
 5841SOL    HW118422   6.589   2.300   2.886
 5841SOL    HW218423   6.527   2.451   2.875
 5842SOL     OW18424   4.017   3.107   0.619
 5842SOL    HW118425   3.940   3.067   0.669
 5842SOL    HW218426   3.993   3.198   0.587
 5843SOL     OW18427   1.538   2.780   1.619
 5843SOL    HW118428   1.581   2.824   1.698
 5843SOL    HW218429   1.439   2.781   1.631
 5844SOL     OW18430   1.008   6.102   0.368
 5844SOL    HW118431   0.919   6.138   0.341
 5844SOL    HW218432   1.035   6.029   0.306
 5845SOL     OW18433   1.135   2.042   4.456
 5845SOL    HW118434   1.089   1.966   4.501
 5845SOL    HW218435   1.085   2.069   4.374
 5846SOL     OW18436   0.366   2.983   6.432
 5846SOL    HW118437   0.332   2.936   6.350
 5846SOL    HW218438   0.372   3.081   6.414
 5847SOL     OW18439   1.952   2.429   3.195
 5847SOL    HW118440   2.040   2.476   3.197
 5847SOL    HW218441   1.958   2.343   3.246
 5848SOL     OW18442   1.296   4.903   3.613
 5848SOL    HW118443   1.387   4.865   3.624
 5848SOL    HW218444   1.271   4.903   3.516
 5849SOL     OW18445   3.395   6.706   5.421
 5849SOL    HW118446   3.476   6.698   5.479
 5849SOL    HW218447   3.326   6.762   5.467
 5850SOL     OW18448   1.058   4.189   3.000
 5850SOL    HW118449   1.124   4.141   3.058
 5850SOL    HW218450   1.098   4.202   2.909
 5851SOL     OW18451   5.512   2.906   2.196
 5851SOL    HW118452   5.456   2.840   2.145
 5851SOL    HW218453   5.572   2.955   2.133
 5852SOL     OW18454   3.977   5.768   2.874
 5852SOL    HW118455   4.074   5.778   2.895
 5852SOL    HW218456   3.966   5.697   2.804
 5853SOL     OW18457   3.622   3.825   5.515
 5853SOL    HW118458   3.524   3.846   5.509
 5853SOL    HW218459   3.650   3.825   5.611
 5854SOL     OW18460   0.526   1.046   6.658
 5854SOL    HW118461   0.457   1.117   6.674
 5854SOL    HW218462   0.512   0.971   6.722
 5855SOL     OW18463   1.412   1.072   4.731
 5855SOL    HW118464   1.313   1.074   4.724
 5855SOL    HW218465   1.445   1.156   4.773
 5856SOL     OW18466   2.102   5.589   3.872
 5856SOL    HW118467   2.029   5.623   3.812
 5856SOL    HW218468   2.156   5.520   3.823
 5857SOL     OW18469   0.191   2.663   6.034
 5857SOL    HW118470   0.196   2.645   5.936
 5857SOL    HW218471   0.268   2.618   6.080
 5858SOL     OW18472   3.222   6.626   3.045
 5858SOL    HW118473   3.215   6.725   3.048
 5858SOL    HW218474   3.147   6.585   3.098
 5859SOL     OW18475   6.353   5.605   1.221
 5859SOL    HW118476   6.371   5.513   1.186
 5859SOL    HW218477   6.319   5.599   1.315
 5860SOL     OW18478   1.730   3.904   1.321
 5860SOL    HW118479   1.809   3.936   1.268
 5860SOL    HW218480   1.756   3.821   1.371
 5861SOL     OW18481   6.019   1.849   3.432
 5861SOL    HW118482   5.955   1.916   3.469
 5861SOL    HW218483   5.980   1.757   3.440
 5862SOL     OW18484   4.958   4.503   3.518
 5862SOL    HW118485   5.033   4.439   3.532
 5862SOL    HW218486   4.893   4.463   3.453
 5863SOL     OW18487   1.870   1.252   0.670
 5863SOL    HW118488   1.787   1.234   0.617
 5863SOL    HW218489   1.934   1.175   0.660
 5864SOL     OW18490   4.816   5.112   0.716
 5864SOL    HW118491   4.869   5.191   0.685
 5864SOL    HW218492   4.838   5.092   0.811
 5865SOL     OW18493   4.114   1.120   3.537
 5865SOL    HW118494   4.106   1.188   3.465
 5865SOL    HW218495   4.172   1.045   3.506
 5866SOL     OW18496   3.813   0.605   6.621
 5866SOL    HW118497   3.804   0.687   6.677
 5866SOL    HW218498   3.899   0.560   6.643
 5867SOL     OW18499   0.251   2.685   0.842
 5867SOL    HW118500   0.340   2.648   0.815
 5867SOL    HW218501   0.234   2.770   0.792
 5868SOL     OW18502   1.243   0.038   4.833
 5868SOL    HW118503   1.164   0.094   4.805
 5868SOL    HW218504   1.279   7.008   4.753
 5869SOL     OW18505   2.830   5.012   3.522
 5869SOL    HW118506   2.912   5.055   3.487
 5869SOL    HW218507   2.753   5.075   3.517
 5870SOL     OW18508   5.288   4.988   4.524
 5870SOL    HW118509   5.325   4.991   4.432
 5870SOL    HW218510   5.360   5.011   4.590
 5871SOL     OW18511   2.591   3.296   6.855
 5871SOL    HW118512   2.657   3.227   6.884
 5871SOL    HW218513   2.503   3.278   6.898
 5872SOL     OW18514   3.898   5.952   4.405
 5872SOL    HW118515   3.858   5.862   4.390
 5872SOL    HW218516   3.827   6.017   4.430
 5873SOL     OW18517   2.397   3.696   0.463
 5873SOL    HW118518   2.326   3.626   0.463
 5873SOL    HW218519   2.434   3.706   0.371
 5874SOL     OW18520   1.493   4.490   0.256
 5874SOL    HW118521   1.553   4.566   0.281
 5874SOL    HW218522   1.429   4.472   0.331
 5875SOL     OW18523   4.645   2.027   0.171
 5875SOL    HW118524   4.661   2.054   0.266
 5875SOL    HW218525   4.585   2.094   0.127
 5876SOL     OW18526   3.766   4.200   6.080
 5876SOL    HW118527   3.718   4.249   6.007
 5876SOL    HW218528   3.804   4.115   6.044
 5877SOL     OW18529   6.442   0.089   2.224
 5877SOL    HW118530   6.440   0.082   2.324
 5877SOL    HW218531   6.485   0.008   2.186
 5878SOL     OW18532   5.159   4.681   2.203
 5878SOL    HW118533   5.185   4.775   2.227
 5878SOL    HW218534   5.108   4.682   2.118
 5879SOL     OW18535   3.795   3.117   5.582
 5879SOL    HW118536   3.863   3.089   5.515
 5879SOL    HW218537   3.705   3.120   5.539
 5880SOL     OW18538   6.061   2.590   6.208
 5880SOL    HW118539   6.158   2.611   6.223
 5880SOL    HW218540   6.051   2.542   6.121
 5881SOL     OW18541   1.574   6.395   2.637
 5881SOL    HW118542   1.621   6.444   2.563
 5881SOL    HW218543   1.617   6.416   2.724
 5882SOL     OW18544   1.797   4.820   5.535
 5882SOL    HW118545   1.705   4.836   5.570
 5882SOL    HW218546   1.838   4.742   5.583
 5883SOL     OW18547   6.562   4.893   0.033
 5883SOL    HW118548   6.557   4.989   0.058
 5883SOL    HW218549   6.618   4.844   0.100
 5884SOL     OW18550   6.873   1.314   2.556
 5884SOL    HW118551   6.831   1.324   2.646
 5884SOL    HW218552   6.836   1.233   2.511
 5885SOL     OW18553   6.937   5.203   0.607
 5885SOL    HW118554   6.903   5.160   0.523
 5885SOL    HW218555   6.889   5.164   0.686
 5886SOL     OW18556   1.913   4.171   3.727
 5886SOL    HW118557   1.977   4.107   3.770
 5886SOL    HW218558   1.825   4.125   3.713
 5887SOL     OW18559   2.412   2.744   0.589
 5887SOL    HW118560   2.500   2.789   0.573
 5887SOL    HW218561   2.419   2.647   0.565
 5888SOL     OW18562   2.930   6.699   1.462
 5888SOL    HW118563   2.830   6.706   1.452
 5888SOL    HW218564   2.951   6.641   1.540
 5889SOL     OW18565   6.034   0.947   1.960
 5889SOL    HW118566   6.085   1.030   1.980
 5889SOL    HW218567   6.082   0.868   1.999
 5890SOL     OW18568   2.225   5.075   3.376
 5890SOL    HW118569   2.294   5.007   3.399
 5890SOL    HW218570   2.233   5.154   3.437
 5891SOL     OW18571   2.385   3.541   6.541
 5891SOL    HW118572   2.326   3.541   6.460
 5891SOL    HW218573   2.338   3.496   6.616
 5892SOL     OW18574   0.729   3.103   0.121
 5892SOL    HW118575   0.691   3.192   0.146
 5892SOL    HW218576   0.708   3.037   0.193
 5893SOL     OW18577   0.697   6.499   0.926
 5893SOL    HW118578   0.631   6.515   0.852
 5893SOL    HW218579   0.787   6.480   0.888
 5894SOL     OW18580   1.846   5.912   6.807
 5894SOL    HW118581   1.885   5.872   6.724
 5894SOL    HW218582   1.904   5.988   6.837
 5895SOL     OW18583   5.365   4.017   3.417
 5895SOL    HW118584   5.434   4.016   3.489
 5895SOL    HW218585   5.275   4.035   3.457
 5896SOL     OW18586   5.694   2.564   2.318
 5896SOL    HW118587   5.728   2.645   2.269
 5896SOL    HW218588   5.598   2.577   2.339
 5897SOL     OW18589   3.683   2.195   0.706
 5897SOL    HW118590   3.728   2.116   0.747
 5897SOL    HW218591   3.595   2.168   0.668
 5898SOL     OW18592   2.136   1.490   6.275
 5898SOL    HW118593   2.176   1.444   6.195
 5898SOL    HW218594   2.185   1.462   6.357
 5899SOL     OW18595   0.415   6.312   6.877
 5899SOL    HW118596   0.367   6.358   6.951
 5899SOL    HW218597   0.451   6.381   6.813
 5900SOL     OW18598   5.906   6.335   2.913
 5900SOL    HW118599   6.001   6.338   2.944
 5900SOL    HW218600   5.847   6.382   2.979
 5901SOL     OW18601   2.309   0.930   4.999
 5901SOL    HW118602   2.371   0.980   4.940
 5901SOL    HW218603   2.314   0.832   4.979
 5902SOL     OW18604   4.403   3.478   5.825
 5902SOL    HW118605   4.484   3.461   5.769
 5902SOL    HW218606   4.346   3.396   5.826
 5903SOL     OW18607   6.247   1.884   5.208
 5903SOL    HW118608   6.150   1.865   5.228
 5903SOL    HW218609   6.266   1.980   5.226
 5904SOL     OW18610   0.856   5.098   1.465
 5904SOL    HW118611   0.766   5.061   1.442
 5904SOL    HW218612   0.875   5.082   1.562
 5905SOL     OW18613   5.694   1.775   4.371
 5905SOL    HW118614   5.755   1.844   4.332
 5905SOL    HW218615   5.634   1.739   4.300
 5906SOL     OW18616   4.374   1.238   5.671
 5906SOL    HW118617   4.459   1.273   5.633
 5906SOL    HW218618   4.357   1.146   5.636
 5907SOL     OW18619   1.545   3.720   5.829
 5907SOL    HW118620   1.467   3.657   5.838
 5907SOL    HW218621   1.556   3.772   5.914
 5908SOL     OW18622   4.675   4.071   6.471
 5908SOL    HW118623   4.730   4.143   6.515
 5908SOL    HW218624   4.638   4.106   6.385
 5909SOL     OW18625   6.374   4.663   3.709
 5909SOL    HW118626   6.418   4.752   3.696
 5909SOL    HW218627   6.369   4.616   3.621
 5910SOL     OW18628   3.548   4.749   0.576
 5910SOL    HW118629   3.480   4.686   0.539
 5910SOL    HW218630   3.639   4.708   0.571
 5911SOL     OW18631   6.344   6.934   6.879
 5911SOL    HW118632   6.438   6.941   6.844
 5911SOL    HW218633   6.334   6.989   6.961
 5912SOL     OW18634   0.856   3.622   5.097
 5912SOL    HW118635   0.884   3.589   5.007
 5912SOL    HW218636   0.936   3.637   5.154
 5913SOL     OW18637   1.399   2.303   4.693
 5913SOL    HW118638   1.337   2.291   4.615
 5913SOL    HW218639   1.488   2.335   4.660
 5914SOL     OW18640   1.702   5.911   0.835
 5914SOL    HW118641   1.666   5.933   0.744
 5914SOL    HW218642   1.729   5.815   0.838
 5915SOL     OW18643   5.361   3.055   4.317
 5915SOL    HW118644   5.380   3.143   4.274
 5915SOL    HW218645   5.439   2.994   4.306
 5916SOL     OW18646   3.019   0.216   6.042
 5916SOL    HW118647   3.058   0.301   6.078
 5916SOL    HW218648   3.084   0.141   6.053
 5917SOL     OW18649   3.493   4.036   2.600
 5917SOL    HW118650   3.444   4.077   2.524
 5917SOL    HW218651   3.592   4.045   2.585
 5918SOL     OW18652   2.480   2.500   3.904
 5918SOL    HW118653   2.570   2.462   3.921
 5918SOL    HW218654   2.455   2.563   3.978
 5919SOL     OW18655   1.431   2.420   6.898
 5919SOL    HW118656   1.366   2.459   6.963
 5919SOL    HW218657   1.389   2.341   6.853
 5920SOL     OW18658   2.486   5.420   6.953
 5920SOL    HW118659   2.455   5.463   0.019
 5920SOL    HW218660   2.449   5.327   6.947
 5921SOL     OW18661   3.393   5.510   5.733
 5921SOL    HW118662   3.427   5.423   5.696
 5921SOL    HW218663   3.466   5.556   5.783
 5922SOL     OW18664   5.851   4.532   1.447
 5922SOL    HW118665   5.847   4.504   1.543
 5922SOL    HW218666   5.786   4.606   1.431
 5923SOL     OW18667   6.697   0.796   3.557
 5923SOL    HW118668   6.664   0.804   3.652
 5923SOL    HW218669   6.686   0.702   3.526
 5924SOL     OW18670   5.920   1.581   5.087
 5924SOL    HW118671   5.870   1.668   5.091
 5924SOL    HW218672   5.922   1.548   4.993
 5925SOL     OW18673   6.225   5.589   0.623
 5925SOL    HW118674   6.202   5.669   0.567
 5925SOL    HW218675   6.222   5.507   0.565
 5926SOL     OW18676   3.397   5.297   2.505
 5926SOL    HW118677   3.339   5.229   2.550
 5926SOL    HW218678   3.422   5.265   2.414
 5927SOL     OW18679   2.594   5.323   2.564
 5927SOL    HW118680   2.601   5.250   2.632
 5927SOL    HW218681   2.652   5.400   2.590
 5928SOL     OW18682   0.494   6.360   1.524
 5928SOL    HW118683   0.581   6.366   1.474
 5928SOL    HW218684   0.449   6.273   1.501
 5929SOL     OW18685   1.367   6.969   5.637
 5929SOL    HW118686   1.323   6.921   5.561
 5929SOL    HW218687   1.423   6.904   5.690
 5930SOL     OW18688   6.513   1.412   5.226
 5930SOL    HW118689   6.584   1.354   5.266
 5930SOL    HW218690   6.425   1.363   5.229
 5931SOL     OW18691   5.827   5.102   1.328
 5931SOL    HW118692   5.768   5.127   1.405
 5931SOL    HW218693   5.854   5.185   1.279
 5932SOL     OW18694   2.716   0.243   0.229
 5932SOL    HW118695   2.689   0.331   0.268
 5932SOL    HW218696   2.634   0.191   0.205
 5933SOL     OW18697   6.040   3.551   2.737
 5933SOL    HW118698   5.990   3.548   2.650
 5933SOL    HW218699   6.037   3.645   2.773
 5934SOL     OW18700   3.033   3.470   2.250
 5934SOL    HW118701   3.102   3.480   2.322
 5934SOL    HW218702   3.058   3.395   2.189
 5935SOL     OW18703   4.056   3.723   2.854
 5935SOL    HW118704   4.135   3.702   2.796
 5935SOL    HW218705   4.039   3.646   2.916
 5936SOL     OW18706   5.760   5.895   6.242
 5936SOL    HW118707   5.747   5.993   6.233
 5936SOL    HW218708   5.854   5.872   6.216
 5937SOL     OW18709   1.350   4.208   0.226
 5937SOL    HW118710   1.318   4.134   0.167
 5937SOL    HW218711   1.430   4.252   0.184
 5938SOL     OW18712   1.739   4.492   1.062
 5938SOL    HW118713   1.807   4.450   1.122
 5938SOL    HW218714   1.672   4.422   1.034
 5939SOL     OW18715   2.173   1.318   2.669
 5939SOL    HW118716   2.118   1.298   2.749
 5939SOL    HW218717   2.231   1.239   2.648
 5940SOL     OW18718   4.370   5.186   3.608
 5940SOL    HW118719   4.443   5.244   3.646
 5940SOL    HW218720   4.281   5.224   3.632
 5941SOL     OW18721   6.745   3.827   2.721
 5941SOL    HW118722   6.844   3.820   2.710
 5941SOL    HW218723   6.701   3.754   2.670
 5942SOL     OW18724   6.275   2.155   5.201
 5942SOL    HW118725   6.207   2.211   5.154
 5942SOL    HW218726   6.367   2.180   5.171
 5943SOL     OW18727   1.010   5.189   0.726
 5943SOL    HW118728   1.076   5.225   0.792
 5943SOL    HW218729   0.917   5.207   0.759
 5944SOL     OW18730   4.975   1.977   3.012
 5944SOL    HW118731   4.956   1.917   2.935
 5944SOL    HW218732   4.889   2.005   3.055
 5945SOL     OW18733   6.628   4.884   6.006
 5945SOL    HW118734   6.621   4.979   5.976
 5945SOL    HW218735   6.680   4.880   6.091
 5946SOL     OW18736   3.737   2.748   5.251
 5946SOL    HW118737   3.672   2.825   5.246
 5946SOL    HW218738   3.817   2.768   5.194
 5947SOL     OW18739   4.346   3.745   1.363
 5947SOL    HW118740   4.331   3.770   1.459
 5947SOL    HW218741   4.439   3.710   1.352
 5948SOL     OW18742   3.438   5.581   3.283
 5948SOL    HW118743   3.394   5.670   3.268
 5948SOL    HW218744   3.370   5.509   3.274
 5949SOL     OW18745   4.734   4.474   2.658
 5949SOL    HW118746   4.641   4.489   2.624
 5949SOL    HW218747   4.799   4.503   2.589
 5950SOL     OW18748   6.255   2.428   3.681
 5950SOL    HW118749   6.268   2.330   3.665
 5950SOL    HW218750   6.339   2.476   3.654
 5951SOL     OW18751   2.025   6.642   3.825
 5951SOL    HW118752   1.942   6.602   3.864
 5951SOL    HW218753   2.069   6.576   3.765
 5952SOL     OW18754   6.812   6.571   4.786
 5952SOL    HW118755   6.880   6.624   4.837
 5952SOL    HW218756   6.824   6.473   4.807
 5953SOL     OW18757   0.361   3.251   6.338
 5953SOL    HW118758   0.328   3.221   6.249
 5953SOL    HW218759   0.302   3.325   6.372
 5954SOL     OW18760   1.276   5.382   6.778
 5954SOL    HW118761   1.183   5.346   6.779
 5954SOL    HW218762   1.290   5.441   6.858
 5955SOL     OW18763   5.110   5.175   2.865
 5955SOL    HW118764   5.022   5.155   2.822
 5955SOL    HW218765   5.095   5.213   2.956
 5956SOL     OW18766   6.577   1.999   6.898
 5956SOL    HW118767   6.556   2.010   6.801
 5956SOL    HW218768   6.676   1.986   6.909
 5957SOL     OW18769   4.877   6.863   5.661
 5957SOL    HW118770   4.912   6.926   5.592
 5957SOL    HW218771   4.790   6.825   5.631
 5958SOL     OW18772   1.133   5.328   2.950
 5958SOL    HW118773   1.148   5.312   3.048
 5958SOL    HW218774   1.195   5.270   2.897
 5959SOL     OW18775   1.955   1.030   6.975
 5959SOL    HW118776   1.913   1.006   0.044
 5959SOL    HW218777   1.884   1.057   6.910
 5960SOL     OW18778   3.341   6.655   4.963
 5960SOL    HW118779   3.346   6.746   4.922
 5960SOL    HW218780   3.423   6.640   5.019
 5961SOL     OW18781   2.584   1.301   5.930
 5961SOL    HW118782   2.530   1.220   5.954
 5961SOL    HW218783   2.588   1.362   6.009
 5962SOL     OW18784   5.603   5.431   2.758
 5962SOL    HW118785   5.643   5.348   2.719
 5962SOL    HW218786   5.644   5.512   2.714
 5963SOL     OW18787   3.954   3.977   2.026
 5963SOL    HW118788   3.986   3.977   2.121
 5963SOL    HW218789   3.941   4.072   1.996
 5964SOL     OW18790   1.359   4.004   5.748
 5964SOL    HW118791   1.314   4.093   5.749
 5964SOL    HW218792   1.321   3.948   5.674
 5965SOL     OW18793   2.115   1.478   4.370
 5965SOL    HW118794   2.070   1.463   4.458
 5965SOL    HW218795   2.168   1.563   4.373
 5966SOL     OW18796   1.486   6.435   4.325
 5966SOL    HW118797   1.454   6.341   4.341
 5966SOL    HW218798   1.408   6.496   4.317
 5967SOL     OW18799   4.692   6.641   1.937
 5967SOL    HW118800   4.779   6.692   1.941
 5967SOL    HW218801   4.664   6.630   1.842
 5968SOL     OW18802   0.509   2.061   4.051
 5968SOL    HW118803   0.582   2.127   4.068
 5968SOL    HW218804   0.546   1.983   4.000
 5969SOL     OW18805   5.770   3.033   3.280
 5969SOL    HW118806   5.818   3.099   3.338
 5969SOL    HW218807   5.711   3.082   3.216
 5970SOL     OW18808   2.334   2.841   3.611
 5970SOL    HW118809   2.372   2.752   3.638
 5970SOL    HW218810   2.408   2.904   3.589
 5971SOL     OW18811   2.547   6.929   2.774
 5971SOL    HW118812   2.641   6.962   2.761
 5971SOL    HW218813   2.483   6.998   2.741
 5972SOL     OW18814   4.930   6.805   1.547
 5972SOL    HW118815   5.018   6.827   1.589
 5972SOL    HW218816   4.921   6.705   1.539
 5973SOL     OW18817   0.765   4.672   3.373
 5973SOL    HW118818   0.829   4.650   3.300
 5973SOL    HW218819   0.756   4.595   3.435
 5974SOL     OW18820   1.263   4.274   6.086
 5974SOL    HW118821   1.183   4.328   6.059
 5974SOL    HW218822   1.272   4.195   6.027
 5975SOL     OW18823   1.660   3.397   6.830
 5975SOL    HW118824   1.617   3.426   6.744
 5975SOL    HW218825   1.607   3.323   6.871
 5976SOL     OW18826   3.518   3.448   4.388
 5976SOL    HW118827   3.501   3.363   4.437
 5976SOL    HW218828   3.548   3.428   4.295
 5977SOL     OW18829   0.896   3.239   3.066
 5977SOL    HW118830   0.849   3.182   3.134
 5977SOL    HW218831   0.893   3.334   3.096
 5978SOL     OW18832   5.418   5.677   3.089
 5978SOL    HW118833   5.376   5.657   3.178
 5978SOL    HW218834   5.405   5.600   3.028
 5979SOL     OW18835   0.735   1.199   2.640
 5979SOL    HW118836   0.757   1.290   2.676
 5979SOL    HW218837   0.637   1.195   2.619
 5980SOL     OW18838   6.341   3.810   6.130
 5980SOL    HW118839   6.372   3.762   6.212
 5980SOL    HW218840   6.398   3.891   6.116
 5981SOL     OW18841   3.966   2.038   1.251
 5981SOL    HW118842   3.948   2.055   1.154
 5981SOL    HW218843   4.064   2.048   1.268
 5982SOL     OW18844   6.151   2.458   6.694
 5982SOL    HW118845   6.227   2.394   6.693
 5982SOL    HW218846   6.094   2.445   6.613
 5983SOL     OW18847   1.020   1.330   4.760
 5983SOL    HW118848   1.040   1.375   4.673
 5983SOL    HW218849   0.937   1.275   4.750
 5984SOL     OW18850   0.719   0.039   5.434
 5984SOL    HW118851   0.813   0.053   5.401
 5984SOL    HW218852   0.713   0.069   5.529
 5985SOL     OW18853   4.911   3.334   4.256
 5985SOL    HW118854   4.864   3.330   4.345
 5985SOL    HW218855   4.977   3.259   4.250
 5986SOL     OW18856   3.791   3.230   2.143
 5986SOL    HW118857   3.818   3.150   2.196
 5986SOL    HW218858   3.730   3.288   2.197
 5987SOL     OW18859   4.648   6.772   5.554
 5987SOL    HW118860   4.613   6.758   5.647
 5987SOL    HW218861   4.580   6.742   5.488
 5988SOL     OW18862   3.744   0.204   3.956
 5988SOL    HW118863   3.683   0.168   4.026
 5988SOL    HW218864   3.757   0.302   3.970
 5989SOL     OW18865   2.686   1.130   6.615
 5989SOL    HW118866   2.594   1.137   6.654
 5989SOL    HW218867   2.743   1.204   6.651
 5990SOL     OW18868   3.417   5.166   2.259
 5990SOL    HW118869   3.344   5.185   2.193
 5990SOL    HW218870   3.430   5.067   2.267
 5991SOL     OW18871   3.467   5.391   3.703
 5991SOL    HW118872   3.464   5.484   3.666
 5991SOL    HW218873   3.550   5.379   3.757
 5992SOL     OW18874   4.519   1.699   4.526
 5992SOL    HW118875   4.602   1.711   4.472
 5992SOL    HW218876   4.443   1.747   4.482
 5993SOL     OW18877   3.609   5.721   3.955
 5993SOL    HW118878   3.615   5.622   3.955
 5993SOL    HW218879   3.626   5.755   3.862
 5994SOL     OW18880   6.526   3.223   1.484
 5994SOL    HW118881   6.492   3.129   1.484
 5994SOL    HW218882   6.462   3.281   1.433
 5995SOL     OW18883   0.941   4.690   1.378
 5995SOL    HW118884   0.862   4.680   1.318
 5995SOL    HW218885   0.917   4.748   1.456
 5996SOL     OW18886   0.718   5.345   5.804
 5996SOL    HW118887   0.630   5.358   5.759
 5996SOL    HW218888   0.757   5.433   5.829
 5997SOL     OW18889   0.607   0.459   1.532
 5997SOL    HW118890   0.507   0.453   1.533
 5997SOL    HW218891   0.646   0.370   1.556
 5998SOL     OW18892   4.309   1.781   3.498
 5998SOL    HW118893   4.333   1.838   3.419
 5998SOL    HW218894   4.389   1.726   3.524
 5999SOL     OW18895   2.444   2.616   3.049
 5999SOL    HW118896   2.427   2.611   2.951
 5999SOL    HW218897   2.520   2.556   3.073
 6000SOL     OW18898   4.674   6.435   2.952
 6000SOL    HW118899   4.597   6.476   3.002
 6000SOL    HW218900   4.749   6.416   3.016
 6001SOL     OW18901   6.149   1.818   0.028
 6001SOL    HW118902   6.078   1.869   0.078
 6001SOL    HW218903   6.239   1.853   0.053
 6002SOL     OW18904   1.748   0.182   1.895
 6002SOL    HW118905   1.663   0.150   1.853
 6002SOL    HW218906   1.743   0.167   1.994
 6003SOL     OW18907   5.293   4.000   3.826
 6003SOL    HW118908   5.264   3.918   3.874
 6003SOL    HW218909   5.218   4.067   3.827
 6004SOL     OW18910   0.435   3.423   1.258
 6004SOL    HW118911   0.498   3.384   1.326
 6004SOL    HW218912   0.389   3.503   1.297
 6005SOL     OW18913   2.567   5.931   2.435
 6005SOL    HW118914   2.667   5.935   2.428
 6005SOL    HW218915   2.527   6.006   2.382
 6006SOL     OW18916   2.234   5.693   6.818
 6006SOL    HW118917   2.258   5.784   6.853
 6006SOL    HW218918   2.201   5.636   6.894
 6007SOL     OW18919   5.208   2.345   4.564
 6007SOL    HW118920   5.207   2.428   4.507
 6007SOL    HW218921   5.297   2.337   4.609
 6008SOL     OW18922   4.380   5.034   0.432
 6008SOL    HW118923   4.446   5.009   0.361
 6008SOL    HW218924   4.429   5.055   0.517
 6009SOL     OW18925   3.450   1.644   4.238
 6009SOL    HW118926   3.377   1.708   4.214
 6009SOL    HW218927   3.539   1.689   4.230
 6010SOL     OW18928   1.463   2.779   3.652
 6010SOL    HW118929   1.415   2.804   3.568
 6010SOL    HW218930   1.543   2.837   3.665
 6011SOL     OW18931   6.732   3.069   2.178
 6011SOL    HW118932   6.651   3.114   2.142
 6011SOL    HW218933   6.734   2.974   2.146
 6012SOL     OW18934   0.453   3.262   1.021
 6012SOL    HW118935   0.386   3.195   1.051
 6012SOL    HW218936   0.459   3.336   1.089
 6013SOL     OW18937   5.758   0.616   2.127
 6013SOL    HW118938   5.699   0.540   2.154
 6013SOL    HW218939   5.817   0.642   2.203
 6014SOL     OW18940   5.189   0.392   1.282
 6014SOL    HW118941   5.172   0.488   1.257
 6014SOL    HW218942   5.217   0.387   1.377
 6015SOL     OW18943   5.372   1.190   4.649
 6015SOL    HW118944   5.273   1.195   4.634
 6015SOL    HW218945   5.403   1.096   4.641
 6016SOL     OW18946   1.644   6.769   5.378
 6016SOL    HW118947   1.649   6.783   5.477
 6016SOL    HW218948   1.685   6.681   5.355
 6017SOL     OW18949   6.661   3.963   2.466
 6017SOL    HW118950   6.639   3.949   2.562
 6017SOL    HW218951   6.638   3.881   2.414
 6018SOL     OW18952   2.597   5.499   0.831
 6018SOL    HW118953   2.613   5.598   0.832
 6018SOL    HW218954   2.543   5.473   0.912
 6019SOL     OW18955   5.504   6.676   3.579
 6019SOL    HW118956   5.427   6.627   3.620
 6019SOL    HW218957   5.475   6.769   3.554
 6020SOL     OW18958   2.897   0.283   2.616
 6020SOL    HW118959   2.996   0.273   2.605
 6020SOL    HW218960   2.878   0.331   2.702
 6021SOL     OW18961   4.197   0.866   3.451
 6021SOL    HW118962   4.137   0.789   3.429
 6021SOL    HW218963   4.288   0.831   3.474
 6022SOL     OW18964   4.160   1.031   5.827
 6022SOL    HW118965   4.241   1.001   5.777
 6022SOL    HW218966   4.087   0.964   5.814
 6023SOL     OW18967   0.530   1.989   2.567
 6023SOL    HW118968   0.542   2.062   2.634
 6023SOL    HW218969   0.503   2.029   2.479
 6024SOL     OW18970   0.569   5.339   2.485
 6024SOL    HW118971   0.626   5.257   2.485
 6024SOL    HW218972   0.549   5.366   2.580
 6025SOL     OW18973   3.919   2.115   2.248
 6025SOL    HW118974   3.837   2.129   2.303
 6025SOL    HW218975   3.894   2.075   2.160
 6026SOL     OW18976   0.766   4.369   5.804
 6026SOL    HW118977   0.775   4.452   5.749
 6026SOL    HW218978   0.744   4.291   5.745
 6027SOL     OW18979   3.115   3.477   0.677
 6027SOL    HW118980   3.052   3.493   0.601
 6027SOL    HW218981   3.208   3.498   0.649
 6028SOL     OW18982   1.065   4.952   6.621
 6028SOL    HW118983   1.092   4.914   6.532
 6028SOL    HW218984   1.136   5.015   6.653
 6029SOL     OW18985   1.393   5.055   1.668
 6029SOL    HW118986   1.417   4.985   1.735
 6029SOL    HW218987   1.311   5.104   1.699
 6030SOL     OW18988   1.692   0.026   1.501
 6030SOL    HW118989   1.674   6.972   1.568
 6030SOL    HW218990   1.784   0.062   1.514
 6031SOL     OW18991   5.464   0.080   4.427
 6031SOL    HW118992   5.496   0.139   4.502
 6031SOL    HW218993   5.404   0.132   4.367
 6032SOL     OW18994   0.067   3.845   2.930
 6032SOL    HW118995   0.035   3.934   2.964
 6032SOL    HW218996   0.077   3.782   3.007
 6033SOL     OW18997   0.265   0.262   4.853
 6033SOL    HW118998   0.264   0.164   4.834
 6033SOL    HW218999   0.327   0.281   4.928
 6034SOL     OW19000   2.236   4.250   4.868
 6034SOL    HW119001   2.244   4.151   4.857
 6034SOL    HW219002   2.284   4.278   4.952
 6035SOL     OW19003   5.688   0.206   3.702
 6035SOL    HW119004   5.671   0.292   3.653
 6035SOL    HW219005   5.784   0.180   3.692
 6036SOL     OW19006   0.776   1.351   3.796
 6036SOL    HW119007   0.688   1.329   3.837
 6036SOL    HW219008   0.804   1.277   3.735
 6037SOL     OW19009   6.868   5.829   4.960
 6037SOL    HW119010   6.837   5.738   4.932
 6037SOL    HW219011   6.825   5.898   4.901
 6038SOL     OW19012   5.337   4.499   6.019
 6038SOL    HW119013   5.355   4.402   6.006
 6038SOL    HW219014   5.358   4.548   5.934
 6039SOL     OW19015   4.015   3.340   3.874
 6039SOL    HW119016   3.993   3.252   3.915
 6039SOL    HW219017   4.014   3.331   3.774
 6040SOL     OW19018   1.224   1.626   0.115
 6040SOL    HW119019   1.310   1.675   0.099
 6040SOL    HW219020   1.156   1.654   0.048
 6041SOL     OW19021   0.868   2.698   0.561
 6041SOL    HW119022   0.798   2.762   0.594
 6041SOL    HW219023   0.949   2.704   0.619
 6042SOL     OW19024   5.919   5.270   4.379
 6042SOL    HW119025   5.941   5.178   4.413
 6042SOL    HW219026   6.004   5.320   4.362
 6043SOL     OW19027   0.419   4.771   4.253
 6043SOL    HW119028   0.440   4.854   4.202
 6043SOL    HW219029   0.489   4.757   4.324
 6044SOL     OW19030   0.833   0.623   1.186
 6044SOL    HW119031   0.739   0.659   1.188
 6044SOL    HW219032   0.893   0.685   1.236
 6045SOL     OW19033   6.885   3.475   0.671
 6045SOL    HW119034   6.913   3.487   0.576
 6045SOL    HW219035   6.902   3.381   0.700
 6046SOL     OW19036   2.681   3.125   0.576
 6046SOL    HW119037   2.744   3.131   0.654
 6046SOL    HW219038   2.666   3.029   0.553
 6047SOL     OW19039   0.235   6.478   4.794
 6047SOL    HW119040   0.186   6.397   4.828
 6047SOL    HW219041   0.317   6.492   4.849
 6048SOL     OW19042   5.485   6.055   4.944
 6048SOL    HW119043   5.533   6.046   5.031
 6048SOL    HW219044   5.431   5.972   4.927
 6049SOL     OW19045   6.469   5.232   0.906
 6049SOL    HW119046   6.371   5.250   0.907
 6049SOL    HW219047   6.485   5.137   0.877
 6050SOL     OW19048   5.188   4.731   5.463
 6050SOL    HW119049   5.247   4.671   5.409
 6050SOL    HW219050   5.203   4.826   5.436
 6051SOL     OW19051   2.426   1.887   3.020
 6051SOL    HW119052   2.499   1.940   3.063
 6051SOL    HW219053   2.344   1.943   3.012
 6052SOL     OW19054   6.659   1.025   0.372
 6052SOL    HW119055   6.687   1.108   0.325
 6052SOL    HW219056   6.565   1.036   0.406
 6053SOL     OW19057   1.972   0.019   6.096
 6053SOL    HW119058   1.932   0.110   6.106
 6053SOL    HW219059   2.064   0.018   6.137
 6054SOL     OW19060   2.343   4.749   6.685
 6054SOL    HW119061   2.353   4.753   6.586
 6054SOL    HW219062   2.381   4.663   6.719
 6055SOL     OW19063   4.763   0.748   3.883
 6055SOL    HW119064   4.668   0.776   3.869
 6055SOL    HW219065   4.771   0.699   3.969
 6056SOL     OW19066   4.919   3.234   6.621
 6056SOL    HW119067   5.005   3.245   6.673
 6056SOL    HW219068   4.935   3.257   6.525
 6057SOL     OW19069   2.934   0.645   6.474
 6057SOL    HW119070   2.980   0.557   6.464
 6057SOL    HW219071   2.947   0.679   6.568
 6058SOL     OW19072   5.329   1.043   3.981
 6058SOL    HW119073   5.308   1.043   4.079
 6058SOL    HW219074   5.427   1.052   3.968
 6059SOL     OW19075   7.006   6.238   6.345
 6059SOL    HW119076   0.061   6.302   6.371
 6059SOL    HW219077   0.016   6.145   6.369
 6060SOL     OW19078   3.113   6.342   6.509
 6060SOL    HW119079   3.038   6.275   6.510
 6060SOL    HW219080   3.081   6.427   6.551
 6061SOL     OW19081   1.966   1.581   6.579
 6061SOL    HW119082   1.949   1.655   6.514
 6061SOL    HW219083   2.016   1.617   6.658
 6062SOL     OW19084   1.753   0.293   4.594
 6062SOL    HW119085   1.796   0.384   4.593
 6062SOL    HW219086   1.667   0.298   4.644
 6063SOL     OW19087   4.926   6.523   6.874
 6063SOL    HW119088   4.868   6.542   6.795
 6063SOL    HW219089   4.931   6.603   6.933
 6064SOL     OW19090   0.687   5.576   3.543
 6064SOL    HW119091   0.676   5.498   3.481
 6064SOL    HW219092   0.598   5.605   3.576
 6065SOL     OW19093   5.682   6.553   1.152
 6065SOL    HW119094   5.719   6.555   1.059
 6065SOL    HW219095   5.740   6.496   1.209
 6066SOL     OW19096   4.466   2.303   6.594
 6066SOL    HW119097   4.521   2.221   6.579
 6066SOL    HW219098   4.418   2.296   6.682
 6067SOL     OW19099   5.745   2.293   6.672
 6067SOL    HW119100   5.821   2.317   6.733
 6067SOL    HW219101   5.663   2.277   6.727
 6068SOL     OW19102   5.087   2.027   5.301
 6068SOL    HW119103   5.131   2.007   5.213
 6068SOL    HW219104   5.112   2.120   5.330
 6069SOL     OW19105   6.049   3.885   4.419
 6069SOL    HW119106   5.977   3.843   4.363
 6069SOL    HW219107   6.132   3.830   4.412
 6070SOL     OW19108   3.854   2.752   6.936
 6070SOL    HW119109   3.899   2.801   6.862
 6070SOL    HW219110   3.862   2.653   6.920
 6071SOL     OW19111   4.997   6.375   5.165
 6071SOL    HW119112   4.937   6.364   5.244
 6071SOL    HW219113   4.943   6.368   5.081
 6072SOL     OW19114   7.010   1.710   0.623
 6072SOL    HW119115   0.082   1.687   0.660
 6072SOL    HW219116   6.995   1.809   0.630
 6073SOL     OW19117   6.422   1.962   1.109
 6073SOL    HW119118   6.514   1.992   1.086
 6073SOL    HW219119   6.410   1.967   1.209
 6074SOL     OW19120   0.649   0.403   4.975
 6074SOL    HW119121   0.683   0.347   4.899
 6074SOL    HW219122   0.608   0.344   5.045
 6075SOL     OW19123   4.976   4.531   6.617
 6075SOL    HW119124   4.904   4.462   6.623
 6075SOL    HW219125   5.028   4.532   6.702
 6076SOL     OW19126   2.445   6.718   3.929
 6076SOL    HW119127   2.396   6.769   4.000
 6076SOL    HW219128   2.543   6.723   3.947
 6077SOL     OW19129   5.729   5.642   2.646
 6077SOL    HW119130   5.808   5.701   2.659
 6077SOL    HW219131   5.690   5.657   2.555
 6078SOL     OW19132   2.161   4.637   3.729
 6078SOL    HW119133   2.103   4.618   3.808
 6078SOL    HW219134   2.221   4.559   3.711
 6079SOL     OW19135   2.222   1.603   0.935
 6079SOL    HW119136   2.172   1.625   1.018
 6079SOL    HW219137   2.167   1.542   0.877
 6080SOL     OW19138   5.593   2.148   2.715
 6080SOL    HW119139   5.651   2.106   2.785
 6080SOL    HW219140   5.648   2.170   2.634
 6081SOL     OW19141   0.546   3.652   2.618
 6081SOL    HW119142   0.453   3.635   2.648
 6081SOL    HW219143   0.601   3.689   2.693
 6082SOL     OW19144   3.698   1.732   4.253
 6082SOL    HW119145   3.779   1.674   4.246
 6082SOL    HW219146   3.692   1.789   4.171
 6083SOL     OW19147   1.929   6.509   0.707
 6083SOL    HW119148   1.985   6.454   0.646
 6083SOL    HW219149   1.860   6.559   0.654
 6084SOL     OW19150   0.077   5.038   6.174
 6084SOL    HW119151   0.065   5.055   6.271
 6084SOL    HW219152   0.120   4.948   6.161
 6085SOL     OW19153   5.047   4.454   1.584
 6085SOL    HW119154   4.970   4.433   1.645
 6085SOL    HW219155   5.013   4.472   1.492
 6086SOL     OW19156   2.860   1.677   3.104
 6086SOL    HW119157   2.942   1.730   3.126
 6086SOL    HW219158   2.855   1.596   3.162
 6087SOL     OW19159   4.067   0.210   0.647
 6087SOL    HW119160   4.153   0.166   0.622
 6087SOL    HW219161   4.085   0.292   0.700
 6088SOL     OW19162   6.937   6.913   5.663
 6088SOL    HW119163   6.888   6.827   5.653
 6088SOL    HW219164   6.988   6.932   5.579
 6089SOL     OW19165   6.651   3.439   0.236
 6089SOL    HW119166   6.661   3.515   0.300
 6089SOL    HW219167   6.603   3.364   0.280
 6090SOL     OW19168   0.402   5.592   3.961
 6090SOL    HW119169   0.425   5.592   3.864
 6090SOL    HW219170   0.328   5.659   3.978
 6091SOL     OW19171   6.071   1.991   1.533
 6091SOL    HW119172   6.018   1.983   1.449
 6091SOL    HW219173   6.011   1.974   1.611
 6092SOL     OW19174   1.507   2.347   1.141
 6092SOL    HW119175   1.445   2.329   1.219
 6092SOL    HW219176   1.599   2.364   1.176
 6093SOL     OW19177   1.149   3.545   0.723
 6093SOL    HW119178   1.155   3.645   0.725
 6093SOL    HW219179   1.241   3.507   0.714
 6094SOL     OW19180   0.964   0.931   0.951
 6094SOL    HW119181   0.945   0.836   0.926
 6094SOL    HW219182   1.025   0.971   0.883
 6095SOL     OW19183   6.247   4.249   5.396
 6095SOL    HW119184   6.216   4.297   5.478
 6095SOL    HW219185   6.167   4.226   5.339
 6096SOL     OW19186   3.903   1.641   2.992
 6096SOL    HW119187   3.879   1.591   2.909
 6096SOL    HW219188   3.956   1.582   3.053
 6097SOL     OW19189   3.199   1.748   1.924
 6097SOL    HW119190   3.238   1.775   2.012
 6097SOL    HW219191   3.179   1.829   1.870
 6098SOL     OW19192   1.449   1.150   6.474
 6098SOL    HW119193   1.502   1.230   6.444
 6098SOL    HW219194   1.394   1.175   6.554
 6099SOL     OW19195   5.793   5.018   4.713
 6099SOL    HW119196   5.842   5.012   4.627
 6099SOL    HW219197   5.755   4.929   4.737
 6100SOL     OW19198   6.955   1.919   0.195
 6100SOL    HW119199   6.878   1.972   0.231
 6100SOL    HW219200   0.015   1.979   0.180
 6101SOL     OW19201   5.592   0.819   3.909
 6101SOL    HW119202   5.574   0.911   3.944
 6101SOL    HW219203   5.685   0.791   3.934
 6102SOL     OW19204   2.911   0.539   5.167
 6102SOL    HW119205   2.863   0.607   5.222
 6102SOL    HW219206   3.009   0.560   5.166
 6103SOL     OW19207   6.245   0.986   5.396
 6103SOL    HW119208   6.250   0.987   5.296
 6103SOL    HW219209   6.223   1.077   5.430
 6104SOL     OW19210   1.834   3.366   0.891
 6104SOL    HW119211   1.772   3.288   0.892
 6104SOL    HW219212   1.923   3.338   0.855
 6105SOL     OW19213   3.556   5.345   4.652
 6105SOL    HW119214   3.465   5.352   4.695
 6105SOL    HW219215   3.550   5.287   4.571
 6106SOL     OW19216   3.228   5.311   4.310
 6106SOL    HW119217   3.228   5.320   4.410
 6106SOL    HW219218   3.185   5.392   4.270
 6107SOL     OW19219   2.418   5.253   5.670
 6107SOL    HW119220   2.441   5.190   5.744
 6107SOL    HW219221   2.473   5.230   5.589
 6108SOL     OW19222   6.020   1.783   4.184
 6108SOL    HW119223   5.952   1.855   4.173
 6108SOL    HW219224   5.979   1.695   4.160
 6109SOL     OW19225   6.390   4.376   1.972
 6109SOL    HW119226   6.397   4.433   1.890
 6109SOL    HW219227   6.367   4.283   1.947
 6110SOL     OW19228   3.599   2.044   4.109
 6110SOL    HW119229   3.627   1.966   4.052
 6110SOL    HW219230   3.513   2.082   4.074
 6111SOL     OW19231   0.421   4.392   3.059
 6111SOL    HW119232   0.416   4.294   3.045
 6111SOL    HW219233   0.462   4.411   3.149
 6112SOL     OW19234   1.172   2.216   1.700
 6112SOL    HW119235   1.157   2.231   1.798
 6112SOL    HW219236   1.210   2.124   1.687
 6113SOL     OW19237   2.267   5.592   5.415
 6113SOL    HW119238   2.343   5.587   5.351
 6113SOL    HW219239   2.256   5.503   5.461
 6114SOL     OW19240   5.175   5.565   0.997
 6114SOL    HW119241   5.228   5.480   1.001
 6114SOL    HW219242   5.226   5.633   0.945
 6115SOL     OW19243   6.082   4.563   2.346
 6115SOL    HW119244   6.042   4.645   2.304
 6115SOL    HW219245   6.170   4.543   2.303
 6116SOL     OW19246   3.058   2.311   1.086
 6116SOL    HW119247   3.155   2.304   1.062
 6116SOL    HW219248   3.024   2.402   1.062
 6117SOL     OW19249   5.831   6.633   4.219
 6117SOL    HW119250   5.899   6.705   4.223
 6117SOL    HW219251   5.815   6.597   4.311
 6118SOL     OW19252   5.997   0.169   2.764
 6118SOL    HW119253   5.921   0.164   2.829
 6118SOL    HW219254   5.985   0.247   2.703
 6119SOL     OW19255   6.298   5.164   3.854
 6119SOL    HW119256   6.384   5.115   3.870
 6119SOL    HW219257   6.285   5.233   3.924
 6120SOL     OW19258   3.073   1.108   3.299
 6120SOL    HW119259   3.068   1.031   3.364
 6120SOL    HW219260   3.102   1.190   3.347
 6121SOL     OW19261   6.682   2.050   4.497
 6121SOL    HW119262   6.638   2.129   4.455
 6121SOL    HW219263   6.620   1.971   4.495
 6122SOL     OW19264   4.695   6.278   3.898
 6122SOL    HW119265   4.786   6.263   3.861
 6122SOL    HW219266   4.689   6.237   3.989
 6123SOL     OW19267   6.883   1.576   1.703
 6123SOL    HW119268   6.795   1.541   1.738
 6123SOL    HW219269   6.929   1.503   1.652
 6124SOL     OW19270   2.493   0.314   4.990
 6124SOL    HW119271   2.518   0.234   5.044
 6124SOL    HW219272   2.511   0.397   5.043
 6125SOL     OW19273   2.086   5.006   2.337
 6125SOL    HW119274   2.018   4.943   2.301
 6125SOL    HW219275   2.164   4.955   2.373
 6126SOL     OW19276   4.499   5.399   2.531
 6126SOL    HW119277   4.440   5.366   2.458
 6126SOL    HW219278   4.491   5.498   2.538
 6127SOL     OW19279   1.980   3.905   2.166
 6127SOL    HW119280   2.017   3.850   2.241
 6127SOL    HW219281   1.881   3.912   2.175
 6128SOL     OW19282   5.058   2.698   1.076
 6128SOL    HW119283   4.993   2.659   1.141
 6128SOL    HW219284   5.010   2.724   0.992
 6129SOL     OW19285   5.839   4.284   3.290
 6129SOL    HW119286   5.790   4.198   3.304
 6129SOL    HW219287   5.774   4.359   3.278
 6130SOL     OW19288   5.476   4.540   2.751
 6130SOL    HW119289   5.461   4.544   2.850
 6130SOL    HW219290   5.501   4.447   2.725
 6131SOL     OW19291   6.535   0.953   5.294
 6131SOL    HW119292   6.517   0.932   5.390
 6131SOL    HW219293   6.510   1.048   5.275
 6132SOL     OW19294   6.550   2.214   0.600
 6132SOL    HW119295   6.566   2.228   0.698
 6132SOL    HW219296   6.470   2.156   0.587
 6133SOL     OW19297   1.391   4.898   0.296
 6133SOL    HW119298   1.322   4.847   0.348
 6133SOL    HW219299   1.476   4.846   0.293
 6134SOL     OW19300   4.432   3.154   0.305
 6134SOL    HW119301   4.359   3.109   0.356
 6134SOL    HW219302   4.493   3.200   0.369
 6135SOL     OW19303   5.682   0.159   2.349
 6135SOL    HW119304   5.604   0.176   2.290
 6135SOL    HW219305   5.688   0.231   2.418
 6136SOL     OW19306   7.004   1.824   2.334
 6136SOL    HW119307   0.025   1.795   2.421
 6136SOL    HW219308   0.022   1.915   2.310
 6137SOL     OW19309   3.025   6.453   6.138
 6137SOL    HW119310   3.068   6.365   6.157
 6137SOL    HW219311   2.960   6.443   6.062
 6138SOL     OW19312   4.779   6.849   2.904
 6138SOL    HW119313   4.699   6.904   2.926
 6138SOL    HW219314   4.810   6.801   2.987
 6139SOL     OW19315   2.647   5.539   3.944
 6139SOL    HW119316   2.601   5.492   3.869
 6139SOL    HW219317   2.714   5.477   3.985
 6140SOL     OW19318   1.722   5.854   1.570
 6140SOL    HW119319   1.740   5.799   1.652
 6140SOL    HW219320   1.747   5.801   1.489
 6141SOL     OW19321   6.625   5.941   5.777
 6141SOL    HW119322   6.542   5.919   5.724
 6141SOL    HW219323   6.598   5.979   5.866
 6142SOL     OW19324   0.291   3.908   2.591
 6142SOL    HW119325   0.297   3.831   2.655
 6142SOL    HW219326   0.379   3.955   2.587
 6143SOL     OW19327   6.763   4.283   6.389
 6143SOL    HW119328   6.856   4.314   6.370
 6143SOL    HW219329   6.750   4.190   6.352
 6144SOL     OW19330   0.156   4.867   4.387
 6144SOL    HW119331   0.207   4.811   4.453
 6144SOL    HW219332   0.219   4.928   4.339
 6145SOL     OW19333   5.565   5.601   3.505
 6145SOL    HW119334   5.615   5.682   3.476
 6145SOL    HW219335   5.531   5.552   3.425
 6146SOL     OW19336   5.304   1.351   3.102
 6146SOL    HW119337   5.322   1.378   3.008
 6146SOL    HW219338   5.209   1.372   3.125
 6147SOL     OW19339   0.881   3.477   3.204
 6147SOL    HW119340   0.823   3.549   3.166
 6147SOL    HW219341   0.977   3.507   3.202
 6148SOL     OW19342   5.902   5.914   3.806
 6148SOL    HW119343   5.935   5.899   3.899
 6148SOL    HW219344   5.818   5.863   3.791
 6149SOL     OW19345   2.231   0.052   4.404
 6149SOL    HW119346   2.181   6.990   4.372
 6149SOL    HW219347   2.177   0.099   4.474
 6150SOL     OW19348   4.075   5.725   5.819
 6150SOL    HW119349   4.032   5.636   5.804
 6150SOL    HW219350   4.166   5.725   5.777
 6151SOL     OW19351   4.231   0.677   5.682
 6151SOL    HW119352   4.145   0.651   5.637
 6151SOL    HW219353   4.288   0.596   5.694
 6152SOL     OW19354   6.538   4.889   5.591
 6152SOL    HW119355   6.636   4.880   5.606
 6152SOL    HW219356   6.489   4.861   5.674
 6153SOL     OW19357   5.112   4.243   6.877
 6153SOL    HW119358   5.152   4.151   6.879
 6153SOL    HW219359   5.014   4.237   6.896
 6154SOL     OW19360   5.074   3.004   3.389
 6154SOL    HW119361   5.099   2.928   3.448
 6154SOL    HW219362   5.133   3.004   3.308
 6155SOL     OW19363   2.142   3.596   3.940
 6155SOL    HW119364   2.144   3.586   4.040
 6155SOL    HW219365   2.082   3.526   3.902
 6156SOL     OW19366   6.031   0.534   4.392
 6156SOL    HW119367   5.999   0.460   4.334
 6156SOL    HW219368   6.045   0.500   4.485
 6157SOL     OW19369   1.265   1.623   3.472
 6157SOL    HW119370   1.277   1.605   3.569
 6157SOL    HW219371   1.299   1.715   3.451
 6158SOL     OW19372   4.332   0.321   0.556
 6158SOL    HW119373   4.403   0.389   0.572
 6158SOL    HW219374   4.251   0.345   0.609
 6159SOL     OW19375   5.576   3.120   6.810
 6159SOL    HW119376   5.640   3.188   6.845
 6159SOL    HW219377   5.618   3.029   6.811
 6160SOL     OW19378   6.632   4.636   1.428
 6160SOL    HW119379   6.537   4.607   1.425
 6160SOL    HW219380   6.647   4.709   1.361
 6161SOL     OW19381   5.598   0.680   6.465
 6161SOL    HW119382   5.549   0.638   6.542
 6161SOL    HW219383   5.581   0.627   6.382
 6162SOL     OW19384   5.953   4.989   4.135
 6162SOL    HW119385   5.985   4.894   4.137
 6162SOL    HW219386   5.871   4.995   4.078
 6163SOL     OW19387   7.003   4.167   2.137
 6163SOL    HW119388   0.008   4.240   2.072
 6163SOL    HW219389   6.966   4.208   2.220
 6164SOL     OW19390   4.540   2.832   0.498
 6164SOL    HW119391   4.510   2.905   0.560
 6164SOL    HW219392   4.460   2.791   0.454
 6165SOL     OW19393   4.340   6.708   0.594
 6165SOL    HW119394   4.349   6.613   0.565
 6165SOL    HW219395   4.425   6.737   0.639
 6166SOL     OW19396   3.845   1.454   0.064
 6166SOL    HW119397   3.907   1.510   0.119
 6166SOL    HW219398   3.769   1.423   0.121
 6167SOL     OW19399   0.195   4.953   3.182
 6167SOL    HW119400   0.146   4.872   3.151
 6167SOL    HW219401   0.150   4.991   3.263
 6168SOL     OW19402   0.769   2.905   1.366
 6168SOL    HW119403   0.736   2.966   1.294
 6168SOL    HW219404   0.756   2.810   1.337
 6169SOL     OW19405   1.732   4.488   1.894
 6169SOL    HW119406   1.759   4.420   1.826
 6169SOL    HW219407   1.746   4.580   1.858
 6170SOL     OW19408   6.613   2.153   3.680
 6170SOL    HW119409   6.651   2.064   3.706
 6170SOL    HW219410   6.687   2.216   3.658
 6171SOL     OW19411   6.348   0.795   6.567
 6171SOL    HW119412   6.288   0.871   6.592
 6171SOL    HW219413   6.417   0.782   6.638
 6172SOL     OW19414   1.194   4.250   3.971
 6172SOL    HW119415   1.184   4.323   4.038
 6172SOL    HW219416   1.272   4.270   3.912
 6173SOL     OW19417   5.838   6.293   3.407
 6173SOL    HW119418   5.928   6.327   3.379
 6173SOL    HW219419   5.804   6.229   3.339
 6174SOL     OW19420   6.392   2.719   2.328
 6174SOL    HW119421   6.474   2.773   2.344
 6174SOL    HW219422   6.361   2.678   2.414
 6175SOL     OW19423   3.573   2.038   6.475
 6175SOL    HW119424   3.594   1.958   6.531
 6175SOL    HW219425   3.623   2.032   6.389
 6176SOL     OW19426   3.476   3.830   6.237
 6176SOL    HW119427   3.449   3.910   6.291
 6176SOL    HW219428   3.427   3.832   6.149
 6177SOL     OW19429   5.642   6.038   1.469
 6177SOL    HW119430   5.707   5.962   1.476
 6177SOL    HW219431   5.555   6.012   1.511
 6178SOL     OW19432   4.282   4.622   1.867
 6178SOL    HW119433   4.267   4.536   1.818
 6178SOL    HW219434   4.352   4.676   1.821
 6179SOL     OW19435   5.457   4.784   4.912
 6179SOL    HW119436   5.382   4.804   4.975
 6179SOL    HW219437   5.542   4.779   4.963
 6180SOL     OW19438   2.821   4.641   6.541
 6180SOL    HW119439   2.798   4.737   6.555
 6180SOL    HW219440   2.893   4.614   6.605
 6181SOL     OW19441   6.152   6.536   6.777
 6181SOL    HW119442   6.056   6.558   6.760
 6181SOL    HW219443   6.209   6.612   6.749
 6182SOL     OW19444   2.941   2.745   0.251
 6182SOL    HW119445   2.992   2.828   0.273
 6182SOL    HW219446   2.926   2.740   0.152
 6183SOL     OW19447   6.907   6.907   0.633
 6183SOL    HW119448   6.848   6.829   0.655
 6183SOL    HW219449   6.937   6.951   0.718
 6184SOL     OW19450   3.267   6.452   5.369
 6184SOL    HW119451   3.272   6.552   5.367
 6184SOL    HW219452   3.224   6.423   5.454
 6185SOL     OW19453   3.723   3.417   4.991
 6185SOL    HW119454   3.681   3.412   5.081
 6185SOL    HW219455   3.723   3.512   4.959
 6186SOL     OW19456   1.160   1.687   2.695
 6186SOL    HW119457   1.107   1.680   2.610
 6186SOL    HW219458   1.144   1.605   2.751
 6187SOL     OW19459   3.330   1.997   6.204
 6187SOL    HW119460   3.395   1.940   6.255
 6187SOL    HW219461   3.325   1.965   6.109
 6188SOL     OW19462   1.961   1.460   5.122
 6188SOL    HW119463   2.019   1.380   5.103
 6188SOL    HW219464   1.963   1.480   5.220
 6189SOL     OW19465   6.835   5.124   0.857
 6189SOL    HW119466   6.758   5.147   0.916
 6189SOL    HW219467   6.893   5.056   0.903
 6190SOL     OW19468   0.519   3.096   3.879
 6190SOL    HW119469   0.492   3.179   3.928
 6190SOL    HW219470   0.613   3.107   3.845
 6191SOL     OW19471   2.963   4.083   0.647
 6191SOL    HW119472   2.946   3.987   0.623
 6191SOL    HW219473   3.046   4.114   0.599
 6192SOL     OW19474   3.065   1.511   1.231
 6192SOL    HW119475   3.109   1.600   1.224
 6192SOL    HW219476   3.009   1.508   1.314
 6193SOL     OW19477   4.423   5.597   0.094
 6193SOL    HW119478   4.378   5.566   0.010
 6193SOL    HW219479   4.355   5.641   0.154
 6194SOL     OW19480   5.477   6.991   6.564
 6194SOL    HW119481   5.408   7.008   6.635
 6194SOL    HW219482   5.564   6.967   6.606
 6195SOL     OW19483   5.292   6.268   6.147
 6195SOL    HW119484   5.272   6.291   6.242
 6195SOL    HW219485   5.365   6.200   6.144
 6196SOL     OW19486   6.048   3.290   3.124
 6196SOL    HW119487   5.993   3.293   3.041
 6196SOL    HW219488   6.130   3.236   3.107
 6197SOL     OW19489   0.623   5.393   1.046
 6197SOL    HW119490   0.537   5.388   1.099
 6197SOL    HW219491   0.699   5.366   1.105
 6198SOL     OW19492   5.563   1.704   6.620
 6198SOL    HW119493   5.568   1.774   6.548
 6198SOL    HW219494   5.564   1.614   6.577
 6199SOL     OW19495   2.006   6.724   6.211
 6199SOL    HW119496   2.072   6.799   6.211
 6199SOL    HW219497   1.927   6.750   6.266
 6200SOL     OW19498   1.551   0.623   0.911
 6200SOL    HW119499   1.493   0.560   0.963
 6200SOL    HW219500   1.570   0.584   0.821
 6201SOL     OW19501   0.344   4.651   3.232
 6201SOL    HW119502   0.298   4.582   3.289
 6201SOL    HW219503   0.343   4.621   3.137
 6202SOL     OW19504   6.044   0.910   2.649
 6202SOL    HW119505   5.975   0.975   2.680
 6202SOL    HW219506   6.130   0.958   2.631
 6203SOL     OW19507   5.966   0.265   1.894
 6203SOL    HW119508   6.066   0.268   1.891
 6203SOL    HW219509   5.936   0.247   1.987
 6204SOL     OW19510   1.335   6.204   4.914
 6204SOL    HW119511   1.340   6.263   4.994
 6204SOL    HW219512   1.308   6.259   4.834
 6205SOL     OW19513   5.645   4.617   3.493
 6205SOL    HW119514   5.675   4.712   3.493
 6205SOL    HW219515   5.684   4.570   3.413
 6206SOL     OW19516   5.515   1.914   3.291
 6206SOL    HW119517   5.452   1.878   3.361
 6206SOL    HW219518   5.539   1.841   3.228
 6207SOL     OW19519   0.616   6.146   3.914
 6207SOL    HW119520   0.662   6.095   3.841
 6207SOL    HW219521   0.645   6.242   3.911
 6208SOL     OW19522   4.665   3.791   5.754
 6208SOL    HW119523   4.620   3.831   5.674
 6208SOL    HW219524   4.595   3.756   5.817
 6209SOL     OW19525   3.798   1.971   1.492
 6209SOL    HW119526   3.850   2.037   1.438
 6209SOL    HW219527   3.724   1.933   1.436
 6210SOL     OW19528   5.763   1.211   4.490
 6210SOL    HW119529   5.718   1.239   4.574
 6210SOL    HW219530   5.784   1.291   4.434
 6211SOL     OW19531   5.857   3.951   4.881
 6211SOL    HW119532   5.903   3.896   4.812
 6211SOL    HW219533   5.787   3.895   4.926
 6212SOL     OW19534   5.599   4.346   4.694
 6212SOL    HW119535   5.556   4.255   4.693
 6212SOL    HW219536   5.555   4.402   4.764
 6213SOL     OW19537   4.309   5.676   0.601
 6213SOL    HW119538   4.241   5.615   0.641
 6213SOL    HW219539   4.299   5.767   0.642
 6214SOL     OW19540   6.360   0.024   0.115
 6214SOL    HW119541   6.342   0.112   0.072
 6214SOL    HW219542   6.390   0.039   0.210
 6215SOL     OW19543   5.725   2.196   4.896
 6215SOL    HW119544   5.739   2.108   4.942
 6215SOL    HW219545   5.628   2.211   4.880
 6216SOL     OW19546   4.793   1.811   4.469
 6216SOL    HW119547   4.728   1.845   4.537
 6216SOL    HW219548   4.886   1.819   4.505
 6217SOL     OW19549   0.963   4.540   2.582
 6217SOL    HW119550   1.045   4.493   2.551
 6217SOL    HW219551   0.884   4.507   2.530
 6218SOL     OW19552   4.385   6.449   0.508
 6218SOL    HW119553   4.317   6.378   0.489
 6218SOL    HW219554   4.455   6.411   0.569
 6219SOL     OW19555   2.195   0.935   0.002
 6219SOL    HW119556   2.204   0.843   6.982
 6219SOL    HW219557   2.102   0.968   7.004
 6220SOL     OW19558   3.203   6.538   1.019
 6220SOL    HW119559   3.131   6.470   1.005
 6220SOL    HW219560   3.169   6.609   1.081
 6221SOL     OW19561   5.028   5.864   5.724
 6221SOL    HW119562   4.969   5.941   5.749
 6221SOL    HW219563   5.043   5.805   5.803
 6222SOL     OW19564   6.624   1.676   2.134
 6222SOL    HW119565   6.723   1.668   2.150
 6222SOL    HW219566   6.575   1.646   2.216
 6223SOL     OW19567   0.194   4.979   4.718
 6223SOL    HW119568   0.130   5.053   4.737
 6223SOL    HW219569   0.281   5.017   4.688
 6224SOL     OW19570   3.529   6.604   0.169
 6224SOL    HW119571   3.559   6.613   0.264
 6224SOL    HW219572   3.466   6.526   0.162
 6225SOL     OW19573   4.696   6.230   6.093
 6225SOL    HW119574   4.669   6.134   6.086
 6225SOL    HW219575   4.796   6.236   6.091
 6226SOL     OW19576   0.768   0.937   3.871
 6226SOL    HW119577   0.670   0.943   3.853
 6226SOL    HW219578   0.793   0.841   3.887
 6227SOL     OW19579   3.041   4.690   5.714
 6227SOL    HW119580   3.024   4.785   5.742
 6227SOL    HW219581   2.953   4.645   5.697
 6228SOL     OW19582   1.245   2.851   3.811
 6228SOL    HW119583   1.336   2.830   3.777
 6228SOL    HW219584   1.247   2.937   3.863
 6229SOL     OW19585   0.822   3.838   4.203
 6229SOL    HW119586   0.897   3.869   4.261
 6229SOL    HW219587   0.852   3.760   4.148
 6230SOL     OW19588   0.436   0.854   1.446
 6230SOL    HW119589   0.464   0.927   1.384
 6230SOL    HW219590   0.353   0.882   1.495
 6231SOL     OW19591   2.247   5.283   5.419
 6231SOL    HW119592   2.230   5.258   5.324
 6231SOL    HW219593   2.317   5.223   5.457
 6232SOL     OW19594   4.329   0.489   6.220
 6232SOL    HW119595   4.270   0.534   6.153
 6232SOL    HW219596   4.275   0.423   6.273
 6233SOL     OW19597   0.180   3.337   1.205
 6233SOL    HW119598   0.145   3.296   1.289
 6233SOL    HW219599   0.277   3.360   1.217
 6234SOL     OW19600   5.110   5.200   4.504
 6234SOL    HW119601   5.162   5.221   4.422
 6234SOL    HW219602   5.132   5.108   4.536
 6235SOL     OW19603   0.290   0.867   2.112
 6235SOL    HW119604   0.201   0.827   2.091
 6235SOL    HW219605   0.360   0.827   2.052
 6236SOL     OW19606   6.672   5.681   1.310
 6236SOL    HW119607   6.697   5.777   1.314
 6236SOL    HW219608   6.640   5.659   1.218
 6237SOL     OW19609   3.212   1.308   2.042
 6237SOL    HW119610   3.277   1.372   2.001
 6237SOL    HW219611   3.166   1.256   1.970
 6238SOL     OW19612   2.231   1.218   3.614
 6238SOL    HW119613   2.161   1.218   3.542
 6238SOL    HW219614   2.305   1.156   3.588
 6239SOL     OW19615   4.807   1.141   4.318
 6239SOL    HW119616   4.826   1.119   4.414
 6239SOL    HW219617   4.710   1.125   4.298
 6240SOL     OW19618   4.097   3.755   3.944
 6240SOL    HW119619   4.146   3.679   3.988
 6240SOL    HW219620   4.021   3.719   3.889
 6241SOL     OW19621   3.495   0.228   3.356
 6241SOL    HW119622   3.570   0.266   3.302
 6241SOL    HW219623   3.466   0.141   3.316
 6242SOL     OW19624   3.018   1.828   4.286
 6242SOL    HW119625   2.936   1.774   4.266
 6242SOL    HW219626   2.990   1.921   4.311
 6243SOL     OW19627   4.332   1.518   6.819
 6243SOL    HW119628   4.290   1.487   6.904
 6243SOL    HW219629   4.366   1.611   6.830
 6244SOL     OW19630   4.454   2.547   1.710
 6244SOL    HW119631   4.397   2.473   1.746
 6244SOL    HW219632   4.400   2.629   1.698
 6245SOL     OW19633   0.336   5.104   2.459
 6245SOL    HW119634   0.363   5.010   2.437
 6245SOL    HW219635   0.349   5.162   2.379
 6246SOL     OW19636   6.973   6.963   4.786
 6246SOL    HW119637   0.052   6.981   4.777
 6246SOL    HW219638   6.925   0.029   4.811
 6247SOL     OW19639   6.345   6.153   3.230
 6247SOL    HW119640   6.414   6.083   3.213
 6247SOL    HW219641   6.277   6.118   3.294
 6248SOL     OW19642   3.977   3.326   5.059
 6248SOL    HW119643   3.881   3.340   5.034
 6248SOL    HW219644   4.001   3.384   5.136
 6249SOL     OW19645   5.421   3.490   3.114
 6249SOL    HW119646   5.449   3.581   3.145
 6249SOL    HW219647   5.446   3.479   3.017
 6250SOL     OW19648   5.425   6.703   6.303
 6250SOL    HW119649   5.445   6.683   6.399
 6250SOL    HW219650   5.347   6.765   6.298
 6251SOL     OW19651   2.991   1.094   4.538
 6251SOL    HW119652   2.960   1.122   4.629
 6251SOL    HW219653   3.037   1.006   4.544
 6252SOL     OW19654   2.984   5.292   0.301
 6252SOL    HW119655   2.928   5.257   0.377
 6252SOL    HW219656   2.938   5.271   0.215
 6253SOL     OW19657   3.901   6.353   4.159
 6253SOL    HW119658   3.810   6.381   4.189
 6253SOL    HW219659   3.941   6.425   4.102
 6254SOL     OW19660   0.254   0.170   1.743
 6254SOL    HW119661   0.233   0.074   1.729
 6254SOL    HW219662   0.352   0.185   1.729
 6255SOL     OW19663   1.214   1.694   0.783
 6255SOL    HW119664   1.263   1.692   0.696
 6255SOL    HW219665   1.116   1.679   0.768
 6256SOL     OW19666   6.303   5.437   1.926
 6256SOL    HW119667   6.312   5.391   2.014
 6256SOL    HW219668   6.221   5.494   1.926
 6257SOL     OW19669   3.658   4.600   1.057
 6257SOL    HW119670   3.660   4.547   1.142
 6257SOL    HW219671   3.677   4.696   1.077
 6258SOL     OW19672   4.221   5.371   4.471
 6258SOL    HW119673   4.192   5.341   4.562
 6258SOL    HW219674   4.201   5.299   4.405
 6259SOL     OW19675   4.228   0.793   5.372
 6259SOL    HW119676   4.165   0.839   5.309
 6259SOL    HW219677   4.177   0.760   5.452
 6260SOL     OW19678   2.487   1.716   0.846
 6260SOL    HW119679   2.416   1.667   0.895
 6260SOL    HW219680   2.499   1.674   0.755
 6261SOL     OW19681   3.447   0.091   0.940
 6261SOL    HW119682   3.442   0.009   0.883
 6261SOL    HW219683   3.398   0.166   0.895
 6262SOL     OW19684   6.163   1.081   2.441
 6262SOL    HW119685   6.170   0.991   2.399
 6262SOL    HW219686   6.234   1.092   2.510
 6263SOL     OW19687   6.517   5.984   6.049
 6263SOL    HW119688   6.518   6.083   6.067
 6263SOL    HW219689   6.482   5.936   6.129
 6264SOL     OW19690   2.239   5.746   0.194
 6264SOL    HW119691   2.295   5.802   0.133
 6264SOL    HW219692   2.215   5.798   0.275
 6265SOL     OW19693   4.268   6.259   6.070
 6265SOL    HW119694   4.171   6.240   6.057
 6265SOL    HW219695   4.298   6.329   6.006
 6266SOL     OW19696   3.828   5.429   3.022
 6266SOL    HW119697   3.742   5.382   3.037
 6266SOL    HW219698   3.830   5.468   2.929
 6267SOL     OW19699   0.749   6.441   4.607
 6267SOL    HW119700   0.848   6.425   4.610
 6267SOL    HW219701   0.714   6.414   4.518
 6268SOL     OW19702   3.140   1.521   0.760
 6268SOL    HW119703   3.237   1.513   0.781
 6268SOL    HW219704   3.129   1.577   0.677
 6269SOL     OW19705   6.990   5.735   6.671
 6269SOL    HW119706   6.965   5.694   6.758
 6269SOL    HW219707   6.914   5.727   6.607
 6270SOL     OW19708   1.680   6.380   0.891
 6270SOL    HW119709   1.658   6.465   0.939
 6270SOL    HW219710   1.723   6.316   0.955
 6271SOL     OW19711   6.820   2.941   6.249
 6271SOL    HW119712   6.843   2.870   6.315
 6271SOL    HW219713   6.902   2.994   6.227
 6272SOL     OW19714   0.374   1.241   6.776
 6272SOL    HW119715   0.372   1.298   6.694
 6272SOL    HW219716   0.405   1.296   6.854
 6273SOL     OW19717   0.237   6.810   2.896
 6273SOL    HW119718   0.314   6.808   2.832
 6273SOL    HW219719   0.272   6.818   2.990
 6274SOL     OW19720   3.163   5.672   3.924
 6274SOL    HW119721   3.187   5.579   3.895
 6274SOL    HW219722   3.149   5.672   4.023
 6275SOL     OW19723   2.694   5.974   6.610
 6275SOL    HW119724   2.762   6.005   6.543
 6275SOL    HW219725   2.733   5.981   6.702
 6276SOL     OW19726   1.817   5.207   2.714
 6276SOL    HW119727   1.769   5.251   2.790
 6276SOL    HW219728   1.876   5.134   2.750
 6277SOL     OW19729   4.896   2.548   1.243
 6277SOL    HW119730   4.799   2.526   1.250
 6277SOL    HW219731   4.939   2.539   1.332
 6278SOL     OW19732   4.513   2.354   0.523
 6278SOL    HW119733   4.437   2.324   0.464
 6278SOL    HW219734   4.480   2.423   0.587
 6279SOL     OW19735   2.970   6.498   1.702
 6279SOL    HW119736   3.030   6.437   1.651
 6279SOL    HW219737   3.022   6.545   1.773
 6280SOL     OW19738   5.078   2.166   6.687
 6280SOL    HW119739   5.056   2.101   6.759
 6280SOL    HW219740   5.138   2.237   6.724
 6281SOL     OW19741   5.113   4.742   5.858
 6281SOL    HW119742   5.063   4.729   5.944
 6281SOL    HW219743   5.204   4.701   5.866
 6282SOL     OW19744   0.653   3.609   5.956
 6282SOL    HW119745   0.585   3.538   5.973
 6282SOL    HW219746   0.702   3.630   6.041
 6283SOL     OW19747   2.482   6.631   4.880
 6283SOL    HW119748   2.553   6.598   4.941
 6283SOL    HW219749   2.496   6.593   4.788
 6284SOL     OW19750   1.368   2.953   5.886
 6284SOL    HW119751   1.315   3.038   5.886
 6284SOL    HW219752   1.466   2.975   5.888
 6285SOL     OW19753   1.423   3.457   2.858
 6285SOL    HW119754   1.454   3.489   2.769
 6285SOL    HW219755   1.478   3.378   2.887
 6286SOL     OW19756   0.804   2.088   6.482
 6286SOL    HW119757   0.746   2.120   6.557
 6286SOL    HW219758   0.755   2.102   6.395
 6287SOL     OW19759   4.236   4.849   4.711
 6287SOL    HW119760   4.200   4.850   4.804
 6287SOL    HW219761   4.305   4.777   4.702
 6288SOL     OW19762   2.886   3.436   5.649
 6288SOL    HW119763   2.813   3.435   5.581
 6288SOL    HW219764   2.906   3.531   5.675
 6289SOL     OW19765   1.997   4.541   4.457
 6289SOL    HW119766   2.068   4.537   4.528
 6289SOL    HW219767   1.930   4.611   4.480
 6290SOL     OW19768   6.024   0.091   3.713
 6290SOL    HW119769   5.982   0.179   3.691
 6290SOL    HW219770   6.082   0.061   3.638
 6291SOL     OW19771   3.707   3.556   2.016
 6291SOL    HW119772   3.684   3.560   2.113
 6291SOL    HW219773   3.796   3.600   2.002
 6292SOL     OW19774   1.453   4.702   4.949
 6292SOL    HW119775   1.380   4.690   5.016
 6292SOL    HW219776   1.534   4.652   4.979
 6293SOL     OW19777   2.772   1.672   6.359
 6293SOL    HW119778   2.686   1.715   6.386
 6293SOL    HW219779   2.819   1.731   6.293
 6294SOL     OW19780   2.067   1.296   2.031
 6294SOL    HW119781   2.051   1.331   1.939
 6294SOL    HW219782   2.115   1.209   2.026
 6295SOL     OW19783   4.424   3.778   6.347
 6295SOL    HW119784   4.354   3.850   6.337
 6295SOL    HW219785   4.479   3.797   6.428
 6296SOL     OW19786   0.574   2.508   6.607
 6296SOL    HW119787   0.612   2.513   6.515
 6296SOL    HW219788   0.638   2.459   6.667
 6297SOL     OW19789   6.494   1.014   3.886
 6297SOL    HW119790   6.550   1.062   3.954
 6297SOL    HW219791   6.411   0.980   3.930
 6298SOL     OW19792   6.982   6.638   0.485
 6298SOL    HW119793   6.947   6.670   0.573
 6298SOL    HW219794   0.041   6.695   0.458
 6299SOL     OW19795   3.879   1.517   4.260
 6299SOL    HW119796   3.815   1.480   4.328
 6299SOL    HW219797   3.870   1.466   4.175
 6300SOL     OW19798   3.050   2.072   0.893
 6300SOL    HW119799   3.133   2.127   0.896
 6300SOL    HW219800   2.985   2.105   0.961
 6301SOL     OW19801   3.871   6.537   6.607
 6301SOL    HW119802   3.907   6.597   6.679
 6301SOL    HW219803   3.850   6.448   6.646
 6302SOL     OW19804   1.250   3.668   0.130
 6302SOL    HW119805   1.323   3.725   0.165
 6302SOL    HW219806   1.179   3.656   0.200
 6303SOL     OW19807   6.961   4.712   4.405
 6303SOL    HW119808   6.983   4.615   4.397
 6303SOL    HW219809   0.026   4.766   4.394
 6304SOL     OW19810   3.379   1.005   4.199
 6304SOL    HW119811   3.435   0.962   4.128
 6304SOL    HW219812   3.356   1.098   4.171
 6305SOL     OW19813   0.675   6.080   5.930
 6305SOL    HW119814   0.716   6.171   5.926
 6305SOL    HW219815   0.595   6.077   5.871
 6306SOL     OW19816   0.338   4.466   4.579
 6306SOL    HW119817   0.390   4.460   4.494
 6306SOL    HW219818   0.278   4.546   4.576
 6307SOL     OW19819   3.919   3.001   2.568
 6307SOL    HW119820   3.928   2.981   2.470
 6307SOL    HW219821   3.843   2.948   2.606
 6308SOL     OW19822   1.034   2.131   0.796
 6308SOL    HW119823   1.086   2.056   0.838
 6308SOL    HW219824   1.037   2.211   0.856
 6309SOL     OW19825   1.659   6.196   4.789
 6309SOL    HW119826   1.721   6.249   4.846
 6309SOL    HW219827   1.601   6.139   4.847
 6310SOL     OW19828   0.914   6.915   3.884
 6310SOL    HW119829   0.846   6.988   3.876
 6310SOL    HW219830   0.999   6.944   3.839
 6311SOL     OW19831   6.553   1.279   6.528
 6311SOL    HW119832   6.478   1.326   6.481
 6311SOL    HW219833   6.640   1.310   6.492
 6312SOL     OW19834   2.960   5.858   0.540
 6312SOL    HW119835   2.914   5.770   0.545
 6312SOL    HW219836   2.893   5.929   0.517
 6313SOL     OW19837   5.784   4.841   3.583
 6313SOL    HW119838   5.735   4.902   3.645
 6313SOL    HW219839   5.823   4.765   3.635
 6314SOL     OW19840   1.749   6.099   2.797
 6314SOL    HW119841   1.724   6.003   2.787
 6314SOL    HW219842   1.673   6.150   2.839
 6315SOL     OW19843   2.251   1.495   3.591
 6315SOL    HW119844   2.325   1.532   3.647
 6315SOL    HW219845   2.250   1.396   3.597
 6316SOL     OW19846   4.304   0.647   5.004
 6316SOL    HW119847   4.352   0.601   5.079
 6316SOL    HW219848   4.297   0.744   5.024
 6317SOL     OW19849   4.614   4.431   2.918
 6317SOL    HW119850   4.525   4.471   2.896
 6317SOL    HW219851   4.670   4.426   2.836
 6318SOL     OW19852   6.640   6.934   6.829
 6318SOL    HW119853   6.666   6.918   6.734
 6318SOL    HW219854   6.644   6.848   6.879
 6319SOL     OW19855   4.652   1.999   4.620
 6319SOL    HW119856   4.709   2.082   4.619
 6319SOL    HW219857   4.567   2.017   4.570
 6320SOL     OW19858   6.589   1.962   5.507
 6320SOL    HW119859   6.581   1.980   5.410
 6320SOL    HW219860   6.520   1.896   5.535
 6321SOL     OW19861   0.383   2.984   0.269
 6321SOL    HW119862   0.369   3.082   0.281
 6321SOL    HW219863   0.435   2.967   0.185
 6322SOL     OW19864   1.840   1.605   3.092
 6322SOL    HW119865   1.837   1.630   2.995
 6322SOL    HW219866   1.761   1.547   3.113
 6323SOL     OW19867   2.234   5.014   0.871
 6323SOL    HW119868   2.142   5.009   0.832
 6323SOL    HW219869   2.297   5.056   0.805
 6324SOL     OW19870   4.804   3.494   1.302
 6324SOL    HW119871   4.903   3.479   1.302
 6324SOL    HW219872   4.758   3.418   1.348
 6325SOL     OW19873   1.623   2.994   3.733
 6325SOL    HW119874   1.581   3.081   3.707
 6325SOL    HW219875   1.628   2.986   3.832
 6326SOL     OW19876   5.061   5.225   5.035
 6326SOL    HW119877   5.039   5.129   5.052
 6326SOL    HW219878   5.150   5.230   4.988
 6327SOL     OW19879   0.444   1.414   3.589
 6327SOL    HW119880   0.530   1.363   3.588
 6327SOL    HW219881   0.368   1.351   3.573
 6328SOL     OW19882   4.585   3.524   5.430
 6328SOL    HW119883   4.533   3.447   5.392
 6328SOL    HW219884   4.649   3.558   5.361
 6329SOL     OW19885   0.919   2.363   5.941
 6329SOL    HW119886   0.865   2.333   6.019
 6329SOL    HW219887   0.864   2.356   5.858
 6330SOL     OW19888   4.668   1.640   3.924
 6330SOL    HW119889   4.715   1.590   3.851
 6330SOL    HW219890   4.667   1.737   3.903
 6331SOL     OW19891   1.163   3.321   3.802
 6331SOL    HW119892   1.079   3.374   3.799
 6331SOL    HW219893   1.224   3.352   3.729
 6332SOL     OW19894   3.647   1.856   0.002
 6332SOL    HW119895   3.720   1.814   0.056
 6332SOL    HW219896   3.660   1.955   0.000
 6333SOL     OW19897   5.830   0.557   0.605
 6333SOL    HW119898   5.923   0.585   0.578
 6333SOL    HW219899   5.824   0.458   0.605
 6334SOL     OW19900   2.019   1.419   1.780
 6334SOL    HW119901   1.943   1.475   1.812
 6334SOL    HW219902   2.075   1.471   1.715
 6335SOL     OW19903   6.942   3.848   6.045
 6335SOL    HW119904   0.009   3.894   6.021
 6335SOL    HW219905   6.928   3.769   5.986
 6336SOL     OW19906   0.582   4.362   5.499
 6336SOL    HW119907   0.499   4.306   5.500
 6336SOL    HW219908   0.659   4.309   5.536
 6337SOL     OW19909   6.083   0.076   4.961
 6337SOL    HW119910   6.091   0.049   4.865
 6337SOL    HW219911   6.126   0.006   5.018
 6338SOL     OW19912   1.203   1.112   3.141
 6338SOL    HW119913   1.218   1.135   3.237
 6338SOL    HW219914   1.263   1.036   3.116
 6339SOL     OW19915   6.877   3.578   3.324
 6339SOL    HW119916   6.958   3.569   3.266
 6339SOL    HW219917   6.890   3.525   3.408
 6340SOL     OW19918   2.949   4.949   0.333
 6340SOL    HW119919   2.892   4.932   0.253
 6340SOL    HW219920   2.891   4.961   0.414
 6341SOL     OW19921   7.013   4.942   1.899
 6341SOL    HW119922   7.004   4.843   1.915
 6341SOL    HW219923   0.050   4.957   1.817
 6342SOL     OW19924   2.300   1.173   1.578
 6342SOL    HW119925   2.378   1.121   1.542
 6342SOL    HW219926   2.279   1.143   1.671
 6343SOL     OW19927   1.278   5.683   0.191
 6343SOL    HW119928   1.341   5.747   0.236
 6343SOL    HW219929   1.195   5.674   0.246
 6344SOL     OW19930   1.075   1.495   4.562
 6344SOL    HW119931   1.085   1.592   4.540
 6344SOL    HW219932   1.010   1.453   4.499
 6345SOL     OW19933   5.767   2.944   2.844
 6345SOL    HW119934   5.861   2.978   2.849
 6345SOL    HW219935   5.766   2.859   2.791
 6346SOL     OW19936   0.566   4.507   5.064
 6346SOL    HW119937   0.535   4.500   4.969
 6346SOL    HW219938   0.627   4.586   5.073
 6347SOL     OW19939   2.053   2.418   3.641
 6347SOL    HW119940   2.026   2.510   3.670
 6347SOL    HW219941   1.980   2.353   3.662
 6348SOL     OW19942   1.105   2.540   6.726
 6348SOL    HW119943   1.064   2.472   6.665
 6348SOL    HW219944   1.150   2.610   6.672
 6349SOL     OW19945   5.724   0.572   0.878
 6349SOL    HW119946   5.744   0.576   0.780
 6349SOL    HW219947   5.747   0.660   0.920
 6350SOL     OW19948   0.967   6.459   1.462
 6350SOL    HW119949   0.941   6.372   1.505
 6350SOL    HW219950   1.038   6.443   1.394
 6351SOL     OW19951   6.016   3.371   1.422
 6351SOL    HW119952   6.006   3.441   1.351
 6351SOL    HW219953   5.972   3.403   1.506
 6352SOL     OW19954   4.039   0.545   4.344
 6352SOL    HW119955   4.061   0.490   4.425
 6352SOL    HW219956   3.952   0.514   4.306
 6353SOL     OW19957   3.508   6.144   4.975
 6353SOL    HW119958   3.462   6.178   5.056
 6353SOL    HW219959   3.548   6.054   4.994
 6354SOL     OW19960   4.879   4.982   2.349
 6354SOL    HW119961   4.956   4.974   2.412
 6354SOL    HW219962   4.812   4.910   2.369
 6355SOL     OW19963   3.500   5.671   1.169
 6355SOL    HW119964   3.507   5.574   1.195
 6355SOL    HW219965   3.589   5.715   1.182
 6356SOL     OW19966   0.192   6.338   6.517
 6356SOL    HW119967   0.115   6.320   6.577
 6356SOL    HW219968   0.255   6.261   6.518
 6357SOL     OW19969   4.671   1.539   3.157
 6357SOL    HW119970   4.688   1.441   3.164
 6357SOL    HW219971   4.756   1.590   3.172
 6358SOL     OW19972   1.036   1.806   4.552
 6358SOL    HW119973   0.970   1.821   4.626
 6358SOL    HW219974   1.127   1.794   4.591
 6359SOL     OW19975   5.710   5.574   1.756
 6359SOL    HW119976   5.626   5.523   1.737
 6359SOL    HW219977   5.788   5.511   1.761
 6360SOL     OW19978   1.962   2.324   1.045
 6360SOL    HW119979   1.944   2.327   0.946
 6360SOL    HW219980   2.060   2.311   1.060
 6361SOL     OW19981   0.569   1.194   1.552
 6361SOL    HW119982   0.631   1.118   1.533
 6361SOL    HW219983   0.476   1.169   1.527
 6362SOL     OW19984   1.430   5.171   0.265
 6362SOL    HW119985   1.419   5.072   0.258
 6362SOL    HW219986   1.348   5.217   0.232
 6363SOL     OW19987   1.217   3.332   1.827
 6363SOL    HW119988   1.316   3.320   1.824
 6363SOL    HW219989   1.180   3.282   1.905
 6364SOL     OW19990   2.816   1.763   3.879
 6364SOL    HW119991   2.892   1.788   3.939
 6364SOL    HW219992   2.750   1.707   3.929
 6365SOL     OW19993   6.137   6.784   2.824
 6365SOL    HW119994   6.049   6.753   2.859
 6365SOL    HW219995   6.207   6.716   2.845
 6366SOL     OW19996   5.868   1.079   5.334
 6366SOL    HW119997   5.965   1.062   5.313
 6366SOL    HW219998   5.858   1.098   5.431
 6367SOL     OW19999   1.508   2.292   3.866
 6367SOL    HW120000   1.498   2.383   3.826
 6367SOL    HW220001   1.447   2.283   3.945
 6368SOL     OW20002   5.031   3.444   4.826
 6368SOL    HW120003   5.065   3.385   4.899
 6368SOL    HW220004   4.951   3.495   4.860
 6369SOL     OW20005   4.397   4.738   0.478
 6369SOL    HW120006   4.305   4.765   0.506
 6369SOL    HW220007   4.455   4.727   0.559
 6370SOL     OW20008   5.829   4.455   4.630
 6370SOL    HW120009   5.822   4.487   4.535
 6370SOL    HW220010   5.749   4.400   4.653
 6371SOL     OW20011   5.579   4.582   0.992
 6371SOL    HW120012   5.613   4.670   0.961
 6371SOL    HW220013   5.500   4.555   0.937
 6372SOL     OW20014   6.558   1.402   1.496
 6372SOL    HW120015   6.553   1.302   1.492
 6372SOL    HW220016   6.578   1.439   1.405
 6373SOL     OW20017   4.926   3.178   1.964
 6373SOL    HW120018   4.849   3.115   1.974
 6373SOL    HW220019   5.003   3.129   1.924
 6374SOL     OW20020   4.855   3.533   6.058
 6374SOL    HW120021   4.913   3.614   6.065
 6374SOL    HW220022   4.780   3.539   6.124
 6375SOL     OW20023   4.957   1.249   1.786
 6375SOL    HW120024   4.984   1.326   1.728
 6375SOL    HW220025   4.922   1.174   1.729
 6376SOL     OW20026   3.027   0.629   0.199
 6376SOL    HW120027   3.004   0.535   0.176
 6376SOL    HW220028   3.080   0.669   0.123
 6377SOL     OW20029   0.312   0.489   7.002
 6377SOL    HW120030   0.261   0.430   6.938
 6377SOL    HW220031   0.298   0.456   0.077
 6378SOL     OW20032   5.833   4.152   2.190
 6378SOL    HW120033   5.889   4.113   2.263
 6378SOL    HW220034   5.744   4.179   2.226
 6379SOL     OW20035   2.004   5.476   6.174
 6379SOL    HW120036   2.039   5.553   6.122
 6379SOL    HW220037   1.909   5.493   6.201
 6380SOL     OW20038   1.488   2.967   5.333
 6380SOL    HW120039   1.437   2.881   5.325
 6380SOL    HW220040   1.574   2.959   5.283
 6381SOL     OW20041   3.501   4.153   0.313
 6381SOL    HW120042   3.509   4.169   0.412
 6381SOL    HW220043   3.589   4.169   0.270
 6382SOL     OW20044   1.625   1.216   0.553
 6382SOL    HW120045   1.546   1.239   0.611
 6382SOL    HW220046   1.603   1.235   0.458
 6383SOL     OW20047   2.482   2.526   2.198
 6383SOL    HW120048   2.559   2.464   2.181
 6383SOL    HW220049   2.453   2.517   2.293
 6384SOL     OW20050   6.645   2.824   2.084
 6384SOL    HW120051   6.570   2.850   2.024
 6384SOL    HW220052   6.668   2.728   2.068
 6385SOL     OW20053   6.308   3.958   0.785
 6385SOL    HW120054   6.338   4.004   0.868
 6385SOL    HW220055   6.388   3.932   0.731
 6386SOL     OW20056   3.272   3.424   0.115
 6386SOL    HW120057   3.348   3.465   0.167
 6386SOL    HW220058   3.208   3.381   0.178
 6387SOL     OW20059   6.708   0.274   6.677
 6387SOL    HW120060   6.627   0.276   6.736
 6387SOL    HW220061   6.781   0.224   6.722
 6388SOL     OW20062   5.644   5.307   1.950
 6388SOL    HW120063   5.724   5.248   1.940
 6388SOL    HW220064   5.654   5.365   2.031
 6389SOL     OW20065   6.757   6.643   0.349
 6389SOL    HW120066   6.767   6.565   0.287
 6389SOL    HW220067   6.831   6.641   0.416
 6390SOL     OW20068   5.306   0.216   6.741
 6390SOL    HW120069   5.237   0.146   6.760
 6390SOL    HW220070   5.359   0.236   6.823
 6391SOL     OW20071   1.635   2.054   4.808
 6391SOL    HW120072   1.582   1.971   4.824
 6391SOL    HW220073   1.596   2.130   4.860
 6392SOL     OW20074   4.154   0.311   4.172
 6392SOL    HW120075   4.070   0.366   4.172
 6392SOL    HW220076   4.216   0.344   4.243
 6393SOL     OW20077   1.637   4.649   0.635
 6393SOL    HW120078   1.704   4.591   0.681
 6393SOL    HW220079   1.564   4.673   0.699
 6394SOL     OW20080   1.993   4.955   1.947
 6394SOL    HW120081   2.065   5.011   1.989
 6394SOL    HW220082   2.034   4.878   1.899
 6395SOL     OW20083   1.847   4.313   4.548
 6395SOL    HW120084   1.916   4.251   4.585
 6395SOL    HW220085   1.892   4.391   4.504
 6396SOL     OW20086   2.230   2.648   5.382
 6396SOL    HW120087   2.317   2.599   5.392
 6396SOL    HW220088   2.248   2.744   5.361
 6397SOL     OW20089   6.319   3.467   4.829
 6397SOL    HW120090   6.344   3.563   4.829
 6397SOL    HW220091   6.312   3.434   4.923
 6398SOL     OW20092   2.126   0.284   2.567
 6398SOL    HW120093   2.203   0.342   2.540
 6398SOL    HW220094   2.160   0.193   2.592
 6399SOL     OW20095   3.111   0.177   0.312
 6399SOL    HW120096   3.186   0.117   0.282
 6399SOL    HW220097   3.138   0.272   0.300
 6400SOL     OW20098   0.371   6.901   2.413
 6400SOL    HW120099   0.400   6.834   2.344
 6400SOL    HW220100   0.342   6.985   2.366
 6401SOL     OW20101   3.781   5.178   2.714
 6401SOL    HW120102   3.770   5.178   2.615
 6401SOL    HW220103   3.758   5.268   2.750
 6402SOL     OW20104   3.445   4.612   5.676
 6402SOL    HW120105   3.495   4.544   5.623
 6402SOL    HW220106   3.392   4.670   5.614
 6403SOL     OW20107   4.938   5.706   5.504
 6403SOL    HW120108   4.979   5.743   5.588
 6403SOL    HW220109   4.930   5.780   5.437
 6404SOL     OW20110   4.883   5.661   0.082
 6404SOL    HW120111   4.958   5.612   0.038
 6404SOL    HW220112   4.824   5.595   0.130
 6405SOL     OW20113   4.734   1.238   2.725
 6405SOL    HW120114   4.761   1.153   2.681
 6405SOL    HW220115   4.635   1.251   2.717
 6406SOL     OW20116   0.317   3.479   2.500
 6406SOL    HW120117   0.369   3.549   2.450
 6406SOL    HW220118   0.304   3.399   2.442
 6407SOL     OW20119   0.544   7.006   2.197
 6407SOL    HW120120   0.451   0.025   2.203
 6407SOL    HW220121   0.601   0.030   2.267
 6408SOL     OW20122   6.884   1.230   1.922
 6408SOL    HW120123   6.888   1.272   2.012
 6408SOL    HW220124   6.976   1.206   1.892
 6409SOL     OW20125   5.732   4.536   3.253
 6409SOL    HW120126   5.650   4.590   3.236
 6409SOL    HW220127   5.806   4.566   3.192
 6410SOL     OW20128   2.008   1.146   0.329
 6410SOL    HW120129   1.942   1.079   0.296
 6410SOL    HW220130   2.027   1.213   0.258
 6411SOL     OW20131   0.543   2.848   2.588
 6411SOL    HW120132   0.616   2.916   2.596
 6411SOL    HW220133   0.560   2.773   2.653
 6412SOL     OW20134   3.519   0.410   6.726
 6412SOL    HW120135   3.503   0.457   6.639
 6412SOL    HW220136   3.515   0.476   6.801
 6413SOL     OW20137   5.206   6.485   3.627
 6413SOL    HW120138   5.148   6.408   3.601
 6413SOL    HW220139   5.267   6.457   3.701
 6414SOL     OW20140   2.966   0.758   0.451
 6414SOL    HW120141   2.978   0.685   0.384
 6414SOL    HW220142   3.018   0.737   0.533
 6415SOL     OW20143   0.989   1.386   3.398
 6415SOL    HW120144   0.971   1.439   3.481
 6415SOL    HW220145   1.086   1.392   3.375
 6416SOL     OW20146   3.253   5.045   0.197
 6416SOL    HW120147   3.242   5.111   0.122
 6416SOL    HW220148   3.165   5.001   0.216
 6417SOL     OW20149   4.431   3.075   6.937
 6417SOL    HW120150   4.449   3.156   6.882
 6417SOL    HW220151   4.332   3.065   6.950
 6418SOL     OW20152   5.194   5.054   0.527
 6418SOL    HW120153   5.154   5.138   0.562
 6418SOL    HW220154   5.155   5.034   0.437
 6419SOL     OW20155   0.996   6.674   0.089
 6419SOL    HW120156   1.014   6.578   0.069
 6419SOL    HW220157   0.898   6.686   0.106
 6420SOL     OW20158   2.551   4.597   3.770
 6420SOL    HW120159   2.577   4.593   3.866
 6420SOL    HW220160   2.632   4.613   3.714
 6421SOL     OW20161   4.806   0.096   1.822
 6421SOL    HW120162   4.716   0.107   1.780
 6421SOL    HW220163   4.799   0.110   1.921
 6422SOL     OW20164   6.841   2.909   4.589
 6422SOL    HW120165   6.883   2.823   4.614
 6422SOL    HW220166   6.888   2.948   4.510
 6423SOL     OW20167   0.965   4.233   5.026
 6423SOL    HW120168   0.949   4.176   5.107
 6423SOL    HW220169   0.896   4.213   4.957
 6424SOL     OW20170   6.918   4.244   6.106
 6424SOL    HW120171   6.874   4.313   6.048
 6424SOL    HW220172   6.848   4.190   6.152
 6425SOL     OW20173   0.141   6.332   4.213
 6425SOL    HW120174   0.187   6.244   4.204
 6425SOL    HW220175   0.126   6.371   4.122
 6426SOL     OW20176   4.728   5.303   4.259
 6426SOL    HW120177   4.689   5.248   4.334
 6426SOL    HW220178   4.654   5.347   4.209
 6427SOL     OW20179   4.116   3.605   3.463
 6427SOL    HW120180   4.067   3.518   3.467
 6427SOL    HW220181   4.201   3.593   3.412
 6428SOL     OW20182   5.579   3.293   0.256
 6428SOL    HW120183   5.539   3.281   0.347
 6428SOL    HW220184   5.572   3.208   0.205
 6429SOL     OW20185   2.346   1.326   5.743
 6429SOL    HW120186   2.409   1.252   5.765
 6429SOL    HW220187   2.366   1.405   5.802
 6430SOL     OW20188   5.975   1.247   4.945
 6430SOL    HW120189   6.015   1.215   4.859
 6430SOL    HW220190   5.987   1.346   4.953
 6431SOL     OW20191   3.454   5.555   2.368
 6431SOL    HW120192   3.367   5.573   2.323
 6431SOL    HW220193   3.451   5.463   2.409
 6432SOL     OW20194   4.850   3.032   5.699
 6432SOL    HW120195   4.812   2.953   5.747
 6432SOL    HW220196   4.868   3.007   5.604
 6433SOL     OW20197   3.653   5.296   5.902
 6433SOL    HW120198   3.656   5.391   5.932
 6433SOL    HW220199   3.694   5.237   5.972
 6434SOL     OW20200   5.540   5.310   5.884
 6434SOL    HW120201   5.474   5.350   5.821
 6434SOL    HW220202   5.570   5.221   5.851
 6435SOL     OW20203   4.877   1.216   0.755
 6435SOL    HW120204   4.820   1.175   0.684
 6435SOL    HW220205   4.844   1.308   0.775
 6436SOL     OW20206   0.282   3.470   3.753
 6436SOL    HW120207   0.306   3.416   3.834
 6436SOL    HW220208   0.261   3.408   3.677
 6437SOL     OW20209   1.543   2.755   6.061
 6437SOL    HW120210   1.454   2.709   6.053
 6437SOL    HW220211   1.603   2.725   5.987
 6438SOL     OW20212   0.652   5.151   0.485
 6438SOL    HW120213   0.683   5.152   0.580
 6438SOL    HW220214   0.574   5.089   0.476
 6439SOL     OW20215   5.428   6.750   2.398
 6439SOL    HW120216   5.450   6.655   2.420
 6439SOL    HW220217   5.513   6.802   2.388
 6440SOL     OW20218   2.535   1.823   6.044
 6440SOL    HW120219   2.538   1.849   6.141
 6440SOL    HW220220   2.625   1.789   6.017
 6441SOL     OW20221   0.403   2.325   1.980
 6441SOL    HW120222   0.495   2.311   2.015
 6441SOL    HW220223   0.394   2.281   1.890
 6442SOL     OW20224   2.521   2.124   4.745
 6442SOL    HW120225   2.539   2.079   4.658
 6442SOL    HW220226   2.598   2.185   4.767
 6443SOL     OW20227   3.642   3.083   6.515
 6443SOL    HW120228   3.642   3.085   6.415
 6443SOL    HW220229   3.666   3.174   6.550
 6444SOL     OW20230   7.018   4.086   4.919
 6444SOL    HW120231   7.003   4.008   4.859
 6444SOL    HW220232   0.081   4.135   4.891
 6445SOL     OW20233   4.005   3.160   3.338
 6445SOL    HW120234   3.965   3.082   3.385
 6445SOL    HW220235   3.978   3.159   3.241
 6446SOL     OW20236   1.593   0.720   0.368
 6446SOL    HW120237   1.577   0.783   0.444
 6446SOL    HW220238   1.545   0.634   0.385
 6447SOL     OW20239   5.743   3.797   1.805
 6447SOL    HW120240   5.776   3.882   1.845
 6447SOL    HW220241   5.698   3.741   1.875
 6448SOL     OW20242   4.298   4.645   1.189
 6448SOL    HW120243   4.278   4.743   1.182
 6448SOL    HW220244   4.314   4.608   1.098
 6449SOL     OW20245   3.794   5.451   0.522
 6449SOL    HW120246   3.738   5.376   0.489
 6449SOL    HW220247   3.736   5.522   0.561
 6450SOL     OW20248   5.956   3.642   6.859
 6450SOL    HW120249   6.007   3.567   6.901
 6450SOL    HW220250   6.020   3.703   6.813
 6451SOL     OW20251   4.296   2.778   1.650
 6451SOL    HW120252   4.217   2.837   1.667
 6451SOL    HW220253   4.374   2.835   1.621
 6452SOL     OW20254   3.905   2.003   5.353
 6452SOL    HW120255   3.987   1.949   5.330
 6452SOL    HW220256   3.894   2.076   5.286
 6453SOL     OW20257   2.235   0.330   2.925
 6453SOL    HW120258   2.180   0.412   2.939
 6453SOL    HW220259   2.309   0.328   2.993
 6454SOL     OW20260   5.157   2.813   4.487
 6454SOL    HW120261   5.125   2.855   4.572
 6454SOL    HW220262   5.088   2.750   4.452
 6455SOL     OW20263   6.815   2.772   4.027
 6455SOL    HW120264   6.898   2.744   4.075
 6455SOL    HW220265   6.735   2.732   4.072
 6456SOL     OW20266   6.569   2.128   2.411
 6456SOL    HW120267   6.639   2.065   2.444
 6456SOL    HW220268   6.502   2.144   2.483
 6457SOL     OW20269   2.377   6.301   2.491
 6457SOL    HW120270   2.317   6.381   2.491
 6457SOL    HW220271   2.330   6.224   2.450
 6458SOL     OW20272   0.069   0.131   4.473
 6458SOL    HW120273   7.000   0.104   4.431
 6458SOL    HW220274   0.051   0.177   4.560
 6459SOL     OW20275   0.313   3.135   3.182
 6459SOL    HW120276   0.378   3.058   3.181
 6459SOL    HW220277   0.352   3.210   3.234
 6460SOL     OW20278   1.499   5.235   6.481
 6460SOL    HW120279   1.525   5.236   6.384
 6460SOL    HW220280   1.555   5.168   6.530
 6461SOL     OW20281   0.577   6.232   1.016
 6461SOL    HW120282   0.613   6.325   1.020
 6461SOL    HW220283   0.644   6.173   0.970
 6462SOL     OW20284   2.048   3.730   5.060
 6462SOL    HW120285   2.062   3.692   5.152
 6462SOL    HW220286   2.034   3.829   5.067
 6463SOL     OW20287   4.891   2.761   0.878
 6463SOL    HW120288   4.828   2.839   0.891
 6463SOL    HW220289   4.932   2.766   0.787
 6464SOL     OW20290   0.709   3.959   3.782
 6464SOL    HW120291   0.792   3.942   3.728
 6464SOL    HW220292   0.701   3.889   3.853
 6465SOL     OW20293   2.758   1.004   3.818
 6465SOL    HW120294   2.764   1.025   3.720
 6465SOL    HW220295   2.662   0.987   3.842
 6466SOL     OW20296   6.606   5.212   6.611
 6466SOL    HW120297   6.663   5.224   6.530
 6466SOL    HW220298   6.518   5.256   6.598
 6467SOL     OW20299   2.182   2.520   6.481
 6467SOL    HW120300   2.121   2.449   6.515
 6467SOL    HW220301   2.166   2.534   6.383
 6468SOL     OW20302   1.501   0.342   1.206
 6468SOL    HW120303   1.476   0.324   1.301
 6468SOL    HW220304   1.544   0.261   1.166
 6469SOL     OW20305   2.093   1.228   1.407
 6469SOL    HW120306   2.169   1.225   1.472
 6469SOL    HW220307   2.025   1.296   1.438
 6470SOL     OW20308   6.314   1.602   6.987
 6470SOL    HW120309   6.234   1.658   6.966
 6470SOL    HW220310   6.356   1.634   0.053
 6471SOL     OW20311   0.134   6.239   5.967
 6471SOL    HW120312   0.111   6.258   6.062
 6471SOL    HW220313   0.226   6.274   5.947
 6472SOL     OW20314   0.009   6.072   2.296
 6472SOL    HW120315   7.011   5.974   2.284
 6472SOL    HW220316   0.034   6.091   2.391
 6473SOL     OW20317   2.840   0.882   3.367
 6473SOL    HW120318   2.803   0.969   3.333
 6473SOL    HW220319   2.932   0.897   3.403
 6474SOL     OW20320   3.496   6.595   3.704
 6474SOL    HW120321   3.551   6.677   3.687
 6474SOL    HW220322   3.555   6.515   3.704
 6475SOL     OW20323   5.706   5.665   2.998
 6475SOL    HW120324   5.618   5.633   3.035
 6475SOL    HW220325   5.692   5.749   2.946
 6476SOL     OW20326   4.841   3.185   6.161
 6476SOL    HW120327   4.822   3.284   6.163
 6476SOL    HW220328   4.936   3.170   6.134
 6477SOL     OW20329   0.449   6.366   0.705
 6477SOL    HW120330   0.546   6.344   0.705
 6477SOL    HW220331   0.401   6.301   0.646
 6478SOL     OW20332   1.792   6.231   1.093
 6478SOL    HW120333   1.739   6.150   1.117
 6478SOL    HW220334   1.808   6.286   1.176
 6479SOL     OW20335   4.876   6.092   3.541
 6479SOL    HW120336   4.785   6.123   3.566
 6479SOL    HW220337   4.944   6.159   3.571
 6480SOL     OW20338   3.540   1.617   5.635
 6480SOL    HW120339   3.487   1.547   5.682
 6480SOL    HW220340   3.479   1.676   5.583
 6481SOL     OW20341   4.162   3.279   1.970
 6481SOL    HW120342   4.246   3.327   1.995
 6481SOL    HW220343   4.177   3.226   1.887
 6482SOL     OW20344   4.835   3.192   5.409
 6482SOL    HW120345   4.912   3.129   5.421
 6482SOL    HW220346   4.866   3.272   5.357
 6483SOL     OW20347   2.090   5.774   5.301
 6483SOL    HW120348   2.135   5.694   5.340
 6483SOL    HW220349   2.095   5.850   5.367
 6484SOL     OW20350   4.370   1.601   3.856
 6484SOL    HW120351   4.454   1.653   3.840
 6484SOL    HW220352   4.352   1.597   3.954
 6485SOL     OW20353   2.119   5.300   4.979
 6485SOL    HW120354   2.199   5.311   4.920
 6485SOL    HW220355   2.073   5.214   4.957
 6486SOL     OW20356   6.748   4.596   2.488
 6486SOL    HW120357   6.813   4.671   2.480
 6486SOL    HW220358   6.796   4.509   2.474
 6487SOL     OW20359   6.637   5.102   3.674
 6487SOL    HW120360   6.627   5.187   3.726
 6487SOL    HW220361   6.645   5.125   3.576
 6488SOL     OW20362   3.487   5.128   3.926
 6488SOL    HW120363   3.491   5.067   4.006
 6488SOL    HW220364   3.409   5.102   3.869
 6489SOL     OW20365   5.831   3.182   4.870
 6489SOL    HW120366   5.919   3.226   4.852
 6489SOL    HW220367   5.771   3.246   4.918
 6490SOL     OW20368   2.364   2.563   0.290
 6490SOL    HW120369   2.385   2.535   0.383
 6490SOL    HW220370   2.395   2.493   0.226
 6491SOL     OW20371   1.654   6.825   1.676
 6491SOL    HW120372   1.742   6.811   1.721
 6491SOL    HW220373   1.591   6.869   1.740
 6492SOL     OW20374   3.942   3.951   4.029
 6492SOL    HW120375   4.003   3.872   4.024
 6492SOL    HW220376   3.925   3.987   3.937
 6493SOL     OW20377   1.054   4.825   3.696
 6493SOL    HW120378   1.141   4.873   3.686
 6493SOL    HW220379   1.061   4.734   3.654
 6494SOL     OW20380   6.383   0.669   1.031
 6494SOL    HW120381   6.440   0.654   0.950
 6494SOL    HW220382   6.289   0.688   1.002
 6495SOL     OW20383   6.979   0.232   3.438
 6495SOL    HW120384   7.008   0.292   3.513
 6495SOL    HW220385   6.880   0.239   3.426
 6496SOL     OW20386   3.380   2.102   1.702
 6496SOL    HW120387   3.377   2.202   1.711
 6496SOL    HW220388   3.471   2.070   1.729
 6497SOL     OW20389   0.232   1.616   0.700
 6497SOL    HW120390   0.316   1.667   0.682
 6497SOL    HW220391   0.253   1.538   0.760
 6498SOL     OW20392   2.263   4.282   4.468
 6498SOL    HW120393   2.343   4.227   4.492
 6498SOL    HW220394   2.222   4.319   4.551
 6499SOL     OW20395   4.842   2.302   3.241
 6499SOL    HW120396   4.879   2.368   3.307
 6499SOL    HW220397   4.765   2.254   3.282
 6500SOL     OW20398   1.123   3.544   3.194
 6500SOL    HW120399   1.191   3.617   3.194
 6500SOL    HW220400   1.168   3.456   3.178
 6501SOL     OW20401   6.274   1.098   2.956
 6501SOL    HW120402   6.193   1.045   2.982
 6501SOL    HW220403   6.331   1.113   3.037
 6502SOL     OW20404   0.689   3.055   1.694
 6502SOL    HW120405   0.732   3.097   1.615
 6502SOL    HW220406   0.679   2.957   1.678
 6503SOL     OW20407   6.884   3.052   5.705
 6503SOL    HW120408   6.826   3.133   5.709
 6503SOL    HW220409   6.839   2.977   5.753
 6504SOL     OW20410   3.246   0.036   6.106
 6504SOL    HW120411   3.247   0.084   6.194
 6504SOL    HW220412   3.339   0.008   6.082
 6505SOL     OW20413   0.105   6.728   0.902
 6505SOL    HW120414   0.185   6.701   0.850
 6505SOL    HW220415   0.023   6.686   0.863
 6506SOL     OW20416   0.659   3.744   2.102
 6506SOL    HW120417   0.713   3.695   2.033
 6506SOL    HW220418   0.715   3.760   2.183
 6507SOL     OW20419   3.973   5.590   0.955
 6507SOL    HW120420   3.900   5.522   0.956
 6507SOL    HW220421   4.034   5.572   0.878
 6508SOL     OW20422   6.653   0.530   3.686
 6508SOL    HW120423   6.636   0.603   3.752
 6508SOL    HW220424   6.706   0.458   3.729
 6509SOL     OW20425   2.367   1.494   0.177
 6509SOL    HW120426   2.288   1.510   0.237
 6509SOL    HW220427   2.422   1.419   0.213
 6510SOL     OW20428   3.134   5.218   4.996
 6510SOL    HW120429   3.204   5.289   5.005
 6510SOL    HW220430   3.056   5.241   5.054
 6511SOL     OW20431   2.966   2.209   0.500
 6511SOL    HW120432   2.996   2.127   0.549
 6511SOL    HW220433   2.893   2.254   0.551
 6512SOL     OW20434   5.059   0.746   0.259
 6512SOL    HW120435   5.140   0.731   0.202
 6512SOL    HW220436   4.977   0.739   0.202
 6513SOL     OW20437   2.737   4.677   3.037
 6513SOL    HW120438   2.651   4.634   3.009
 6513SOL    HW220439   2.736   4.691   3.136
 6514SOL     OW20440   5.040   6.064   5.167
 6514SOL    HW120441   5.068   6.158   5.149
 6514SOL    HW220442   4.974   6.035   5.099
 6515SOL     OW20443   0.421   4.905   2.694
 6515SOL    HW120444   0.341   4.944   2.649
 6515SOL    HW220445   0.452   4.968   2.766
 6516SOL     OW20446   5.999   2.231   2.661
 6516SOL    HW120447   6.044   2.233   2.572
 6516SOL    HW220448   5.997   2.137   2.696
 6517SOL     OW20449   6.317   3.880   0.487
 6517SOL    HW120450   6.355   3.790   0.505
 6517SOL    HW220451   6.252   3.904   0.559
 6518SOL     OW20452   1.000   0.796   2.247
 6518SOL    HW120453   1.033   0.863   2.180
 6518SOL    HW220454   1.054   0.803   2.331
 6519SOL     OW20455   1.280   1.181   3.399
 6519SOL    HW120456   1.286   1.280   3.383
 6519SOL    HW220457   1.352   1.153   3.463
 6520SOL     OW20458   6.557   5.783   0.091
 6520SOL    HW120459   6.469   5.751   0.126
 6520SOL    HW220460   6.626   5.777   0.164
 6521SOL     OW20461   1.684   5.031   4.366
 6521SOL    HW120462   1.735   4.946   4.355
 6521SOL    HW220463   1.679   5.054   4.464
 6522SOL     OW20464   2.709   2.963   5.371
 6522SOL    HW120465   2.687   2.931   5.463
 6522SOL    HW220466   2.625   2.984   5.322
 6523SOL     OW20467   6.092   6.475   0.993
 6523SOL    HW120468   6.150   6.529   0.934
 6523SOL    HW220469   6.140   6.391   1.020
 6524SOL     OW20470   3.270   2.744   1.282
 6524SOL    HW120471   3.369   2.731   1.274
 6524SOL    HW220472   3.236   2.786   1.198
 6525SOL     OW20473   1.544   4.825   3.625
 6525SOL    HW120474   1.594   4.890   3.682
 6525SOL    HW220475   1.598   4.742   3.612
 6526SOL     OW20476   6.857   6.673   0.778
 6526SOL    HW120477   6.846   6.575   0.758
 6526SOL    HW220478   6.776   6.706   0.826
 6527SOL     OW20479   5.878   1.584   1.093
 6527SOL    HW120480   5.900   1.593   1.190
 6527SOL    HW220481   5.793   1.633   1.073
 6528SOL     OW20482   4.589   6.823   0.579
 6528SOL    HW120483   4.573   6.818   0.480
 6528SOL    HW220484   4.688   6.823   0.597
 6529SOL     OW20485   4.786   0.451   1.858
 6529SOL    HW120486   4.704   0.394   1.853
 6529SOL    HW220487   4.767   0.530   1.916
 6530SOL     OW20488   0.730   2.536   3.339
 6530SOL    HW120489   0.682   2.567   3.257
 6530SOL    HW220490   0.689   2.579   3.420
 6531SOL     OW20491   3.731   3.778   3.760
 6531SOL    HW120492   3.801   3.711   3.784
 6531SOL    HW220493   3.660   3.778   3.830
 6532SOL     OW20494   0.732   6.292   0.687
 6532SOL    HW120495   0.762   6.196   0.690
 6532SOL    HW220496   0.803   6.350   0.726
 6533SOL     OW20497   4.547   4.595   1.285
 6533SOL    HW120498   4.546   4.547   1.373
 6533SOL    HW220499   4.453   4.612   1.255
 6534SOL     OW20500   0.065   4.561   3.756
 6534SOL    HW120501   0.160   4.554   3.787
 6534SOL    HW220502   0.056   4.641   3.696
 6535SOL     OW20503   5.263   4.410   5.556
 6535SOL    HW120504   5.203   4.366   5.490
 6535SOL    HW220505   5.252   4.366   5.645
 6536SOL     OW20506   0.239   4.658   5.825
 6536SOL    HW120507   0.163   4.657   5.890
 6536SOL    HW220508   0.290   4.572   5.832
 6537SOL     OW20509   6.954   5.473   3.944
 6537SOL    HW120510   6.907   5.394   3.984
 6537SOL    HW220511   0.020   5.443   3.901
 6538SOL     OW20512   0.901   2.802   4.271
 6538SOL    HW120513   0.806   2.790   4.302
 6538SOL    HW220514   0.917   2.744   4.191
 6539SOL     OW20515   4.397   6.363   6.667
 6539SOL    HW120516   4.359   6.432   6.605
 6539SOL    HW220517   4.335   6.352   6.745
 6540SOL     OW20518   0.471   2.876   5.465
 6540SOL    HW120519   0.374   2.877   5.490
 6540SOL    HW220520   0.525   2.916   5.539
 6541SOL     OW20521   4.311   1.642   5.466
 6541SOL    HW120522   4.364   1.606   5.388
 6541SOL    HW220523   4.374   1.670   5.538
 6542SOL     OW20524   1.876   3.918   2.571
 6542SOL    HW120525   1.830   3.830   2.581
 6542SOL    HW220526   1.809   3.992   2.579
 6543SOL     OW20527   3.890   1.456   4.702
 6543SOL    HW120528   3.945   1.538   4.686
 6543SOL    HW220529   3.940   1.376   4.669
 6544SOL     OW20530   0.209   0.255   0.372
 6544SOL    HW120531   0.276   0.206   0.428
 6544SOL    HW220532   0.250   0.339   0.338
 6545SOL     OW20533   4.779   5.984   1.101
 6545SOL    HW120534   4.840   5.905   1.115
 6545SOL    HW220535   4.718   5.994   1.179
 6546SOL     OW20536   4.670   5.494   5.634
 6546SOL    HW120537   4.639   5.409   5.677
 6546SOL    HW220538   4.687   5.479   5.537
 6547SOL     OW20539   0.867   6.231   5.429
 6547SOL    HW120540   0.933   6.269   5.364
 6547SOL    HW220541   0.814   6.159   5.385
 6548SOL     OW20542   1.125   1.748   6.091
 6548SOL    HW120543   1.109   1.700   6.004
 6548SOL    HW220544   1.097   1.843   6.081
 6549SOL     OW20545   3.614   1.895   2.675
 6549SOL    HW120546   3.520   1.863   2.673
 6549SOL    HW220547   3.675   1.817   2.688
 6550SOL     OW20548   6.102   6.311   2.126
 6550SOL    HW120549   6.028   6.301   2.193
 6550SOL    HW220550   6.072   6.275   2.038
 6551SOL     OW20551   3.272   5.184   0.532
 6551SOL    HW120552   3.268   5.240   0.449
 6551SOL    HW220553   3.191   5.201   0.587
 6552SOL     OW20554   2.135   4.406   0.124
 6552SOL    HW120555   2.197   4.425   0.200
 6552SOL    HW220556   2.051   4.458   0.136
 6553SOL     OW20557   0.655   1.999   3.677
 6553SOL    HW120558   0.560   1.971   3.679
 6553SOL    HW220559   0.661   2.096   3.650
 6554SOL     OW20560   1.720   2.521   3.808
 6554SOL    HW120561   1.779   2.592   3.769
 6554SOL    HW220562   1.632   2.522   3.762
 6555SOL     OW20563   1.842   3.513   4.374
 6555SOL    HW120564   1.853   3.474   4.282
 6555SOL    HW220565   1.870   3.446   4.442
 6556SOL     OW20566   4.879   3.094   2.697
 6556SOL    HW120567   4.969   3.050   2.689
 6556SOL    HW220568   4.813   3.045   2.641
 6557SOL     OW20569   2.282   1.003   2.261
 6557SOL    HW120570   2.193   0.969   2.231
 6557SOL    HW220571   2.270   1.082   2.322
 6558SOL     OW20572   5.570   6.091   0.971
 6558SOL    HW120573   5.639   6.124   0.906
 6558SOL    HW220574   5.615   6.068   1.057
 6559SOL     OW20575   6.904   2.299   6.214
 6559SOL    HW120576   6.961   2.360   6.269
 6559SOL    HW220577   6.887   2.215   6.265
 6560SOL     OW20578   6.306   4.215   6.656
 6560SOL    HW120579   6.331   4.293   6.713
 6560SOL    HW220580   6.310   4.241   6.559
 6561SOL     OW20581   2.520   4.760   0.709
 6561SOL    HW120582   2.536   4.666   0.679
 6561SOL    HW220583   2.458   4.760   0.788
 6562SOL     OW20584   4.831   2.857   1.430
 6562SOL    HW120585   4.816   2.939   1.485
 6562SOL    HW220586   4.760   2.789   1.451
 6563SOL     OW20587   6.425   5.324   5.366
 6563SOL    HW120588   6.345   5.383   5.367
 6563SOL    HW220589   6.399   5.233   5.398
 6564SOL     OW20590   5.382   3.147   2.197
 6564SOL    HW120591   5.414   3.053   2.198
 6564SOL    HW220592   5.291   3.153   2.238
 6565SOL     OW20593   5.092   6.686   2.177
 6565SOL    HW120594   5.032   6.762   2.153
 6565SOL    HW220595   5.187   6.716   2.177
 6566SOL     OW20596   5.446   5.545   3.724
 6566SOL    HW120597   5.498   5.566   3.641
 6566SOL    HW220598   5.410   5.630   3.763
 6567SOL     OW20599   3.536   0.539   2.587
 6567SOL    HW120600   3.535   0.469   2.658
 6567SOL    HW220601   3.518   0.628   2.628
 6568SOL     OW20602   5.126   0.846   0.820
 6568SOL    HW120603   5.127   0.873   0.724
 6568SOL    HW220604   5.061   0.770   0.832
 6569SOL     OW20605   0.997   4.791   3.941
 6569SOL    HW120606   1.021   4.816   3.848
 6569SOL    HW220607   1.081   4.783   3.996
 6570SOL     OW20608   4.359   0.146   2.275
 6570SOL    HW120609   4.408   0.219   2.227
 6570SOL    HW220610   4.266   0.176   2.297
 6571SOL     OW20611   2.533   6.625   3.169
 6571SOL    HW120612   2.599   6.608   3.242
 6571SOL    HW220613   2.447   6.657   3.208
 6572SOL     OW20614   1.744   6.208   3.869
 6572SOL    HW120615   1.680   6.244   3.937
 6572SOL    HW220616   1.704   6.217   3.778
 6573SOL     OW20617   0.012   2.416   2.988
 6573SOL    HW120618   7.009   2.333   2.937
 6573SOL    HW220619   0.096   2.403   3.041
 6574SOL     OW20620   1.380   4.721   2.220
 6574SOL    HW120621   1.450   4.791   2.229
 6574SOL    HW220622   1.370   4.673   2.308
 6575SOL     OW20623   6.696   2.079   3.393
 6575SOL    HW120624   6.654   2.136   3.463
 6575SOL    HW220625   6.708   2.131   3.309
 6576SOL     OW20626   3.886   0.012   1.600
 6576SOL    HW120627   3.843   0.046   1.684
 6576SOL    HW220628   3.829   0.037   1.521
 6577SOL     OW20629   3.617   0.881   4.584
 6577SOL    HW120630   3.537   0.831   4.550
 6577SOL    HW220631   3.608   0.897   4.682
 6578SOL     OW20632   1.481   4.715   0.870
 6578SOL    HW120633   1.428   4.658   0.932
 6578SOL    HW220634   1.512   4.798   0.918
 6579SOL     OW20635   1.311   1.572   3.735
 6579SOL    HW120636   1.241   1.560   3.805
 6579SOL    HW220637   1.353   1.484   3.714
 6580SOL     OW20638   2.688   2.023   0.340
 6580SOL    HW120639   2.781   1.990   0.356
 6580SOL    HW220640   2.649   1.974   0.261
 6581SOL     OW20641   0.701   1.813   1.237
 6581SOL    HW120642   0.664   1.833   1.146
 6581SOL    HW220643   0.786   1.865   1.250
 6582SOL     OW20644   5.133   0.800   3.240
 6582SOL    HW120645   5.146   0.720   3.298
 6582SOL    HW220646   5.212   0.812   3.180
 6583SOL     OW20647   2.961   4.442   0.928
 6583SOL    HW120648   3.002   4.435   1.020
 6583SOL    HW220649   2.937   4.537   0.910
 6584SOL     OW20650   4.325   2.539   6.438
 6584SOL    HW120651   4.309   2.537   6.339
 6584SOL    HW220652   4.344   2.447   6.470
 6585SOL     OW20653   5.546   0.194   1.814
 6585SOL    HW120654   5.551   0.277   1.868
 6585SOL    HW220655   5.450   0.170   1.798
 6586SOL     OW20656   6.579   1.100   6.294
 6586SOL    HW120657   6.605   1.138   6.383
 6586SOL    HW220658   6.556   1.003   6.304
 6587SOL     OW20659   3.101   5.131   4.738
 6587SOL    HW120660   3.021   5.077   4.712
 6587SOL    HW220661   3.092   5.159   4.833
 6588SOL     OW20662   1.271   1.949   0.286
 6588SOL    HW120663   1.332   2.009   0.338
 6588SOL    HW220664   1.208   2.004   0.232
 6589SOL     OW20665   6.409   6.244   1.788
 6589SOL    HW120666   6.502   6.276   1.769
 6589SOL    HW220667   6.369   6.297   1.863
 6590SOL     OW20668   1.243   6.307   4.663
 6590SOL    HW120669   1.319   6.252   4.628
 6590SOL    HW220670   1.249   6.399   4.624
 6591SOL     OW20671   6.220   3.127   3.723
 6591SOL    HW120672   6.249   3.035   3.748
 6591SOL    HW220673   6.283   3.166   3.656
 6592SOL     OW20674   6.391   0.441   3.949
 6592SOL    HW120675   6.410   0.400   3.860
 6592SOL    HW220676   6.389   0.370   4.019
 6593SOL     OW20677   2.327   1.379   2.150
 6593SOL    HW120678   2.233   1.350   2.129
 6593SOL    HW220679   2.325   1.461   2.206
 6594SOL     OW20680   5.169   0.003   6.853
 6594SOL    HW120681   5.159   6.938   6.798
 6594SOL    HW220682   5.159   6.997   6.950
 6595SOL     OW20683   0.613   1.726   5.100
 6595SOL    HW120684   0.528   1.765   5.065
 6595SOL    HW220685   0.691   1.771   5.055
 6596SOL     OW20686   5.080   1.297   2.325
 6596SOL    HW120687   5.025   1.369   2.367
 6596SOL    HW220688   5.117   1.237   2.397
 6597SOL     OW20689   0.990   4.464   1.035
 6597SOL    HW120690   1.088   4.443   1.037
 6597SOL    HW220691   0.954   4.447   0.943
 6598SOL     OW20692   1.575   5.114   3.380
 6598SOL    HW120693   1.522   5.152   3.456
 6598SOL    HW220694   1.587   5.016   3.392
 6599SOL     OW20695   0.380   5.599   6.458
 6599SOL    HW120696   0.361   5.501   6.451
 6599SOL    HW220697   0.443   5.626   6.385
 6600SOL     OW20698   4.842   6.507   4.594
 6600SOL    HW120699   4.862   6.539   4.501
 6600SOL    HW220700   4.792   6.577   4.644
 6601SOL     OW20701   1.250   2.666   1.921
 6601SOL    HW120702   1.336   2.616   1.935
 6601SOL    HW220703   1.271   2.763   1.908
 6602SOL     OW20704   6.758   5.320   1.238
 6602SOL    HW120705   6.832   5.264   1.278
 6602SOL    HW220706   6.798   5.403   1.199
 6603SOL     OW20707   0.291   4.315   2.163
 6603SOL    HW120708   0.346   4.257   2.103
 6603SOL    HW220709   0.351   4.365   2.226
 6604SOL     OW20710   1.427   5.573   3.093
 6604SOL    HW120711   1.506   5.596   3.151
 6604SOL    HW220712   1.457   5.567   2.998
 6605SOL     OW20713   0.133   5.322   1.385
 6605SOL    HW120714   0.082   5.250   1.339
 6605SOL    HW220715   0.100   5.411   1.354
 6606SOL     OW20716   1.587   3.971   2.834
 6606SOL    HW120717   1.660   3.903   2.838
 6606SOL    HW220718   1.624   4.058   2.800
 6607SOL     OW20719   6.182   3.197   4.176
 6607SOL    HW120720   6.228   3.162   4.258
 6607SOL    HW220721   6.100   3.142   4.158
 6608SOL     OW20722   1.061   0.447   5.765
 6608SOL    HW120723   0.962   0.434   5.755
 6608SOL    HW220724   1.103   0.454   5.674
 6609SOL     OW20725   3.586   2.685   0.215
 6609SOL    HW120726   3.520   2.613   0.235
 6609SOL    HW220727   3.553   2.741   0.139
 6610SOL     OW20728   2.893   6.050   1.126
 6610SOL    HW120729   2.804   6.039   1.169
 6610SOL    HW220730   2.963   6.060   1.196
 6611SOL     OW20731   3.336   1.492   4.791
 6611SOL    HW120732   3.362   1.575   4.741
 6611SOL    HW220733   3.256   1.450   4.749
 6612SOL     OW20734   0.960   0.102   0.161
 6612SOL    HW120735   0.902   0.124   0.083
 6612SOL    HW220736   0.906   0.058   0.232
 6613SOL     OW20737   4.572   6.319   0.664
 6613SOL    HW120738   4.565   6.315   0.763
 6613SOL    HW220739   4.602   6.231   0.629
 6614SOL     OW20740   4.147   4.784   0.935
 6614SOL    HW120741   4.183   4.697   0.903
 6614SOL    HW220742   4.073   4.768   1.000
 6615SOL     OW20743   3.617   5.577   5.933
 6615SOL    HW120744   3.605   5.589   6.032
 6615SOL    HW220745   3.656   5.661   5.894
 6616SOL     OW20746   4.244   1.245   0.062
 6616SOL    HW120747   4.215   1.340   0.073
 6616SOL    HW220748   4.308   1.221   0.135
 6617SOL     OW20749   3.360   0.794   3.574
 6617SOL    HW120750   3.369   0.894   3.564
 6617SOL    HW220751   3.270   0.766   3.542
 6618SOL     OW20752   5.758   2.254   4.188
 6618SOL    HW120753   5.711   2.241   4.101
 6618SOL    HW220754   5.729   2.339   4.230
 6619SOL     OW20755   4.945   5.157   3.958
 6619SOL    HW120756   4.904   5.075   3.998
 6619SOL    HW220757   4.966   5.223   4.030
 6620SOL     OW20758   1.042   2.618   3.436
 6620SOL    HW120759   1.054   2.715   3.457
 6620SOL    HW220760   1.038   2.607   3.337
 6621SOL     OW20761   2.912   3.360   3.880
 6621SOL    HW120762   2.895   3.458   3.887
 6621SOL    HW220763   2.871   3.324   3.796
 6622SOL     OW20764   0.182   4.720   1.208
 6622SOL    HW120765   0.251   4.728   1.136
 6622SOL    HW220766   0.137   4.809   1.220
 6623SOL     OW20767   2.930   3.660   3.638
 6623SOL    HW120768   2.889   3.695   3.554
 6623SOL    HW220769   3.019   3.705   3.653
 6624SOL     OW20770   2.870   2.235   2.692
 6624SOL    HW120771   2.842   2.276   2.605
 6624SOL    HW220772   2.962   2.199   2.685
 6625SOL     OW20773   6.793   3.600   5.368
 6625SOL    HW120774   6.782   3.502   5.350
 6625SOL    HW220775   6.889   3.625   5.359
 6626SOL     OW20776   3.312   5.524   5.232
 6626SOL    HW120777   3.334   5.622   5.231
 6626SOL    HW220778   3.337   5.483   5.144
 6627SOL     OW20779   2.454   5.881   4.299
 6627SOL    HW120780   2.475   5.844   4.389
 6627SOL    HW220781   2.476   5.813   4.229
 6628SOL     OW20782   4.033   0.022   3.184
 6628SOL    HW120783   4.037   0.050   3.088
 6628SOL    HW220784   3.951   6.985   3.200
 6629SOL     OW20785   4.576   5.478   4.871
 6629SOL    HW120786   4.612   5.525   4.791
 6629SOL    HW220787   4.519   5.401   4.841
 6630SOL     OW20788   1.687   0.589   0.122
 6630SOL    HW120789   1.716   0.494   0.135
 6630SOL    HW220790   1.723   0.646   0.195
 6631SOL     OW20791   2.137   2.947   5.850
 6631SOL    HW120792   2.105   2.979   5.761
 6631SOL    HW220793   2.230   2.981   5.867
 6632SOL     OW20794   1.245   0.271   6.782
 6632SOL    HW120795   1.251   0.173   6.798
 6632SOL    HW220796   1.332   0.314   6.806
 6633SOL     OW20797   4.200   5.634   6.357
 6633SOL    HW120798   4.152   5.686   6.286
 6633SOL    HW220799   4.299   5.642   6.343
 6634SOL     OW20800   3.223   2.135   4.060
 6634SOL    HW120801   3.292   2.189   4.012
 6634SOL    HW220802   3.142   2.126   4.002
 6635SOL     OW20803   4.861   5.342   5.225
 6635SOL    HW120804   4.801   5.367   5.301
 6635SOL    HW220805   4.814   5.276   5.166
 6636SOL     OW20806   4.454   1.201   0.274
 6636SOL    HW120807   4.501   1.123   0.235
 6636SOL    HW220808   4.499   1.286   0.244
 6637SOL     OW20809   0.183   2.005   0.064
 6637SOL    HW120810   0.282   1.998   0.051
 6637SOL    HW220811   0.136   1.953   7.011
 6638SOL     OW20812   3.455   3.544   3.773
 6638SOL    HW120813   3.447   3.625   3.715
 6638SOL    HW220814   3.367   3.526   3.818
 6639SOL     OW20815   4.930   2.323   1.473
 6639SOL    HW120816   5.015   2.272   1.464
 6639SOL    HW220817   4.948   2.412   1.515
 6640SOL     OW20818   1.407   4.323   5.442
 6640SOL    HW120819   1.336   4.267   5.399
 6640SOL    HW220820   1.430   4.283   5.531
 6641SOL     OW20821   6.125   2.410   0.157
 6641SOL    HW120822   6.159   2.339   0.094
 6641SOL    HW220823   6.193   2.482   0.165
 6642SOL     OW20824   1.055   5.837   6.895
 6642SOL    HW120825   1.152   5.813   6.897
 6642SOL    HW220826   1.002   5.759   6.862
 6643SOL     OW20827   3.475   5.957   5.961
 6643SOL    HW120828   3.436   5.886   6.019
 6643SOL    HW220829   3.480   6.043   6.012
 6644SOL     OW20830   2.342   0.114   4.006
 6644SOL    HW120831   2.332   0.015   4.012
 6644SOL    HW220832   2.312   0.156   4.092
 6645SOL     OW20833   4.951   2.656   6.197
 6645SOL    HW120834   4.992   2.567   6.214
 6645SOL    HW220835   4.963   2.715   6.277
 6646SOL     OW20836   4.432   6.890   5.158
 6646SOL    HW120837   4.491   6.968   5.138
 6646SOL    HW220838   4.336   6.918   5.153
 6647SOL     OW20839   3.995   5.048   0.259
 6647SOL    HW120840   3.922   4.998   0.305
 6647SOL    HW220841   3.959   5.132   0.220
 6648SOL     OW20842   3.030   5.533   5.300
 6648SOL    HW120843   3.125   5.539   5.268
 6648SOL    HW220844   2.985   5.455   5.255
 6649SOL     OW20845   4.495   2.836   6.112
 6649SOL    HW120846   4.556   2.760   6.132
 6649SOL    HW220847   4.549   2.917   6.089
 6650SOL     OW20848   1.910   1.065   5.467
 6650SOL    HW120849   2.003   1.035   5.445
 6650SOL    HW220850   1.851   0.985   5.477
 6651SOL     OW20851   6.942   1.853   5.512
 6651SOL    HW120852   6.941   1.941   5.559
 6651SOL    HW220853   0.002   1.848   5.451
 6652SOL     OW20854   6.978   4.284   0.142
 6652SOL    HW120855   0.052   4.294   0.106
 6652SOL    HW220856   6.961   4.353   0.212
 6653SOL     OW20857   5.728   4.388   6.600
 6653SOL    HW120858   5.748   4.292   6.616
 6653SOL    HW220859   5.663   4.421   6.670
 6654SOL     OW20860   6.313   2.963   2.967
 6654SOL    HW120861   6.246   2.923   3.031
 6654SOL    HW220862   6.396   2.987   3.017
 6655SOL     OW20863   6.950   6.191   1.669
 6655SOL    HW120864   6.914   6.102   1.695
 6655SOL    HW220865   6.911   6.261   1.729
 6656SOL     OW20866   4.134   1.061   2.722
 6656SOL    HW120867   4.140   0.961   2.718
 6656SOL    HW220868   4.167   1.092   2.812
 6657SOL     OW20869   5.429   1.439   4.844
 6657SOL    HW120870   5.357   1.506   4.862
 6657SOL    HW220871   5.390   1.361   4.795
 6658SOL     OW20872   6.913   5.787   5.236
 6658SOL    HW120873   6.829   5.816   5.282
 6658SOL    HW220874   6.907   5.808   5.138
 6659SOL     OW20875   0.644   5.689   1.189
 6659SOL    HW120876   0.636   5.597   1.149
 6659SOL    HW220877   0.553   5.723   1.212
 6660SOL     OW20878   0.237   0.519   4.792
 6660SOL    HW120879   0.137   0.521   4.785
 6660SOL    HW220880   0.266   0.427   4.819
 6661SOL     OW20881   4.189   5.788   3.668
 6661SOL    HW120882   4.255   5.784   3.743
 6661SOL    HW220883   4.105   5.831   3.700
 6662SOL     OW20884   3.381   6.499   2.551
 6662SOL    HW120885   3.351   6.404   2.553
 6662SOL    HW220886   3.462   6.508   2.494
 6663SOL     OW20887   1.138   4.278   5.683
 6663SOL    HW120888   1.236   4.299   5.678
 6663SOL    HW220889   1.085   4.358   5.656
 6664SOL     OW20890   3.262   0.272   1.666
 6664SOL    HW120891   3.341   0.216   1.691
 6664SOL    HW220892   3.230   0.246   1.574
 6665SOL     OW20893   2.621   0.414   6.923
 6665SOL    HW120894   2.649   0.501   6.884
 6665SOL    HW220895   2.695   0.348   6.913
 6666SOL     OW20896   3.558   6.349   5.425
 6666SOL    HW120897   3.493   6.286   5.384
 6666SOL    HW220898   3.515   6.395   5.503
 6667SOL     OW20899   1.627   5.865   6.468
 6667SOL    HW120900   1.593   5.784   6.420
 6667SOL    HW220901   1.633   5.941   6.404
 6668SOL     OW20902   6.723   3.922   0.067
 6668SOL    HW120903   6.737   3.966   6.997
 6668SOL    HW220904   6.675   3.835   0.055
 6669SOL     OW20905   1.678   2.292   3.305
 6669SOL    HW120906   1.683   2.333   3.214
 6669SOL    HW220907   1.700   2.361   3.374
 6670SOL     OW20908   3.404   3.800   0.395
 6670SOL    HW120909   3.355   3.853   0.326
 6670SOL    HW220910   3.400   3.847   0.483
 6671SOL     OW20911   4.616   5.116   0.300
 6671SOL    HW120912   4.677   5.184   0.342
 6671SOL    HW220913   4.645   5.024   0.327
 6672SOL     OW20914   1.172   1.930   0.918
 6672SOL    HW120915   1.195   1.849   0.865
 6672SOL    HW220916   1.245   1.948   0.985
 6673SOL     OW20917   6.574   2.642   4.133
 6673SOL    HW120918   6.591   2.587   4.051
 6673SOL    HW220919   6.477   2.666   4.136
 6674SOL     OW20920   6.853   0.925   0.723
 6674SOL    HW120921   6.866   0.907   0.821
 6674SOL    HW220922   6.928   0.884   0.672
 6675SOL     OW20923   5.014   0.364   0.382
 6675SOL    HW120924   4.919   0.370   0.413
 6675SOL    HW220925   5.015   0.332   0.287
 6676SOL     OW20926   0.745   3.787   4.530
 6676SOL    HW120927   0.804   3.788   4.450
 6676SOL    HW220928   0.751   3.698   4.576
 6677SOL     OW20929   0.438   1.791   6.064
 6677SOL    HW120930   0.406   1.698   6.081
 6677SOL    HW220931   0.531   1.790   6.030
 6678SOL     OW20932   2.931   4.253   6.353
 6678SOL    HW120933   2.912   4.345   6.319
 6678SOL    HW220934   2.924   4.251   6.452
 6679SOL     OW20935   1.637   0.709   3.810
 6679SOL    HW120936   1.676   0.724   3.901
 6679SOL    HW220937   1.633   0.797   3.762
 6680SOL     OW20938   6.462   5.376   1.153
 6680SOL    HW120939   6.556   5.407   1.170
 6680SOL    HW220940   6.463   5.304   1.084
 6681SOL     OW20941   2.802   5.630   1.545
 6681SOL    HW120942   2.764   5.549   1.500
 6681SOL    HW220943   2.747   5.652   1.626
 6682SOL     OW20944   3.217   5.290   6.130
 6682SOL    HW120945   3.122   5.302   6.099
 6682SOL    HW220946   3.225   5.204   6.180
 6683SOL     OW20947   6.858   5.277   5.827
 6683SOL    HW120948   6.846   5.377   5.832
 6683SOL    HW220949   6.933   5.250   5.887
 6684SOL     OW20950   2.785   5.426   6.996
 6684SOL    HW120951   2.695   5.400   6.961
 6684SOL    HW220952   2.839   5.343   7.014
 6685SOL     OW20953   4.982   2.746   0.623
 6685SOL    HW120954   4.898   2.708   0.584
 6685SOL    HW220955   5.055   2.741   0.555
 6686SOL     OW20956   5.029   4.971   5.039
 6686SOL    HW120957   4.975   4.966   5.123
 6686SOL    HW220958   5.091   4.893   5.035
 6687SOL     OW20959   0.104   1.386   1.616
 6687SOL    HW120960   0.038   1.312   1.605
 6687SOL    HW220961   0.126   1.425   1.527
 6688SOL     OW20962   4.255   5.818   0.355
 6688SOL    HW120963   4.241   5.917   0.349
 6688SOL    HW220964   4.297   5.795   0.443
 6689SOL     OW20965   3.294   4.441   5.451
 6689SOL    HW120966   3.336   4.356   5.421
 6689SOL    HW220967   3.249   4.428   5.539
 6690SOL     OW20968   0.841   0.956   0.287
 6690SOL    HW120969   0.907   0.957   0.211
 6690SOL    HW220970   0.794   1.044   0.292
 6691SOL     OW20971   2.577   1.518   2.436
 6691SOL    HW120972   2.645   1.513   2.510
 6691SOL    HW220973   2.554   1.613   2.419
 6692SOL     OW20974   4.291   6.061   2.667
 6692SOL    HW120975   4.262   6.155   2.683
 6692SOL    HW220976   4.296   6.012   2.754
 6693SOL     OW20977   3.281   0.883   5.347
 6693SOL    HW120978   3.291   0.975   5.384
 6693SOL    HW220979   3.371   0.838   5.347
 6694SOL     OW20980   4.401   4.131   1.308
 6694SOL    HW120981   4.391   4.059   1.378
 6694SOL    HW220982   4.395   4.090   1.217
 6695SOL     OW20983   2.666   2.573   0.522
 6695SOL    HW120984   2.668   2.576   0.422
 6695SOL    HW220985   2.593   2.513   0.553
 6696SOL     OW20986   3.955   3.213   4.694
 6696SOL    HW120987   4.009   3.225   4.610
 6696SOL    HW220988   3.964   3.294   4.752
 6697SOL     OW20989   4.464   2.067   1.850
 6697SOL    HW120990   4.411   2.105   1.775
 6697SOL    HW220991   4.406   2.008   1.906
 6698SOL     OW20992   3.659   4.264   1.454
 6698SOL    HW120993   3.631   4.299   1.543
 6698SOL    HW220994   3.731   4.196   1.466
 6699SOL     OW20995   1.069   3.229   5.625
 6699SOL    HW120996   1.139   3.199   5.560
 6699SOL    HW220997   1.108   3.231   5.717
 6700SOL     OW20998   5.594   0.103   1.103
 6700SOL    HW120999   5.543   0.077   1.021
 6700SOL    HW221000   5.668   0.039   1.118
 6701SOL     OW21001   6.054   6.578   1.758
 6701SOL    HW121002   5.989   6.608   1.828
 6701SOL    HW221003   6.087   6.657   1.707
 6702SOL     OW21004   3.553   3.064   1.038
 6702SOL    HW121005   3.590   3.013   1.116
 6702SOL    HW221006   3.505   3.001   0.977
 6703SOL     OW21007   0.288   1.464   0.249
 6703SOL    HW121008   0.203   1.412   0.251
 6703SOL    HW221009   0.359   1.415   0.299
 6704SOL     OW21010   3.120   0.092   5.103
 6704SOL    HW121011   3.032   0.140   5.109
 6704SOL    HW221012   3.113   0.003   5.147
 6705SOL     OW21013   6.903   4.381   2.433
 6705SOL    HW121014   6.866   4.293   2.406
 6705SOL    HW221015   6.995   4.368   2.472
 6706SOL     OW21016   0.268   6.841   1.115
 6706SOL    HW121017   0.190   6.854   1.177
 6706SOL    HW221018   0.235   6.811   1.026
 6707SOL     OW21019   3.937   1.186   2.588
 6707SOL    HW121020   3.980   1.136   2.664
 6707SOL    HW221021   3.950   1.284   2.601
 6708SOL     OW21022   0.406   3.053   6.866
 6708SOL    HW121023   0.354   3.126   6.910
 6708SOL    HW221024   0.504   3.072   6.874
 6709SOL     OW21025   2.194   4.151   2.161
 6709SOL    HW121026   2.267   4.170   2.096
 6709SOL    HW221027   2.111   4.125   2.111
 6710SOL     OW21028   4.670   1.695   0.414
 6710SOL    HW121029   4.601   1.640   0.461
 6710SOL    HW221030   4.626   1.771   0.366
 6711SOL     OW21031   3.633   5.956   5.695
 6711SOL    HW121032   3.659   5.895   5.771
 6711SOL    HW221033   3.534   5.962   5.690
 6712SOL     OW21034   5.224   4.636   1.326
 6712SOL    HW121035   5.240   4.727   1.289
 6712SOL    HW221036   5.144   4.637   1.386
 6713SOL     OW21037   1.412   4.765   4.694
 6713SOL    HW121038   1.473   4.710   4.637
 6713SOL    HW221039   1.428   4.744   4.790
 6714SOL     OW21040   5.468   0.958   2.039
 6714SOL    HW121041   5.544   0.914   2.086
 6714SOL    HW221042   5.494   0.979   1.945
 6715SOL     OW21043   1.711   0.268   6.253
 6715SOL    HW121044   1.644   0.202   6.218
 6715SOL    HW221045   1.664   0.332   6.314
 6716SOL     OW21046   0.512   5.728   2.094
 6716SOL    HW121047   0.520   5.824   2.120
 6716SOL    HW221048   0.499   5.672   2.176
 6717SOL     OW21049   5.829   1.989   5.971
 6717SOL    HW121050   5.854   1.895   5.994
 6717SOL    HW221051   5.759   1.989   5.900
 6718SOL     OW21052   4.901   1.485   0.799
 6718SOL    HW121053   4.908   1.548   0.721
 6718SOL    HW221054   4.992   1.473   0.839
 6719SOL     OW21055   1.877   1.741   6.941
 6719SOL    HW121056   1.973   1.723   6.965
 6719SOL    HW221057   1.849   1.679   6.868
 6720SOL     OW21058   1.567   0.855   6.042
 6720SOL    HW121059   1.590   0.936   6.097
 6720SOL    HW221060   1.493   0.878   5.978
 6721SOL     OW21061   6.273   6.857   1.513
 6721SOL    HW121062   6.322   6.802   1.581
 6721SOL    HW221063   6.177   6.867   1.540
 6722SOL     OW21064   5.377   3.843   0.049
 6722SOL    HW121065   5.346   3.771   0.111
 6722SOL    HW221066   5.476   3.839   0.039
 6723SOL     OW21067   1.721   3.379   5.331
 6723SOL    HW121068   1.697   3.315   5.259
 6723SOL    HW221069   1.811   3.356   5.368
 6724SOL     OW21070   2.143   3.890   4.158
 6724SOL    HW121071   2.085   3.882   4.239
 6724SOL    HW221072   2.193   3.804   4.145
 6725SOL     OW21073   5.140   2.848   3.870
 6725SOL    HW121074   5.166   2.810   3.958
 6725SOL    HW221075   5.098   2.938   3.883
 6726SOL     OW21076   0.602   0.939   6.046
 6726SOL    HW121077   0.696   0.970   6.057
 6726SOL    HW221078   0.542   1.018   6.036
 6727SOL     OW21079   1.487   5.234   5.786
 6727SOL    HW121080   1.403   5.288   5.776
 6727SOL    HW221081   1.534   5.231   5.698
 6728SOL     OW21082   3.800   1.407   3.604
 6728SOL    HW121083   3.877   1.399   3.668
 6728SOL    HW221084   3.813   1.487   3.546
 6729SOL     OW21085   3.905   0.777   2.164
 6729SOL    HW121086   3.887   0.875   2.153
 6729SOL    HW221087   3.967   0.763   2.242
 6730SOL     OW21088   6.523   1.801   0.565
 6730SOL    HW121089   6.589   1.803   0.640
 6730SOL    HW221090   6.463   1.881   0.571
 6731SOL     OW21091   4.236   0.573   5.978
 6731SOL    HW121092   4.225   0.655   5.922
 6731SOL    HW221093   4.281   0.502   5.923
 6732SOL     OW21094   6.827   4.862   5.636
 6732SOL    HW121095   6.874   4.781   5.669
 6732SOL    HW221096   6.894   4.934   5.615
 6733SOL     OW21097   4.752   4.926   5.177
 6733SOL    HW121098   4.743   4.909   5.079
 6733SOL    HW221099   4.709   5.014   5.200
 6734SOL     OW21100   5.871   1.928   4.541
 6734SOL    HW121101   5.873   2.027   4.524
 6734SOL    HW221102   5.798   1.887   4.487
 6735SOL     OW21103   6.007   2.481   3.587
 6735SOL    HW121104   6.100   2.462   3.617
 6735SOL    HW221105   5.957   2.395   3.576
 6736SOL     OW21106   3.772   3.633   0.655
 6736SOL    HW121107   3.830   3.688   0.595
 6736SOL    HW221108   3.822   3.552   0.686
 6737SOL     OW21109   6.404   3.614   0.506
 6737SOL    HW121110   6.467   3.561   0.563
 6737SOL    HW221111   6.315   3.567   0.504
 6738SOL     OW21112   1.944   5.857   4.027
 6738SOL    HW121113   2.037   5.891   4.042
 6738SOL    HW221114   1.929   5.775   4.082
 6739SOL     OW21115   0.030   0.287   5.561
 6739SOL    HW121116   6.957   0.258   5.532
 6739SOL    HW221117   0.098   0.227   5.518
 6740SOL     OW21118   6.998   0.113   2.362
 6740SOL    HW121119   0.009   0.171   2.438
 6740SOL    HW221120   6.902   0.132   2.340
 6741SOL     OW21121   3.714   1.732   0.321
 6741SOL    HW121122   3.616   1.710   0.317
 6741SOL    HW221123   3.730   1.821   0.280
 6742SOL     OW21124   6.075   4.442   3.278
 6742SOL    HW121125   6.044   4.522   3.227
 6742SOL    HW221126   5.996   4.387   3.306
 6743SOL     OW21127   3.740   3.907   6.979
 6743SOL    HW121128   3.751   3.841   6.904
 6743SOL    HW221129   3.665   3.877   0.020
 6744SOL     OW21130   6.247   6.777   5.762
 6744SOL    HW121131   6.266   6.808   5.855
 6744SOL    HW221132   6.286   6.686   5.748
 6745SOL     OW21133   0.144   4.308   5.248
 6745SOL    HW121134   0.074   4.364   5.204
 6745SOL    HW221135   0.101   4.243   5.310
 6746SOL     OW21136   1.050   2.182   3.157
 6746SOL    HW121137   1.026   2.246   3.083
 6746SOL    HW221138   1.106   2.108   3.119
 6747SOL     OW21139   0.753   6.213   5.662
 6747SOL    HW121140   0.748   6.307   5.696
 6747SOL    HW221141   0.795   6.214   5.571
 6748SOL     OW21142   1.805   0.657   5.116
 6748SOL    HW121143   1.819   0.573   5.167
 6748SOL    HW221144   1.875   0.665   5.045
 6749SOL     OW21145   4.179   4.672   2.441
 6749SOL    HW121146   4.231   4.624   2.370
 6749SOL    HW221147   4.179   4.770   2.420
 6750SOL     OW21148   3.553   0.880   5.351
 6750SOL    HW121149   3.611   0.943   5.300
 6750SOL    HW221150   3.587   0.871   5.445
 6751SOL     OW21151   4.572   0.285   4.871
 6751SOL    HW121152   4.502   0.356   4.868
 6751SOL    HW221153   4.590   0.252   4.779
 6752SOL     OW21154   2.005   4.699   2.343
 6752SOL    HW121155   2.041   4.690   2.436
 6752SOL    HW221156   2.080   4.688   2.277
 6753SOL     OW21157   3.802   3.330   6.944
 6753SOL    HW121158   3.840   3.285   6.863
 6753SOL    HW221159   3.877   3.363   7.002
 6754SOL     OW21160   6.162   1.604   0.549
 6754SOL    HW121161   6.082   1.648   0.590
 6754SOL    HW221162   6.152   1.603   0.449
 6755SOL     OW21163   3.178   5.882   6.213
 6755SOL    HW121164   3.100   5.834   6.173
 6755SOL    HW221165   3.263   5.838   6.185
 6756SOL     OW21166   3.772   2.845   6.531
 6756SOL    HW121167   3.871   2.844   6.518
 6756SOL    HW221168   3.741   2.938   6.550
 6757SOL     OW21169   4.068   0.258   1.351
 6757SOL    HW121170   4.160   0.289   1.324
 6757SOL    HW221171   4.042   0.179   1.296
 6758SOL     OW21172   5.171   2.727   3.217
 6758SOL    HW121173   5.247   2.790   3.231
 6758SOL    HW221174   5.116   2.722   3.300
 6759SOL     OW21175   0.771   1.852   2.528
 6759SOL    HW121176   0.681   1.892   2.545
 6759SOL    HW221177   0.760   1.755   2.505
 6760SOL     OW21178   4.966   2.119   4.831
 6760SOL    HW121179   4.885   2.106   4.888
 6760SOL    HW221180   5.045   2.137   4.889
 6761SOL     OW21181   3.666   1.787   5.214
 6761SOL    HW121182   3.660   1.887   5.213
 6761SOL    HW221183   3.761   1.759   5.229
 6762SOL     OW21184   6.628   5.069   4.555
 6762SOL    HW121185   6.715   5.019   4.563
 6762SOL    HW221186   6.646   5.167   4.559
 6763SOL     OW21187   6.162   6.414   4.466
 6763SOL    HW121188   6.087   6.366   4.420
 6763SOL    HW221189   6.125   6.490   4.519
 6764SOL     OW21190   0.887   5.083   1.165
 6764SOL    HW121191   0.871   5.074   1.263
 6764SOL    HW221192   0.946   5.007   1.134
 6765SOL     OW21193   0.099   3.565   2.676
 6765SOL    HW121194   0.047   3.500   2.621
 6765SOL    HW221195   0.195   3.562   2.649
 6766SOL     OW21196   5.435   0.278   1.548
 6766SOL    HW121197   5.452   0.248   1.642
 6766SOL    HW221198   5.483   0.219   1.484
 6767SOL     OW21199   3.339   0.586   0.942
 6767SOL    HW121200   3.295   0.597   1.031
 6767SOL    HW221201   3.390   0.669   0.919
 6768SOL     OW21202   1.681   0.628   6.871
 6768SOL    HW121203   1.765   0.639   6.819
 6768SOL    HW221204   1.696   0.652   6.967
 6769SOL     OW21205   4.490   2.977   1.614
 6769SOL    HW121206   4.468   3.069   1.580
 6769SOL    HW221207   4.528   2.984   1.706
 6770SOL     OW21208   0.182   0.937   1.567
 6770SOL    HW121209   0.177   1.026   1.521
 6770SOL    HW221210   0.204   0.952   1.664
 6771SOL     OW21211   4.539   1.761   3.292
 6771SOL    HW121212   4.586   1.819   3.359
 6771SOL    HW221213   4.587   1.673   3.285
 6772SOL     OW21214   3.550   1.462   4.041
 6772SOL    HW121215   3.598   1.389   4.090
 6772SOL    HW221216   3.496   1.515   4.106
 6773SOL     OW21217   0.354   3.771   0.792
 6773SOL    HW121218   0.299   3.747   0.872
 6773SOL    HW221219   0.296   3.808   0.721
 6774SOL     OW21220   0.826   2.455   6.352
 6774SOL    HW121221   0.816   2.397   6.271
 6774SOL    HW221222   0.851   2.548   6.324
 6775SOL     OW21223   1.979   4.587   0.448
 6775SOL    HW121224   2.012   4.638   0.527
 6775SOL    HW221225   1.962   4.492   0.474
 6776SOL     OW21226   6.046   5.859   6.938
 6776SOL    HW121227   6.079   5.765   6.940
 6776SOL    HW221228   5.946   5.859   6.949
 6777SOL     OW21229   4.857   5.425   6.615
 6777SOL    HW121230   4.847   5.524   6.625
 6777SOL    HW221231   4.930   5.405   6.550
 6778SOL     OW21232   0.135   5.530   3.241
 6778SOL    HW121233   0.124   5.566   3.334
 6778SOL    HW221234   0.140   5.607   3.177
 6779SOL     OW21235   0.110   4.216   6.614
 6779SOL    HW121236   0.075   4.148   6.680
 6779SOL    HW221237   0.110   4.175   6.523
 6780SOL     OW21238   0.670   2.579   1.896
 6780SOL    HW121239   0.661   2.588   1.796
 6780SOL    HW221240   0.620   2.653   1.940
 6781SOL     OW21241   5.870   4.647   5.272
 6781SOL    HW121242   5.944   4.666   5.207
 6781SOL    HW221243   5.831   4.733   5.304
 6782SOL     OW21244   5.838   1.667   2.812
 6782SOL    HW121245   5.897   1.650   2.891
 6782SOL    HW221246   5.770   1.737   2.836
 6783SOL     OW21247   0.414   6.024   6.849
 6783SOL    HW121248   0.413   6.124   6.859
 6783SOL    HW221249   0.382   6.000   6.757
 6784SOL     OW21250   3.706   3.196   0.531
 6784SOL    HW121251   3.629   3.199   0.468
 6784SOL    HW221252   3.688   3.128   0.603
 6785SOL     OW21253   5.657   5.815   1.886
 6785SOL    HW121254   5.586   5.792   1.953
 6785SOL    HW221255   5.672   5.737   1.825
 6786SOL     OW21256   1.522   3.186   6.479
 6786SOL    HW121257   1.461   3.148   6.410
 6786SOL    HW221258   1.615   3.151   6.464
 6787SOL     OW21259   1.300   3.656   1.961
 6787SOL    HW121260   1.230   3.585   1.961
 6787SOL    HW221261   1.388   3.616   1.988
 6788SOL     OW21262   3.041   5.244   0.669
 6788SOL    HW121263   3.071   5.211   0.758
 6788SOL    HW221264   3.017   5.341   0.675
 6789SOL     OW21265   0.312   6.268   3.344
 6789SOL    HW121266   0.305   6.344   3.279
 6789SOL    HW221267   0.260   6.190   3.310
 6790SOL     OW21268   1.401   3.512   0.447
 6790SOL    HW121269   1.317   3.526   0.396
 6790SOL    HW221270   1.385   3.448   0.522
 6791SOL     OW21271   3.555   3.744   6.503
 6791SOL    HW121272   3.621   3.695   6.445
 6791SOL    HW221273   3.550   3.839   6.474
 6792SOL     OW21274   0.326   4.680   0.601
 6792SOL    HW121275   0.330   4.580   0.610
 6792SOL    HW221276   0.360   4.723   0.684
 6793SOL     OW21277   5.900   1.919   1.325
 6793SOL    HW121278   5.892   1.819   1.322
 6793SOL    HW221279   5.848   1.959   1.249
 6794SOL     OW21280   4.362   0.923   5.003
 6794SOL    HW121281   4.295   0.997   4.992
 6794SOL    HW221282   4.435   0.934   4.936
 6795SOL     OW21283   2.819   5.950   6.837
 6795SOL    HW121284   2.751   5.927   6.907
 6795SOL    HW221285   2.867   5.867   6.809
 6796SOL     OW21286   4.339   2.223   2.894
 6796SOL    HW121287   4.259   2.227   2.834
 6796SOL    HW221288   4.312   2.181   2.981
 6797SOL     OW21289   0.079   3.172   2.177
 6797SOL    HW121290   0.037   3.180   2.087
 6797SOL    HW221291   0.049   3.086   2.220
 6798SOL     OW21292   6.160   6.947   1.989
 6798SOL    HW121293   6.238   6.925   2.047
 6798SOL    HW221294   6.163   0.025   1.963
 6799SOL     OW21295   5.516   6.042   1.923
 6799SOL    HW121296   5.568   5.958   1.906
 6799SOL    HW221297   5.572   6.121   1.899
 6800SOL     OW21298   2.906   4.241   0.087
 6800SOL    HW121299   2.935   4.201   0.174
 6800SOL    HW221300   2.898   4.340   0.096
 6801SOL     OW21301   1.563   1.691   2.712
 6801SOL    HW121302   1.552   1.789   2.697
 6801SOL    HW221303   1.508   1.662   2.791
 6802SOL     OW21304   2.093   5.097   2.743
 6802SOL    HW121305   2.051   5.146   2.667
 6802SOL    HW221306   2.189   5.126   2.753
 6803SOL     OW21307   5.353   2.595   0.054
 6803SOL    HW121308   5.431   2.655   0.036
 6803SOL    HW221309   5.359   2.560   0.147
 6804SOL     OW21310   1.626   6.822   4.014
 6804SOL    HW121311   1.604   6.795   3.920
 6804SOL    HW221312   1.605   6.919   4.027
 6805SOL     OW21313   5.102   0.662   4.851
 6805SOL    HW121314   5.057   0.628   4.768
 6805SOL    HW221315   5.199   0.679   4.832
 6806SOL     OW21316   4.897   0.097   5.555
 6806SOL    HW121317   4.850   0.184   5.572
 6806SOL    HW221318   4.870   0.061   5.466
 6807SOL     OW21319   3.300   3.139   0.159
 6807SOL    HW121320   3.281   3.233   0.189
 6807SOL    HW221321   3.365   3.141   0.083
 6808SOL     OW21322   1.959   2.842   4.993
 6808SOL    HW121323   1.935   2.937   5.015
 6808SOL    HW221324   2.003   2.799   5.072
 6809SOL     OW21325   2.349   3.893   6.790
 6809SOL    HW121326   2.426   3.861   6.734
 6809SOL    HW221327   2.268   3.840   6.767
 6810SOL     OW21328   5.342   2.069   2.678
 6810SOL    HW121329   5.295   2.086   2.765
 6810SOL    HW221330   5.432   2.114   2.679
 6811SOL     OW21331   5.120   5.354   1.842
 6811SOL    HW121332   5.106   5.451   1.859
 6811SOL    HW221333   5.218   5.334   1.842
 6812SOL     OW21334   3.662   2.899   2.579
 6812SOL    HW121335   3.605   2.924   2.501
 6812SOL    HW221336   3.609   2.841   2.641
 6813SOL     OW21337   4.877   3.905   1.286
 6813SOL    HW121338   4.914   3.899   1.193
 6813SOL    HW221339   4.951   3.901   1.352
 6814SOL     OW21340   2.291   4.007   0.252
 6814SOL    HW121341   2.342   3.960   0.180
 6814SOL    HW221342   2.225   3.943   0.293
 6815SOL     OW21343   2.426   6.878   1.958
 6815SOL    HW121344   2.433   6.951   1.890
 6815SOL    HW221345   2.439   6.917   2.049
 6816SOL     OW21346   6.345   4.200   1.390
 6816SOL    HW121347   6.260   4.198   1.337
 6816SOL    HW221348   6.404   4.124   1.361
 6817SOL     OW21349   0.334   2.019   5.805
 6817SOL    HW121350   0.377   1.936   5.770
 6817SOL    HW221351   0.306   2.004   5.900
 6818SOL     OW21352   3.236   5.873   2.470
 6818SOL    HW121353   3.325   5.910   2.443
 6818SOL    HW221354   3.223   5.885   2.568
 6819SOL     OW21355   3.135   1.189   3.698
 6819SOL    HW121356   3.041   1.208   3.727
 6819SOL    HW221357   3.157   1.243   3.617
 6820SOL     OW21358   1.606   4.544   3.589
 6820SOL    HW121359   1.518   4.530   3.636
 6820SOL    HW221360   1.603   4.504   3.498
 6821SOL     OW21361   2.490   2.021   4.476
 6821SOL    HW121362   2.468   1.924   4.482
 6821SOL    HW221363   2.525   2.042   4.384
 6822SOL     OW21364   5.008   2.130   5.920
 6822SOL    HW121365   5.093   2.173   5.949
 6822SOL    HW221366   4.959   2.193   5.859
 6823SOL     OW21367   3.104   2.931   1.830
 6823SOL    HW121368   3.201   2.912   1.821
 6823SOL    HW221369   3.089   2.988   1.911
 6824SOL     OW21370   1.290   4.865   6.421
 6824SOL    HW121371   1.251   4.856   6.330
 6824SOL    HW221372   1.316   4.960   6.438
 6825SOL     OW21373   4.900   0.349   4.423
 6825SOL    HW121374   4.919   0.258   4.384
 6825SOL    HW221375   4.964   0.415   4.384
 6826SOL     OW21376   1.186   2.607   2.754
 6826SOL    HW121377   1.196   2.515   2.715
 6826SOL    HW221378   1.275   2.639   2.787
 6827SOL     OW21379   5.733   6.395   5.478
 6827SOL    HW121380   5.670   6.389   5.555
 6827SOL    HW221381   5.783   6.308   5.469
 6828SOL     OW21382   1.626   2.127   1.353
 6828SOL    HW121383   1.679   2.207   1.323
 6828SOL    HW221384   1.664   2.044   1.312
 6829SOL     OW21385   5.179   5.233   3.828
 6829SOL    HW121386   5.180   5.184   3.741
 6829SOL    HW221387   5.113   5.190   3.890
 6830SOL     OW21388   5.367   2.114   4.044
 6830SOL    HW121389   5.340   2.103   4.140
 6830SOL    HW221390   5.301   2.172   3.997
 6831SOL     OW21391   0.089   1.244   5.714
 6831SOL    HW121392   0.149   1.272   5.638
 6831SOL    HW221393   0.112   1.151   5.743
 6832SOL     OW21394   3.068   4.868   2.347
 6832SOL    HW121395   3.073   4.844   2.444
 6832SOL    HW221396   3.159   4.863   2.306
 6833SOL     OW21397   3.930   5.596   0.318
 6833SOL    HW121398   4.029   5.582   0.316
 6833SOL    HW221399   3.893   5.563   0.405
 6834SOL     OW21400   4.030   5.317   2.657
 6834SOL    HW121401   4.066   5.320   2.750
 6834SOL    HW221402   3.931   5.307   2.660
 6835SOL     OW21403   4.253   6.670   4.753
 6835SOL    HW121404   4.324   6.600   4.761
 6835SOL    HW221405   4.174   6.644   4.809
 6836SOL     OW21406   3.145   5.946   6.485
 6836SOL    HW121407   3.232   5.983   6.517
 6836SOL    HW221408   3.152   5.926   6.387
 6837SOL     OW21409   0.760   2.960   2.033
 6837SOL    HW121410   0.849   2.979   2.074
 6837SOL    HW221411   0.770   2.896   1.958
 6838SOL     OW21412   2.886   1.358   0.102
 6838SOL    HW121413   2.941   1.437   0.073
 6838SOL    HW221414   2.789   1.382   0.096
 6839SOL     OW21415   4.327   1.110   1.581
 6839SOL    HW121416   4.238   1.101   1.627
 6839SOL    HW221417   4.321   1.069   1.490
 6840SOL     OW21418   1.139   1.384   6.257
 6840SOL    HW121419   1.217   1.442   6.233
 6840SOL    HW221420   1.156   1.290   6.226
 6841SOL     OW21421   6.685   3.516   6.163
 6841SOL    HW121422   6.722   3.567   6.241
 6841SOL    HW221423   6.739   3.432   6.150
 6842SOL     OW21424   2.238   4.195   3.258
 6842SOL    HW121425   2.240   4.242   3.346
 6842SOL    HW221426   2.224   4.261   3.184
 6843SOL     OW21427   4.016   6.660   0.250
 6843SOL    HW121428   4.019   6.561   0.264
 6843SOL    HW221429   3.947   6.682   0.181
 6844SOL     OW21430   5.365   0.397   5.676
 6844SOL    HW121431   5.409   0.436   5.595
 6844SOL    HW221432   5.300   0.326   5.648
 6845SOL     OW21433   5.035   2.025   2.151
 6845SOL    HW121434   4.977   2.072   2.218
 6845SOL    HW221435   5.130   2.027   2.183
 6846SOL     OW21436   2.318   3.828   0.042
 6846SOL    HW121437   2.234   3.781   0.068
 6846SOL    HW221438   2.321   3.838   6.961
 6847SOL     OW21439   6.867   3.211   4.368
 6847SOL    HW121440   6.793   3.203   4.302
 6847SOL    HW221441   6.920   3.126   4.370
 6848SOL     OW21442   6.353   4.449   3.265
 6848SOL    HW121443   6.381   4.513   3.194
 6848SOL    HW221444   6.254   4.436   3.260
 6849SOL     OW21445   2.729   4.050   6.256
 6849SOL    HW121446   2.781   4.127   6.293
 6849SOL    HW221447   2.676   4.080   6.177
 6850SOL     OW21448   3.972   1.080   4.402
 6850SOL    HW121449   4.009   1.130   4.324
 6850SOL    HW221450   3.979   0.982   4.384
 6851SOL     OW21451   2.137   3.055   3.244
 6851SOL    HW121452   2.172   3.143   3.210
 6851SOL    HW221453   2.214   2.995   3.266
 6852SOL     OW21454   3.165   4.425   0.266
 6852SOL    HW121455   3.188   4.429   0.169
 6852SOL    HW221456   3.118   4.509   0.293
 6853SOL     OW21457   5.068   3.753   6.351
 6853SOL    HW121458   5.085   3.655   6.358
 6853SOL    HW221459   5.112   3.789   6.268
 6854SOL     OW21460   5.475   6.184   6.484
 6854SOL    HW121461   5.486   6.091   6.451
 6854SOL    HW221462   5.387   6.221   6.451
 6855SOL     OW21463   4.304   4.922   3.521
 6855SOL    HW121464   4.367   4.849   3.496
 6855SOL    HW221465   4.353   4.992   3.572
 6856SOL     OW21466   0.315   2.084   6.303
 6856SOL    HW121467   0.370   2.018   6.354
 6856SOL    HW221468   0.226   2.095   6.347
 6857SOL     OW21469   0.707   3.873   5.155
 6857SOL    HW121470   0.740   3.927   5.077
 6857SOL    HW221471   0.753   3.784   5.156
 6858SOL     OW21472   2.122   3.913   1.929
 6858SOL    HW121473   2.104   3.816   1.916
 6858SOL    HW221474   2.072   3.947   2.008
 6859SOL     OW21475   1.860   1.796   2.520
 6859SOL    HW121476   1.771   1.754   2.500
 6859SOL    HW221477   1.901   1.751   2.599
 6860SOL     OW21478   0.873   6.674   1.328
 6860SOL    HW121479   0.797   6.654   1.267
 6860SOL    HW221480   0.899   6.591   1.378
 6861SOL     OW21481   6.435   3.167   6.366
 6861SOL    HW121482   6.367   3.095   6.350
 6861SOL    HW221483   6.509   3.131   6.422
 6862SOL     OW21484   0.918   4.179   4.413
 6862SOL    HW121485   0.850   4.231   4.360
 6862SOL    HW221486   1.005   4.227   4.411
 6863SOL     OW21487   5.917   1.395   5.528
 6863SOL    HW121488   5.860   1.394   5.446
 6863SOL    HW221489   5.884   1.463   5.592
 6864SOL     OW21490   1.052   3.848   6.014
 6864SOL    HW121491   0.980   3.821   5.949
 6864SOL    HW221492   1.086   3.767   6.061
 6865SOL     OW21493   2.632   6.856   3.487
 6865SOL    HW121494   2.533   6.845   3.494
 6865SOL    HW221495   2.654   6.936   3.432
 6866SOL     OW21496   1.234   4.814   0.068
 6866SOL    HW121497   1.301   4.862   0.126
 6866SOL    HW221498   1.250   4.839   6.990
 6867SOL     OW21499   2.120   3.513   6.333
 6867SOL    HW121500   2.092   3.417   6.331
 6867SOL    HW221501   2.210   3.523   6.290
 6868SOL     OW21502   2.777   5.439   3.629
 6868SOL    HW121503   2.733   5.529   3.638
 6868SOL    HW221504   2.874   5.452   3.609
 6869SOL     OW21505   3.375   0.996   5.961
 6869SOL    HW121506   3.343   0.929   6.027
 6869SOL    HW221507   3.475   1.003   5.965
 6870SOL     OW21508   5.996   2.173   0.641
 6870SOL    HW121509   5.997   2.190   0.740
 6870SOL    HW221510   6.066   2.230   0.598
 6871SOL     OW21511   6.590   3.638   2.593
 6871SOL    HW121512   6.617   3.610   2.502
 6871SOL    HW221513   6.519   3.708   2.587
 6872SOL     OW21514   1.919   3.993   1.150
 6872SOL    HW121515   1.975   4.075   1.164
 6872SOL    HW221516   1.865   4.003   1.066
 6873SOL     OW21517   0.886   4.390   3.061
 6873SOL    HW121518   0.837   4.432   2.985
 6873SOL    HW221519   0.941   4.314   3.027
 6874SOL     OW21520   5.464   6.447   3.370
 6874SOL    HW121521   5.480   6.393   3.288
 6874SOL    HW221522   5.416   6.531   3.346
 6875SOL     OW21523   2.687   1.181   0.397
 6875SOL    HW121524   2.745   1.149   0.322
 6875SOL    HW221525   2.657   1.102   0.451
 6876SOL     OW21526   5.343   5.432   3.963
 6876SOL    HW121527   5.383   5.475   3.882
 6876SOL    HW221528   5.281   5.359   3.935
 6877SOL     OW21529   0.788   3.408   1.627
 6877SOL    HW121530   0.807   3.313   1.601
 6877SOL    HW221531   0.865   3.444   1.679
 6878SOL     OW21532   2.025   0.647   4.972
 6878SOL    HW121533   2.088   0.705   4.921
 6878SOL    HW221534   2.042   0.551   4.949
 6879SOL     OW21535   1.496   1.170   1.261
 6879SOL    HW121536   1.437   1.168   1.180
 6879SOL    HW221537   1.512   1.077   1.293
 6880SOL     OW21538   1.556   5.544   0.255
 6880SOL    HW121539   1.464   5.515   0.232
 6880SOL    HW221540   1.580   5.513   0.347
 6881SOL     OW21541   0.346   2.859   0.500
 6881SOL    HW121542   0.291   2.780   0.470
 6881SOL    HW221543   0.370   2.914   0.420
 6882SOL     OW21544   2.212   6.348   6.942
 6882SOL    HW121545   2.212   6.389   6.851
 6882SOL    HW221546   2.169   6.258   6.938
 6883SOL     OW21547   4.686   0.395   1.234
 6883SOL    HW121548   4.710   0.422   1.141
 6883SOL    HW221549   4.592   0.424   1.253
 6884SOL     OW21550   1.710   3.993   3.247
 6884SOL    HW121551   1.701   3.894   3.240
 6884SOL    HW221552   1.804   4.019   3.226
 6885SOL     OW21553   6.146   5.430   4.360
 6885SOL    HW121554   6.214   5.428   4.433
 6885SOL    HW221555   6.119   5.525   4.342
 6886SOL     OW21556   4.752   2.772   0.152
 6886SOL    HW121557   4.688   2.700   0.182
 6886SOL    HW221558   4.701   2.856   0.134
 6887SOL     OW21559   5.727   5.678   5.963
 6887SOL    HW121560   5.659   5.722   6.022
 6887SOL    HW221561   5.749   5.588   6.000
 6888SOL     OW21562   6.091   4.432   6.561
 6888SOL    HW121563   6.087   4.361   6.492
 6888SOL    HW221564   6.111   4.520   6.518
 6889SOL     OW21565   6.925   2.631   6.117
 6889SOL    HW121566   6.918   2.639   6.217
 6889SOL    HW221567   7.013   2.666   6.087
 6890SOL     OW21568   4.571   4.383   3.648
 6890SOL    HW121569   4.598   4.471   3.687
 6890SOL    HW221570   4.528   4.397   3.559
 6891SOL     OW21571   1.613   1.403   1.303
 6891SOL    HW121572   1.647   1.448   1.221
 6891SOL    HW221573   1.555   1.325   1.276
 6892SOL     OW21574   3.534   1.193   4.663
 6892SOL    HW121575   3.616   1.187   4.605
 6892SOL    HW221576   3.474   1.265   4.628
 6893SOL     OW21577   6.361   3.271   0.614
 6893SOL    HW121578   6.330   3.176   0.607
 6893SOL    HW221579   6.283   3.333   0.611
 6894SOL     OW21580   6.206   5.025   0.397
 6894SOL    HW121581   6.174   4.930   0.389
 6894SOL    HW221582   6.238   5.056   0.307
 6895SOL     OW21583   0.670   6.454   2.454
 6895SOL    HW121584   0.637   6.378   2.510
 6895SOL    HW221585   0.713   6.419   2.371
 6896SOL     OW21586   4.790   1.148   4.872
 6896SOL    HW121587   4.851   1.084   4.919
 6896SOL    HW221588   4.800   1.239   4.912
 6897SOL     OW21589   4.800   2.931   5.191
 6897SOL    HW121590   4.769   2.986   5.269
 6897SOL    HW221591   4.831   2.992   5.117
 6898SOL     OW21592   1.613   6.301   1.358
 6898SOL    HW121593   1.595   6.381   1.415
 6898SOL    HW221594   1.603   6.218   1.412
 6899SOL     OW21595   6.382   6.093   2.390
 6899SOL    HW121596   6.473   6.130   2.407
 6899SOL    HW221597   6.318   6.130   2.457
 6900SOL     OW21598   6.427   3.746   4.981
 6900SOL    HW121599   6.350   3.780   4.927
 6900SOL    HW221600   6.440   3.804   5.061
 6901SOL     OW21601   5.229   4.870   6.698
 6901SOL    HW121602   5.289   4.950   6.699
 6901SOL    HW221603   5.270   4.798   6.642
 6902SOL     OW21604   0.317   6.046   6.172
 6902SOL    HW121605   0.344   6.135   6.135
 6902SOL    HW221606   0.346   5.974   6.109
 6903SOL     OW21607   1.091   5.873   4.601
 6903SOL    HW121608   0.997   5.841   4.613
 6903SOL    HW221609   1.129   5.902   4.689
 6904SOL     OW21610   0.113   0.483   6.434
 6904SOL    HW121611   0.087   0.575   6.407
 6904SOL    HW221612   0.036   0.421   6.421
 6905SOL     OW21613   5.266   6.036   5.758
 6905SOL    HW121614   5.283   6.058   5.662
 6905SOL    HW221615   5.192   5.969   5.765
 6906SOL     OW21616   3.057   0.951   3.514
 6906SOL    HW121617   3.042   0.870   3.570
 6906SOL    HW221618   3.058   1.032   3.573
 6907SOL     OW21619   5.797   2.002   1.088
 6907SOL    HW121620   5.743   1.921   1.068
 6907SOL    HW221621   5.736   2.079   1.108
 6908SOL     OW21622   2.955   5.481   0.625
 6908SOL    HW121623   3.040   5.517   0.587
 6908SOL    HW221624   2.877   5.530   0.584
 6909SOL     OW21625   5.640   4.914   1.980
 6909SOL    HW121626   5.726   4.873   1.951
 6909SOL    HW221627   5.613   4.876   2.068
 6910SOL     OW21628   1.148   2.312   2.374
 6910SOL    HW121629   1.057   2.333   2.337
 6910SOL    HW221630   1.148   2.219   2.411
 6911SOL     OW21631   1.861   6.171   5.811
 6911SOL    HW121632   1.903   6.101   5.869
 6911SOL    HW221633   1.913   6.256   5.819
 6912SOL     OW21634   2.582   3.775   6.764
 6912SOL    HW121635   2.596   3.685   6.806
 6912SOL    HW221636   2.623   3.776   6.673
 6913SOL     OW21637   4.927   6.128   5.774
 6913SOL    HW121638   4.949   6.127   5.677
 6913SOL    HW221639   5.002   6.169   5.826
 6914SOL     OW21640   5.824   2.767   2.230
 6914SOL    HW121641   5.906   2.740   2.180
 6914SOL    HW221642   5.803   2.863   2.210
 6915SOL     OW21643   6.784   3.350   3.855
 6915SOL    HW121644   6.810   3.429   3.800
 6915SOL    HW221645   6.684   3.347   3.862
 6916SOL     OW21646   4.813   6.202   6.533
 6916SOL    HW121647   4.886   6.168   6.593
 6916SOL    HW221648   4.816   6.153   6.446
 6917SOL     OW21649   3.919   6.590   1.732
 6917SOL    HW121650   3.942   6.662   1.666
 6917SOL    HW221651   3.928   6.625   1.825
 6918SOL     OW21652   2.347   3.847   0.695
 6918SOL    HW121653   2.248   3.858   0.702
 6918SOL    HW221654   2.369   3.793   0.614
 6919SOL     OW21655   5.609   5.914   3.672
 6919SOL    HW121656   5.685   5.949   3.617
 6919SOL    HW221657   5.528   5.904   3.614
 6920SOL     OW21658   6.145   1.321   6.297
 6920SOL    HW121659   6.093   1.250   6.346
 6920SOL    HW221660   6.225   1.347   6.351
 6921SOL     OW21661   4.642   0.415   4.321
 6921SOL    HW121662   4.728   0.399   4.371
 6921SOL    HW221663   4.568   0.427   4.387
 6922SOL     OW21664   2.018   4.791   6.415
 6922SOL    HW121665   2.002   4.889   6.399
 6922SOL    HW221666   1.941   4.752   6.464
 6923SOL     OW21667   5.864   6.953   1.923
 6923SOL    HW121668   5.890   6.857   1.938
 6923SOL    HW221669   5.896   7.008   2.001
 6924SOL     OW21670   3.465   5.787   1.966
 6924SOL    HW121671   3.478   5.885   1.977
 6924SOL    HW221672   3.387   5.770   1.906
 6925SOL     OW21673   5.726   6.546   5.257
 6925SOL    HW121674   5.638   6.593   5.261
 6925SOL    HW221675   5.739   6.492   5.340
 6926SOL     OW21676   3.334   2.599   0.182
 6926SOL    HW121677   3.299   2.685   0.145
 6926SOL    HW221678   3.287   2.522   0.138
 6927SOL     OW21679   4.705   0.367   0.372
 6927SOL    HW121680   4.643   0.418   0.432
 6927SOL    HW221681   4.695   0.400   0.278
 6928SOL     OW21682   3.813   5.071   6.945
 6928SOL    HW121683   3.828   5.136   0.002
 6928SOL    HW221684   3.832   5.116   6.858
 6929SOL     OW21685   5.095   4.999   2.533
 6929SOL    HW121686   5.175   4.939   2.535
 6929SOL    HW221687   5.116   5.085   2.580
 6930SOL     OW21688   0.233   6.642   1.519
 6930SOL    HW121689   0.301   6.715   1.513
 6930SOL    HW221690   0.201   6.619   1.428
 6931SOL     OW21691   3.122   3.634   0.928
 6931SOL    HW121692   3.129   3.616   0.829
 6931SOL    HW221693   3.077   3.722   0.942
 6932SOL     OW21694   3.985   6.913   6.490
 6932SOL    HW121695   3.955   7.005   6.464
 6932SOL    HW221696   4.015   6.913   6.585
 6933SOL     OW21697   3.568   5.588   6.261
 6933SOL    HW121698   3.638   5.607   6.330
 6933SOL    HW221699   3.529   5.498   6.278
 6934SOL     OW21700   4.849   4.910   0.084
 6934SOL    HW121701   4.764   4.893   0.135
 6934SOL    HW221702   4.827   4.953   7.015
 6935SOL     OW21703   3.789   6.129   1.504
 6935SOL    HW121704   3.784   6.047   1.561
 6935SOL    HW221705   3.791   6.211   1.562
 6936SOL     OW21706   0.190   1.909   5.396
 6936SOL    HW121707   0.168   2.002   5.426
 6936SOL    HW221708   0.236   1.913   5.307
 6937SOL     OW21709   5.826   5.117   6.929
 6937SOL    HW121710   5.891   5.073   6.991
 6937SOL    HW221711   5.836   5.077   6.837
 6938SOL     OW21712   2.826   1.304   4.980
 6938SOL    HW121713   2.834   1.348   5.069
 6938SOL    HW221714   2.795   1.371   4.912
 6939SOL     OW21715   5.699   3.288   3.488
 6939SOL    HW121716   5.612   3.259   3.448
 6939SOL    HW221717   5.743   3.356   3.428
 6940SOL     OW21718   2.347   6.147   0.562
 6940SOL    HW121719   2.364   6.217   0.492
 6940SOL    HW221720   2.307   6.190   0.643
 6941SOL     OW21721   3.471   3.772   2.666
 6941SOL    HW121722   3.562   3.732   2.677
 6941SOL    HW221723   3.479   3.872   2.663
 6942SOL     OW21724   6.354   5.351   2.473
 6942SOL    HW121725   6.329   5.403   2.554
 6942SOL    HW221726   6.326   5.401   2.391
 6943SOL     OW21727   4.695   4.499   6.355
 6943SOL    HW121728   4.662   4.590   6.380
 6943SOL    HW221729   4.662   4.432   6.421
 6944SOL     OW21730   1.209   4.228   5.244
 6944SOL    HW121731   1.160   4.315   5.257
 6944SOL    HW221732   1.261   4.232   5.159
 6945SOL     OW21733   5.483   1.609   1.233
 6945SOL    HW121734   5.550   1.553   1.283
 6945SOL    HW221735   5.399   1.557   1.221
 6946SOL     OW21736   5.065   6.375   2.998
 6946SOL    HW121737   4.972   6.372   3.034
 6946SOL    HW221738   5.063   6.355   2.900
 6947SOL     OW21739   6.327   4.273   5.082
 6947SOL    HW121740   6.264   4.212   5.131
 6947SOL    HW221741   6.381   4.325   5.148
 6948SOL     OW21742   0.159   4.356   6.952
 6948SOL    HW121743   0.152   4.371   6.853
 6948SOL    HW221744   0.108   4.427   7.000
 6949SOL     OW21745   2.481   1.827   3.344
 6949SOL    HW121746   2.577   1.853   3.333
 6949SOL    HW221747   2.433   1.836   3.257
 6950SOL     OW21748   0.447   1.340   4.408
 6950SOL    HW121749   0.430   1.349   4.506
 6950SOL    HW221750   0.364   1.363   4.357
 6951SOL     OW21751   1.005   4.327   6.631
 6951SOL    HW121752   0.939   4.254   6.647
 6951SOL    HW221753   1.045   4.356   6.718
 6952SOL     OW21754   5.441   5.253   4.131
 6952SOL    HW121755   5.430   5.327   4.065
 6952SOL    HW221756   5.532   5.257   4.172
 6953SOL     OW21757   6.148   1.810   1.210
 6953SOL    HW121758   6.063   1.848   1.247
 6953SOL    HW221759   6.172   1.859   1.126
 6954SOL     OW21760   0.002   4.704   6.741
 6954SOL    HW121761   7.018   4.605   6.725
 6954SOL    HW221762   6.926   4.739   6.745
 6955SOL     OW21763   4.989   6.113   3.034
 6955SOL    HW121764   4.919   6.176   3.068
 6955SOL    HW221765   5.080   6.146   3.061
 6956SOL     OW21766   5.382   5.454   2.502
 6956SOL    HW121767   5.372   5.378   2.566
 6956SOL    HW221768   5.295   5.502   2.493
 6957SOL     OW21769   6.489   5.125   4.936
 6957SOL    HW121770   6.526   5.039   4.900
 6957SOL    HW221771   6.422   5.105   5.008
 6958SOL     OW21772   3.144   3.558   2.494
 6958SOL    HW121773   3.075   3.621   2.528
 6958SOL    HW221774   3.235   3.595   2.511
 6959SOL     OW21775   1.586   4.143   3.046
 6959SOL    HW121776   1.636   4.089   3.114
 6959SOL    HW221777   1.558   4.084   2.970
 6960SOL     OW21778   3.943   4.413   6.968
 6960SOL    HW121779   4.026   4.370   6.931
 6960SOL    HW221780   3.879   4.343   6.998
 6961SOL     OW21781   4.579   2.485   5.325
 6961SOL    HW121782   4.552   2.457   5.417
 6961SOL    HW221783   4.520   2.441   5.258
 6962SOL     OW21784   2.483   6.336   6.607
 6962SOL    HW121785   2.514   6.302   6.695
 6962SOL    HW221786   2.387   6.310   6.592
 6963SOL     OW21787   6.371   6.030   0.209
 6963SOL    HW121788   6.441   6.097   0.188
 6963SOL    HW221789   6.316   6.012   0.127
 6964SOL     OW21790   2.087   1.347   5.644
 6964SOL    HW121791   2.180   1.337   5.681
 6964SOL    HW221792   2.083   1.306   5.553
 6965SOL     OW21793   1.326   1.389   0.066
 6965SOL    HW121794   1.295   1.305   0.111
 6965SOL    HW221795   1.267   1.465   0.092
 6966SOL     OW21796   1.182   6.469   1.307
 6966SOL    HW121797   1.195   6.568   1.307
 6966SOL    HW221798   1.250   6.426   1.248
 6967SOL     OW21799   4.187   1.240   6.779
 6967SOL    HW121800   4.090   1.220   6.768
 6967SOL    HW221801   4.219   1.202   6.866
 6968SOL     OW21802   4.064   0.128   2.903
 6968SOL    HW121803   4.101   0.217   2.877
 6968SOL    HW221804   3.972   0.141   2.942
 6969SOL     OW21805   2.253   2.417   2.011
 6969SOL    HW121806   2.293   2.505   1.987
 6969SOL    HW221807   2.203   2.424   2.097
 6970SOL     OW21808   3.899   4.965   5.172
 6970SOL    HW121809   3.832   4.972   5.098
 6970SOL    HW221810   3.907   5.053   5.219
 6971SOL     OW21811   6.031   4.133   0.335
 6971SOL    HW121812   6.062   4.081   0.256
 6971SOL    HW221813   6.062   4.228   0.327
 6972SOL     OW21814   5.251   4.403   1.184
 6972SOL    HW121815   5.222   4.483   1.235
 6972SOL    HW221816   5.350   4.393   1.190
 6973SOL     OW21817   1.536   1.953   2.662
 6973SOL    HW121818   1.470   1.981   2.591
 6973SOL    HW221819   1.623   1.999   2.645
 6974SOL     OW21820   3.925   3.981   2.894
 6974SOL    HW121821   3.969   3.895   2.868
 6974SOL    HW221822   3.978   4.024   2.968
 6975SOL     OW21823   3.032   5.751   4.428
 6975SOL    HW121824   3.026   5.794   4.518
 6975SOL    HW221825   2.999   5.814   4.358
 6976SOL     OW21826   4.602   4.296   5.843
 6976SOL    HW121827   4.644   4.320   5.756
 6976SOL    HW221828   4.636   4.358   5.914
 6977SOL     OW21829   4.706   4.797   2.434
 6977SOL    HW121830   4.662   4.833   2.351
 6977SOL    HW221831   4.713   4.698   2.428
 6978SOL     OW21832   0.304   3.424   0.805
 6978SOL    HW121833   0.379   3.392   0.863
 6978SOL    HW221834   0.342   3.464   0.721
 6979SOL     OW21835   0.949   3.971   2.819
 6979SOL    HW121836   1.017   3.900   2.835
 6979SOL    HW221837   0.942   4.030   2.899
 6980SOL     OW21838   1.986   5.191   3.236
 6980SOL    HW121839   2.084   5.209   3.219
 6980SOL    HW221840   1.971   5.179   3.334
 6981SOL     OW21841   4.340   2.721   0.018
 6981SOL    HW121842   4.272   2.792   0.036
 6981SOL    HW221843   4.394   2.746   6.955
 6982SOL     OW21844   0.821   0.593   2.365
 6982SOL    HW121845   0.783   0.630   2.450
 6982SOL    HW221846   0.848   0.669   2.306
 6983SOL     OW21847   6.263   0.713   4.263
 6983SOL    HW121848   6.267   0.615   4.283
 6983SOL    HW221849   6.223   0.761   4.340
 6984SOL     OW21850   1.473   2.635   3.295
 6984SOL    HW121851   1.435   2.722   3.325
 6984SOL    HW221852   1.568   2.628   3.324
 6985SOL     OW21853   5.423   3.330   6.196
 6985SOL    HW121854   5.424   3.428   6.176
 6985SOL    HW221855   5.516   3.300   6.221
 6986SOL     OW21856   4.970   4.650   5.278
 6986SOL    HW121857   5.042   4.690   5.334
 6986SOL    HW221858   5.002   4.565   5.238
 6987SOL     OW21859   0.209   0.989   6.852
 6987SOL    HW121860   0.263   1.055   6.799
 6987SOL    HW221861   0.224   0.897   6.816
 6988SOL     OW21862   2.675   1.376   6.724
 6988SOL    HW121863   2.753   1.432   6.694
 6988SOL    HW221864   2.590   1.423   6.701
 6989SOL     OW21865   0.578   3.977   2.696
 6989SOL    HW121866   0.542   4.052   2.641
 6989SOL    HW221867   0.642   3.923   2.641
 6990SOL     OW21868   3.888   3.826   0.248
 6990SOL    HW121869   3.790   3.849   0.248
 6990SOL    HW221870   3.914   3.792   0.339
 6991SOL     OW21871   5.544   3.350   2.293
 6991SOL    HW121872   5.503   3.259   2.282
 6991SOL    HW221873   5.492   3.402   2.361
 6992SOL     OW21874   0.919   5.228   0.470
 6992SOL    HW121875   0.845   5.184   0.418
 6992SOL    HW221876   0.910   5.204   0.566
 6993SOL     OW21877   3.974   2.231   1.528
 6993SOL    HW121878   4.002   2.293   1.602
 6993SOL    HW221879   3.957   2.284   1.445
 6994SOL     OW21880   3.025   1.332   2.995
 6994SOL    HW121881   2.936   1.339   2.950
 6994SOL    HW221882   3.064   1.241   2.980
 6995SOL     OW21883   6.869   4.286   0.976
 6995SOL    HW121884   6.918   4.215   0.925
 6995SOL    HW221885   6.785   4.309   0.928
 6996SOL     OW21886   0.792   1.102   6.716
 6996SOL    HW121887   0.693   1.097   6.698
 6996SOL    HW221888   0.841   1.123   6.632
 6997SOL     OW21889   6.424   6.270   6.044
 6997SOL    HW121890   6.394   6.291   6.137
 6997SOL    HW221891   6.344   6.258   5.986
 6998SOL     OW21892   0.001   0.833   0.508
 6998SOL    HW121893   0.060   0.901   0.465
 6998SOL    HW221894   6.959   0.792   0.439
 6999SOL     OW21895   6.828   2.904   6.789
 6999SOL    HW121896   6.880   2.959   6.855
 6999SOL    HW221897   6.732   2.931   6.791
 7000SOL     OW21898   0.113   5.582   3.502
 7000SOL    HW121899   0.150   5.672   3.521
 7000SOL    HW221900   0.159   5.513   3.557
 7001SOL     OW21901   6.474   1.841   4.467
 7001SOL    HW121902   6.384   1.844   4.423
 7001SOL    HW221903   6.527   1.765   4.429
 7002SOL     OW21904   0.930   5.509   2.991
 7002SOL    HW121905   0.878   5.506   3.077
 7002SOL    HW221906   1.012   5.453   3.001
 7003SOL     OW21907   0.625   4.162   0.502
 7003SOL    HW121908   0.554   4.129   0.563
 7003SOL    HW221909   0.622   4.112   0.416
 7004SOL     OW21910   1.857   6.889   0.338
 7004SOL    HW121911   1.906   6.840   0.411
 7004SOL    HW221912   1.758   6.882   0.355
 7005SOL     OW21913   1.483   5.451   0.496
 7005SOL    HW121914   1.458   5.391   0.573
 7005SOL    HW221915   1.431   5.536   0.502
 7006SOL     OW21916   0.496   0.280   3.883
 7006SOL    HW121917   0.569   0.283   3.952
 7006SOL    HW221918   0.501   0.362   3.826
 7007SOL     OW21919   2.269   0.471   6.111
 7007SOL    HW121920   2.198   0.497   6.176
 7007SOL    HW221921   2.240   0.496   6.019
 7008SOL     OW21922   5.745   3.427   3.267
 7008SOL    HW121923   5.744   3.392   3.173
 7008SOL    HW221924   5.698   3.515   3.270
 7009SOL     OW21925   4.978   6.075   2.650
 7009SOL    HW121926   5.022   6.014   2.583
 7009SOL    HW221927   5.017   6.058   2.741
 7010SOL     OW21928   4.928   3.566   2.768
 7010SOL    HW121929   4.926   3.660   2.735
 7010SOL    HW221930   4.924   3.503   2.690
 7011SOL     OW21931   2.798   6.579   6.047
 7011SOL    HW121932   2.702   6.553   6.058
 7011SOL    HW221933   2.804   6.674   6.017
 7012SOL     OW21934   0.028   2.791   0.387
 7012SOL    HW121935   6.985   2.767   0.312
 7012SOL    HW221936   0.027   2.890   0.399
 7013SOL     OW21937   3.094   2.990   0.285
 7013SOL    HW121938   3.006   3.011   0.242
 7013SOL    HW221939   3.164   3.050   0.248
 7014SOL     OW21940   5.356   3.310   0.836
 7014SOL    HW121941   5.354   3.210   0.836
 7014SOL    HW221942   5.353   3.343   0.931
 7015SOL     OW21943   5.713   6.296   1.587
 7015SOL    HW121944   5.652   6.371   1.563
 7015SOL    HW221945   5.678   6.211   1.548
 7016SOL     OW21946   3.458   5.380   0.851
 7016SOL    HW121947   3.359   5.373   0.863
 7016SOL    HW221948   3.487   5.317   0.779
 7017SOL     OW21949   5.723   4.307   5.532
 7017SOL    HW121950   5.660   4.381   5.559
 7017SOL    HW221951   5.805   4.346   5.491
 7018SOL     OW21952   5.182   3.668   4.984
 7018SOL    HW121953   5.119   3.609   5.035
 7018SOL    HW221954   5.129   3.732   4.927
 7019SOL     OW21955   4.064   5.221   2.127
 7019SOL    HW121956   4.040   5.299   2.184
 7019SOL    HW221957   3.990   5.202   2.062
 7020SOL     OW21958   0.978   2.329   6.530
 7020SOL    HW121959   0.911   2.392   6.492
 7020SOL    HW221960   0.940   2.236   6.529
 7021SOL     OW21961   0.683   2.026   4.551
 7021SOL    HW121962   0.725   2.108   4.590
 7021SOL    HW221963   0.598   2.051   4.505
 7022SOL     OW21964   2.928   2.769   0.902
 7022SOL    HW121965   2.928   2.841   0.971
 7022SOL    HW221966   2.955   2.807   0.814
 7023SOL     OW21967   0.363   1.382   0.787
 7023SOL    HW121968   0.423   1.321   0.839
 7023SOL    HW221969   0.325   1.332   0.709
 7024SOL     OW21970   3.217   3.510   4.881
 7024SOL    HW121971   3.291   3.443   4.892
 7024SOL    HW221972   3.246   3.582   4.819
 7025SOL     OW21973   3.177   0.690   1.224
 7025SOL    HW121974   3.151   0.710   1.129
 7025SOL    HW221975   3.171   0.774   1.278
 7026SOL     OW21976   3.174   2.704   0.937
 7026SOL    HW121977   3.201   2.635   1.003
 7026SOL    HW221978   3.078   2.728   0.950
 7027SOL     OW21979   3.330   4.903   2.150
 7027SOL    HW121980   3.357   4.819   2.104
 7027SOL    HW221981   3.268   4.955   2.090
 7028SOL     OW21982   3.411   7.013   3.238
 7028SOL    HW121983   3.325   6.996   3.190
 7028SOL    HW221984   3.485   6.963   3.192
 7029SOL     OW21985   3.254   3.645   3.228
 7029SOL    HW121986   3.210   3.657   3.139
 7029SOL    HW221987   3.326   3.713   3.239
 7030SOL     OW21988   6.399   0.352   4.920
 7030SOL    HW121989   6.417   0.288   4.995
 7030SOL    HW221990   6.382   0.300   4.836
 7031SOL     OW21991   4.843   6.221   0.106
 7031SOL    HW121992   4.893   6.302   0.138
 7031SOL    HW221993   4.784   6.187   0.179
 7032SOL     OW21994   4.519   5.180   3.943
 7032SOL    HW121995   4.459   5.113   3.899
 7032SOL    HW221996   4.607   5.137   3.964
 7033SOL     OW21997   1.642   1.568   5.327
 7033SOL    HW121998   1.715   1.628   5.360
 7033SOL    HW221999   1.597   1.525   5.405
 7034SOL     OW22000   6.360   0.721   2.457
 7034SOL    HW122001   6.458   0.711   2.441
 7034SOL    HW222002   6.340   0.703   2.554
 7035SOL     OW22003   2.719   1.279   1.248
 7035SOL    HW122004   2.649   1.311   1.311
 7035SOL    HW222005   2.679   1.269   1.157
 7036SOL     OW22006   6.325   1.399   1.688
 7036SOL    HW122007   6.268   1.318   1.697
 7036SOL    HW222008   6.408   1.376   1.637
 7037SOL     OW22009   1.191   0.353   5.968
 7037SOL    HW122010   1.144   0.381   5.884
 7037SOL    HW222011   1.232   0.433   6.011
 7038SOL     OW22012   1.474   3.784   0.211
 7038SOL    HW122013   1.442   3.854   0.275
 7038SOL    HW222014   1.545   3.729   0.254
 7039SOL     OW22015   0.078   6.597   2.076
 7039SOL    HW122016   0.160   6.552   2.110
 7039SOL    HW222017   0.026   6.635   2.152
 7040SOL     OW22018   5.772   2.472   4.712
 7040SOL    HW122019   5.733   2.512   4.794
 7040SOL    HW222020   5.771   2.372   4.719
 7041SOL     OW22021   1.356   6.990   4.185
 7041SOL    HW122022   1.394   0.039   4.248
 7041SOL    HW222023   1.376   7.018   4.091
 7042SOL     OW22024   5.596   5.581   5.568
 7042SOL    HW122025   5.550   5.670   5.563
 7042SOL    HW222026   5.532   5.513   5.604
 7043SOL     OW22027   1.718   5.662   1.002
 7043SOL    HW122028   1.794   5.712   1.044
 7043SOL    HW222029   1.704   5.576   1.051
 7044SOL     OW22030   5.674   5.971   5.161
 7044SOL    HW122031   5.708   6.032   5.233
 7044SOL    HW222032   5.708   5.879   5.177
 7045SOL     OW22033   6.290   5.552   1.632
 7045SOL    HW122034   6.302   5.526   1.728
 7045SOL    HW222035   6.347   5.493   1.574
 7046SOL     OW22036   1.799   1.451   3.682
 7046SOL    HW122037   1.768   1.497   3.765
 7046SOL    HW222038   1.859   1.511   3.630
 7047SOL     OW22039   1.162   6.304   0.672
 7047SOL    HW122040   1.156   6.235   0.600
 7047SOL    HW222041   1.245   6.290   0.726
 7048SOL     OW22042   0.681   6.426   3.900
 7048SOL    HW122043   0.700   6.522   3.880
 7048SOL    HW222044   0.696   6.408   3.997
 7049SOL     OW22045   3.774   1.088   4.048
 7049SOL    HW122046   3.773   0.991   4.071
 7049SOL    HW222047   3.693   1.133   4.086
 7050SOL     OW22048   3.855   4.424   0.272
 7050SOL    HW122049   3.869   4.445   0.369
 7050SOL    HW222050   3.885   4.502   0.217
 7051SOL     OW22051   1.072   1.625   1.913
 7051SOL    HW122052   1.034   1.718   1.920
 7051SOL    HW222053   1.159   1.629   1.863
 7052SOL     OW22054   4.512   1.708   2.654
 7052SOL    HW122055   4.492   1.772   2.728
 7052SOL    HW222056   4.430   1.657   2.631
 7053SOL     OW22057   1.337   3.703   3.227
 7053SOL    HW122058   1.369   3.653   3.308
 7053SOL    HW222059   1.288   3.785   3.256
 7054SOL     OW22060   5.233   0.424   6.975
 7054SOL    HW122061   5.171   0.361   0.004
 7054SOL    HW222062   5.324   0.383   6.970
 7055SOL     OW22063   2.504   0.472   0.385
 7055SOL    HW122064   2.503   0.496   0.288
 7055SOL    HW222065   2.458   0.543   0.437
 7056SOL     OW22066   6.896   4.757   0.981
 7056SOL    HW122067   6.888   4.698   0.901
 7056SOL    HW222068   6.820   4.739   1.043
 7057SOL     OW22069   3.088   5.504   4.813
 7057SOL    HW122070   3.177   5.547   4.826
 7057SOL    HW222071   3.016   5.564   4.850
 7058SOL     OW22072   6.299   2.666   6.130
 7058SOL    HW122073   6.378   2.722   6.155
 7058SOL    HW222074   6.266   2.694   6.040
 7059SOL     OW22075   1.869   6.759   5.132
 7059SOL    HW122076   1.817   6.803   5.058
 7059SOL    HW222077   1.835   6.666   5.146
 7060SOL     OW22078   3.297   2.251   1.192
 7060SOL    HW122079   3.308   2.275   1.288
 7060SOL    HW222080   3.377   2.198   1.162
 7061SOL     OW22081   1.179   0.958   1.191
 7061SOL    HW122082   1.210   1.026   1.124
 7061SOL    HW222083   1.228   0.872   1.176
 7062SOL     OW22084   3.048   0.586   3.865
 7062SOL    HW122085   3.014   0.678   3.879
 7062SOL    HW222086   3.044   0.535   3.952
 7063SOL     OW22087   6.710   1.412   1.258
 7063SOL    HW122088   6.762   1.330   1.236
 7063SOL    HW222089   6.770   1.480   1.299
 7064SOL     OW22090   3.074   1.443   5.188
 7064SOL    HW122091   3.118   1.467   5.274
 7064SOL    HW222092   3.113   1.358   5.153
 7065SOL     OW22093   3.936   5.544   5.139
 7065SOL    HW122094   3.840   5.526   5.157
 7065SOL    HW222095   3.984   5.560   5.225
 7066SOL     OW22096   3.628   0.206   1.132
 7066SOL    HW122097   3.599   0.155   1.050
 7066SOL    HW222098   3.619   0.304   1.116
 7067SOL     OW22099   2.096   3.765   6.411
 7067SOL    HW122100   2.124   3.669   6.406
 7067SOL    HW222101   2.096   3.804   6.319
 7068SOL     OW22102   5.190   4.094   4.450
 7068SOL    HW122103   5.220   4.035   4.524
 7068SOL    HW222104   5.239   4.070   4.366
 7069SOL     OW22105   5.234   0.837   5.787
 7069SOL    HW122106   5.171   0.879   5.723
 7069SOL    HW222107   5.223   0.879   5.877
 7070SOL     OW22108   0.486   0.461   5.602
 7070SOL    HW122109   0.506   0.468   5.504
 7070SOL    HW222110   0.560   0.411   5.647
 7071SOL     OW22111   4.570   6.145   6.623
 7071SOL    HW122112   4.505   6.213   6.658
 7071SOL    HW222113   4.650   6.192   6.586
 7072SOL     OW22114   0.773   3.910   6.262
 7072SOL    HW122115   0.709   3.926   6.337
 7072SOL    HW222116   0.789   3.995   6.213
 7073SOL     OW22117   4.903   1.622   4.105
 7073SOL    HW122118   4.857   1.576   4.180
 7073SOL    HW222119   4.866   1.591   4.018
 7074SOL     OW22120   5.651   4.032   2.995
 7074SOL    HW122121   5.581   4.030   3.066
 7074SOL    HW222122   5.689   4.124   2.989
 7075SOL     OW22123   2.435   5.286   3.333
 7075SOL    HW122124   2.402   5.248   3.420
 7075SOL    HW222125   2.532   5.266   3.323
 7076SOL     OW22126   5.601   2.340   1.406
 7076SOL    HW122127   5.542   2.264   1.434
 7076SOL    HW222128   5.590   2.417   1.469
 7077SOL     OW22129   3.503   6.308   1.429
 7077SOL    HW122130   3.431   6.261   1.377
 7077SOL    HW222131   3.513   6.263   1.518
 7078SOL     OW22132   6.773   0.772   6.884
 7078SOL    HW122133   6.795   0.718   6.803
 7078SOL    HW222134   6.835   0.850   6.890
 7079SOL     OW22135   1.664   5.609   4.886
 7079SOL    HW122136   1.715   5.547   4.826
 7079SOL    HW222137   1.656   5.699   4.842
 7080SOL     OW22138   3.994   1.990   6.189
 7080SOL    HW122139   4.093   1.993   6.172
 7080SOL    HW222140   3.950   1.933   6.120
 7081SOL     OW22141   2.729   0.052   0.539
 7081SOL    HW122142   2.701   0.037   0.634
 7081SOL    HW222143   2.716   6.986   0.487
 7082SOL     OW22144   0.612   3.826   2.407
 7082SOL    HW122145   0.691   3.792   2.356
 7082SOL    HW222146   0.580   3.755   2.470
 7083SOL     OW22147   5.001   2.636   3.457
 7083SOL    HW122148   5.025   2.706   3.524
 7083SOL    HW222149   4.903   2.617   3.461
 7084SOL     OW22150   1.048   5.032   0.090
 7084SOL    HW122151   1.023   5.001   0.181
 7084SOL    HW222152   1.096   4.959   0.041
 7085SOL     OW22153   0.845   4.146   2.192
 7085SOL    HW122154   0.759   4.099   2.215
 7085SOL    HW222155   0.824   4.234   2.149
 7086SOL     OW22156   5.364   0.711   3.781
 7086SOL    HW122157   5.291   0.717   3.849
 7086SOL    HW222158   5.448   0.749   3.818
 7087SOL     OW22159   4.684   2.813   3.577
 7087SOL    HW122160   4.747   2.845   3.506
 7087SOL    HW222161   4.591   2.809   3.541
 7088SOL     OW22162   6.673   2.304   5.291
 7088SOL    HW122163   6.617   2.301   5.208
 7088SOL    HW222164   6.664   2.394   5.334
 7089SOL     OW22165   2.423   5.402   1.522
 7089SOL    HW122166   2.511   5.361   1.545
 7089SOL    HW222167   2.432   5.502   1.522
 7090SOL     OW22168   4.356   3.189   0.981
 7090SOL    HW122169   4.320   3.250   1.051
 7090SOL    HW222170   4.283   3.165   0.917
 7091SOL     OW22171   0.230   6.759   0.393
 7091SOL    HW122172   0.320   6.735   0.431
 7091SOL    HW222173   0.191   6.834   0.446
 7092SOL     OW22174   4.160   6.901   6.743
 7092SOL    HW122175   4.165   6.984   6.688
 7092SOL    HW222176   4.211   6.914   6.828
 7093SOL     OW22177   3.614   2.987   0.699
 7093SOL    HW122178   3.606   2.917   0.628
 7093SOL    HW222179   3.534   2.983   0.759
 7094SOL     OW22180   3.900   0.339   5.430
 7094SOL    HW122181   3.966   0.279   5.385
 7094SOL    HW222182   3.830   0.367   5.365
 7095SOL     OW22183   2.514   4.739   4.614
 7095SOL    HW122184   2.554   4.794   4.541
 7095SOL    HW222185   2.583   4.678   4.652
 7096SOL     OW22186   6.366   0.116   1.149
 7096SOL    HW122187   6.324   0.067   1.226
 7096SOL    HW222188   6.308   0.194   1.124
 7097SOL     OW22189   4.705   1.546   2.716
 7097SOL    HW122190   4.679   1.451   2.698
 7097SOL    HW222191   4.636   1.608   2.681
 7098SOL     OW22192   0.945   1.178   3.222
 7098SOL    HW122193   0.966   1.252   3.285
 7098SOL    HW222194   1.031   1.139   3.186
 7099SOL     OW22195   3.611   1.795   4.532
 7099SOL    HW122196   3.636   1.723   4.597
 7099SOL    HW222197   3.664   1.784   4.448
 7100SOL     OW22198   0.247   3.875   1.242
 7100SOL    HW122199   0.333   3.834   1.214
 7100SOL    HW222200   0.256   3.912   1.335
 7101SOL     OW22201   2.577   5.530   4.544
 7101SOL    HW122202   2.554   5.625   4.566
 7101SOL    HW222203   2.561   5.472   4.625
 7102SOL     OW22204   5.486   1.401   2.851
 7102SOL    HW122205   5.451   1.492   2.874
 7102SOL    HW222206   5.545   1.407   2.771
 7103SOL     OW22207   5.217   3.702   3.914
 7103SOL    HW122208   5.128   3.733   3.883
 7103SOL    HW222209   5.206   3.629   3.981
 7104SOL     OW22210   5.035   2.944   4.677
 7104SOL    HW122211   5.061   2.895   4.761
 7104SOL    HW222212   4.936   2.957   4.675
 7105SOL     OW22213   2.958   3.502   2.969
 7105SOL    HW122214   2.966   3.569   2.895
 7105SOL    HW222215   2.921   3.547   3.050
 7106SOL     OW22216   3.403   1.662   2.734
 7106SOL    HW122217   3.434   1.651   2.640
 7106SOL    HW222218   3.321   1.719   2.735
 7107SOL     OW22219   3.740   0.751   6.251
 7107SOL    HW122220   3.810   0.816   6.224
 7107SOL    HW222221   3.696   0.782   6.335
 7108SOL     OW22222   3.956   0.244   2.169
 7108SOL    HW122223   3.972   0.173   2.238
 7108SOL    HW222224   3.889   0.310   2.204
 7109SOL     OW22225   3.418   5.368   6.324
 7109SOL    HW122226   3.424   5.306   6.403
 7109SOL    HW222227   3.340   5.341   6.266
 7110SOL     OW22228   2.652   6.509   5.067
 7110SOL    HW122229   2.608   6.421   5.051
 7110SOL    HW222230   2.636   6.538   5.161
 7111SOL     OW22231   6.435   0.713   5.194
 7111SOL    HW122232   6.336   0.713   5.207
 7111SOL    HW222233   6.468   0.808   5.196
 7112SOL     OW22234   1.127   4.936   5.226
 7112SOL    HW122235   1.106   4.906   5.319
 7112SOL    HW222236   1.071   4.885   5.161
 7113SOL     OW22237   3.122   6.539   4.564
 7113SOL    HW122238   3.197   6.507   4.622
 7113SOL    HW222239   3.144   6.631   4.530
 7114SOL     OW22240   5.738   3.928   1.352
 7114SOL    HW122241   5.687   3.873   1.419
 7114SOL    HW222242   5.746   3.877   1.266
 7115SOL     OW22243   5.445   2.949   5.835
 7115SOL    HW122244   5.351   2.925   5.808
 7115SOL    HW222245   5.446   2.975   5.931
 7116SOL     OW22246   0.148   3.960   4.569
 7116SOL    HW122247   0.226   3.941   4.629
 7116SOL    HW222248   0.095   3.877   4.555
 7117SOL     OW22249   5.178   6.811   2.936
 7117SOL    HW122250   5.093   6.786   2.890
 7117SOL    HW222251   5.157   6.857   3.022
 7118SOL     OW22252   4.522   4.664   6.056
 7118SOL    HW122253   4.571   4.719   5.988
 7118SOL    HW222254   4.554   4.570   6.052
 7119SOL     OW22255   3.140   6.453   5.622
 7119SOL    HW122256   3.149   6.373   5.681
 7119SOL    HW222257   3.193   6.529   5.660
 7120SOL     OW22258   4.492   1.212   0.876
 7120SOL    HW122259   4.554   1.265   0.819
 7120SOL    HW222260   4.481   1.257   0.965
 7121SOL     OW22261   1.131   5.879   2.586
 7121SOL    HW122262   1.147   5.817   2.663
 7121SOL    HW222263   1.071   5.953   2.614
 7122SOL     OW22264   3.840   2.103   6.588
 7122SOL    HW122265   3.754   2.074   6.545
 7122SOL    HW222266   3.914   2.100   6.520
 7123SOL     OW22267   5.657   5.084   5.783
 7123SOL    HW122268   5.597   5.030   5.724
 7123SOL    HW222269   5.712   5.022   5.840
 7124SOL     OW22270   1.873   3.089   1.093
 7124SOL    HW122271   1.905   3.164   1.150
 7124SOL    HW222272   1.930   3.008   1.110
 7125SOL     OW22273   0.650   6.684   2.347
 7125SOL    HW122274   0.715   6.757   2.368
 7125SOL    HW222275   0.660   6.610   2.413
 7126SOL     OW22276   3.713   5.621   1.523
 7126SOL    HW122277   3.810   5.637   1.506
 7126SOL    HW222278   3.683   5.682   1.597
 7127SOL     OW22279   2.715   6.307   6.459
 7127SOL    HW122280   2.756   6.217   6.473
 7127SOL    HW222281   2.626   6.311   6.505
 7128SOL     OW22282   2.948   4.096   0.325
 7128SOL    HW122283   2.942   3.999   0.301
 7128SOL    HW222284   3.030   4.111   0.381
 7129SOL     OW22285   0.627   0.207   0.272
 7129SOL    HW122286   0.643   0.139   0.201
 7129SOL    HW222287   0.662   0.296   0.242
 7130SOL     OW22288   3.112   7.007   4.153
 7130SOL    HW122289   3.091   6.983   4.248
 7130SOL    HW222290   3.203   6.973   4.129
 7131SOL     OW22291   2.210   1.599   1.704
 7131SOL    HW122292   2.285   1.542   1.669
 7131SOL    HW222293   2.226   1.620   1.800
 7132SOL     OW22294   4.729   4.389   1.169
 7132SOL    HW122295   4.688   4.301   1.190
 7132SOL    HW222296   4.660   4.461   1.179
 7133SOL     OW22297   4.820   5.900   2.937
 7133SOL    HW122298   4.881   5.968   2.979
 7133SOL    HW222299   4.871   5.815   2.922
 7134SOL     OW22300   5.440   5.066   6.893
 7134SOL    HW122301   5.397   5.006   6.961
 7134SOL    HW222302   5.496   5.135   6.940
 7135SOL     OW22303   2.032   3.770   1.546
 7135SOL    HW122304   2.089   3.723   1.613
 7135SOL    HW222305   2.078   3.854   1.517
 7136SOL     OW22306   1.074   2.472   2.039
 7136SOL    HW122307   1.137   2.395   2.042
 7136SOL    HW222308   1.102   2.535   1.967
 7137SOL     OW22309   2.854   0.985   2.040
 7137SOL    HW122310   2.849   1.072   2.089
 7137SOL    HW222311   2.762   0.952   2.021
 7138SOL     OW22312   0.319   3.267   0.326
 7138SOL    HW122313   0.318   3.366   0.322
 7138SOL    HW222314   0.296   3.237   0.419
 7139SOL     OW22315   5.763   6.251   0.831
 7139SOL    HW122316   5.834   6.226   0.765
 7139SOL    HW222317   5.786   6.339   0.873
 7140SOL     OW22318   6.739   4.421   0.007
 7140SOL    HW122319   6.664   4.386   0.062
 7140SOL    HW222320   6.822   4.368   0.026
 7141SOL     OW22321   3.109   0.818   0.966
 7141SOL    HW122322   3.061   0.841   0.881
 7141SOL    HW222323   3.181   0.885   0.982
 7142SOL     OW22324   4.635   0.228   4.560
 7142SOL    HW122325   4.671   0.146   4.516
 7142SOL    HW222326   4.542   0.245   4.528
 7143SOL     OW22327   2.650   2.955   6.430
 7143SOL    HW122328   2.614   3.045   6.403
 7143SOL    HW222329   2.606   2.925   6.515
 7144SOL     OW22330   6.972   0.898   6.157
 7144SOL    HW122331   0.007   0.877   6.075
 7144SOL    HW222332   6.890   0.842   6.159
 7145SOL     OW22333   5.727   1.811   6.191
 7145SOL    HW122334   5.669   1.761   6.127
 7145SOL    HW222335   5.670   1.851   6.263
 7146SOL     OW22336   0.759   2.358   5.063
 7146SOL    HW122337   0.842   2.345   5.008
 7146SOL    HW222338   0.783   2.402   5.150
 7147SOL     OW22339   6.537   6.597   1.890
 7147SOL    HW122340   6.443   6.564   1.897
 7147SOL    HW222341   6.579   6.598   1.980
 7148SOL     OW22342   6.603   6.858   1.323
 7148SOL    HW122343   6.515   6.831   1.360
 7148SOL    HW222344   6.674   6.846   1.393
 7149SOL     OW22345   5.488   4.540   5.488
 7149SOL    HW122346   5.402   4.491   5.481
 7149SOL    HW222347   5.517   4.571   5.397
 7150SOL     OW22348   2.916   2.458   0.086
 7150SOL    HW122349   2.995   2.407   0.121
 7150SOL    HW222350   2.872   2.507   0.161
 7151SOL     OW22351   5.344   1.374   6.768
 7151SOL    HW122352   5.346   1.469   6.798
 7151SOL    HW222353   5.438   1.338   6.767
 7152SOL     OW22354   4.875   0.719   5.699
 7152SOL    HW122355   4.970   0.686   5.699
 7152SOL    HW222356   4.816   0.648   5.736
 7153SOL     OW22357   3.184   5.777   0.376
 7153SOL    HW122358   3.151   5.799   0.468
 7153SOL    HW222359   3.139   5.837   0.310
 7154SOL     OW22360   4.265   1.166   2.432
 7154SOL    HW122361   4.291   1.257   2.401
 7154SOL    HW222362   4.170   1.147   2.405
 7155SOL     OW22363   1.318   0.296   1.986
 7155SOL    HW122364   1.355   0.314   2.078
 7155SOL    HW222365   1.224   0.264   1.994
 7156SOL     OW22366   6.508   3.859   5.497
 7156SOL    HW122367   6.579   3.861   5.427
 7156SOL    HW222368   6.418   3.849   5.454
 7157SOL     OW22369   0.365   4.399   5.873
 7157SOL    HW122370   0.361   4.363   5.966
 7157SOL    HW222371   0.373   4.323   5.808
 7158SOL     OW22372   5.024   0.100   4.072
 7158SOL    HW122373   4.975   0.079   3.988
 7158SOL    HW222374   5.109   0.148   4.050
 7159SOL     OW22375   0.819   6.475   3.218
 7159SOL    HW122376   0.802   6.486   3.120
 7159SOL    HW222377   0.763   6.399   3.253
 7160SOL     OW22378   5.873   6.994   3.117
 7160SOL    HW122379   5.890   6.897   3.133
 7160SOL    HW222380   5.942   0.030   3.165
 7161SOL     OW22381   3.754   4.012   2.328
 7161SOL    HW122382   3.842   3.970   2.305
 7161SOL    HW222383   3.744   4.016   2.428
 7162SOL     OW22384   0.501   6.040   1.208
 7162SOL    HW122385   0.507   6.089   1.121
 7162SOL    HW222386   0.591   6.039   1.252
 7163SOL     OW22387   6.597   0.635   1.196
 7163SOL    HW122388   6.647   0.702   1.251
 7163SOL    HW222389   6.519   0.681   1.152
 7164SOL     OW22390   1.242   1.072   6.818
 7164SOL    HW122391   1.295   1.126   6.883
 7164SOL    HW222392   1.276   0.978   6.817
 7165SOL     OW22393   5.988   2.172   0.308
 7165SOL    HW122394   6.029   2.264   0.303
 7165SOL    HW222395   6.037   2.117   0.376
 7166SOL     OW22396   0.102   5.596   5.734
 7166SOL    HW122397   0.011   5.598   5.776
 7166SOL    HW222398   0.145   5.508   5.753
 7167SOL     OW22399   0.203   2.952   5.464
 7167SOL    HW122400   0.167   3.000   5.384
 7167SOL    HW222401   0.189   3.008   5.545
 7168SOL     OW22402   2.000   1.908   2.327
 7168SOL    HW122403   1.956   1.989   2.289
 7168SOL    HW222404   1.948   1.876   2.407
 7169SOL     OW22405   1.496   4.755   5.331
 7169SOL    HW122406   1.426   4.731   5.263
 7169SOL    HW222407   1.520   4.673   5.383
 7170SOL     OW22408   3.447   1.472   1.214
 7170SOL    HW122409   3.472   1.385   1.258
 7170SOL    HW222410   3.388   1.524   1.275
 7171SOL     OW22411   6.561   3.910   0.656
 7171SOL    HW122412   6.579   3.908   0.557
 7171SOL    HW222413   6.639   3.951   0.703
 7172SOL     OW22414   0.646   2.253   3.577
 7172SOL    HW122415   0.648   2.309   3.660
 7172SOL    HW222416   0.726   2.274   3.521
 7173SOL     OW22417   4.593   5.768   5.653
 7173SOL    HW122418   4.503   5.758   5.695
 7173SOL    HW222419   4.639   5.679   5.650
 7174SOL     OW22420   6.599   4.287   2.144
 7174SOL    HW122421   6.651   4.207   2.114
 7174SOL    HW222422   6.551   4.328   2.066
 7175SOL     OW22423   6.464   4.140   5.555
 7175SOL    HW122424   6.507   4.049   5.548
 7175SOL    HW222425   6.404   4.154   5.477
 7176SOL     OW22426   0.154   1.166   6.127
 7176SOL    HW122427   0.194   1.258   6.122
 7176SOL    HW222428   0.131   1.135   6.035
 7177SOL     OW22429   1.380   6.050   3.672
 7177SOL    HW122430   1.302   6.005   3.629
 7177SOL    HW222431   1.351   6.093   3.757
 7178SOL     OW22432   1.498   0.042   4.981
 7178SOL    HW122433   1.405   0.056   4.946
 7178SOL    HW222434   1.495   0.038   5.081
 7179SOL     OW22435   4.267   4.947   5.957
 7179SOL    HW122436   4.241   4.855   5.984
 7179SOL    HW222437   4.231   4.966   5.865
 7180SOL     OW22438   1.776   3.120   1.697
 7180SOL    HW122439   1.862   3.092   1.656
 7180SOL    HW222440   1.757   3.216   1.673
 7181SOL     OW22441   2.113   1.272   0.074
 7181SOL    HW122442   2.207   1.289   0.046
 7181SOL    HW222443   2.077   1.193   0.024
 7182SOL     OW22444   1.704   1.176   3.671
 7182SOL    HW122445   1.746   1.267   3.666
 7182SOL    HW222446   1.749   1.123   3.742
 7183SOL     OW22447   1.696   6.996   2.256
 7183SOL    HW122448   1.609   7.003   2.305
 7183SOL    HW222449   1.721   0.068   2.219
 7184SOL     OW22450   6.554   0.760   3.817
 7184SOL    HW122451   6.562   0.858   3.837
 7184SOL    HW222452   6.506   0.714   3.892
 7185SOL     OW22453   4.009   0.864   3.946
 7185SOL    HW122454   4.025   0.881   3.849
 7185SOL    HW222455   4.068   0.924   4.000
 7186SOL     OW22456   6.526   0.863   6.798
 7186SOL    HW122457   6.475   0.944   6.828
 7186SOL    HW222458   6.623   0.877   6.816
 7187SOL     OW22459   3.902   3.593   3.841
 7187SOL    HW122460   3.957   3.514   3.815
 7187SOL    HW222461   3.828   3.565   3.901
 7188SOL     OW22462   4.702   4.611   0.200
 7188SOL    HW122463   4.759   4.604   0.119
 7188SOL    HW222464   4.673   4.520   0.229
 7189SOL     OW22465   6.834   2.745   5.746
 7189SOL    HW122466   6.861   2.654   5.777
 7189SOL    HW222467   6.905   2.783   5.687
 7190SOL     OW22468   6.100   5.303   6.743
 7190SOL    HW122469   6.169   5.374   6.755
 7190SOL    HW222470   6.011   5.337   6.775
 7191SOL     OW22471   6.729   4.957   2.625
 7191SOL    HW122472   6.650   4.899   2.646
 7191SOL    HW222473   6.813   4.907   2.644
 7192SOL     OW22474   2.281   4.070   5.511
 7192SOL    HW122475   2.262   4.010   5.433
 7192SOL    HW222476   2.360   4.127   5.490
 7193SOL     OW22477   3.434   1.784   3.310
 7193SOL    HW122478   3.418   1.826   3.221
 7193SOL    HW222479   3.416   1.686   3.305
 7194SOL     OW22480   3.064   2.485   6.311
 7194SOL    HW122481   3.072   2.513   6.215
 7194SOL    HW222482   3.069   2.566   6.370
 7195SOL     OW22483   0.812   4.227   5.558
 7195SOL    HW122484   0.854   4.196   5.473
 7195SOL    HW222485   0.867   4.197   5.635
 7196SOL     OW22486   3.406   4.041   1.814
 7196SOL    HW122487   3.489   4.079   1.854
 7196SOL    HW222488   3.347   4.006   1.886
 7197SOL     OW22489   3.246   4.487   6.738
 7197SOL    HW122490   3.332   4.537   6.740
 7197SOL    HW222491   3.256   4.405   6.682
 7198SOL     OW22492   0.777   0.586   1.733
 7198SOL    HW122493   0.712   0.560   1.662
 7198SOL    HW222494   0.862   0.618   1.691
 7199SOL     OW22495   5.916   1.523   2.616
 7199SOL    HW122496   5.987   1.459   2.646
 7199SOL    HW222497   5.871   1.563   2.696
 7200SOL     OW22498   0.787   2.561   0.310
 7200SOL    HW122499   0.819   2.584   0.401
 7200SOL    HW222500   0.689   2.581   0.302
 7201SOL     OW22501   6.031   5.433   4.017
 7201SOL    HW122502   6.126   5.414   4.042
 7201SOL    HW222503   6.027   5.515   3.960
 7202SOL     OW22504   4.474   6.731   5.780
 7202SOL    HW122505   4.381   6.721   5.815
 7202SOL    HW222506   4.529   6.782   5.846
 7203SOL     OW22507   0.125   1.593   1.134
 7203SOL    HW122508   0.126   1.681   1.087
 7203SOL    HW222509   0.154   1.521   1.071
 7204SOL     OW22510   6.738   0.688   2.164
 7204SOL    HW122511   6.830   0.702   2.201
 7204SOL    HW222512   6.737   0.607   2.105
 7205SOL     OW22513   3.184   1.788   4.515
 7205SOL    HW122514   3.133   1.761   4.433
 7205SOL    HW222515   3.121   1.818   4.586
 7206SOL     OW22516   1.894   4.002   6.897
 7206SOL    HW122517   1.951   4.065   6.950
 7206SOL    HW222518   1.800   4.034   6.896
 7207SOL     OW22519   1.985   1.254   3.459
 7207SOL    HW122520   1.970   1.325   3.528
 7207SOL    HW222521   1.949   1.285   3.371
 7208SOL     OW22522   3.758   0.820   4.097
 7208SOL    HW122523   3.820   0.799   4.021
 7208SOL    HW222524   3.664   0.828   4.062
 7209SOL     OW22525   3.241   1.144   1.700
 7209SOL    HW122526   3.166   1.160   1.765
 7209SOL    HW222527   3.288   1.059   1.723
 7210SOL     OW22528   3.230   1.308   3.467
 7210SOL    HW122529   3.309   1.307   3.528
 7210SOL    HW222530   3.208   1.402   3.442
 7211SOL     OW22531   4.344   6.438   5.545
 7211SOL    HW122532   4.300   6.361   5.592
 7211SOL    HW222533   4.335   6.520   5.601
 7212SOL     OW22534   0.595   5.216   5.424
 7212SOL    HW122535   0.602   5.116   5.425
 7212SOL    HW222536   0.538   5.247   5.500
 7213SOL     OW22537   3.996   2.181   0.027
 7213SOL    HW122538   4.052   2.216   6.969
 7213SOL    HW222539   4.055   2.161   0.105
 7214SOL     OW22540   6.216   6.889   6.285
 7214SOL    HW122541   6.235   6.922   6.192
 7214SOL    HW222542   6.126   6.844   6.286
 7215SOL     OW22543   6.510   1.220   2.542
 7215SOL    HW122544   6.508   1.320   2.531
 7215SOL    HW222545   6.505   1.177   2.452
 7216SOL     OW22546   4.324   0.005   2.902
 7216SOL    HW122547   4.342   6.966   2.822
 7216SOL    HW222548   4.226   0.025   2.908
 7217SOL     OW22549   1.019   2.508   3.031
 7217SOL    HW122550   1.011   2.422   2.981
 7217SOL    HW222551   1.077   2.571   2.981
 7218SOL     OW22552   6.267   2.721   4.675
 7218SOL    HW122553   6.215   2.636   4.686
 7218SOL    HW222554   6.359   2.701   4.642
 7219SOL     OW22555   2.940   6.113   2.942
 7219SOL    HW122556   2.879   6.157   2.876
 7219SOL    HW222557   2.949   6.172   3.023
 7220SOL     OW22558   6.245   4.364   3.699
 7220SOL    HW122559   6.340   4.360   3.730
 7220SOL    HW222560   6.235   4.440   3.634
 7221SOL     OW22561   3.863   5.575   3.710
 7221SOL    HW122562   3.805   5.656   3.700
 7221SOL    HW222563   3.926   5.570   3.632
 7222SOL     OW22564   6.822   6.070   4.072
 7222SOL    HW122565   6.889   6.000   4.098
 7222SOL    HW222566   6.858   6.123   3.995
 7223SOL     OW22567   0.247   4.320   1.306
 7223SOL    HW122568   0.315   4.390   1.326
 7223SOL    HW222569   0.292   4.235   1.280
 7224SOL     OW22570   4.365   2.203   2.535
 7224SOL    HW122571   4.352   2.105   2.528
 7224SOL    HW222572   4.302   2.250   2.474
 7225SOL     OW22573   1.711   5.753   0.610
 7225SOL    HW122574   1.796   5.770   0.560
 7225SOL    HW222575   1.689   5.656   0.606
 7226SOL     OW22576   6.878   6.389   0.284
 7226SOL    HW122577   6.907   6.382   0.189
 7226SOL    HW222578   6.958   6.382   0.344
 7227SOL     OW22579   1.978   1.410   2.477
 7227SOL    HW122580   1.924   1.447   2.553
 7227SOL    HW222581   2.067   1.380   2.511
 7228SOL     OW22582   6.365   3.344   2.225
 7228SOL    HW122583   6.309   3.325   2.144
 7228SOL    HW222584   6.426   3.421   2.207
 7229SOL     OW22585   6.283   1.282   5.158
 7229SOL    HW122586   6.271   1.309   5.062
 7229SOL    HW222587   6.271   1.183   5.166
 7230SOL     OW22588   2.174   4.914   4.721
 7230SOL    HW122589   2.209   4.820   4.717
 7230SOL    HW222590   2.085   4.918   4.676
 7231SOL     OW22591   4.301   2.779   5.933
 7231SOL    HW122592   4.352   2.787   5.847
 7231SOL    HW222593   4.362   2.801   6.010
 7232SOL     OW22594   4.738   6.317   3.558
 7232SOL    HW122595   4.743   6.396   3.620
 7232SOL    HW222596   4.721   6.350   3.465
 7233SOL     OW22597   0.280   1.417   5.102
 7233SOL    HW122598   0.194   1.467   5.107
 7233SOL    HW222599   0.267   1.325   5.139
 7234SOL     OW22600   5.174   4.340   3.528
 7234SOL    HW122601   5.137   4.248   3.515
 7234SOL    HW222602   5.267   4.334   3.563
 7235SOL     OW22603   6.185   6.199   1.459
 7235SOL    HW122604   6.246   6.148   1.519
 7235SOL    HW222605   6.097   6.213   1.505
 7236SOL     OW22606   1.496   3.731   2.685
 7236SOL    HW122607   1.513   3.772   2.775
 7236SOL    HW222608   1.437   3.791   2.632
 7237SOL     OW22609   5.676   1.201   0.417
 7237SOL    HW122610   5.710   1.128   0.477
 7237SOL    HW222611   5.719   1.288   0.443
 7238SOL     OW22612   4.024   3.664   0.097
 7238SOL    HW122613   4.077   3.741   0.060
 7238SOL    HW222614   3.957   3.698   0.164
 7239SOL     OW22615   6.165   2.234   2.455
 7239SOL    HW122616   6.200   2.318   2.413
 7239SOL    HW222617   6.241   2.186   2.500
 7240SOL     OW22618   6.930   1.452   0.503
 7240SOL    HW122619   7.007   1.515   0.501
 7240SOL    HW222620   6.845   1.504   0.513
 7241SOL     OW22621   2.122   0.684   2.393
 7241SOL    HW122622   2.076   0.718   2.310
 7241SOL    HW222623   2.064   0.700   2.472
 7242SOL     OW22624   0.056   4.480   4.715
 7242SOL    HW122625   6.996   4.513   4.663
 7242SOL    HW222626   0.081   4.389   4.684
 7243SOL     OW22627   5.782   4.793   6.342
 7243SOL    HW122628   5.792   4.699   6.375
 7243SOL    HW222629   5.727   4.793   6.259
 7244SOL     OW22630   0.044   6.024   0.179
 7244SOL    HW122631   0.105   6.097   0.150
 7244SOL    HW222632   0.035   6.025   0.279
 7245SOL     OW22633   1.015   3.333   0.632
 7245SOL    HW122634   1.066   3.414   0.661
 7245SOL    HW222635   0.975   3.349   0.542
 7246SOL     OW22636   4.445   6.547   3.038
 7246SOL    HW122637   4.358   6.516   2.999
 7246SOL    HW222638   4.435   6.563   3.136
 7247SOL     OW22639   3.229   3.740   4.697
 7247SOL    HW122640   3.277   3.819   4.735
 7247SOL    HW222641   3.153   3.771   4.640
 7248SOL     OW22642   2.902   1.703   5.564
 7248SOL    HW122643   2.947   1.732   5.480
 7248SOL    HW222644   2.965   1.648   5.619
 7249SOL     OW22645   4.220   5.218   2.480
 7249SOL    HW122646   4.232   5.313   2.452
 7249SOL    HW222647   4.158   5.214   2.558
 7250SOL     OW22648   5.607   5.058   4.975
 7250SOL    HW122649   5.653   5.145   4.995
 7250SOL    HW222650   5.674   4.984   4.979
 7251SOL     OW22651   0.256   6.069   5.527
 7251SOL    HW122652   0.279   6.061   5.430
 7251SOL    HW222653   0.203   5.989   5.555
 7252SOL     OW22654   3.568   4.138   2.187
 7252SOL    HW122655   3.564   4.238   2.181
 7252SOL    HW222656   3.647   4.111   2.242
 7253SOL     OW22657   2.593   5.349   4.752
 7253SOL    HW122658   2.546   5.263   4.735
 7253SOL    HW222659   2.585   5.372   4.849
 7254SOL     OW22660   5.873   3.090   4.365
 7254SOL    HW122661   5.889   3.178   4.410
 7254SOL    HW222662   5.891   3.015   4.429
 7255SOL     OW22663   4.899   3.817   6.796
 7255SOL    HW122664   4.910   3.720   6.815
 7255SOL    HW222665   4.925   3.870   6.877
 7256SOL     OW22666   3.255   6.922   4.882
 7256SOL    HW122667   3.155   6.925   4.878
 7256SOL    HW222668   3.294   6.963   4.800
 7257SOL     OW22669   0.726   1.500   4.606
 7257SOL    HW122670   0.758   1.536   4.694
 7257SOL    HW222671   0.726   1.400   4.609
 7258SOL     OW22672   5.483   2.976   2.481
 7258SOL    HW122673   5.461   2.959   2.385
 7258SOL    HW222674   5.579   2.951   2.498
 7259SOL     OW22675   1.395   4.287   2.576
 7259SOL    HW122676   1.375   4.220   2.504
 7259SOL    HW222677   1.493   4.306   2.577
 7260SOL     OW22678   5.683   3.237   0.738
 7260SOL    HW122679   5.644   3.330   0.737
 7260SOL    HW222680   5.721   3.218   0.828
 7261SOL     OW22681   6.529   4.330   0.175
 7261SOL    HW122682   6.466   4.274   0.121
 7261SOL    HW222683   6.478   4.405   0.218
 7262SOL     OW22684   5.759   1.106   4.944
 7262SOL    HW122685   5.726   1.105   5.038
 7262SOL    HW222686   5.850   1.148   4.941
 7263SOL     OW22687   0.026   5.831   7.013
 7263SOL    HW122688   0.042   5.890   0.074
 7263SOL    HW222689   6.950   5.842   6.981
 7264SOL     OW22690   5.915   1.437   0.525
 7264SOL    HW122691   5.931   1.509   0.592
 7264SOL    HW222692   5.999   1.386   0.510
 7265SOL     OW22693   3.693   6.998   5.546
 7265SOL    HW122694   3.745   6.914   5.528
 7265SOL    HW222695   3.644   6.988   5.633
 7266SOL     OW22696   0.285   0.851   3.653
 7266SOL    HW122697   0.189   0.853   3.682
 7266SOL    HW222698   0.308   0.760   3.620
 7267SOL     OW22699   6.625   4.523   4.872
 7267SOL    HW122700   6.596   4.437   4.913
 7267SOL    HW222701   6.632   4.511   4.773
 7268SOL     OW22702   6.086   6.813   4.515
 7268SOL    HW122703   6.169   6.762   4.491
 7268SOL    HW222704   6.041   6.845   4.432
 7269SOL     OW22705   2.728   4.668   4.759
 7269SOL    HW122706   2.791   4.649   4.834
 7269SOL    HW222707   2.779   4.676   4.673
 7270SOL     OW22708   0.764   1.213   4.690
 7270SOL    HW122709   0.668   1.188   4.700
 7270SOL    HW222710   0.797   1.182   4.600
 7271SOL     OW22711   0.809   4.711   2.918
 7271SOL    HW122712   0.755   4.710   3.002
 7271SOL    HW222713   0.797   4.625   2.869
 7272SOL     OW22714   6.490   4.407   1.687
 7272SOL    HW122715   6.459   4.436   1.597
 7272SOL    HW222716   6.505   4.487   1.745
 7273SOL     OW22717   0.833   2.443   5.334
 7273SOL    HW122718   0.764   2.430   5.406
 7273SOL    HW222719   0.922   2.458   5.377
 7274SOL     OW22720   0.609   4.541   6.959
 7274SOL    HW122721   0.686   4.599   6.983
 7274SOL    HW222722   0.524   4.581   6.993
 7275SOL     OW22723   0.482   6.741   3.327
 7275SOL    HW122724   0.496   6.817   3.390
 7275SOL    HW222725   0.471   6.777   3.234
 7276SOL     OW22726   5.656   6.767   4.456
 7276SOL    HW122727   5.716   6.766   4.535
 7276SOL    HW222728   5.634   6.673   4.429
 7277SOL     OW22729   4.854   0.417   6.667
 7277SOL    HW122730   4.784   0.395   6.736
 7277SOL    HW222731   4.828   0.500   6.619
 7278SOL     OW22732   3.618   2.880   2.191
 7278SOL    HW122733   3.570   2.968   2.190
 7278SOL    HW222734   3.628   2.846   2.098
 7279SOL     OW22735   3.422   6.381   5.980
 7279SOL    HW122736   3.447   6.427   6.065
 7279SOL    HW222737   3.482   6.301   5.967
 7280SOL     OW22738   4.719   1.247   5.906
 7280SOL    HW122739   4.812   1.215   5.890
 7280SOL    HW222740   4.654   1.179   5.872
 7281SOL     OW22741   4.776   1.345   6.159
 7281SOL    HW122742   4.875   1.358   6.156
 7281SOL    HW222743   4.745   1.309   6.071
 7282SOL     OW22744   5.760   5.295   2.327
 7282SOL    HW122745   5.767   5.209   2.276
 7282SOL    HW222746   5.809   5.286   2.414
 7283SOL     OW22747   1.949   0.802   3.933
 7283SOL    HW122748   1.961   0.764   3.841
 7283SOL    HW222749   2.033   0.791   3.985
 7284SOL     OW22750   0.321   2.946   4.821
 7284SOL    HW122751   0.227   2.977   4.838
 7284SOL    HW222752   0.379   2.972   4.898
 7285SOL     OW22753   5.481   5.326   2.286
 7285SOL    HW122754   5.437   5.358   2.370
 7285SOL    HW222755   5.580   5.332   2.297
 7286SOL     OW22756   2.346   3.687   1.382
 7286SOL    HW122757   2.424   3.742   1.353
 7286SOL    HW222758   2.264   3.720   1.335
 7287SOL     OW22759   5.947   1.614   6.545
 7287SOL    HW122760   5.907   1.606   6.454
 7287SOL    HW222761   5.935   1.708   6.578
 7288SOL     OW22762   3.171   6.248   6.938
 7288SOL    HW122763   3.077   6.264   6.911
 7288SOL    HW222764   3.174   6.207   0.011
 7289SOL     OW22765   4.996   1.711   3.716
 7289SOL    HW122766   5.063   1.646   3.680
 7289SOL    HW222767   5.038   1.767   3.787
 7290SOL     OW22768   2.891   4.977   3.885
 7290SOL    HW122769   2.969   5.000   3.944
 7290SOL    HW222770   2.858   5.060   3.840
 7291SOL     OW22771   2.787   5.325   2.327
 7291SOL    HW122772   2.729   5.294   2.251
 7291SOL    HW222773   2.731   5.340   2.408
 7292SOL     OW22774   2.479   6.838   4.647
 7292SOL    HW122775   2.406   6.770   4.643
 7292SOL    HW222776   2.499   6.872   4.555
 7293SOL     OW22777   1.350   2.310   5.498
 7293SOL    HW122778   1.397   2.390   5.534
 7293SOL    HW222779   1.261   2.300   5.542
 7294SOL     OW22780   3.445   5.571   0.393
 7294SOL    HW122781   3.400   5.508   0.329
 7294SOL    HW222782   3.488   5.645   0.341
 7295SOL     OW22783   5.714   0.195   1.431
 7295SOL    HW122784   5.735   0.179   1.528
 7295SOL    HW222785   5.765   0.129   1.375
 7296SOL     OW22786   4.192   4.905   2.066
 7296SOL    HW122787   4.264   4.885   2.132
 7296SOL    HW222788   4.181   5.004   2.057
 7297SOL     OW22789   5.294   0.126   1.781
 7297SOL    HW122790   5.224   0.145   1.712
 7297SOL    HW222791   5.250   0.085   1.862
 7298SOL     OW22792   6.161   3.604   4.160
 7298SOL    HW122793   6.073   3.599   4.113
 7298SOL    HW222794   6.215   3.523   4.135
 7299SOL     OW22795   6.080   3.655   6.469
 7299SOL    HW122796   6.160   3.641   6.527
 7299SOL    HW222797   6.108   3.685   6.378
 7300SOL     OW22798   4.477   4.947   1.162
 7300SOL    HW122799   4.402   4.937   1.226
 7300SOL    HW222800   4.545   5.010   1.199
 7301SOL     OW22801   6.915   0.677   6.405
 7301SOL    HW122802   6.882   0.649   6.495
 7301SOL    HW222803   6.868   0.625   6.334
 7302SOL     OW22804   5.065   1.001   6.266
 7302SOL    HW122805   4.969   0.992   6.293
 7302SOL    HW222806   5.121   1.018   6.348
 7303SOL     OW22807   3.828   1.139   0.299
 7303SOL    HW122808   3.790   1.118   0.389
 7303SOL    HW222809   3.769   1.205   0.253
 7304SOL     OW22810   3.449   4.211   5.397
 7304SOL    HW122811   3.535   4.241   5.354
 7304SOL    HW222812   3.449   4.112   5.407
 7305SOL     OW22813   5.321   1.282   0.120
 7305SOL    HW122814   5.262   1.204   0.101
 7305SOL    HW222815   5.288   1.361   0.068
 7306SOL     OW22816   4.769   4.714   1.597
 7306SOL    HW122817   4.850   4.745   1.646
 7306SOL    HW222818   4.796   4.682   1.506
 7307SOL     OW22819   4.089   6.713   2.532
 7307SOL    HW122820   4.114   6.773   2.608
 7307SOL    HW222821   4.073   6.767   2.450
 7308SOL     OW22822   6.415   1.445   4.667
 7308SOL    HW122823   6.402   1.537   4.704
 7308SOL    HW222824   6.330   1.413   4.626
 7309SOL     OW22825   4.765   5.950   1.518
 7309SOL    HW122826   4.858   5.917   1.501
 7309SOL    HW222827   4.769   6.040   1.563
 7310SOL     OW22828   2.857   5.167   1.409
 7310SOL    HW122829   2.793   5.104   1.365
 7310SOL    HW222830   2.882   5.131   1.499
 7311SOL     OW22831   2.830   2.094   1.925
 7311SOL    HW122832   2.859   2.151   2.002
 7311SOL    HW222833   2.744   2.129   1.888
 7312SOL     OW22834   6.800   1.808   6.030
 7312SOL    HW122835   6.722   1.765   6.076
 7312SOL    HW222836   6.829   1.752   5.953
 7313SOL     OW22837   4.291   3.105   6.521
 7313SOL    HW122838   4.224   3.048   6.568
 7313SOL    HW222839   4.272   3.106   6.423
 7314SOL     OW22840   0.277   3.215   4.331
 7314SOL    HW122841   0.232   3.304   4.346
 7314SOL    HW222842   0.297   3.173   4.419
 7315SOL     OW22843   6.954   0.507   4.803
 7315SOL    HW122844   6.885   0.552   4.746
 7315SOL    HW222845   6.923   0.502   4.897
 7316SOL     OW22846   3.425   3.922   5.335
 7316SOL    HW122847   3.337   3.889   5.300
 7316SOL    HW222848   3.494   3.851   5.326
 7317SOL     OW22849   3.323   1.029   3.885
 7317SOL    HW122850   3.239   1.056   3.839
 7317SOL    HW222851   3.398   1.031   3.819
 7318SOL     OW22852   1.901   1.912   1.617
 7318SOL    HW122853   2.001   1.912   1.615
 7318SOL    HW222854   1.867   1.826   1.579
 7319SOL     OW22855   6.419   4.690   6.288
 7319SOL    HW122856   6.424   4.591   6.302
 7319SOL    HW222857   6.499   4.721   6.238
 7320SOL     OW22858   6.926   2.820   1.887
 7320SOL    HW122859   6.941   2.797   1.983
 7320SOL    HW222860   6.891   2.740   1.838
 7321SOL     OW22861   3.243   1.121   4.820
 7321SOL    HW122862   3.280   1.028   4.822
 7321SOL    HW222863   3.275   1.168   4.737
 7322SOL     OW22864   0.295   3.728   2.782
 7322SOL    HW122865   0.237   3.799   2.822
 7322SOL    HW222866   0.312   3.656   2.850
 7323SOL     OW22867   2.154   3.309   3.133
 7323SOL    HW122868   2.060   3.342   3.141
 7323SOL    HW222869   2.217   3.386   3.141
 7324SOL     OW22870   5.542   6.365   3.121
 7324SOL    HW122871   5.537   6.271   3.085
 7324SOL    HW222872   5.493   6.426   3.059
 7325SOL     OW22873   2.593   6.248   6.852
 7325SOL    HW122874   2.584   6.193   6.935
 7325SOL    HW222875   2.653   6.326   6.870
 7326SOL     OW22876   2.718   6.540   5.750
 7326SOL    HW122877   2.786   6.484   5.798
 7326SOL    HW222878   2.657   6.481   5.698
 7327SOL     OW22879   1.285   2.771   5.692
 7327SOL    HW122880   1.322   2.823   5.769
 7327SOL    HW222881   1.233   2.832   5.632
 7328SOL     OW22882   2.939   0.394   0.085
 7328SOL    HW122883   2.865   0.346   0.133
 7328SOL    HW222884   2.985   0.330   0.024
 7329SOL     OW22885   4.431   3.146   1.362
 7329SOL    HW122886   4.379   3.061   1.349
 7329SOL    HW222887   4.400   3.215   1.296
 7330SOL     OW22888   3.990   1.645   0.201
 7330SOL    HW122889   3.978   1.725   0.142
 7330SOL    HW222890   3.959   1.668   0.294
 7331SOL     OW22891   5.294   0.668   1.172
 7331SOL    HW122892   5.379   0.624   1.143
 7331SOL    HW222893   5.312   0.765   1.190
 7332SOL     OW22894   3.692   5.408   1.387
 7332SOL    HW122895   3.598   5.382   1.363
 7332SOL    HW222896   3.692   5.494   1.437
 7333SOL     OW22897   1.085   5.068   2.782
 7333SOL    HW122898   1.042   5.148   2.740
 7333SOL    HW222899   1.174   5.095   2.819
 7334SOL     OW22900   3.895   6.739   4.035
 7334SOL    HW122901   3.797   6.728   4.053
 7334SOL    HW222902   3.931   6.655   3.995
 7335SOL     OW22903   1.863   2.453   2.914
 7335SOL    HW122904   1.841   2.548   2.935
 7335SOL    HW222905   1.885   2.404   2.999
 7336SOL     OW22906   1.978   6.818   3.504
 7336SOL    HW122907   1.997   6.916   3.498
 7336SOL    HW222908   2.060   6.770   3.534
 7337SOL     OW22909   5.746   2.882   2.503
 7337SOL    HW122910   5.736   2.800   2.559
 7337SOL    HW222911   5.805   2.863   2.425
 7338SOL     OW22912   6.341   3.054   0.115
 7338SOL    HW122913   6.383   2.964   0.127
 7338SOL    HW222914   6.366   3.113   0.191
 7339SOL     OW22915   0.247   5.266   4.817
 7339SOL    HW122916   0.337   5.223   4.828
 7339SOL    HW222917   0.185   5.232   4.888
 7340SOL     OW22918   1.856   0.097   6.436
 7340SOL    HW122919   1.888   0.142   6.519
 7340SOL    HW222920   1.825   0.166   6.370
 7341SOL     OW22921   6.661   2.625   0.246
 7341SOL    HW122922   6.643   2.550   0.309
 7341SOL    HW222923   6.754   2.616   0.209
 7342SOL     OW22924   6.693   6.877   2.389
 7342SOL    HW122925   6.687   6.951   2.455
 7342SOL    HW222926   6.679   6.912   2.296
 7343SOL     OW22927   5.237   2.921   0.650
 7343SOL    HW122928   5.161   2.976   0.615
 7343SOL    HW222929   5.204   2.862   0.724
 7344SOL     OW22930   1.458   6.441   5.896
 7344SOL    HW122931   1.415   6.528   5.918
 7344SOL    HW222932   1.530   6.456   5.828
 7345SOL     OW22933   3.228   5.067   6.262
 7345SOL    HW122934   3.287   5.048   6.341
 7345SOL    HW222935   3.209   4.982   6.213
 7346SOL     OW22936   4.649   4.880   2.698
 7346SOL    HW122937   4.644   4.853   2.601
 7346SOL    HW222938   4.744   4.899   2.722
 7347SOL     OW22939   6.017   2.240   6.308
 7347SOL    HW122940   6.032   2.210   6.214
 7347SOL    HW222941   6.098   2.219   6.363
 7348SOL     OW22942   7.010   4.174   1.319
 7348SOL    HW122943   6.998   4.081   1.353
 7348SOL    HW222944   0.076   4.212   1.358
 7349SOL     OW22945   4.015   1.779   2.166
 7349SOL    HW122946   4.006   1.842   2.090
 7349SOL    HW222947   4.112   1.755   2.178
 7350SOL     OW22948   3.489   0.600   4.391
 7350SOL    HW122949   3.452   0.582   4.300
 7350SOL    HW222950   3.475   0.697   4.414
 7351SOL     OW22951   3.267   4.925   4.068
 7351SOL    HW122952   3.360   4.898   4.093
 7351SOL    HW222953   3.264   4.948   3.971
 7352SOL     OW22954   6.601   2.538   3.881
 7352SOL    HW122955   6.586   2.439   3.886
 7352SOL    HW222956   6.615   2.565   3.785
 7353SOL     OW22957   6.035   0.239   6.433
 7353SOL    HW122958   6.066   0.189   6.353
 7353SOL    HW222959   6.105   0.304   6.461
 7354SOL     OW22960   0.252   1.708   2.881
 7354SOL    HW122961   0.154   1.699   2.865
 7354SOL    HW222962   0.285   1.792   2.838
 7355SOL     OW22963   2.592   1.916   0.115
 7355SOL    HW122964   2.619   1.819   0.121
 7355SOL    HW222965   2.497   1.925   0.144
 7356SOL     OW22966   4.304   3.918   5.997
 7356SOL    HW122967   4.345   3.830   5.974
 7356SOL    HW222968   4.210   3.920   5.964
 7357SOL     OW22969   5.076   5.864   2.526
 7357SOL    HW122970   5.107   5.924   2.452
 7357SOL    HW222971   4.983   5.832   2.507
 7358SOL     OW22972   5.902   1.175   3.287
 7358SOL    HW122973   5.949   1.254   3.325
 7358SOL    HW222974   5.819   1.157   3.339
 7359SOL     OW22975   4.771   0.138   1.254
 7359SOL    HW122976   4.727   0.222   1.223
 7359SOL    HW222977   4.853   0.161   1.306
 7360SOL     OW22978   3.031   3.483   5.085
 7360SOL    HW122979   3.017   3.384   5.090
 7360SOL    HW222980   3.088   3.506   5.006
 7361SOL     OW22981   5.934   0.547   3.346
 7361SOL    HW122982   6.007   0.583   3.288
 7361SOL    HW222983   5.897   0.463   3.305
 7362SOL     OW22984   3.153   4.882   6.886
 7362SOL    HW122985   3.234   4.845   6.933
 7362SOL    HW222986   3.164   4.872   6.787
 7363SOL     OW22987   3.655   0.806   0.556
 7363SOL    HW122988   3.726   0.838   0.619
 7363SOL    HW222989   3.566   0.819   0.598
 7364SOL     OW22990   5.558   6.721   1.408
 7364SOL    HW122991   5.619   6.771   1.469
 7364SOL    HW222992   5.611   6.680   1.333
 7365SOL     OW22993   5.378   4.950   2.601
 7365SOL    HW122994   5.475   4.937   2.581
 7365SOL    HW222995   5.365   4.959   2.700
 7366SOL     OW22996   1.854   0.242   4.059
 7366SOL    HW122997   1.821   0.307   4.128
 7366SOL    HW222998   1.920   0.180   4.100
 7367SOL     OW22999   3.977   0.398   6.719
 7367SOL    HW123000   3.889   0.356   6.744
 7367SOL    HW223001   4.032   0.411   6.801
 7368SOL     OW23002   3.774   3.734   3.501
 7368SOL    HW123003   3.848   3.799   3.483
 7368SOL    HW223004   3.742   3.746   3.595
 7369SOL     OW23005   5.136   2.002   0.362
 7369SOL    HW123006   5.054   1.998   0.305
 7369SOL    HW223007   5.116   1.966   0.453
 7370SOL     OW23008   1.707   1.128   4.532
 7370SOL    HW123009   1.652   1.045   4.538
 7370SOL    HW223010   1.683   1.190   4.606
 7371SOL     OW23011   3.712   0.961   3.782
 7371SOL    HW123012   3.732   1.054   3.812
 7371SOL    HW223013   3.787   0.927   3.726
 7372SOL     OW23014   5.818   1.153   5.587
 7372SOL    HW123015   5.725   1.138   5.622
 7372SOL    HW223016   5.840   1.251   5.593
 7373SOL     OW23017   5.868   3.616   4.514
 7373SOL    HW123018   5.889   3.669   4.432
 7373SOL    HW223019   5.775   3.638   4.545
 7374SOL     OW23020   6.532   2.602   5.144
 7374SOL    HW123021   6.502   2.524   5.199
 7374SOL    HW223022   6.479   2.683   5.170
 7375SOL     OW23023   1.489   3.516   2.121
 7375SOL    HW123024   1.492   3.416   2.120
 7375SOL    HW223025   1.557   3.550   2.186
 7376SOL     OW23026   6.659   3.704   0.374
 7376SOL    HW123027   6.605   3.679   0.455
 7376SOL    HW223028   6.734   3.764   0.401
 7377SOL     OW23029   2.211   6.264   1.257
 7377SOL    HW123030   2.267   6.230   1.182
 7377SOL    HW223031   2.169   6.350   1.231
 7378SOL     OW23032   1.208   5.526   4.508
 7378SOL    HW123033   1.146   5.455   4.474
 7378SOL    HW223034   1.164   5.575   4.583
 7379SOL     OW23035   3.722   1.002   1.533
 7379SOL    HW123036   3.642   0.986   1.475
 7379SOL    HW223037   3.787   1.059   1.484
 7380SOL     OW23038   5.072   4.062   1.883
 7380SOL    HW123039   4.991   4.090   1.832
 7380SOL    HW223040   5.054   3.975   1.929
 7381SOL     OW23041   3.625   0.486   1.329
 7381SOL    HW123042   3.599   0.446   1.417
 7381SOL    HW223043   3.725   0.486   1.321
 7382SOL     OW23044   6.238   1.023   6.280
 7382SOL    HW123045   6.319   0.965   6.282
 7382SOL    HW223046   6.215   1.053   6.373
 7383SOL     OW23047   2.205   0.298   0.764
 7383SOL    HW123048   2.298   0.261   0.767
 7383SOL    HW223049   2.207   0.395   0.786
 7384SOL     OW23050   6.888   6.684   1.123
 7384SOL    HW123051   6.816   6.615   1.107
 7384SOL    HW223052   6.967   6.640   1.166
 7385SOL     OW23053   6.074   4.022   2.871
 7385SOL    HW123054   6.005   4.065   2.931
 7385SOL    HW223055   6.164   4.059   2.894
 7386SOL     OW23056   5.360   3.270   6.926
 7386SOL    HW123057   5.403   3.331   6.992
 7386SOL    HW223058   5.428   3.204   6.893
 7387SOL     OW23059   6.624   5.782   5.275
 7387SOL    HW123060   6.571   5.861   5.307
 7387SOL    HW223061   6.564   5.719   5.226
 7388SOL     OW23062   2.111   4.636   3.454
 7388SOL    HW123063   2.020   4.601   3.429
 7388SOL    HW223064   2.116   4.649   3.553
 7389SOL     OW23065   5.890   2.495   0.180
 7389SOL    HW123066   5.910   2.588   0.211
 7389SOL    HW223067   5.975   2.449   0.154
 7390SOL     OW23068   2.197   2.759   3.359
 7390SOL    HW123069   2.150   2.834   3.405
 7390SOL    HW223070   2.295   2.762   3.381
 7391SOL     OW23071   3.279   3.587   2.921
 7391SOL    HW123072   3.290   3.685   2.901
 7391SOL    HW223073   3.369   3.545   2.929
 7392SOL     OW23074   3.168   6.533   6.866
 7392SOL    HW123075   3.145   6.445   6.907
 7392SOL    HW223076   3.116   6.544   6.780
 7393SOL     OW23077   5.708   5.017   4.030
 7393SOL    HW123078   5.707   5.093   4.095
 7393SOL    HW223079   5.641   4.948   4.057
 7394SOL     OW23080   2.714   2.065   5.911
 7394SOL    HW123081   2.785   2.037   5.977
 7394SOL    HW223082   2.659   1.986   5.886
 7395SOL     OW23083   2.345   6.142   1.050
 7395SOL    HW123084   2.444   6.151   1.057
 7395SOL    HW223085   2.322   6.050   1.018
 7396SOL     OW23086   2.416   5.048   2.269
 7396SOL    HW123087   2.504   5.008   2.295
 7396SOL    HW223088   2.401   5.132   2.321
 7397SOL     OW23089   6.006   4.073   3.988
 7397SOL    HW123090   6.072   4.002   3.967
 7397SOL    HW223091   5.992   4.131   3.908
 7398SOL     OW23092   2.801   4.802   2.379
 7398SOL    HW123093   2.782   4.728   2.443
 7398SOL    HW223094   2.893   4.838   2.395
 7399SOL     OW23095   5.239   1.849   6.202
 7399SOL    HW123096   5.322   1.867   6.148
 7399SOL    HW223097   5.210   1.755   6.186
 7400SOL     OW23098   5.323   3.200   5.710
 7400SOL    HW123099   5.223   3.202   5.715
 7400SOL    HW223100   5.355   3.106   5.720
 7401SOL     OW23101   1.480   2.752   3.989
 7401SOL    HW123102   1.568   2.790   3.960
 7401SOL    HW223103   1.409   2.821   3.975
 7402SOL     OW23104   3.731   5.681   4.425
 7402SOL    HW123105   3.631   5.683   4.415
 7402SOL    HW223106   3.773   5.687   4.335
 7403SOL     OW23107   1.485   3.975   4.473
 7403SOL    HW123108   1.443   3.972   4.382
 7403SOL    HW223109   1.579   4.008   4.466
 7404SOL     OW23110   3.492   3.623   1.047
 7404SOL    HW123111   3.484   3.669   1.136
 7404SOL    HW223112   3.472   3.526   1.058
 7405SOL     OW23113   3.676   6.813   3.738
 7405SOL    HW123114   3.770   6.779   3.741
 7405SOL    HW223115   3.668   6.885   3.669
 7406SOL     OW23116   1.098   1.757   5.141
 7406SOL    HW123117   1.115   1.704   5.058
 7406SOL    HW223118   1.017   1.721   5.187
 7407SOL     OW23119   0.835   5.790   5.449
 7407SOL    HW123120   0.829   5.795   5.349
 7407SOL    HW223121   0.744   5.773   5.487
 7408SOL     OW23122   4.204   5.040   5.234
 7408SOL    HW123123   4.153   5.114   5.190
 7408SOL    HW223124   4.186   4.954   5.187
 7409SOL     OW23125   6.843   3.824   1.198
 7409SOL    HW123126   6.771   3.765   1.235
 7409SOL    HW223127   6.922   3.767   1.172
 7410SOL     OW23128   0.084   0.752   1.271
 7410SOL    HW123129   0.075   0.668   1.217
 7410SOL    HW223130   0.163   0.804   1.239
 7411SOL     OW23131   2.296   2.055   5.109
 7411SOL    HW123132   2.364   2.016   5.048
 7411SOL    HW223133   2.248   1.982   5.158
 7412SOL     OW23134   3.675   6.885   0.392
 7412SOL    HW123135   3.763   6.906   0.434
 7412SOL    HW223136   3.676   6.916   0.296
 7413SOL     OW23137   4.959   0.130   2.947
 7413SOL    HW123138   5.007   0.065   2.889
 7413SOL    HW223139   4.903   0.190   2.890
 7414SOL     OW23140   3.354   1.279   4.120
 7414SOL    HW123141   3.310   1.337   4.188
 7414SOL    HW223142   3.388   1.337   4.045
 7415SOL     OW23143   3.790   6.741   6.368
 7415SOL    HW123144   3.711   6.802   6.378
 7415SOL    HW223145   3.872   6.788   6.399
 7416SOL     OW23146   1.587   0.845   2.001
 7416SOL    HW123147   1.647   0.924   1.986
 7416SOL    HW223148   1.544   0.819   1.915
 7417SOL     OW23149   0.264   1.063   2.852
 7417SOL    HW123150   0.226   1.104   2.769
 7417SOL    HW223151   0.287   1.136   2.917
 7418SOL     OW23152   1.384   4.301   5.787
 7418SOL    HW123153   1.466   4.332   5.739
 7418SOL    HW223154   1.401   4.303   5.886
 7419SOL     OW23155   6.970   4.191   4.043
 7419SOL    HW123156   6.924   4.103   4.030
 7419SOL    HW223157   6.925   4.260   3.986
 7420SOL     OW23158   0.209   6.924   1.749
 7420SOL    HW123159   0.223   6.924   1.848
 7420SOL    HW223160   0.132   6.864   1.727
 7421SOL     OW23161   5.765   3.794   1.107
 7421SOL    HW123162   5.680   3.842   1.083
 7421SOL    HW223163   5.801   3.747   1.026
 7422SOL     OW23164   5.376   2.687   2.500
 7422SOL    HW123165   5.427   2.773   2.502
 7422SOL    HW223166   5.431   2.615   2.542
 7423SOL     OW23167   4.978   1.878   5.783
 7423SOL    HW123168   4.884   1.898   5.754
 7423SOL    HW223169   5.015   1.957   5.832
 7424SOL     OW23170   0.100   2.240   3.459
 7424SOL    HW123171   0.094   2.159   3.517
 7424SOL    HW223172   0.010   2.257   3.417
 7425SOL     OW23173   5.806   0.770   1.047
 7425SOL    HW123174   5.804   0.744   1.144
 7425SOL    HW223175   5.829   0.867   1.039
 7426SOL     OW23176   3.986   3.123   5.820
 7426SOL    HW123177   3.945   3.154   5.735
 7426SOL    HW223178   4.077   3.163   5.829
 7427SOL     OW23179   3.359   0.987   3.299
 7427SOL    HW123180   3.353   1.069   3.356
 7427SOL    HW223181   3.454   0.972   3.272
 7428SOL     OW23182   3.932   6.072   4.878
 7428SOL    HW123183   4.005   6.047   4.941
 7428SOL    HW223184   3.926   6.004   4.805
 7429SOL     OW23185   0.946   0.039   2.828
 7429SOL    HW123186   0.925   0.126   2.785
 7429SOL    HW223187   0.950   0.051   2.927
 7430SOL     OW23188   6.584   5.346   2.630
 7430SOL    HW123189   6.660   5.342   2.565
 7430SOL    HW223190   6.498   5.353   2.580
 7431SOL     OW23191   1.543   1.583   3.221
 7431SOL    HW123192   1.568   1.545   3.310
 7431SOL    HW223193   1.597   1.666   3.204
 7432SOL     OW23194   2.442   1.128   3.440
 7432SOL    HW123195   2.502   1.082   3.375
 7432SOL    HW223196   2.370   1.176   3.391
 7433SOL     OW23197   2.801   6.919   6.519
 7433SOL    HW123198   2.778   7.005   6.564
 7433SOL    HW223199   2.739   6.905   6.442
 7434SOL     OW23200   3.623   6.659   4.045
 7434SOL    HW123201   3.682   6.628   3.971
 7434SOL    HW223202   3.542   6.705   4.007
 7435SOL     OW23203   5.259   4.264   2.945
 7435SOL    HW123204   5.255   4.233   2.850
 7435SOL    HW223205   5.182   4.226   2.996
 7436SOL     OW23206   5.466   2.996   6.110
 7436SOL    HW123207   5.542   3.030   6.165
 7436SOL    HW223208   5.380   3.011   6.159
 7437SOL     OW23209   3.186   0.577   0.678
 7437SOL    HW123210   3.242   0.583   0.761
 7437SOL    HW223211   3.097   0.536   0.702
 7438SOL     OW23212   2.031   0.575   0.032
 7438SOL    HW123213   1.980   0.490   0.020
 7438SOL    HW223214   2.129   0.554   0.039
 7439SOL     OW23215   1.249   4.668   6.615
 7439SOL    HW123216   1.154   4.658   6.646
 7439SOL    HW223217   1.257   4.749   6.557
 7440SOL     OW23218   5.880   3.629   4.039
 7440SOL    HW123219   5.864   3.532   4.056
 7440SOL    HW223220   5.869   3.649   3.942
 7441SOL     OW23221   5.697   5.572   0.496
 7441SOL    HW123222   5.631   5.524   0.438
 7441SOL    HW223223   5.677   5.554   0.592
 7442SOL     OW23224   5.501   0.908   5.586
 7442SOL    HW123225   5.546   0.988   5.625
 7442SOL    HW223226   5.424   0.881   5.643
 7443SOL     OW23227   0.774   1.224   2.265
 7443SOL    HW123228   0.828   1.200   2.184
 7443SOL    HW223229   0.763   1.323   2.269
 7444SOL     OW23230   1.454   6.399   0.111
 7444SOL    HW123231   1.518   6.393   0.188
 7444SOL    HW223232   1.444   6.495   0.084
 7445SOL     OW23233   3.401   5.862   1.556
 7445SOL    HW123234   3.349   5.788   1.513
 7445SOL    HW223235   3.402   5.942   1.495
 7446SOL     OW23236   5.252   4.644   6.961
 7446SOL    HW123237   5.198   4.597   0.013
 7446SOL    HW223238   5.236   4.600   6.872
 7447SOL     OW23239   0.238   4.413   0.357
 7447SOL    HW123240   0.250   4.393   0.454
 7447SOL    HW223241   0.325   4.399   0.309
 7448SOL     OW23242   4.611   5.914   6.756
 7448SOL    HW123243   4.640   5.856   6.680
 7448SOL    HW223244   4.592   6.007   6.722
 7449SOL     OW23245   6.657   4.642   5.887
 7449SOL    HW123246   6.648   4.736   5.922
 7449SOL    HW223247   6.581   4.622   5.825
 7450SOL     OW23248   5.545   2.104   5.446
 7450SOL    HW123249   5.526   2.046   5.525
 7450SOL    HW223250   5.639   2.091   5.416
 7451SOL     OW23251   4.780   4.367   3.366
 7451SOL    HW123252   4.794   4.277   3.327
 7451SOL    HW223253   4.684   4.378   3.391
 7452SOL     OW23254   6.311   5.634   5.875
 7452SOL    HW123255   6.219   5.596   5.887
 7452SOL    HW223256   6.356   5.589   5.798
 7453SOL     OW23257   3.787   5.803   5.884
 7453SOL    HW123258   3.875   5.760   5.906
 7453SOL    HW223259   3.787   5.897   5.917
 7454SOL     OW23260   4.133   2.283   1.158
 7454SOL    HW123261   4.205   2.331   1.107
 7454SOL    HW223262   4.174   2.208   1.210
 7455SOL     OW23263   6.408   1.851   2.823
 7455SOL    HW123264   6.448   1.939   2.797
 7455SOL    HW223265   6.373   1.805   2.741
 7456SOL     OW23266   2.584   2.156   6.522
 7456SOL    HW123267   2.485   2.168   6.510
 7456SOL    HW223268   2.601   2.064   6.558
 7457SOL     OW23269   1.798   1.041   2.222
 7457SOL    HW123270   1.724   1.011   2.283
 7457SOL    HW223271   1.759   1.087   2.142
 7458SOL     OW23272   1.879   5.467   5.347
 7458SOL    HW123273   1.955   5.500   5.291
 7458SOL    HW223274   1.827   5.399   5.296
 7459SOL     OW23275   5.689   0.354   2.519
 7459SOL    HW123276   5.649   0.309   2.599
 7459SOL    HW223277   5.787   0.369   2.534
 7460SOL     OW23278   1.918   6.383   1.342
 7460SOL    HW123279   1.893   6.297   1.387
 7460SOL    HW223280   1.870   6.459   1.385
 7461SOL     OW23281   2.298   4.429   5.352
 7461SOL    HW123282   2.242   4.407   5.433
 7461SOL    HW223283   2.369   4.360   5.341
 7462SOL     OW23284   1.424   3.971   0.681
 7462SOL    HW123285   1.383   3.937   0.596
 7462SOL    HW223286   1.507   4.022   0.659
 7463SOL     OW23287   4.215   4.889   1.289
 7463SOL    HW123288   4.131   4.933   1.255
 7463SOL    HW223289   4.203   4.863   1.384
 7464SOL     OW23290   5.857   6.621   5.621
 7464SOL    HW123291   5.808   6.579   5.544
 7464SOL    HW223292   5.791   6.659   5.686
 7465SOL     OW23293   1.899   4.480   6.855
 7465SOL    HW123294   1.841   4.441   6.926
 7465SOL    HW223295   1.878   4.577   6.843
 7466SOL     OW23296   0.511   0.508   5.350
 7466SOL    HW123297   0.536   0.542   5.259
 7466SOL    HW223298   0.411   0.505   5.357
 7467SOL     OW23299   1.113   3.739   4.905
 7467SOL    HW123300   1.150   3.658   4.860
 7467SOL    HW223301   1.093   3.718   5.000
 7468SOL     OW23302   5.893   3.065   5.700
 7468SOL    HW123303   5.881   3.157   5.736
 7468SOL    HW223304   5.811   3.011   5.718
 7469SOL     OW23305   0.434   1.810   0.638
 7469SOL    HW123306   0.456   1.810   0.736
 7469SOL    HW223307   0.401   1.901   0.612
 7470SOL     OW23308   5.745   2.569   3.444
 7470SOL    HW123309   5.707   2.477   3.453
 7470SOL    HW223310   5.777   2.600   3.533
 7471SOL     OW23311   4.000   6.223   6.342
 7471SOL    HW123312   3.976   6.163   6.419
 7471SOL    HW223313   4.062   6.175   6.281
 7472SOL     OW23314   6.492   0.061   6.197
 7472SOL    HW123315   6.454   0.149   6.224
 7472SOL    HW223316   6.545   0.022   6.272
 7473SOL     OW23317   3.280   5.908   3.818
 7473SOL    HW123318   3.260   5.818   3.857
 7473SOL    HW223319   3.378   5.923   3.817
 7474SOL     OW23320   5.989   2.042   6.868
 7474SOL    HW123321   6.083   2.010   6.864
 7474SOL    HW223322   5.954   2.031   6.961
 7475SOL     OW23323   5.065   1.984   1.003
 7475SOL    HW123324   5.096   2.011   0.911
 7475SOL    HW223325   4.994   2.047   1.034
 7476SOL     OW23326   2.241   0.316   3.520
 7476SOL    HW123327   2.291   0.281   3.599
 7476SOL    HW223328   2.174   0.248   3.490
 7477SOL     OW23329   1.374   3.154   5.539
 7477SOL    HW123330   1.387   3.244   5.498
 7477SOL    HW223331   1.421   3.085   5.484
 7478SOL     OW23332   0.245   1.361   5.540
 7478SOL    HW123333   0.301   1.415   5.602
 7478SOL    HW223334   0.303   1.300   5.486
 7479SOL     OW23335   5.342   2.651   1.011
 7479SOL    HW123336   5.402   2.729   1.029
 7479SOL    HW223337   5.248   2.675   1.034
 7480SOL     OW23338   3.654   4.891   2.449
 7480SOL    HW123339   3.734   4.865   2.503
 7480SOL    HW223340   3.682   4.915   2.357
 7481SOL     OW23341   0.280   3.764   6.883
 7481SOL    HW123342   0.210   3.832   6.901
 7481SOL    HW223343   0.336   3.794   6.805
 7482SOL     OW23344   5.222   2.064   2.905
 7482SOL    HW123345   5.127   2.037   2.916
 7482SOL    HW223346   5.257   2.099   2.992
 7483SOL     OW23347   4.736   1.973   5.703
 7483SOL    HW123348   4.666   1.926   5.650
 7483SOL    HW223349   4.693   2.023   5.779
 7484SOL     OW23350   2.977   0.168   4.009
 7484SOL    HW123351   3.015   0.101   4.073
 7484SOL    HW223352   2.922   0.235   4.059
 7485SOL     OW23353   3.677   6.483   6.366
 7485SOL    HW123354   3.688   6.425   6.446
 7485SOL    HW223355   3.731   6.567   6.377
 7486SOL     OW23356   2.601   6.332   0.869
 7486SOL    HW123357   2.681   6.387   0.892
 7486SOL    HW223358   2.518   6.387   0.883
 7487SOL     OW23359   3.640   6.515   4.665
 7487SOL    HW123360   3.675   6.426   4.635
 7487SOL    HW223361   3.696   6.588   4.626
 7488SOL     OW23362   0.655   5.543   4.181
 7488SOL    HW123363   0.625   5.480   4.110
 7488SOL    HW223364   0.604   5.629   4.172
 7489SOL     OW23365   5.361   3.282   6.465
 7489SOL    HW123366   5.392   3.200   6.513
 7489SOL    HW223367   5.381   3.273   6.367
 7490SOL     OW23368   1.156   2.736   2.496
 7490SOL    HW123369   1.131   2.649   2.539
 7490SOL    HW223370   1.227   2.781   2.550
 7491SOL     OW23371   4.187   3.935   6.985
 7491SOL    HW123372   4.162   3.914   6.890
 7491SOL    HW223373   4.286   3.946   6.992
 7492SOL     OW23374   1.561   0.273   4.187
 7492SOL    HW123375   1.541   0.196   4.247
 7492SOL    HW223376   1.643   0.320   4.218
 7493SOL     OW23377   6.586   4.408   5.152
 7493SOL    HW123378   6.641   4.345   5.098
 7493SOL    HW223379   6.620   4.501   5.139
 7494SOL     OW23380   6.606   1.350   1.998
 7494SOL    HW123381   6.536   1.286   1.965
 7494SOL    HW223382   6.606   1.431   1.940
 7495SOL     OW23383   1.542   3.077   4.932
 7495SOL    HW123384   1.593   3.020   4.867
 7495SOL    HW223385   1.455   3.104   4.892
 7496SOL     OW23386   5.859   3.788   2.516
 7496SOL    HW123387   5.854   3.689   2.521
 7496SOL    HW223388   5.777   3.824   2.470
 7497SOL     OW23389   6.783   6.805   1.504
 7497SOL    HW123390   6.728   6.748   1.564
 7497SOL    HW223391   6.849   6.857   1.558
 7498SOL     OW23392   2.874   6.351   3.125
 7498SOL    HW123393   2.927   6.387   3.202
 7498SOL    HW223394   2.829   6.427   3.077
 7499SOL     OW23395   2.789   1.484   4.006
 7499SOL    HW123396   2.708   1.438   3.969
 7499SOL    HW223397   2.867   1.422   3.999
 7500SOL     OW23398   4.182   0.842   3.165
 7500SOL    HW123399   4.181   0.865   3.263
 7500SOL    HW223400   4.276   0.825   3.136
 7501SOL     OW23401   6.676   2.552   5.411
 7501SOL    HW123402   6.739   2.508   5.475
 7501SOL    HW223403   6.714   2.639   5.381
 7502SOL     OW23404   4.505   0.618   4.161
 7502SOL    HW123405   4.442   0.570   4.101
 7502SOL    HW223406   4.591   0.566   4.166
 7503SOL     OW23407   2.113   5.584   2.223
 7503SOL    HW123408   2.126   5.678   2.191
 7503SOL    HW223409   2.142   5.577   2.318
 7504SOL     OW23410   6.012   6.256   5.014
 7504SOL    HW123411   6.077   6.278   4.942
 7504SOL    HW223412   5.959   6.175   4.988
 7505SOL     OW23413   6.995   6.685   4.955
 7505SOL    HW123414   6.995   6.775   4.912
 7505SOL    HW223415   0.070   6.659   4.979
 7506SOL     OW23416   3.821   1.708   3.773
 7506SOL    HW123417   3.920   1.700   3.781
 7506SOL    HW223418   3.796   1.715   3.677
 7507SOL     OW23419   5.839   4.648   5.716
 7507SOL    HW123420   5.755   4.702   5.723
 7507SOL    HW223421   5.918   4.708   5.727
 7508SOL     OW23422   2.659   5.788   7.012
 7508SOL    HW123423   2.716   5.720   0.041
 7508SOL    HW223424   2.636   5.754   6.921
 7509SOL     OW23425   6.050   4.811   2.231
 7509SOL    HW123426   6.092   4.773   2.148
 7509SOL    HW223427   6.106   4.887   2.264
 7510SOL     OW23428   3.047   3.938   2.407
 7510SOL    HW123429   2.989   3.968   2.331
 7510SOL    HW223430   3.116   3.874   2.374
 7511SOL     OW23431   4.863   6.622   4.354
 7511SOL    HW123432   4.775   6.668   4.368
 7511SOL    HW223433   4.934   6.691   4.341
 7512SOL     OW23434   3.756   1.115   0.580
 7512SOL    HW123435   3.662   1.098   0.550
 7512SOL    HW223436   3.770   1.073   0.670
 7513SOL     OW23437   1.687   2.006   2.153
 7513SOL    HW123438   1.727   1.919   2.125
 7513SOL    HW223439   1.760   2.068   2.181
 7514SOL     OW23440   1.497   6.158   1.806
 7514SOL    HW123441   1.572   6.136   1.744
 7514SOL    HW223442   1.471   6.254   1.795
 7515SOL     OW23443   0.757   4.695   5.071
 7515SOL    HW123444   0.680   4.711   5.009
 7515SOL    HW223445   0.841   4.728   5.028
 7516SOL     OW23446   1.805   6.544   5.289
 7516SOL    HW123447   1.789   6.447   5.306
 7516SOL    HW223448   1.863   6.582   5.361
 7517SOL     OW23449   1.378   1.713   5.966
 7517SOL    HW123450   1.413   1.783   5.905
 7517SOL    HW223451   1.316   1.755   6.033
 7518SOL     OW23452   5.010   2.123   4.212
 7518SOL    HW123453   4.947   2.048   4.196
 7518SOL    HW223454   5.048   2.155   4.125
 7519SOL     OW23455   3.581   6.120   4.166
 7519SOL    HW123456   3.524   6.050   4.123
 7519SOL    HW223457   3.580   6.107   4.265
 7520SOL     OW23458   1.457   2.145   0.364
 7520SOL    HW123459   1.482   2.196   0.282
 7520SOL    HW223460   1.528   2.156   0.434
 7521SOL     OW23461   4.169   1.415   5.135
 7521SOL    HW123462   4.145   1.396   5.230
 7521SOL    HW223463   4.094   1.466   5.091
 7522SOL     OW23464   1.986   0.065   3.450
 7522SOL    HW123465   2.033   0.056   3.362
 7522SOL    HW223466   1.932   0.150   3.451
 7523SOL     OW23467   5.469   0.919   0.600
 7523SOL    HW123468   5.481   0.841   0.539
 7523SOL    HW223469   5.464   0.887   0.695
 7524SOL     OW23470   0.715   3.496   4.307
 7524SOL    HW123471   0.786   3.563   4.330
 7524SOL    HW223472   0.628   3.526   4.347
 7525SOL     OW23473   4.052   5.168   6.206
 7525SOL    HW123474   3.993   5.211   6.275
 7525SOL    HW223475   4.043   5.217   6.120
 7526SOL     OW23476   2.567   3.832   1.351
 7526SOL    HW123477   2.543   3.920   1.391
 7526SOL    HW223478   2.639   3.844   1.283
 7527SOL     OW23479   4.003   5.146   3.245
 7527SOL    HW123480   4.026   5.217   3.311
 7527SOL    HW223481   4.029   5.057   3.283
 7528SOL     OW23482   6.711   2.854   5.980
 7528SOL    HW123483   6.794   2.874   6.032
 7528SOL    HW223484   6.736   2.816   5.891
 7529SOL     OW23485   6.210   3.473   3.862
 7529SOL    HW123486   6.118   3.468   3.822
 7529SOL    HW223487   6.221   3.399   3.929
 7530SOL     OW23488   0.794   2.206   1.858
 7530SOL    HW123489   0.718   2.215   1.794
 7530SOL    HW223490   0.779   2.264   1.938
 7531SOL     OW23491   4.113   2.112   4.044
 7531SOL    HW123492   4.051   2.136   3.969
 7531SOL    HW223493   4.059   2.088   4.125
 7532SOL     OW23494   4.838   5.539   6.014
 7532SOL    HW123495   4.768   5.468   6.004
 7532SOL    HW223496   4.887   5.526   6.100
 7533SOL     OW23497   4.312   4.380   1.679
 7533SOL    HW123498   4.222   4.338   1.671
 7533SOL    HW223499   4.372   4.319   1.731
 7534SOL     OW23500   4.183   6.994   5.159
 7534SOL    HW123501   4.107   6.960   5.213
 7534SOL    HW223502   4.148   0.026   5.079
 7535SOL     OW23503   0.765   6.703   3.925
 7535SOL    HW123504   0.829   6.778   3.911
 7535SOL    HW223505   0.672   6.739   3.930
 7536SOL     OW23506   5.965   6.280   4.304
 7536SOL    HW123507   5.966   6.196   4.358
 7536SOL    HW223508   5.940   6.259   4.210
 7537SOL     OW23509   2.177   6.308   2.877
 7537SOL    HW123510   2.242   6.353   2.816
 7537SOL    HW223511   2.126   6.378   2.928
 7538SOL     OW23512   0.717   3.901   0.683
 7538SOL    HW123513   0.810   3.933   0.660
 7538SOL    HW223514   0.724   3.824   0.747
 7539SOL     OW23515   6.750   0.579   4.626
 7539SOL    HW123516   6.717   0.664   4.586
 7539SOL    HW223517   6.701   0.502   4.586
 7540SOL     OW23518   5.684   5.120   2.933
 7540SOL    HW123519   5.755   5.134   3.002
 7540SOL    HW223520   5.621   5.049   2.963
 7541SOL     OW23521   2.579   4.020   5.620
 7541SOL    HW123522   2.586   4.029   5.719
 7541SOL    HW223523   2.484   4.000   5.595
 7542SOL     OW23524   5.834   5.650   4.383
 7542SOL    HW123525   5.879   5.706   4.453
 7542SOL    HW223526   5.788   5.573   4.427
 7543SOL     OW23527   2.862   1.092   6.856
 7543SOL    HW123528   2.916   1.146   6.791
 7543SOL    HW223529   2.765   1.118   6.848
 7544SOL     OW23530   6.595   1.591   4.450
 7544SOL    HW123531   6.683   1.632   4.425
 7544SOL    HW223532   6.607   1.530   4.528
 7545SOL     OW23533   1.481   5.556   5.934
 7545SOL    HW123534   1.448   5.595   5.848
 7545SOL    HW223535   1.575   5.587   5.951
 7546SOL     OW23536   2.358   2.739   2.055
 7546SOL    HW123537   2.378   2.665   2.119
 7546SOL    HW223538   2.411   2.726   1.971
 7547SOL     OW23539   4.086   0.221   1.640
 7547SOL    HW123540   4.025   0.150   1.676
 7547SOL    HW223541   4.072   0.231   1.542
 7548SOL     OW23542   3.691   3.117   6.215
 7548SOL    HW123543   3.611   3.156   6.170
 7548SOL    HW223544   3.745   3.064   6.150
 7549SOL     OW23545   5.470   1.269   4.382
 7549SOL    HW123546   5.542   1.240   4.319
 7549SOL    HW223547   5.511   1.308   4.464
 7550SOL     OW23548   2.829   5.028   4.599
 7550SOL    HW123549   2.822   5.097   4.526
 7550SOL    HW223550   2.743   5.026   4.650
 7551SOL     OW23551   6.622   2.395   6.243
 7551SOL    HW123552   6.715   2.373   6.216
 7551SOL    HW223553   6.609   2.494   6.240
 7552SOL     OW23554   2.268   6.978   5.246
 7552SOL    HW123555   2.203   6.968   5.171
 7552SOL    HW223556   2.242   0.038   5.303
 7553SOL     OW23557   5.586   6.329   5.689
 7553SOL    HW123558   5.503   6.356   5.737
 7553SOL    HW223559   5.644   6.276   5.751
 7554SOL     OW23560   4.660   1.359   0.673
 7554SOL    HW123561   4.705   1.344   0.585
 7554SOL    HW223562   4.599   1.438   0.667
 7555SOL     OW23563   4.595   5.433   4.052
 7555SOL    HW123564   4.568   5.345   4.013
 7555SOL    HW223565   4.523   5.501   4.036
 7556SOL     OW23566   0.319   6.635   1.828
 7556SOL    HW123567   0.279   6.694   1.897
 7556SOL    HW223568   0.261   6.635   1.746
 7557SOL     OW23569   4.928   6.972   0.959
 7557SOL    HW123570   4.914   6.893   0.900
 7557SOL    HW223571   4.902   6.950   1.053
 7558SOL     OW23572   0.636   1.825   3.950
 7558SOL    HW123573   0.598   1.791   3.863
 7558SOL    HW223574   0.727   1.861   3.935
 7559SOL     OW23575   2.749   1.806   5.199
 7559SOL    HW123576   2.814   1.731   5.217
 7559SOL    HW223577   2.786   1.865   5.128
 7560SOL     OW23578   1.386   1.440   6.102
 7560SOL    HW123579   1.399   1.521   6.045
 7560SOL    HW223580   1.463   1.432   6.166
 7561SOL     OW23581   6.079   1.884   5.721
 7561SOL    HW123582   6.055   1.855   5.628
 7561SOL    HW223583   6.026   1.830   5.787
 7562SOL     OW23584   1.984   5.707   3.517
 7562SOL    HW123585   1.969   5.750   3.428
 7562SOL    HW223586   1.953   5.769   3.590
 7563SOL     OW23587   3.859   5.912   2.147
 7563SOL    HW123588   3.858   5.822   2.104
 7563SOL    HW223589   3.953   5.946   2.150
 7564SOL     OW23590   3.814   1.590   5.440
 7564SOL    HW123591   3.751   1.539   5.381
 7564SOL    HW223592   3.772   1.602   5.530
 7565SOL     OW23593   6.330   3.667   5.899
 7565SOL    HW123594   6.416   3.711   5.872
 7565SOL    HW223595   6.305   3.695   5.992
 7566SOL     OW23596   4.257   4.621   1.487
 7566SOL    HW123597   4.247   4.522   1.502
 7566SOL    HW223598   4.259   4.640   1.389
 7567SOL     OW23599   1.019   6.896   4.166
 7567SOL    HW123600   1.072   6.864   4.088
 7567SOL    HW223601   0.935   6.939   4.134
 7568SOL     OW23602   6.030   5.428   1.435
 7568SOL    HW123603   6.121   5.388   1.427
 7568SOL    HW223604   6.023   5.508   1.375
 7569SOL     OW23605   5.079   3.511   0.226
 7569SOL    HW123606   5.109   3.440   0.162
 7569SOL    HW223607   4.981   3.527   0.214
 7570SOL     OW23608   0.735   3.527   2.442
 7570SOL    HW123609   0.676   3.569   2.511
 7570SOL    HW223610   0.693   3.443   2.410
 7571SOL     OW23611   4.890   2.204   2.299
 7571SOL    HW123612   4.898   2.277   2.231
 7571SOL    HW223613   4.803   2.212   2.347
 7572SOL     OW23614   4.485   0.265   3.701
 7572SOL    HW123615   4.387   0.255   3.684
 7572SOL    HW223616   4.534   0.271   3.614
 7573SOL     OW23617   4.086   6.597   6.133
 7573SOL    HW123618   4.109   6.550   6.219
 7573SOL    HW223619   3.988   6.619   6.133
 7574SOL     OW23620   0.897   2.549   3.660
 7574SOL    HW123621   0.928   2.464   3.702
 7574SOL    HW223622   0.948   2.565   3.576
 7575SOL     OW23623   0.311   6.529   2.467
 7575SOL    HW123624   0.266   6.592   2.530
 7575SOL    HW223625   0.312   6.568   2.375
 7576SOL     OW23626   5.152   2.656   0.420
 7576SOL    HW123627   5.081   2.620   0.360
 7576SOL    HW223628   5.164   2.596   0.499
 7577SOL     OW23629   0.986   0.268   0.388
 7577SOL    HW123630   1.080   0.258   0.423
 7577SOL    HW223631   0.988   0.282   0.289
 7578SOL     OW23632   6.506   5.952   3.308
 7578SOL    HW123633   6.485   5.856   3.321
 7578SOL    HW223634   6.545   5.990   3.392
 7579SOL     OW23635   0.911   1.419   6.526
 7579SOL    HW123636   0.845   1.418   6.601
 7579SOL    HW223637   0.863   1.437   6.440
 7580SOL     OW23638   1.943   4.886   3.832
 7580SOL    HW123639   1.896   4.961   3.787
 7580SOL    HW223640   1.903   4.799   3.803
 7581SOL     OW23641   6.962   0.934   2.243
 7581SOL    HW123642   6.978   0.945   2.144
 7581SOL    HW223643   6.984   1.019   2.289
 7582SOL     OW23644   2.584   1.824   6.581
 7582SOL    HW123645   2.555   1.851   6.673
 7582SOL    HW223646   2.678   1.791   6.584
 7583SOL     OW23647   4.980   2.911   3.041
 7583SOL    HW123648   4.961   3.005   3.015
 7583SOL    HW223649   5.046   2.910   3.116
 7584SOL     OW23650   0.458   1.159   3.224
 7584SOL    HW123651   0.451   1.060   3.212
 7584SOL    HW223652   0.554   1.184   3.240
 7585SOL     OW23653   0.854   1.394   6.234
 7585SOL    HW123654   0.839   1.439   6.145
 7585SOL    HW223655   0.951   1.373   6.245
 7586SOL     OW23656   1.907   0.397   3.000
 7586SOL    HW123657   1.907   0.418   2.902
 7586SOL    HW223658   1.901   0.299   3.013
 7587SOL     OW23659   4.157   0.450   0.743
 7587SOL    HW123660   4.231   0.467   0.807
 7587SOL    HW223661   4.116   0.537   0.715
 7588SOL     OW23662   2.376   2.501   4.616
 7588SOL    HW123663   2.349   2.415   4.659
 7588SOL    HW223664   2.460   2.535   4.659
 7589SOL     OW23665   0.364   0.476   2.866
 7589SOL    HW123666   0.279   0.477   2.919
 7589SOL    HW223667   0.410   0.564   2.875
 7590SOL     OW23668   6.566   0.882   0.093
 7590SOL    HW123669   6.643   0.840   0.045
 7590SOL    HW223670   6.573   0.981   0.087
 7591SOL     OW23671   3.558   2.921   4.628
 7591SOL    HW123672   3.657   2.930   4.637
 7591SOL    HW223673   3.522   2.867   4.704
 7592SOL     OW23674   6.489   6.803   4.303
 7592SOL    HW123675   6.582   6.814   4.339
 7592SOL    HW223676   6.494   6.780   4.206
 7593SOL     OW23677   0.535   1.412   5.452
 7593SOL    HW123678   0.533   1.489   5.389
 7593SOL    HW223679   0.463   1.347   5.427
 7594SOL     OW23680   0.139   3.994   6.921
 7594SOL    HW123681   0.080   3.968   6.998
 7594SOL    HW223682   0.212   4.054   6.954
 7595SOL     OW23683   1.117   3.576   6.918
 7595SOL    HW123684   1.191   3.607   6.977
 7595SOL    HW223685   1.091   3.482   6.942
 7596SOL     OW23686   2.785   1.720   6.056
 7596SOL    HW123687   2.771   1.752   5.962
 7596SOL    HW223688   2.879   1.688   6.066
 7597SOL     OW23689   1.348   4.916   1.423
 7597SOL    HW123690   1.400   4.875   1.498
 7597SOL    HW223691   1.311   5.005   1.451
 7598SOL     OW23692   6.191   0.856   2.300
 7598SOL    HW123693   6.261   0.904   2.247
 7598SOL    HW223694   6.234   0.779   2.348
 7599SOL     OW23695   3.276   4.011   1.299
 7599SOL    HW123696   3.291   4.043   1.393
 7599SOL    HW223697   3.205   3.941   1.298
 7600SOL     OW23698   1.463   6.421   4.042
 7600SOL    HW123699   1.415   6.447   4.126
 7600SOL    HW223700   1.556   6.457   4.045
 7601SOL     OW23701   3.226   6.597   2.328
 7601SOL    HW123702   3.267   6.561   2.411
 7601SOL    HW223703   3.232   6.696   2.327
 7602SOL     OW23704   0.444   1.264   1.034
 7602SOL    HW123705   0.481   1.192   1.092
 7602SOL    HW223706   0.478   1.353   1.065
 7603SOL     OW23707   3.644   0.526   6.089
 7603SOL    HW123708   3.700   0.498   6.010
 7603SOL    HW223709   3.692   0.598   6.138
 7604SOL     OW23710   0.610   2.554   4.939
 7604SOL    HW123711   0.675   2.493   4.984
 7604SOL    HW223712   0.603   2.530   4.843
 7605SOL     OW23713   2.010   6.094   6.970
 7605SOL    HW123714   1.967   6.173   6.927
 7605SOL    HW223715   1.979   6.087   0.047
 7606SOL     OW23716   0.057   0.984   3.264
 7606SOL    HW123717   0.044   1.009   3.168
 7606SOL    HW223718   0.146   1.016   3.295
 7607SOL     OW23719   1.964   5.974   5.531
 7607SOL    HW123720   1.868   5.989   5.556
 7607SOL    HW223721   1.999   5.894   5.581
 7608SOL     OW23722   6.022   2.459   6.454
 7608SOL    HW123723   6.006   2.365   6.423
 7608SOL    HW223724   6.040   2.517   6.375
 7609SOL     OW23725   1.823   1.679   4.687
 7609SOL    HW123726   1.901   1.633   4.729
 7609SOL    HW223727   1.835   1.778   4.695
 7610SOL     OW23728   4.106   5.068   4.322
 7610SOL    HW123729   4.055   5.139   4.371
 7610SOL    HW223730   4.098   5.084   4.223
 7611SOL     OW23731   4.990   2.992   0.535
 7611SOL    HW123732   4.900   3.036   0.526
 7611SOL    HW223733   4.979   2.904   0.582
 7612SOL     OW23734   4.097   1.809   2.664
 7612SOL    HW123735   4.113   1.716   2.694
 7612SOL    HW223736   4.038   1.856   2.729
 7613SOL     OW23737   0.993   0.835   1.346
 7613SOL    HW123738   1.046   0.772   1.401
 7613SOL    HW223739   1.055   0.893   1.293
 7614SOL     OW23740   5.449   4.010   6.707
 7614SOL    HW123741   5.444   3.918   6.669
 7614SOL    HW223742   5.465   4.076   6.633
 7615SOL     OW23743   5.935   2.911   4.900
 7615SOL    HW123744   5.872   2.989   4.895
 7615SOL    HW223745   6.022   2.936   4.857
 7616SOL     OW23746   6.322   0.313   3.240
 7616SOL    HW123747   6.340   0.280   3.147
 7616SOL    HW223748   6.353   0.244   3.306
 7617SOL     OW23749   6.365   3.898   3.510
 7617SOL    HW123750   6.447   3.943   3.475
 7617SOL    HW223751   6.301   3.883   3.435
 7618SOL     OW23752   2.133   2.654   0.428
 7618SOL    HW123753   2.166   2.716   0.498
 7618SOL    HW223754   2.200   2.651   0.353
 7619SOL     OW23755   1.644   1.559   4.298
 7619SOL    HW123756   1.635   1.618   4.218
 7619SOL    HW223757   1.740   1.556   4.327
 7620SOL     OW23758   3.468   4.950   1.158
 7620SOL    HW123759   3.462   5.000   1.244
 7620SOL    HW223760   3.386   4.967   1.103
 7621SOL     OW23761   6.213   3.930   0.220
 7621SOL    HW123762   6.160   3.847   0.206
 7621SOL    HW223763   6.222   3.948   0.318
 7622SOL     OW23764   3.103   3.757   1.553
 7622SOL    HW123765   3.017   3.805   1.567
 7622SOL    HW223766   3.113   3.686   1.622
 7623SOL     OW23767   4.903   4.063   1.666
 7623SOL    HW123768   4.900   3.968   1.694
 7623SOL    HW223769   4.812   4.104   1.673
 7624SOL     OW23770   1.045   3.712   2.546
 7624SOL    HW123771   1.114   3.752   2.607
 7624SOL    HW223772   1.046   3.612   2.554
 7625SOL     OW23773   5.217   0.581   1.869
 7625SOL    HW123774   5.258   0.633   1.795
 7625SOL    HW223775   5.184   0.493   1.834
 7626SOL     OW23776   4.826   0.341   6.374
 7626SOL    HW123777   4.807   0.435   6.403
 7626SOL    HW223778   4.835   0.282   6.455
 7627SOL     OW23779   3.917   3.210   6.723
 7627SOL    HW123780   4.016   3.214   6.740
 7627SOL    HW223781   3.900   3.218   6.625
 7628SOL     OW23782   3.351   2.596   0.480
 7628SOL    HW123783   3.323   2.611   0.385
 7628SOL    HW223784   3.444   2.558   0.481
 7629SOL     OW23785   5.383   2.625   2.839
 7629SOL    HW123786   5.315   2.678   2.789
 7629SOL    HW223787   5.338   2.556   2.895
 7630SOL     OW23788   1.250   6.529   4.206
 7630SOL    HW123789   1.253   6.615   4.154
 7630SOL    HW223790   1.157   6.516   4.242
 7631SOL     OW23791   0.766   0.393   5.690
 7631SOL    HW123792   0.770   0.458   5.614
 7631SOL    HW223793   0.731   0.439   5.772
 7632SOL     OW23794   4.693   5.500   0.160
 7632SOL    HW123795   4.599   5.520   0.132
 7632SOL    HW223796   4.731   5.429   0.101
 7633SOL     OW23797   6.337   1.199   1.298
 7633SOL    HW123798   6.250   1.171   1.338
 7633SOL    HW223799   6.332   1.193   1.198
 7634SOL     OW23800   7.014   2.207   6.737
 7634SOL    HW123801   0.042   2.191   6.650
 7634SOL    HW223802   6.986   2.120   6.776
 7635SOL     OW23803   2.107   3.007   5.573
 7635SOL    HW123804   2.020   3.036   5.533
 7635SOL    HW223805   2.163   2.965   5.503
 7636SOL     OW23806   0.021   3.706   4.598
 7636SOL    HW123807   0.089   3.643   4.636
 7636SOL    HW223808   6.972   3.655   4.545
 7637SOL     OW23809   0.968   4.931   4.813
 7637SOL    HW123810   1.028   5.010   4.806
 7637SOL    HW223811   0.942   4.900   4.722
 7638SOL     OW23812   0.422   6.075   1.477
 7638SOL    HW123813   0.337   6.066   1.528
 7638SOL    HW223814   0.404   6.068   1.379
 7639SOL     OW23815   1.833   0.942   0.193
 7639SOL    HW123816   1.856   0.849   0.222
 7639SOL    HW223817   1.735   0.957   0.208
 7640SOL     OW23818   3.260   1.184   0.905
 7640SOL    HW123819   3.162   1.166   0.892
 7640SOL    HW223820   3.293   1.132   0.984
 7641SOL     OW23821   0.492   3.828   4.212
 7641SOL    HW123822   0.461   3.901   4.151
 7641SOL    HW223823   0.590   3.812   4.197
 7642SOL     OW23824   5.364   0.745   3.097
 7642SOL    HW123825   5.423   0.682   3.146
 7642SOL    HW223826   5.340   0.706   3.008
 7643SOL     OW23827   5.614   3.320   4.262
 7643SOL    HW123828   5.564   3.293   4.344
 7643SOL    HW223829   5.562   3.293   4.181
 7644SOL     OW23830   5.108   3.480   1.247
 7644SOL    HW123831   5.181   3.547   1.237
 7644SOL    HW223832   5.147   3.389   1.256
 7645SOL     OW23833   3.428   4.794   6.812
 7645SOL    HW123834   3.456   4.811   6.907
 7645SOL    HW223835   3.471   4.709   6.780
 7646SOL     OW23836   6.144   1.651   0.269
 7646SOL    HW123837   6.104   1.648   0.178
 7646SOL    HW223838   6.219   1.585   0.275
 7647SOL     OW23839   0.273   2.397   3.625
 7647SOL    HW123840   0.316   2.338   3.694
 7647SOL    HW223841   0.213   2.343   3.567
 7648SOL     OW23842   2.338   2.279   1.776
 7648SOL    HW123843   2.435   2.253   1.780
 7648SOL    HW223844   2.307   2.306   1.867
 7649SOL     OW23845   3.964   1.308   6.635
 7649SOL    HW123846   3.891   1.338   6.696
 7649SOL    HW223847   4.025   1.386   6.615
 7650SOL     OW23848   4.309   2.644   0.409
 7650SOL    HW123849   4.289   2.640   0.507
 7650SOL    HW223850   4.236   2.597   0.358
 7651SOL     OW23851   3.511   4.987   6.514
 7651SOL    HW123852   3.535   5.021   6.605
 7651SOL    HW223853   3.577   5.022   6.448
 7652SOL     OW23854   1.255   0.632   3.983
 7652SOL    HW123855   1.315   0.710   3.999
 7652SOL    HW223856   1.289   0.552   4.032
 7653SOL     OW23857   2.168   0.651   6.616
 7653SOL    HW123858   2.242   0.698   6.569
 7653SOL    HW223859   2.120   0.590   6.553
 7654SOL     OW23860   6.165   1.987   5.968
 7654SOL    HW123861   6.114   1.901   5.965
 7654SOL    HW223862   6.112   2.055   6.020
 7655SOL     OW23863   3.541   1.508   3.793
 7655SOL    HW123864   3.528   1.492   3.891
 7655SOL    HW223865   3.630   1.471   3.765
 7656SOL     OW23866   6.295   4.190   0.050
 7656SOL    HW123867   6.333   4.139   0.126
 7656SOL    HW223868   6.229   4.133   0.000
 7657SOL     OW23869   1.270   3.934   4.978
 7657SOL    HW123870   1.275   3.923   5.077
 7657SOL    HW223871   1.224   3.855   4.938
 7658SOL     OW23872   2.748   0.646   0.941
 7658SOL    HW123873   2.781   0.677   0.851
 7658SOL    HW223874   2.769   0.715   1.010
 7659SOL     OW23875   4.844   4.000   5.707
 7659SOL    HW123876   4.779   3.933   5.742
 7659SOL    HW223877   4.887   4.047   5.783
 7660SOL     OW23878   6.680   5.298   5.266
 7660SOL    HW123879   6.586   5.305   5.299
 7660SOL    HW223880   6.719   5.211   5.295
 7661SOL     OW23881   3.985   1.619   5.044
 7661SOL    HW123882   3.900   1.567   5.038
 7661SOL    HW223883   3.987   1.686   4.969
 7662SOL     OW23884   6.595   6.053   1.332
 7662SOL    HW123885   6.534   6.006   1.268
 7662SOL    HW223886   6.547   6.129   1.375
 7663SOL     OW23887   0.289   5.472   5.110
 7663SOL    HW123888   0.199   5.491   5.150
 7663SOL    HW223889   0.299   5.525   5.025
 7664SOL     OW23890   3.720   2.079   2.456
 7664SOL    HW123891   3.624   2.060   2.476
 7664SOL    HW223892   3.778   2.026   2.518
 7665SOL     OW23893   3.685   0.522   5.686
 7665SOL    HW123894   3.621   0.487   5.618
 7665SOL    HW223895   3.716   0.614   5.659
 7666SOL     OW23896   5.354   4.335   3.778
 7666SOL    HW123897   5.392   4.255   3.823
 7666SOL    HW223898   5.428   4.398   3.754
 7667SOL     OW23899   4.260   6.320   2.755
 7667SOL    HW123900   4.226   6.387   2.689
 7667SOL    HW223901   4.359   6.314   2.747
 7668SOL     OW23902   1.965   5.621   0.780
 7668SOL    HW123903   1.894   5.684   0.811
 7668SOL    HW223904   1.933   5.527   0.791
 7669SOL     OW23905   2.376   1.180   6.612
 7669SOL    HW123906   2.298   1.242   6.596
 7669SOL    HW223907   2.400   1.183   6.709
 7670SOL     OW23908   0.827   0.233   1.070
 7670SOL    HW123909   0.776   0.307   1.026
 7670SOL    HW223910   0.762   0.163   1.103
 7671SOL     OW23911   3.120   6.834   1.034
 7671SOL    HW123912   3.086   6.868   1.122
 7671SOL    HW223913   3.042   6.811   0.976
 7672SOL     OW23914   4.918   4.379   2.136
 7672SOL    HW123915   4.914   4.467   2.090
 7672SOL    HW223916   5.012   4.360   2.165
 7673SOL     OW23917   1.611   6.530   4.867
 7673SOL    HW123918   1.634   6.471   4.944
 7673SOL    HW223919   1.529   6.583   4.888
 7674SOL     OW23920   4.706   6.008   4.402
 7674SOL    HW123921   4.628   6.004   4.340
 7674SOL    HW223922   4.675   5.990   4.495
 7675SOL     OW23923   5.191   6.043   3.350
 7675SOL    HW123924   5.104   6.011   3.312
 7675SOL    HW223925   5.250   6.073   3.275
 7676SOL     OW23926   3.720   2.818   5.644
 7676SOL    HW123927   3.677   2.825   5.734
 7676SOL    HW223928   3.777   2.898   5.628
 7677SOL     OW23929   6.487   4.731   6.806
 7677SOL    HW123930   6.489   4.771   6.897
 7677SOL    HW223931   6.524   4.638   6.809
 7678SOL     OW23932   2.816   1.437   5.222
 7678SOL    HW123933   2.912   1.454   5.197
 7678SOL    HW223934   2.785   1.510   5.284
 7679SOL     OW23935   3.709   5.764   4.832
 7679SOL    HW123936   3.645   5.721   4.769
 7679SOL    HW223937   3.789   5.705   4.844
 7680SOL     OW23938   2.174   6.809   4.327
 7680SOL    HW123939   2.134   6.773   4.243
 7680SOL    HW223940   2.130   6.765   4.406
 7681SOL     OW23941   2.092   2.846   6.088
 7681SOL    HW123942   2.171   2.820   6.143
 7681SOL    HW223943   2.123   2.890   6.004
 7682SOL     OW23944   3.095   0.792   2.949
 7682SOL    HW123945   3.143   0.761   2.867
 7682SOL    HW223946   3.001   0.759   2.948
 7683SOL     OW23947   0.496   4.444   4.332
 7683SOL    HW123948   0.404   4.414   4.306
 7683SOL    HW223949   0.517   4.531   4.287
 7684SOL     OW23950   4.880   3.131   1.343
 7684SOL    HW123951   4.847   3.126   1.438
 7684SOL    HW223952   4.960   3.072   1.333
 7685SOL     OW23953   2.647   0.466   0.654
 7685SOL    HW123954   2.614   0.449   0.561
 7685SOL    HW223955   2.570   0.489   0.713
 7686SOL     OW23956   6.677   6.927   4.752
 7686SOL    HW123957   6.733   7.007   4.776
 7686SOL    HW223958   6.711   6.847   4.801
 7687SOL     OW23959   5.510   3.893   5.809
 7687SOL    HW123960   5.416   3.867   5.787
 7687SOL    HW223961   5.529   3.983   5.770
 7688SOL     OW23962   6.753   3.639   6.401
 7688SOL    HW123963   6.802   3.565   6.447
 7688SOL    HW223964   6.744   3.718   6.462
 7689SOL     OW23965   4.620   1.071   2.113
 7689SOL    HW123966   4.609   0.991   2.053
 7689SOL    HW223967   4.613   1.154   2.058
 7690SOL     OW23968   6.241   5.233   2.102
 7690SOL    HW123969   6.341   5.241   2.098
 7690SOL    HW223970   6.213   5.146   2.061
 7691SOL     OW23971   4.943   3.350   3.989
 7691SOL    HW123972   4.918   3.349   4.086
 7691SOL    HW223973   4.909   3.266   3.946
 7692SOL     OW23974   2.981   6.487   2.794
 7692SOL    HW123975   3.059   6.426   2.810
 7692SOL    HW223976   2.933   6.458   2.710
 7693SOL     OW23977   2.786   0.492   1.642
 7693SOL    HW123978   2.867   0.536   1.680
 7693SOL    HW223979   2.756   0.420   1.704
 7694SOL     OW23980   4.414   1.331   5.939
 7694SOL    HW123981   4.383   1.292   5.853
 7694SOL    HW223982   4.510   1.357   5.931
 7695SOL     OW23983   4.801   0.177   3.597
 7695SOL    HW123984   4.736   0.209   3.528
 7695SOL    HW223985   4.755   0.112   3.658
 7696SOL     OW23986   1.963   2.624   5.976
 7696SOL    HW123987   1.986   2.695   6.043
 7696SOL    HW223988   2.036   2.617   5.908
 7697SOL     OW23989   5.689   6.898   3.450
 7697SOL    HW123990   5.676   6.978   3.391
 7697SOL    HW223991   5.656   6.918   3.542
 7698SOL     OW23992   6.237   3.113   1.049
 7698SOL    HW123993   6.324   3.158   1.027
 7698SOL    HW223994   6.189   3.165   1.120
 7699SOL     OW23995   4.543   6.129   5.288
 7699SOL    HW123996   4.557   6.038   5.328
 7699SOL    HW223997   4.621   6.152   5.230
 7700SOL     OW23998   5.375   5.689   1.760
 7700SOL    HW123999   5.384   5.662   1.856
 7700SOL    HW224000   5.429   5.628   1.702
 7701SOL     OW24001   1.591   2.279   6.271
 7701SOL    HW124002   1.656   2.226   6.217
 7701SOL    HW224003   1.541   2.341   6.212
 7702SOL     OW24004   4.922   0.199   4.664
 7702SOL    HW124005   4.823   0.193   4.676
 7702SOL    HW224006   4.943   0.231   4.572
 7703SOL     OW24007   0.049   6.987   5.425
 7703SOL    HW124008   0.126   0.030   5.407
 7703SOL    HW224009   0.007   6.959   5.338
 7704SOL     OW24010   0.886   1.796   4.795
 7704SOL    HW124011   0.846   1.705   4.804
 7704SOL    HW224012   0.818   1.865   4.819
 7705SOL     OW24013   1.342   5.472   0.012
 7705SOL    HW124014   1.298   5.543   0.067
 7705SOL    HW224015   1.325   5.382   0.054
 7706SOL     OW24016   3.675   3.116   2.747
 7706SOL    HW124017   3.597   3.110   2.809
 7706SOL    HW224018   3.692   3.027   2.705
 7707SOL     OW24019   6.813   4.104   6.822
 7707SOL    HW124020   6.738   4.090   6.757
 7707SOL    HW224021   6.891   4.047   6.796
 7708SOL     OW24022   1.964   0.564   4.254
 7708SOL    HW124023   1.947   0.625   4.332
 7708SOL    HW224024   2.053   0.586   4.214
 7709SOL     OW24025   6.988   4.887   1.456
 7709SOL    HW124026   0.004   4.795   1.436
 7709SOL    HW224027   0.023   4.927   1.531
 7710SOL     OW24028   6.814   3.218   0.820
 7710SOL    HW124029   6.869   3.278   0.878
 7710SOL    HW224030   6.720   3.252   0.817
 7711SOL     OW24031   0.238   4.497   4.911
 7711SOL    HW124032   0.281   4.586   4.926
 7711SOL    HW224033   0.179   4.501   4.831
 7712SOL     OW24034   6.989   5.090   5.603
 7712SOL    HW124035   0.070   5.088   5.597
 7712SOL    HW224036   6.961   5.107   5.698
 7713SOL     OW24037   1.434   4.382   0.009
 7713SOL    HW124038   1.486   4.432   0.079
 7713SOL    HW224039   1.411   4.444   6.952
 7714SOL     OW24040   6.141   1.903   4.592
 7714SOL    HW124041   6.176   1.920   4.500
 7714SOL    HW224042   6.042   1.891   4.588
 7715SOL     OW24043   3.702   3.252   5.284
 7715SOL    HW124044   3.713   3.332   5.343
 7715SOL    HW224045   3.787   3.199   5.283
 7716SOL     OW24046   1.058   6.563   5.970
 7716SOL    HW124047   1.016   6.622   6.039
 7716SOL    HW224048   1.119   6.617   5.912
 7717SOL     OW24049   0.085   2.415   6.387
 7717SOL    HW124050   0.173   2.462   6.385
 7717SOL    HW224051   0.026   2.455   6.457
 7718SOL     OW24052   0.578   3.374   3.036
 7718SOL    HW124053   0.656   3.437   3.036
 7718SOL    HW224054   0.527   3.384   3.122
 7719SOL     OW24055   1.661   5.238   5.268
 7719SOL    HW124056   1.644   5.141   5.253
 7719SOL    HW224057   1.639   5.289   5.185
 7720SOL     OW24058   4.502   1.215   6.414
 7720SOL    HW124059   4.599   1.190   6.416
 7720SOL    HW224060   4.464   1.209   6.506
 7721SOL     OW24061   6.902   6.826   2.607
 7721SOL    HW124062   6.832   6.893   2.581
 7721SOL    HW224063   6.990   6.854   2.570
 7722SOL     OW24064   1.077   6.014   3.869
 7722SOL    HW124065   1.116   5.969   3.789
 7722SOL    HW224066   1.134   5.994   3.949
 7723SOL     OW24067   4.695   3.706   6.696
 7723SOL    HW124068   4.761   3.771   6.734
 7723SOL    HW224069   4.742   3.645   6.632
 7724SOL     OW24070   2.158   3.708   0.979
 7724SOL    HW124071   2.254   3.718   1.003
 7724SOL    HW224072   2.123   3.621   1.015
 7725SOL     OW24073   5.456   2.500   4.604
 7725SOL    HW124074   5.425   2.529   4.695
 7725SOL    HW224075   5.447   2.576   4.539
 7726SOL     OW24076   1.349   3.426   6.797
 7726SOL    HW124077   1.422   3.377   6.845
 7726SOL    HW224078   1.263   3.415   6.846
 7727SOL     OW24079   4.243   1.072   2.103
 7727SOL    HW124080   4.275   1.146   2.043
 7727SOL    HW224081   4.168   1.105   2.160
 7728SOL     OW24082   1.939   4.055   4.725
 7728SOL    HW124083   1.932   4.073   4.627
 7728SOL    HW224084   2.011   3.988   4.742
 7729SOL     OW24085   6.800   1.427   2.863
 7729SOL    HW124086   6.850   1.368   2.927
 7729SOL    HW224087   6.704   1.430   2.889
 7730SOL     OW24088   6.783   4.529   5.575
 7730SOL    HW124089   6.689   4.518   5.605
 7730SOL    HW224090   6.822   4.611   5.617
 7731SOL     OW24091   6.676   0.210   6.058
 7731SOL    HW124092   6.727   0.158   5.989
 7731SOL    HW224093   6.601   0.153   6.093
 7732SOL     OW24094   3.537   0.124   6.250
 7732SOL    HW124095   3.566   0.087   6.162
 7732SOL    HW224096   3.523   0.049   6.315
 7733SOL     OW24097   6.868   5.441   1.631
 7733SOL    HW124098   6.802   5.366   1.626
 7733SOL    HW224099   6.901   5.462   1.540
 7734SOL     OW24100   3.397   4.044   3.969
 7734SOL    HW124101   3.340   4.023   3.889
 7734SOL    HW224102   3.478   4.094   3.940
 7735SOL     OW24103   0.670   6.615   1.155
 7735SOL    HW124104   0.693   6.582   1.064
 7735SOL    HW224105   0.578   6.585   1.180
 7736SOL     OW24106   1.295   2.527   0.081
 7736SOL    HW124107   1.350   2.601   0.118
 7736SOL    HW224108   1.240   2.487   0.153
 7737SOL     OW24109   4.648   4.525   6.831
 7737SOL    HW124110   4.695   4.596   6.884
 7737SOL    HW224111   4.551   4.547   6.825
 7738SOL     OW24112   1.980   0.361   5.523
 7738SOL    HW124113   1.989   0.406   5.612
 7738SOL    HW224114   1.897   0.304   5.522
 7739SOL     OW24115   1.897   2.250   0.433
 7739SOL    HW124116   1.879   2.346   0.413
 7739SOL    HW224117   1.973   2.243   0.498
 7740SOL     OW24118   2.094   0.380   4.989
 7740SOL    HW124119   2.139   0.427   5.065
 7740SOL    HW224120   2.145   0.298   4.964
 7741SOL     OW24121   0.653   4.759   5.851
 7741SOL    HW124122   0.624   4.683   5.793
 7741SOL    HW224123   0.751   4.752   5.869
 7742SOL     OW24124   4.782   2.322   3.921
 7742SOL    HW124125   4.750   2.417   3.915
 7742SOL    HW224126   4.738   2.276   3.998
 7743SOL     OW24127   4.222   1.581   6.048
 7743SOL    HW124128   4.285   1.523   5.996
 7743SOL    HW224129   4.165   1.633   5.985
 7744SOL     OW24130   1.353   6.954   4.581
 7744SOL    HW124131   1.433   6.899   4.604
 7744SOL    HW224132   1.302   6.909   4.508
 7745SOL     OW24133   3.095   6.939   1.302
 7745SOL    HW124134   3.127   6.956   1.395
 7745SOL    HW224135   3.080   0.008   1.255
 7746SOL     OW24136   0.628   5.545   2.299
 7746SOL    HW124137   0.703   5.517   2.239
 7746SOL    HW224138   0.609   5.472   2.365
 7747SOL     OW24139   6.928   5.757   0.849
 7747SOL    HW124140   6.852   5.721   0.794
 7747SOL    HW224141   6.921   5.857   0.854
 7748SOL     OW24142   4.372   1.850   5.887
 7748SOL    HW124143   4.280   1.888   5.893
 7748SOL    HW224144   4.415   1.854   5.977
 7749SOL     OW24145   3.824   3.943   3.208
 7749SOL    HW124146   3.757   3.969   3.138
 7749SOL    HW224147   3.872   3.860   3.180
 7750SOL     OW24148   5.093   5.083   5.642
 7750SOL    HW124149   5.096   5.176   5.605
 7750SOL    HW224150   5.030   5.028   5.589
 7751SOL     OW24151   6.861   1.691   4.392
 7751SOL    HW124152   6.938   1.723   4.336
 7751SOL    HW224153   6.895   1.655   4.479
 7752SOL     OW24154   6.255   5.084   5.106
 7752SOL    HW124155   6.180   5.039   5.057
 7752SOL    HW224156   6.310   5.015   5.154
 7753SOL     OW24157   2.592   0.795   5.411
 7753SOL    HW124158   2.545   0.717   5.454
 7753SOL    HW224159   2.528   0.844   5.352
 7754SOL     OW24160   6.564   1.114   1.439
 7754SOL    HW124161   6.547   1.038   1.502
 7754SOL    HW224162   6.483   1.131   1.384
 7755SOL     OW24163   1.132   5.954   5.230
 7755SOL    HW124164   1.079   6.033   5.199
 7755SOL    HW224165   1.113   5.936   5.327
 7756SOL     OW24166   3.839   5.567   3.265
 7756SOL    HW124167   3.936   5.581   3.283
 7756SOL    HW224168   3.826   5.535   3.171
 7757SOL     OW24169   3.501   6.458   5.666
 7757SOL    HW124170   3.443   6.530   5.703
 7757SOL    HW224171   3.539   6.404   5.742
 7758SOL     OW24172   3.066   2.696   6.591
 7758SOL    HW124173   2.992   2.646   6.636
 7758SOL    HW224174   3.030   2.779   6.549
 7759SOL     OW24175   2.082   1.225   5.190
 7759SOL    HW124176   2.068   1.127   5.200
 7759SOL    HW224177   2.150   1.256   5.256
 7760SOL     OW24178   4.747   1.543   3.502
 7760SOL    HW124179   4.794   1.486   3.435
 7760SOL    HW224180   4.768   1.511   3.594
 7761SOL     OW24181   4.219   0.218   6.336
 7761SOL    HW124182   4.177   0.178   6.254
 7761SOL    HW224183   4.218   0.152   6.410
 7762SOL     OW24184   1.571   2.457   0.714
 7762SOL    HW124185   1.475   2.437   0.696
 7762SOL    HW224186   1.578   2.521   0.790
 7763SOL     OW24187   2.299   2.377   1.175
 7763SOL    HW124188   2.266   2.302   1.232
 7763SOL    HW224189   2.307   2.460   1.230
 7764SOL     OW24190   4.122   3.666   2.290
 7764SOL    HW124191   4.067   3.604   2.346
 7764SOL    HW224192   4.203   3.618   2.256
 7765SOL     OW24193   0.247   1.976   2.118
 7765SOL    HW124194   0.280   2.029   2.196
 7765SOL    HW224195   0.147   1.978   2.116
 7766SOL     OW24196   6.950   3.670   6.978
 7766SOL    HW124197   6.964   3.671   6.879
 7766SOL    HW224198   6.857   3.641   6.999
 7767SOL     OW24199   5.769   3.991   5.311
 7767SOL    HW124200   5.840   3.964   5.246
 7767SOL    HW224201   5.806   3.986   5.404
 7768SOL     OW24202   4.395   5.357   2.267
 7768SOL    HW124203   4.393   5.258   2.274
 7768SOL    HW224204   4.304   5.391   2.242
 7769SOL     OW24205   6.552   1.942   2.033
 7769SOL    HW124206   6.547   1.851   2.074
 7769SOL    HW224207   6.554   1.933   1.933
 7770SOL     OW24208   3.625   5.791   1.718
 7770SOL    HW124209   3.561   5.820   1.647
 7770SOL    HW224210   3.575   5.774   1.803
 7771SOL     OW24211   2.214   1.355   4.648
 7771SOL    HW124212   2.181   1.446   4.672
 7771SOL    HW224213   2.307   1.344   4.682
 7772SOL     OW24214   5.563   0.835   5.158
 7772SOL    HW124215   5.488   0.863   5.219
 7772SOL    HW224216   5.548   0.874   5.067
 7773SOL     OW24217   4.049   4.434   5.326
 7773SOL    HW124218   4.128   4.472   5.279
 7773SOL    HW224219   3.982   4.507   5.343
 7774SOL     OW24220   4.935   1.687   6.724
 7774SOL    HW124221   4.974   1.769   6.681
 7774SOL    HW224222   5.009   1.633   6.765
 7775SOL     OW24223   2.825   6.755   1.904
 7775SOL    HW124224   2.863   6.720   1.818
 7775SOL    HW224225   2.797   6.678   1.962
 7776SOL     OW24226   3.732   4.158   0.841
 7776SOL    HW124227   3.701   4.065   0.862
 7776SOL    HW224228   3.710   4.180   0.745
 7777SOL     OW24229   1.497   0.440   6.830
 7777SOL    HW124230   1.551   0.520   6.854
 7777SOL    HW224231   1.541   0.391   6.754
 7778SOL     OW24232   5.046   1.072   1.293
 7778SOL    HW124233   5.013   1.091   1.201
 7778SOL    HW224234   5.036   0.974   1.312
 7779SOL     OW24235   3.845   3.416   0.441
 7779SOL    HW124236   3.797   3.334   0.471
 7779SOL    HW224237   3.778   3.486   0.415
 7780SOL     OW24238   1.024   0.165   4.753
 7780SOL    HW124239   0.951   0.106   4.789
 7780SOL    HW224240   1.030   0.154   4.654
 7781SOL     OW24241   1.383   5.091   5.268
 7781SOL    HW124242   1.303   5.050   5.224
 7781SOL    HW224243   1.463   5.034   5.250
 7782SOL     OW24244   3.503   4.552   6.718
 7782SOL    HW124245   3.546   4.550   6.809
 7782SOL    HW224246   3.545   4.483   6.660
 7783SOL     OW24247   3.053   5.133   6.595
 7783SOL    HW124248   3.095   5.050   6.631
 7783SOL    HW224249   3.016   5.115   6.503
 7784SOL     OW24250   6.965   2.653   6.818
 7784SOL    HW124251   6.926   2.745   6.810
 7784SOL    HW224252   0.036   2.658   6.862
 7785SOL     OW24253   1.899   5.733   4.462
 7785SOL    HW124254   1.911   5.797   4.386
 7785SOL    HW224255   1.981   5.676   4.471
 7786SOL     OW24256   3.123   4.033   4.728
 7786SOL    HW124257   3.082   4.003   4.815
 7786SOL    HW224258   3.161   4.125   4.739
 7787SOL     OW24259   2.998   2.276   5.371
 7787SOL    HW124260   2.922   2.325   5.328
 7787SOL    HW224261   3.084   2.318   5.344
 7788SOL     OW24262   0.525   1.622   0.256
 7788SOL    HW124263   0.432   1.586   0.251
 7788SOL    HW224264   0.562   1.607   0.347
 7789SOL     OW24265   1.958   0.312   1.396
 7789SOL    HW124266   1.972   0.256   1.478
 7789SOL    HW224267   1.920   0.401   1.422
 7790SOL     OW24268   6.407   3.797   2.812
 7790SOL    HW124269   6.503   3.809   2.836
 7790SOL    HW224270   6.395   3.815   2.714
 7791SOL     OW24271   1.022   4.501   4.934
 7791SOL    HW124272   0.999   4.416   4.982
 7791SOL    HW224273   1.122   4.508   4.924
 7792SOL     OW24274   2.377   5.548   5.968
 7792SOL    HW124275   2.400   5.568   5.873
 7792SOL    HW224276   2.363   5.450   5.979
 7793SOL     OW24277   1.306   0.799   6.842
 7793SOL    HW124278   1.331   0.786   6.938
 7793SOL    HW224279   1.386   0.787   6.784
 7794SOL     OW24280   5.408   5.893   3.501
 7794SOL    HW124281   5.323   5.938   3.477
 7794SOL    HW224282   5.441   5.840   3.422
 7795SOL     OW24283   1.973   5.264   5.501
 7795SOL    HW124284   1.934   5.347   5.462
 7795SOL    HW224285   2.070   5.257   5.475
 7796SOL     OW24286   3.980   3.170   4.245
 7796SOL    HW124287   4.019   3.232   4.313
 7796SOL    HW224288   3.888   3.143   4.273
 7797SOL     OW24289   1.165   0.432   3.295
 7797SOL    HW124290   1.211   0.496   3.356
 7797SOL    HW224291   1.186   0.455   3.200
 7798SOL     OW24292   4.067   5.964   6.427
 7798SOL    HW124293   4.161   5.937   6.449
 7798SOL    HW224294   4.016   5.978   6.512
 7799SOL     OW24295   6.293   4.654   1.250
 7799SOL    HW124296   6.323   4.748   1.263
 7799SOL    HW224297   6.323   4.621   1.161
 7800SOL     OW24298   0.797   5.961   2.393
 7800SOL    HW124299   0.724   6.028   2.387
 7800SOL    HW224300   0.781   5.901   2.472
 7801SOL     OW24301   3.776   2.609   6.282
 7801SOL    HW124302   3.825   2.655   6.208
 7801SOL    HW224303   3.680   2.638   6.282
 7802SOL     OW24304   5.627   2.195   1.163
 7802SOL    HW124305   5.561   2.248   1.110
 7802SOL    HW224306   5.617   2.218   1.260
 7803SOL     OW24307   3.652   4.335   5.874
 7803SOL    HW124308   3.607   4.423   5.888
 7803SOL    HW224309   3.586   4.269   5.838
 7804SOL     OW24310   5.146   1.646   6.447
 7804SOL    HW124311   5.193   1.722   6.492
 7804SOL    HW224312   5.053   1.675   6.422
 7805SOL     OW24313   5.338   3.768   2.161
 7805SOL    HW124314   5.434   3.767   2.131
 7805SOL    HW224315   5.289   3.693   2.116
 7806SOL     OW24316   4.558   2.862   6.825
 7806SOL    HW124317   4.541   2.859   6.727
 7806SOL    HW224318   4.517   2.944   6.864
 7807SOL     OW24319   0.086   3.757   6.508
 7807SOL    HW124320   0.184   3.758   6.528
 7807SOL    HW224321   0.070   3.711   6.421
 7808SOL     OW24322   0.815   1.533   4.866
 7808SOL    HW124323   0.767   1.490   4.942
 7808SOL    HW224324   0.900   1.484   4.848
 7809SOL     OW24325   1.688   5.578   5.705
 7809SOL    HW124326   1.631   5.496   5.708
 7809SOL    HW224327   1.784   5.552   5.714
 7810SOL     OW24328   2.410   1.113   6.896
 7810SOL    HW124329   2.315   1.083   6.904
 7810SOL    HW224330   2.451   1.121   6.987
 7811SOL     OW24331   0.257   4.213   4.853
 7811SOL    HW124332   0.247   4.295   4.909
 7811SOL    HW224333   0.352   4.205   4.822
 7812SOL     OW24334   0.374   1.904   3.694
 7812SOL    HW124335   0.282   1.943   3.697
 7812SOL    HW224336   0.393   1.856   3.779
 7813SOL     OW24337   6.301   2.363   0.812
 7813SOL    HW124338   6.250   2.306   0.877
 7813SOL    HW224339   6.254   2.451   0.801
 7814SOL     OW24340   1.942   3.426   3.862
 7814SOL    HW124341   1.957   3.390   3.770
 7814SOL    HW224342   1.868   3.494   3.860
 7815SOL     OW24343   6.922   1.377   6.176
 7815SOL    HW124344   6.988   1.405   6.246
 7815SOL    HW224345   6.956   1.403   6.086
 7816SOL     OW24346   1.115   3.704   5.176
 7816SOL    HW124347   1.134   3.781   5.237
 7816SOL    HW224348   1.163   3.623   5.210
 7817SOL     OW24349   5.452   3.611   4.940
 7817SOL    HW124350   5.470   3.535   5.002
 7817SOL    HW224351   5.356   3.639   4.947
 7818SOL     OW24352   5.169   5.477   2.736
 7818SOL    HW124353   5.071   5.474   2.757
 7818SOL    HW224354   5.198   5.386   2.704
 7819SOL     OW24355   6.897   1.236   1.596
 7819SOL    HW124356   6.887   1.202   1.502
 7819SOL    HW224357   6.806   1.257   1.633
 7820SOL     OW24358   2.226   0.042   6.193
 7820SOL    HW124359   2.244   6.977   6.244
 7820SOL    HW224360   2.249   0.121   6.250
 7821SOL     OW24361   2.860   5.401   0.946
 7821SOL    HW124362   2.814   5.468   1.004
 7821SOL    HW224363   2.806   5.388   0.862
 7822SOL     OW24364   1.421   5.848   5.481
 7822SOL    HW124365   1.323   5.865   5.465
 7822SOL    HW224366   1.475   5.915   5.431
 7823SOL     OW24367   1.656   4.110   5.208
 7823SOL    HW124368   1.663   4.097   5.307
 7823SOL    HW224369   1.721   4.048   5.162
 7824SOL     OW24370   0.562   3.681   5.696
 7824SOL    HW124371   0.579   3.605   5.633
 7824SOL    HW224372   0.576   3.650   5.790
 7825SOL     OW24373   3.041   1.048   6.390
 7825SOL    HW124374   2.959   1.104   6.398
 7825SOL    HW224375   3.120   1.099   6.424
 7826SOL     OW24376   0.776   3.145   5.989
 7826SOL    HW124377   0.770   3.099   5.901
 7826SOL    HW224378   0.869   3.182   6.001
 7827SOL     OW24379   6.779   5.558   4.553
 7827SOL    HW124380   6.727   5.480   4.588
 7827SOL    HW224381   6.823   5.533   4.467
 7828SOL     OW24382   0.278   4.777   0.367
 7828SOL    HW124383   0.321   4.751   0.453
 7828SOL    HW224384   0.320   4.727   0.292
 7829SOL     OW24385   3.613   3.619   0.456
 7829SOL    HW124386   3.655   3.620   0.547
 7829SOL    HW224387   3.529   3.673   0.457
 7830SOL     OW24388   2.458   5.427   4.151
 7830SOL    HW124389   2.411   5.477   4.224
 7830SOL    HW224390   2.521   5.488   4.104
 7831SOL     OW24391   1.617   0.255   6.658
 7831SOL    HW124392   1.580   0.165   6.634
 7831SOL    HW224393   1.717   0.249   6.665
 7832SOL     OW24394   6.101   0.809   4.476
 7832SOL    HW124395   6.055   0.741   4.532
 7832SOL    HW224396   6.037   0.882   4.451
 7833SOL     OW24397   1.419   0.610   3.196
 7833SOL    HW124398   1.420   0.589   3.293
 7833SOL    HW224399   1.505   0.581   3.154
 7834SOL     OW24400   6.212   3.236   5.593
 7834SOL    HW124401   6.260   3.322   5.608
 7834SOL    HW224402   6.114   3.249   5.605
 7835SOL     OW24403   4.344   2.581   5.604
 7835SOL    HW124404   4.278   2.595   5.530
 7835SOL    HW224405   4.297   2.589   5.692
 7836SOL     OW24406   3.197   3.489   3.884
 7836SOL    HW124407   3.136   3.452   3.814
 7836SOL    HW224408   3.179   3.444   3.972
 7837SOL     OW24409   0.424   5.694   0.144
 7837SOL    HW124410   0.399   5.736   0.057
 7837SOL    HW224411   0.363   5.727   0.216
 7838SOL     OW24412   4.499   5.972   2.551
 7838SOL    HW124413   4.576   5.990   2.612
 7838SOL    HW224414   4.419   6.025   2.580
 7839SOL     OW24415   6.280   2.713   4.202
 7839SOL    HW124416   6.247   2.689   4.111
 7839SOL    HW224417   6.220   2.783   4.241
 7840SOL     OW24418   1.964   2.868   4.254
 7840SOL    HW124419   2.052   2.902   4.287
 7840SOL    HW224420   1.977   2.784   4.202
 7841SOL     OW24421   3.654   1.831   6.668
 7841SOL    HW124422   3.700   1.784   6.592
 7841SOL    HW224423   3.715   1.832   6.747
 7842SOL     OW24424   1.117   0.901   1.661
 7842SOL    HW124425   1.168   0.926   1.743
 7842SOL    HW224426   1.140   0.964   1.587
 7843SOL     OW24427   0.045   6.283   3.087
 7843SOL    HW124428   0.129   6.256   3.041
 7843SOL    HW224429   0.031   6.381   3.077
 7844SOL     OW24430   3.731   0.647   2.424
 7844SOL    HW124431   3.713   0.741   2.454
 7844SOL    HW224432   3.672   0.585   2.475
 7845SOL     OW24433   6.831   2.993   0.629
 7845SOL    HW124434   6.813   3.069   0.692
 7845SOL    HW224435   6.784   2.912   0.662
 7846SOL     OW24436   0.997   1.278   0.098
 7846SOL    HW124437   0.983   1.197   0.041
 7846SOL    HW224438   1.080   1.267   0.152
 7847SOL     OW24439   5.814   4.533   6.385
 7847SOL    HW124440   5.769   4.484   6.460
 7847SOL    HW224441   5.879   4.471   6.340
 7848SOL     OW24442   3.401   4.539   0.491
 7848SOL    HW124443   3.420   4.511   0.585
 7848SOL    HW224444   3.302   4.534   0.475
 7849SOL     OW24445   4.440   5.055   0.017
 7849SOL    HW124446   4.486   5.109   0.086
 7849SOL    HW224447   4.372   4.995   0.060
 7850SOL     OW24448   7.010   1.433   4.107
 7850SOL    HW124449   0.084   1.443   4.142
 7850SOL    HW224450   6.956   1.374   4.168
 7851SOL     OW24451   0.101   4.564   0.996
 7851SOL    HW124452   0.099   4.590   1.093
 7851SOL    HW224453   0.009   4.571   0.958
 7852SOL     OW24454   1.084   2.706   6.983
 7852SOL    HW124455   1.140   2.637   0.010
 7852SOL    HW224456   1.129   2.733   6.897
 7853SOL     OW24457   4.126   2.999   1.696
 7853SOL    HW124458   4.047   3.060   1.689
 7853SOL    HW224459   4.208   3.053   1.712
 7854SOL     OW24460   4.891   1.783   6.983
 7854SOL    HW124461   4.983   1.775   0.001
 7854SOL    HW224462   4.884   1.733   6.897
 7855SOL     OW24463   5.160   6.653   4.271
 7855SOL    HW124464   5.127   6.632   4.179
 7855SOL    HW224465   5.229   6.725   4.265
 7856SOL     OW24466   2.032   6.660   4.501
 7856SOL    HW124467   1.934   6.680   4.504
 7856SOL    HW224468   2.047   6.573   4.454
 7857SOL     OW24469   5.916   4.348   1.230
 7857SOL    HW124470   5.928   4.258   1.273
 7857SOL    HW224471   5.895   4.416   1.300
 7858SOL     OW24472   0.298   4.342   6.361
 7858SOL    HW124473   0.379   4.321   6.306
 7858SOL    HW224474   0.262   4.258   6.400
 7859SOL     OW24475   5.092   1.833   0.674
 7859SOL    HW124476   5.169   1.803   0.618
 7859SOL    HW224477   5.112   1.924   0.712
 7860SOL     OW24478   2.700   1.475   4.815
 7860SOL    HW124479   2.793   1.493   4.782
 7860SOL    HW224480   2.650   1.561   4.820
 7861SOL     OW24481   2.077   6.344   0.538
 7861SOL    HW124482   2.067   6.355   0.439
 7861SOL    HW224483   2.156   6.398   0.569
 7862SOL     OW24484   1.599   5.935   6.877
 7862SOL    HW124485   1.554   5.979   6.799
 7862SOL    HW224486   1.694   5.915   6.854
 7863SOL     OW24487   1.432   3.868   3.850
 7863SOL    HW124488   1.478   3.836   3.934
 7863SOL    HW224489   1.430   3.968   3.849
 7864SOL     OW24490   2.393   6.083   5.135
 7864SOL    HW124491   2.450   6.008   5.167
 7864SOL    HW224492   2.318   6.047   5.080
 7865SOL     OW24493   5.721   4.020   3.339
 7865SOL    HW124494   5.806   3.974   3.315
 7865SOL    HW224495   5.648   3.989   3.278
 7866SOL     OW24496   0.920   1.241   5.854
 7866SOL    HW124497   0.955   1.199   5.770
 7866SOL    HW224498   0.865   1.321   5.831
 7867SOL     OW24499   4.647   4.981   3.545
 7867SOL    HW124500   4.742   4.990   3.575
 7867SOL    HW224501   4.593   4.940   3.619
 7868SOL     OW24502   2.748   6.448   1.353
 7868SOL    HW124503   2.832   6.434   1.405
 7868SOL    HW224504   2.694   6.520   1.395
 7869SOL     OW24505   6.019   4.565   6.984
 7869SOL    HW124506   6.020   4.661   6.955
 7869SOL    HW224507   5.985   4.559   0.060
 7870SOL     OW24508   5.872   6.116   4.084
 7870SOL    HW124509   5.898   6.020   4.090
 7870SOL    HW224510   5.773   6.124   4.087
 7871SOL     OW24511   4.838   1.532   0.134
 7871SOL    HW124512   4.871   1.626   0.134
 7871SOL    HW224513   4.915   1.469   0.147
 7872SOL     OW24514   1.361   5.442   3.490
 7872SOL    HW124515   1.397   5.432   3.398
 7872SOL    HW224516   1.411   5.381   3.552
 7873SOL     OW24517   4.878   1.912   0.301
 7873SOL    HW124518   4.807   1.926   0.231
 7873SOL    HW224519   4.932   1.832   0.277
 7874SOL     OW24520   6.098   2.756   0.914
 7874SOL    HW124521   6.106   2.737   1.012
 7874SOL    HW224522   6.013   2.805   0.896
 7875SOL     OW24523   5.860   4.493   5.933
 7875SOL    HW124524   5.850   4.533   5.842
 7875SOL    HW224525   5.771   4.495   5.980
 7876SOL     OW24526   0.914   0.448   4.106
 7876SOL    HW124527   0.890   0.473   4.199
 7876SOL    HW224528   0.987   0.379   4.108
 7877SOL     OW24529   0.030   2.735   3.324
 7877SOL    HW124530   6.990   2.748   3.244
 7877SOL    HW224531   0.016   2.811   3.388
 7878SOL     OW24532   4.315   5.439   3.188
 7878SOL    HW124533   4.351   5.524   3.228
 7878SOL    HW224534   4.390   5.390   3.144
 7879SOL     OW24535   3.069   4.798   3.014
 7879SOL    HW124536   3.088   4.836   3.105
 7879SOL    HW224537   2.996   4.730   3.021
 7880SOL     OW24538   1.057   5.008   2.422
 7880SOL    HW124539   1.099   5.037   2.507
 7880SOL    HW224540   1.126   4.965   2.364
 7881SOL     OW24541   4.838   3.978   3.507
 7881SOL    HW124542   4.855   3.885   3.539
 7881SOL    HW224543   4.805   4.033   3.584
 7882SOL     OW24544   0.679   3.097   6.875
 7882SOL    HW124545   0.735   3.023   6.836
 7882SOL    HW224546   0.700   3.107   6.972
 7883SOL     OW24547   0.681   0.862   5.107
 7883SOL    HW124548   0.638   0.773   5.112
 7883SOL    HW224549   0.778   0.851   5.084
 7884SOL     OW24550   1.096   2.792   4.467
 7884SOL    HW124551   1.172   2.737   4.432
 7884SOL    HW224552   1.033   2.813   4.392
 7885SOL     OW24553   6.587   5.992   6.363
 7885SOL    HW124554   6.645   6.038   6.295
 7885SOL    HW224555   6.507   6.048   6.381
 7886SOL     OW24556   5.222   4.683   0.998
 7886SOL    HW124557   5.146   4.713   0.941
 7886SOL    HW224558   5.242   4.752   1.067
 7887SOL     OW24559   4.727   2.819   5.884
 7887SOL    HW124560   4.689   2.899   5.929
 7887SOL    HW224561   4.660   2.745   5.886
 7888SOL     OW24562   5.328   6.366   4.652
 7888SOL    HW124563   5.398   6.358   4.723
 7888SOL    HW224564   5.238   6.359   4.694
 7889SOL     OW24565   6.949   4.838   2.735
 7889SOL    HW124566   6.945   4.865   2.831
 7889SOL    HW224567   7.011   4.900   2.687
 7890SOL     OW24568   1.925   3.078   2.431
 7890SOL    HW124569   1.923   3.104   2.335
 7890SOL    HW224570   1.909   3.158   2.488
 7891SOL     OW24571   1.170   4.743   2.987
 7891SOL    HW124572   1.265   4.773   2.995
 7891SOL    HW224573   1.164   4.667   2.923
 7892SOL     OW24574   2.118   2.375   5.747
 7892SOL    HW124575   2.094   2.428   5.666
 7892SOL    HW224576   2.036   2.336   5.787
 7893SOL     OW24577   5.968   6.330   1.645
 7893SOL    HW124578   5.868   6.322   1.647
 7893SOL    HW224579   5.995   6.421   1.676
 7894SOL     OW24580   2.926   7.004   1.792
 7894SOL    HW124581   2.904   6.918   1.839
 7894SOL    HW224582   2.997   6.988   1.724
 7895SOL     OW24583   6.644   1.348   3.233
 7895SOL    HW124584   6.730   1.321   3.276
 7895SOL    HW224585   6.599   1.418   3.289
 7896SOL     OW24586   4.395   1.652   6.257
 7896SOL    HW124587   4.395   1.618   6.351
 7896SOL    HW224588   4.323   1.606   6.205
 7897SOL     OW24589   2.923   3.188   6.652
 7897SOL    HW124590   3.020   3.164   6.654
 7897SOL    HW224591   2.868   3.110   6.680
 7898SOL     OW24592   4.664   1.958   3.430
 7898SOL    HW124593   4.735   1.897   3.466
 7898SOL    HW224594   4.684   2.052   3.458
 7899SOL     OW24595   4.460   1.546   2.954
 7899SOL    HW124596   4.403   1.568   3.033
 7899SOL    HW224597   4.549   1.590   2.962
 7900SOL     OW24598   1.246   5.306   0.816
 7900SOL    HW124599   1.243   5.315   0.717
 7900SOL    HW224600   1.235   5.396   0.858
 7901SOL     OW24601   6.206   5.288   0.944
 7901SOL    HW124602   6.134   5.352   0.917
 7901SOL    HW224603   6.174   5.232   1.020
 7902SOL     OW24604   5.008   4.997   5.886
 7902SOL    HW124605   5.014   5.047   5.800
 7902SOL    HW224606   5.045   4.905   5.873
 7903SOL     OW24607   0.262   2.456   0.064
 7903SOL    HW124608   0.238   2.537   0.012
 7903SOL    HW224609   0.361   2.444   0.064
 7904SOL     OW24610   6.415   1.453   2.186
 7904SOL    HW124611   6.350   1.510   2.136
 7904SOL    HW224612   6.491   1.429   2.126
 7905SOL     OW24613   2.498   2.012   1.287
 7905SOL    HW124614   2.593   2.030   1.310
 7905SOL    HW224615   2.441   2.088   1.321
 7906SOL     OW24616   0.761   4.702   0.447
 7906SOL    HW124617   0.675   4.669   0.409
 7906SOL    HW224618   0.759   4.693   0.547
 7907SOL     OW24619   6.149   3.084   1.994
 7907SOL    HW124620   6.201   3.011   2.038
 7907SOL    HW224621   6.066   3.045   1.953
 7908SOL     OW24622   6.259   1.461   2.974
 7908SOL    HW124623   6.303   1.550   2.987
 7908SOL    HW224624   6.264   1.409   3.060
 7909SOL     OW24625   4.130   6.022   5.072
 7909SOL    HW124626   4.228   6.031   5.089
 7909SOL    HW224627   4.081   6.017   5.159
 7910SOL     OW24628   6.069   3.725   6.186
 7910SOL    HW124629   6.146   3.772   6.144
 7910SOL    HW224630   5.985   3.775   6.167
 7911SOL     OW24631   6.920   5.033   6.890
 7911SOL    HW124632   6.974   5.037   6.805
 7911SOL    HW224633   6.973   5.072   6.965
 7912SOL     OW24634   6.983   5.452   5.530
 7912SOL    HW124635   0.005   5.525   5.586
 7912SOL    HW224636   6.887   5.439   5.556
 7913SOL     OW24637   0.779   6.033   6.611
 7913SOL    HW124638   0.878   6.038   6.625
 7913SOL    HW224639   0.756   6.071   6.522
 7914SOL     OW24640   6.957   3.519   1.990
 7914SOL    HW124641   6.867   3.491   1.957
 7914SOL    HW224642   6.999   3.581   1.925
 7915SOL     OW24643   4.196   1.303   1.941
 7915SOL    HW124644   4.104   1.295   1.902
 7915SOL    HW224645   4.255   1.353   1.877
 7916SOL     OW24646   4.943   3.647   5.589
 7916SOL    HW124647   4.991   3.637   5.675
 7916SOL    HW224648   4.848   3.673   5.607
 7917SOL     OW24649   3.422   4.159   3.673
 7917SOL    HW124650   3.481   4.149   3.593
 7917SOL    HW224651   3.477   4.186   3.752
 7918SOL     OW24652   6.552   2.530   2.575
 7918SOL    HW124653   6.552   2.492   2.668
 7918SOL    HW224654   6.626   2.489   2.522
 7919SOL     OW24655   5.906   4.857   1.914
 7919SOL    HW124656   5.913   4.781   1.979
 7919SOL    HW224657   5.977   4.848   1.844
 7920SOL     OW24658   0.404   6.714   2.214
 7920SOL    HW124659   0.383   6.635   2.156
 7920SOL    HW224660   0.491   6.699   2.260
 7921SOL     OW24661   2.924   6.125   1.884
 7921SOL    HW124662   2.841   6.074   1.906
 7921SOL    HW224663   3.000   6.089   1.937
 7922SOL     OW24664   0.916   4.808   5.914
 7922SOL    HW124665   0.903   4.904   5.940
 7922SOL    HW224666   0.952   4.757   5.992
 7923SOL     OW24667   0.700   1.885   2.972
 7923SOL    HW124668   0.767   1.899   3.045
 7923SOL    HW224669   0.616   1.935   2.992
 7924SOL     OW24670   2.460   1.048   4.017
 7924SOL    HW124671   2.474   1.013   3.924
 7924SOL    HW224672   2.513   0.992   4.082
 7925SOL     OW24673   0.643   1.162   6.425
 7925SOL    HW124674   0.729   1.133   6.382
 7925SOL    HW224675   0.630   1.113   6.511
 7926SOL     OW24676   3.661   6.859   1.865
 7926SOL    HW124677   3.696   6.953   1.871
 7926SOL    HW224678   3.611   6.847   1.779
 7927SOL     OW24679   4.966   4.422   4.222
 7927SOL    HW124680   5.026   4.469   4.286
 7927SOL    HW224681   5.021   4.361   4.164
 7928SOL     OW24682   0.997   4.668   6.674
 7928SOL    HW124683   0.992   4.767   6.656
 7928SOL    HW224684   0.906   4.628   6.662
 7929SOL     OW24685   3.924   4.005   4.283
 7929SOL    HW124686   3.937   3.996   4.184
 7929SOL    HW224687   3.981   3.939   4.331
 7930SOL     OW24688   5.556   6.131   3.860
 7930SOL    HW124689   5.586   6.104   3.952
 7930SOL    HW224690   5.562   6.051   3.800
 7931SOL     OW24691   2.237   3.401   0.179
 7931SOL    HW124692   2.180   3.319   0.178
 7931SOL    HW224693   2.307   3.392   0.251
 7932SOL     OW24694   2.924   6.753   0.816
 7932SOL    HW124695   2.994   6.783   0.750
 7932SOL    HW224696   2.895   6.831   0.871
 7933SOL     OW24697   1.564   1.089   6.203
 7933SOL    HW124698   1.597   1.183   6.199
 7933SOL    HW224699   1.509   1.077   6.286
 7934SOL     OW24700   3.959   2.824   5.481
 7934SOL    HW124701   4.009   2.847   5.565
 7934SOL    HW224702   4.014   2.763   5.425
 7935SOL     OW24703   5.012   5.860   1.435
 7935SOL    HW124704   5.034   5.813   1.349
 7935SOL    HW224705   5.068   5.823   1.509
 7936SOL     OW24706   4.261   5.902   2.938
 7936SOL    HW124707   4.220   5.909   3.029
 7936SOL    HW224708   4.328   5.828   2.937
 7937SOL     OW24709   6.448   0.366   5.919
 7937SOL    HW124710   6.388   0.309   5.863
 7937SOL    HW224711   6.540   0.327   5.921
 7938SOL     OW24712   6.306   4.851   4.223
 7938SOL    HW124713   6.371   4.835   4.296
 7938SOL    HW224714   6.256   4.936   4.240
 7939SOL     OW24715   0.350   6.922   4.185
 7939SOL    HW124716   0.288   6.911   4.263
 7939SOL    HW224717   0.443   6.940   4.219
 7940SOL     OW24718   1.946   6.032   0.796
 7940SOL    HW124719   1.963   6.120   0.842
 7940SOL    HW224720   1.849   6.011   0.799
 7941SOL     OW24721   0.102   0.379   0.678
 7941SOL    HW124722   0.086   0.431   0.594
 7941SOL    HW224723   0.015   0.363   0.726
 7942SOL     OW24724   1.287   1.166   1.063
 7942SOL    HW124725   1.298   1.266   1.066
 7942SOL    HW224726   1.344   1.128   0.990
 7943SOL     OW24727   5.917   2.002   0.089
 7943SOL    HW124728   5.827   1.960   0.095
 7943SOL    HW224729   5.926   2.073   0.158
 7944SOL     OW24730   7.013   3.377   2.499
 7944SOL    HW124731   0.058   3.362   2.423
 7944SOL    HW224732   6.929   3.324   2.482
 7945SOL     OW24733   5.326   6.788   1.190
 7945SOL    HW124734   5.384   6.776   1.109
 7945SOL    HW224735   5.252   6.721   1.188
 7946SOL     OW24736   1.613   1.729   6.117
 7946SOL    HW124737   1.578   1.726   6.211
 7946SOL    HW224738   1.536   1.743   6.054
 7947SOL     OW24739   4.588   4.989   5.685
 7947SOL    HW124740   4.606   4.984   5.783
 7947SOL    HW224741   4.491   4.974   5.668
 7948SOL     OW24742   0.602   4.904   6.148
 7948SOL    HW124743   0.619   4.857   6.061
 7948SOL    HW224744   0.520   4.865   6.190
 7949SOL     OW24745   6.727   4.002   3.979
 7949SOL    HW124746   6.680   3.915   3.996
 7949SOL    HW224747   6.660   4.076   3.979
 7950SOL     OW24748   3.827   5.213   3.980
 7950SOL    HW124749   3.804   5.147   3.908
 7950SOL    HW224750   3.767   5.198   4.058
 7951SOL     OW24751   3.395   3.653   0.772
 7951SOL    HW124752   3.405   3.678   0.869
 7951SOL    HW224753   3.445   3.569   0.754
 7952SOL     OW24754   5.102   5.058   0.216
 7952SOL    HW124755   5.017   5.039   0.166
 7952SOL    HW224756   5.176   5.006   0.174
 7953SOL     OW24757   2.180   3.119   2.900
 7953SOL    HW124758   2.221   3.030   2.922
 7953SOL    HW224759   2.182   3.178   2.981
 7954SOL     OW24760   5.401   5.392   4.442
 7954SOL    HW124761   5.442   5.483   4.430
 7954SOL    HW224762   5.327   5.380   4.376
 7955SOL     OW24763   1.590   0.015   6.132
 7955SOL    HW124764   1.641   6.947   6.123
 7955SOL    HW224765   1.503   7.015   6.178
 7956SOL     OW24766   6.080   0.135   3.260
 7956SOL    HW124767   6.082   0.095   3.351
 7956SOL    HW224768   6.157   0.198   3.250
 7957SOL     OW24769   0.836   2.409   0.908
 7957SOL    HW124770   0.808   2.504   0.912
 7957SOL    HW224771   0.756   2.350   0.918
 7958SOL     OW24772   2.040   5.468   3.628
 7958SOL    HW124773   2.014   5.551   3.578
 7958SOL    HW224774   1.958   5.415   3.651
 7959SOL     OW24775   4.979   5.372   0.660
 7959SOL    HW124776   4.902   5.419   0.703
 7959SOL    HW224777   5.004   5.419   0.575
 7960SOL     OW24778   2.096   2.590   0.930
 7960SOL    HW124779   2.175   2.638   0.967
 7960SOL    HW224780   2.043   2.651   0.872
 7961SOL     OW24781   1.829   5.706   7.004
 7961SOL    HW124782   1.796   5.760   0.063
 7961SOL    HW224783   1.798   5.747   6.919
 7962SOL     OW24784   1.555   6.545   2.003
 7962SOL    HW124785   1.545   6.644   1.997
 7962SOL    HW224786   1.569   6.519   2.099
 7963SOL     OW24787   0.460   6.459   4.992
 7963SOL    HW124788   0.506   6.371   4.998
 7963SOL    HW224789   0.386   6.463   5.059
 7964SOL     OW24790   6.351   5.710   3.381
 7964SOL    HW124791   6.335   5.638   3.314
 7964SOL    HW224792   6.362   5.669   3.472
 7965SOL     OW24793   5.571   1.837   0.602
 7965SOL    HW124794   5.614   1.868   0.518
 7965SOL    HW224795   5.558   1.915   0.663
 7966SOL     OW24796   6.867   6.448   3.345
 7966SOL    HW124797   6.878   6.352   3.319
 7966SOL    HW224798   6.780   6.482   3.309
 7967SOL     OW24799   2.796   0.026   3.307
 7967SOL    HW124800   2.888   0.050   3.339
 7967SOL    HW224801   2.799   6.956   3.260
 7968SOL     OW24802   2.007   0.714   1.572
 7968SOL    HW124803   1.983   0.807   1.544
 7968SOL    HW224804   2.065   0.672   1.502
 7969SOL     OW24805   3.368   1.862   3.561
 7969SOL    HW124806   3.270   1.868   3.578
 7969SOL    HW224807   3.385   1.817   3.474
 7970SOL     OW24808   0.458   4.972   3.075
 7970SOL    HW124809   0.518   4.910   3.126
 7970SOL    HW224810   0.369   4.976   3.119
 7971SOL     OW24811   2.865   1.565   1.773
 7971SOL    HW124812   2.844   1.658   1.805
 7971SOL    HW224813   2.961   1.560   1.747
 7972SOL     OW24814   0.539   5.217   1.668
 7972SOL    HW124815   0.597   5.291   1.702
 7972SOL    HW224816   0.443   5.242   1.678
 7973SOL     OW24817   4.662   2.222   2.452
 7973SOL    HW124818   4.628   2.177   2.535
 7973SOL    HW224819   4.645   2.320   2.457
 7974SOL     OW24820   5.654   6.797   3.907
 7974SOL    HW124821   5.610   6.771   3.993
 7974SOL    HW224822   5.690   6.715   3.862
 7975SOL     OW24823   2.291   0.981   2.799
 7975SOL    HW124824   2.348   0.900   2.809
 7975SOL    HW224825   2.243   0.978   2.711
 7976SOL     OW24826   0.730   6.203   6.349
 7976SOL    HW124827   0.679   6.260   6.284
 7976SOL    HW224828   0.724   6.107   6.321
 7977SOL     OW24829   4.961   6.543   1.522
 7977SOL    HW124830   4.993   6.514   1.432
 7977SOL    HW224831   4.896   6.476   1.558
 7978SOL     OW24832   3.565   2.625   5.883
 7978SOL    HW124833   3.527   2.662   5.798
 7978SOL    HW224834   3.491   2.598   5.944
 7979SOL     OW24835   4.744   7.009   4.425
 7979SOL    HW124836   4.714   6.987   4.333
 7979SOL    HW224837   4.841   0.017   4.423
 7980SOL     OW24838   2.607   0.542   2.286
 7980SOL    HW124839   2.627   0.446   2.305
 7980SOL    HW224840   2.531   0.572   2.342
 7981SOL     OW24841   0.889   6.072   2.997
 7981SOL    HW124842   0.975   6.098   2.952
 7981SOL    HW224843   0.885   5.972   3.005
 7982SOL     OW24844   0.389   2.290   0.424
 7982SOL    HW124845   0.354   2.382   0.442
 7982SOL    HW224846   0.329   2.222   0.467
 7983SOL     OW24847   4.611   2.556   2.213
 7983SOL    HW124848   4.585   2.648   2.181
 7983SOL    HW224849   4.605   2.552   2.313
 7984SOL     OW24850   0.006   0.535   0.486
 7984SOL    HW124851   0.007   0.583   0.398
 7984SOL    HW224852   6.972   0.588   0.553
 7985SOL     OW24853   0.296   0.868   1.135
 7985SOL    HW124854   0.246   0.942   1.091
 7985SOL    HW224855   0.388   0.900   1.160
 7986SOL     OW24856   4.601   3.002   0.127
 7986SOL    HW124857   4.556   3.005   0.038
 7986SOL    HW224858   4.544   3.049   0.195
 7987SOL     OW24859   0.924   2.367   4.454
 7987SOL    HW124860   1.020   2.369   4.484
 7987SOL    HW224861   0.918   2.325   4.363
 7988SOL     OW24862   2.773   2.306   5.812
 7988SOL    HW124863   2.732   2.236   5.871
 7988SOL    HW224864   2.831   2.263   5.743
 7989SOL     OW24865   3.708   3.503   5.418
 7989SOL    HW124866   3.765   3.585   5.419
 7989SOL    HW224867   3.705   3.463   5.509
 7990SOL     OW24868   2.110   2.531   4.758
 7990SOL    HW124869   2.179   2.555   4.827
 7990SOL    HW224870   2.155   2.492   4.678
 7991SOL     OW24871   0.745   3.158   5.040
 7991SOL    HW124872   0.799   3.164   4.956
 7991SOL    HW224873   0.800   3.120   5.114
 7992SOL     OW24874   2.310   0.883   0.690
 7992SOL    HW124875   2.350   0.975   0.695
 7992SOL    HW224876   2.285   0.854   0.782
 7993SOL     OW24877   2.292   6.552   6.369
 7993SOL    HW124878   2.237   6.563   6.287
 7993SOL    HW224879   2.352   6.472   6.360
 7994SOL     OW24880   5.759   0.687   4.405
 7994SOL    HW124881   5.842   0.649   4.364
 7994SOL    HW224882   5.758   0.667   4.503
 7995SOL     OW24883   4.605   5.896   3.482
 7995SOL    HW124884   4.609   5.979   3.539
 7995SOL    HW224885   4.646   5.820   3.532
 7996SOL     OW24886   3.854   0.786   5.226
 7996SOL    HW124887   3.890   0.706   5.178
 7996SOL    HW224888   3.929   0.850   5.244
 7997SOL     OW24889   5.410   2.725   1.982
 7997SOL    HW124890   5.324   2.768   2.011
 7997SOL    HW224891   5.403   2.626   1.994
 7998SOL     OW24892   5.986   4.891   6.463
 7998SOL    HW124893   5.907   4.864   6.408
 7998SOL    HW224894   6.056   4.820   6.457
 7999SOL     OW24895   1.435   0.435   5.528
 7999SOL    HW124896   1.339   0.456   5.511
 7999SOL    HW224897   1.443   0.346   5.573
 8000SOL     OW24898   5.621   0.238   5.542
 8000SOL    HW124899   5.593   0.179   5.618
 8000SOL    HW224900   5.701   0.292   5.570
 8001SOL     OW24901   2.404   6.600   1.302
 8001SOL    HW124902   2.425   6.528   1.236
 8001SOL    HW224903   2.306   6.599   1.322
 8002SOL     OW24904   5.085   2.654   5.668
 8002SOL    HW124905   5.027   2.682   5.745
 8002SOL    HW224906   5.029   2.604   5.601
 8003SOL     OW24907   3.994   5.963   3.770
 8003SOL    HW124908   3.985   5.970   3.869
 8003SOL    HW224909   3.929   6.026   3.726
 8004SOL     OW24910   1.281   4.226   2.809
 8004SOL    HW124911   1.319   4.243   2.718
 8004SOL    HW224912   1.335   4.156   2.856
 8005SOL     OW24913   2.716   0.293   2.396
 8005SOL    HW124914   2.645   0.224   2.412
 8005SOL    HW224915   2.768   0.307   2.481
 8006SOL     OW24916   3.625   6.448   0.958
 8006SOL    HW124917   3.636   6.380   0.886
 8006SOL    HW224918   3.669   6.534   0.931
 8007SOL     OW24919   0.271   1.447   4.192
 8007SOL    HW124920   0.305   1.478   4.103
 8007SOL    HW224921   0.259   1.348   4.191
 8008SOL     OW24922   6.107   5.295   0.482
 8008SOL    HW124923   6.139   5.201   0.485
 8008SOL    HW224924   6.025   5.305   0.538
 8009SOL     OW24925   6.876   6.949   4.022
 8009SOL    HW124926   6.829   6.861   4.031
 8009SOL    HW224927   6.975   6.932   4.013
 8010SOL     OW24928   1.794   3.186   6.725
 8010SOL    HW124929   1.759   3.257   6.785
 8010SOL    HW224930   1.852   3.227   6.654
 8011SOL     OW24931   2.241   2.392   0.798
 8011SOL    HW124932   2.338   2.413   0.809
 8011SOL    HW224933   2.187   2.442   0.866
 8012SOL     OW24934   2.937   0.392   3.494
 8012SOL    HW124935   3.003   0.439   3.436
 8012SOL    HW224936   2.982   0.318   3.544
 8013SOL     OW24937   5.893   5.464   4.817
 8013SOL    HW124938   5.879   5.369   4.842
 8013SOL    HW224939   5.871   5.477   4.720
 8014SOL     OW24940   2.186   0.213   6.843
 8014SOL    HW124941   2.179   0.115   6.860
 8014SOL    HW224942   2.272   0.233   6.795
 8015SOL     OW24943   1.684   1.989   6.590
 8015SOL    HW124944   1.698   1.953   6.681
 8015SOL    HW224945   1.631   2.074   6.595
 8016SOL     OW24946   3.816   6.710   1.295
 8016SOL    HW124947   3.871   6.705   1.379
 8016SOL    HW224948   3.758   6.629   1.288
 8017SOL     OW24949   5.987   3.898   5.141
 8017SOL    HW124950   6.033   3.810   5.149
 8017SOL    HW224951   5.961   3.912   5.045
 8018SOL     OW24952   5.399   2.731   4.464
 8018SOL    HW124953   5.463   2.791   4.417
 8018SOL    HW224954   5.306   2.770   4.458
 8019SOL     OW24955   2.101   4.960   1.612
 8019SOL    HW124956   2.136   4.897   1.681
 8019SOL    HW224957   2.002   4.968   1.622
 8020SOL     OW24958   5.603   6.375   6.332
 8020SOL    HW124959   5.573   6.292   6.378
 8020SOL    HW224960   5.602   6.360   6.233
 8021SOL     OW24961   0.125   1.002   0.782
 8021SOL    HW124962   0.129   0.907   0.750
 8021SOL    HW224963   0.175   1.061   0.719
 8022SOL     OW24964   4.424   5.662   3.283
 8022SOL    HW124965   4.502   5.713   3.246
 8022SOL    HW224966   4.383   5.714   3.357
 8023SOL     OW24967   6.376   6.660   3.470
 8023SOL    HW124968   6.337   6.579   3.514
 8023SOL    HW224969   6.469   6.639   3.439
 8024SOL     OW24970   4.877   5.569   4.385
 8024SOL    HW124971   4.865   5.529   4.476
 8024SOL    HW224972   4.912   5.499   4.322
 8025SOL     OW24973   3.050   6.145   0.436
 8025SOL    HW124974   3.127   6.126   0.496
 8025SOL    HW224975   3.012   6.235   0.458
 8026SOL     OW24976   1.836   2.781   0.860
 8026SOL    HW124977   1.792   2.732   0.935
 8026SOL    HW224978   1.769   2.798   0.787
 8027SOL     OW24979   5.295   3.471   5.714
 8027SOL    HW124980   5.213   3.504   5.762
 8027SOL    HW224981   5.293   3.371   5.710
 8028SOL     OW24982   5.460   5.502   0.373
 8028SOL    HW124983   5.462   5.410   0.334
 8028SOL    HW224984   5.366   5.527   0.394
 8029SOL     OW24985   3.100   4.671   0.349
 8029SOL    HW124986   3.033   4.668   0.423
 8029SOL    HW224987   3.155   4.754   0.357
 8030SOL     OW24988   6.041   3.732   0.122
 8030SOL    HW124989   5.952   3.688   0.127
 8030SOL    HW224990   6.111   3.663   0.105
 8031SOL     OW24991   3.313   6.047   1.014
 8031SOL    HW124992   3.360   6.136   1.010
 8031SOL    HW224993   3.279   6.024   0.923
 8032SOL     OW24994   4.752   4.712   5.503
 8032SOL    HW124995   4.833   4.670   5.544
 8032SOL    HW224996   4.669   4.674   5.545
 8033SOL     OW24997   5.947   2.224   0.904
 8033SOL    HW124998   5.872   2.169   0.941
 8033SOL    HW224999   5.997   2.267   0.980
 8034SOL     OW25000   6.108   1.106   4.731
 8034SOL    HW125001   6.061   1.099   4.643
 8034SOL    HW225002   6.168   1.027   4.744
 8035SOL     OW25003   5.708   6.303   0.194
 8035SOL    HW125004   5.616   6.266   0.187
 8035SOL    HW225005   5.750   6.272   0.280
 8036SOL     OW25006   2.063   4.667   1.312
 8036SOL    HW125007   2.122   4.734   1.357
 8036SOL    HW225008   1.977   4.660   1.362
 8037SOL     OW25009   2.142   3.468   1.085
 8037SOL    HW125010   2.238   3.489   1.100
 8037SOL    HW225011   2.120   3.380   1.127
 8038SOL     OW25012   6.529   1.474   3.906
 8038SOL    HW125013   6.626   1.497   3.910
 8038SOL    HW225014   6.475   1.545   3.952
 8039SOL     OW25015   2.956   6.877   4.479
 8039SOL    HW125016   2.860   6.884   4.450
 8039SOL    HW225017   2.997   6.797   4.434
 8040SOL     OW25018   6.356   5.581   0.890
 8040SOL    HW125019   6.325   5.573   0.795
 8040SOL    HW225020   6.425   5.511   0.908
 8041SOL     OW25021   3.973   1.919   0.588
 8041SOL    HW125022   3.926   1.992   0.538
 8041SOL    HW225023   4.066   1.909   0.554
 8042SOL     OW25024   2.714   4.095   0.804
 8042SOL    HW125025   2.736   4.149   0.885
 8042SOL    HW225026   2.797   4.080   0.751
 8043SOL     OW25027   2.272   0.195   1.446
 8043SOL    HW125028   2.232   0.146   1.368
 8043SOL    HW225029   2.368   0.171   1.455
 8044SOL     OW25030   3.295   4.042   1.564
 8044SOL    HW125031   3.255   3.955   1.592
 8044SOL    HW225032   3.340   4.084   1.642
 8045SOL     OW25033   6.375   2.748   3.520
 8045SOL    HW125034   6.331   2.800   3.594
 8045SOL    HW225035   6.458   2.704   3.555
 8046SOL     OW25036   0.039   5.269   6.032
 8046SOL    HW125037   0.058   5.192   6.094
 8046SOL    HW225038   0.026   5.352   6.086
 8047SOL     OW25039   2.726   6.206   4.034
 8047SOL    HW125040   2.748   6.269   3.959
 8047SOL    HW225041   2.725   6.257   4.120
 8048SOL     OW25042   6.389   0.525   6.131
 8048SOL    HW125043   6.431   0.479   6.053
 8048SOL    HW225044   6.337   0.604   6.100
 8049SOL     OW25045   1.424   6.105   0.609
 8049SOL    HW125046   1.369   6.139   0.533
 8049SOL    HW225047   1.509   6.158   0.615
 8050SOL     OW25048   0.936   3.135   0.814
 8050SOL    HW125049   0.938   3.223   0.766
 8050SOL    HW225050   0.861   3.080   0.779
 8051SOL     OW25051   3.685   1.814   3.986
 8051SOL    HW125052   3.601   1.826   3.934
 8051SOL    HW225053   3.755   1.775   3.927
 8052SOL     OW25054   3.275   1.894   3.100
 8052SOL    HW125055   3.279   1.968   3.033
 8052SOL    HW225056   3.303   1.808   3.056
 8053SOL     OW25057   3.852   3.306   1.860
 8053SOL    HW125058   3.776   3.364   1.832
 8053SOL    HW225059   3.820   3.240   1.929
 8054SOL     OW25060   4.485   5.996   4.233
 8054SOL    HW125061   4.432   5.930   4.286
 8054SOL    HW225062   4.525   5.950   4.154
 8055SOL     OW25063   1.155   6.990   5.078
 8055SOL    HW125064   1.203   7.017   4.995
 8055SOL    HW225065   1.146   6.890   5.081
 8056SOL     OW25066   4.211   1.579   2.779
 8056SOL    HW125067   4.283   1.558   2.846
 8056SOL    HW225068   4.239   1.546   2.689
 8057SOL     OW25069   3.980   7.016   3.581
 8057SOL    HW125070   4.037   0.038   3.508
 8057SOL    HW225071   3.928   0.069   3.626
 8058SOL     OW25072   2.497   0.127   3.534
 8058SOL    HW125073   2.476   0.161   3.625
 8058SOL    HW225074   2.524   0.203   3.475
 8059SOL     OW25075   2.696   1.372   4.256
 8059SOL    HW125076   2.674   1.402   4.163
 8059SOL    HW225077   2.611   1.353   4.305
 8060SOL     OW25078   0.692   1.964   4.906
 8060SOL    HW125079   0.646   1.990   4.821
 8060SOL    HW225080   0.658   2.020   4.981
 8061SOL     OW25081   6.975   5.837   1.801
 8061SOL    HW125082   6.876   5.825   1.795
 8061SOL    HW225083   6.997   5.887   1.885
 8062SOL     OW25084   2.063   3.409   2.201
 8062SOL    HW125085   2.064   3.499   2.245
 8062SOL    HW225086   2.128   3.410   2.125
 8063SOL     OW25087   2.707   3.564   6.883
 8063SOL    HW125088   2.675   3.470   6.894
 8063SOL    HW225089   2.784   3.566   6.820
 8064SOL     OW25090   6.361   3.246   6.938
 8064SOL    HW125091   6.344   3.212   6.846
 8064SOL    HW225092   6.361   3.169   7.002
 8065SOL     OW25093   4.311   6.527   6.457
 8065SOL    HW125094   4.374   6.487   6.390
 8065SOL    HW225095   4.217   6.512   6.428
 8066SOL     OW25096   2.830   0.349   1.872
 8066SOL    HW125097   2.930   0.335   1.872
 8066SOL    HW225098   2.809   0.437   1.914
 8067SOL     OW25099   4.791   1.997   2.030
 8067SOL    HW125100   4.759   2.055   1.954
 8067SOL    HW225101   4.878   2.031   2.064
 8068SOL     OW25102   6.671   4.572   4.303
 8068SOL    HW125103   6.770   4.572   4.299
 8068SOL    HW225104   6.636   4.489   4.258
 8069SOL     OW25105   1.246   6.199   2.490
 8069SOL    HW125106   1.151   6.169   2.499
 8069SOL    HW225107   1.253   6.268   2.418
 8070SOL     OW25108   3.636   6.862   2.305
 8070SOL    HW125109   3.593   6.865   2.215
 8070SOL    HW225110   3.640   6.955   2.344
 8071SOL     OW25111   3.552   6.231   0.765
 8071SOL    HW125112   3.459   6.266   0.776
 8071SOL    HW225113   3.563   6.193   0.673
 8072SOL     OW25114   5.158   1.142   2.535
 8072SOL    HW125115   5.237   1.099   2.492
 8072SOL    HW225116   5.086   1.073   2.549
 8073SOL     OW25117   4.645   7.000   6.320
 8073SOL    HW125118   4.670   6.910   6.357
 8073SOL    HW225119   4.547   7.015   6.331
 8074SOL     OW25120   3.248   4.137   6.898
 8074SOL    HW125121   3.282   4.138   6.992
 8074SOL    HW225122   3.283   4.056   6.851
 8075SOL     OW25123   5.611   2.063   3.022
 8075SOL    HW125124   5.674   2.088   3.096
 8075SOL    HW225125   5.517   2.067   3.057
 8076SOL     OW25126   4.958   2.831   6.413
 8076SOL    HW125127   4.872   2.882   6.406
 8076SOL    HW225128   4.961   2.782   6.500
 8077SOL     OW25129   1.411   0.518   0.396
 8077SOL    HW125130   1.329   0.524   0.452
 8077SOL    HW225131   1.479   0.460   0.441
 8078SOL     OW25132   5.839   3.186   0.480
 8078SOL    HW125133   5.817   3.242   0.401
 8078SOL    HW225134   5.767   3.195   0.548
 8079SOL     OW25135   0.567   1.443   1.529
 8079SOL    HW125136   0.547   1.481   1.619
 8079SOL    HW225137   0.564   1.343   1.534
 8080SOL     OW25138   3.348   5.335   0.267
 8080SOL    HW125139   3.407   5.296   0.196
 8080SOL    HW225140   3.254   5.341   0.233
 8081SOL     OW25141   5.973   1.720   5.488
 8081SOL    HW125142   5.916   1.698   5.567
 8081SOL    HW225143   6.034   1.643   5.468
 8082SOL     OW25144   6.348   3.396   4.115
 8082SOL    HW125145   6.407   3.411   4.195
 8082SOL    HW225146   6.291   3.316   4.130
 8083SOL     OW25147   5.433   2.137   4.348
 8083SOL    HW125148   5.452   2.213   4.410
 8083SOL    HW225149   5.518   2.090   4.325
 8084SOL     OW25150   6.784   6.960   1.049
 8084SOL    HW125151   6.811   6.876   1.096
 8084SOL    HW225152   6.741   0.004   1.115
 8085SOL     OW25153   6.293   1.971   0.880
 8085SOL    HW125154   6.330   1.993   0.970
 8085SOL    HW225155   6.205   1.924   0.891
 8086SOL     OW25156   3.208   6.245   5.852
 8086SOL    HW125157   3.280   6.308   5.878
 8086SOL    HW225158   3.172   6.199   5.933
 8087SOL     OW25159   2.752   3.659   0.767
 8087SOL    HW125160   2.811   3.589   0.809
 8087SOL    HW225161   2.659   3.624   0.759
 8088SOL     OW25162   4.437   0.589   2.529
 8088SOL    HW125163   4.419   0.622   2.436
 8088SOL    HW225164   4.434   0.489   2.530
 8089SOL     OW25165   6.011   3.028   0.330
 8089SOL    HW125166   6.084   3.021   0.398
 8089SOL    HW225167   5.939   3.087   0.365
 8090SOL     OW25168   4.392   2.280   5.198
 8090SOL    HW125169   4.314   2.328   5.158
 8090SOL    HW225170   4.420   2.205   5.138
 8091SOL     OW25171   2.685   5.054   5.695
 8091SOL    HW125172   2.750   5.127   5.718
 8091SOL    HW225173   2.626   5.085   5.621
 8092SOL     OW25174   6.911   2.001   3.945
 8092SOL    HW125175   6.918   2.094   3.907
 8092SOL    HW225176   6.997   1.952   3.928
 8093SOL     OW25177   5.423   5.658   1.356
 8093SOL    HW125178   5.331   5.620   1.356
 8093SOL    HW225179   5.418   5.758   1.345
 8094SOL     OW25180   1.273   4.150   4.565
 8094SOL    HW125181   1.264   4.187   4.658
 8094SOL    HW225182   1.356   4.093   4.560
 8095SOL     OW25183   6.234   3.690   4.399
 8095SOL    HW125184   6.160   3.655   4.456
 8095SOL    HW225185   6.218   3.664   4.304
 8096SOL     OW25186   3.700   0.549   0.220
 8096SOL    HW125187   3.780   0.545   0.160
 8096SOL    HW225188   3.730   0.563   0.315
 8097SOL     OW25189   4.525   1.116   4.517
 8097SOL    HW125190   4.501   1.104   4.420
 8097SOL    HW225191   4.624   1.111   4.527
 8098SOL     OW25192   3.165   1.332   4.612
 8098SOL    HW125193   3.110   1.265   4.562
 8098SOL    HW225194   3.258   1.333   4.575
 8099SOL     OW25195   4.845   6.204   4.597
 8099SOL    HW125196   4.790   6.165   4.523
 8099SOL    HW225197   4.829   6.302   4.602
 8100SOL     OW25198   0.061   6.013   0.916
 8100SOL    HW125199   0.125   6.082   0.882
 8100SOL    HW225200   0.050   6.023   1.014
 8101SOL     OW25201   0.701   5.380   2.864
 8101SOL    HW125202   0.787   5.409   2.906
 8101SOL    HW225203   0.689   5.282   2.877
 8102SOL     OW25204   0.177   0.004   6.364
 8102SOL    HW125205   0.268   0.023   6.327
 8102SOL    HW225206   0.148   6.931   6.334
 8103SOL     OW25207   2.529   1.776   2.400
 8103SOL    HW125208   2.553   1.833   2.321
 8103SOL    HW225209   2.494   1.834   2.473
 8104SOL     OW25210   2.596   5.862   5.946
 8104SOL    HW125211   2.577   5.788   6.009
 8104SOL    HW225212   2.639   5.938   5.995
 8105SOL     OW25213   2.261   2.731   2.577
 8105SOL    HW125214   2.294   2.813   2.531
 8105SOL    HW225215   2.162   2.735   2.586
 8106SOL     OW25216   0.300   4.120   5.144
 8106SOL    HW125217   0.252   4.040   5.108
 8106SOL    HW225218   0.234   4.181   5.188
 8107SOL     OW25219   1.153   5.835   6.517
 8107SOL    HW125220   1.075   5.793   6.471
 8107SOL    HW225221   1.214   5.764   6.552
 8108SOL     OW25222   2.175   3.437   5.172
 8108SOL    HW125223   2.101   3.480   5.119
 8108SOL    HW225224   2.233   3.508   5.211
 8109SOL     OW25225   1.107   5.681   5.183
 8109SOL    HW125226   1.092   5.778   5.162
 8109SOL    HW225227   1.197   5.670   5.224
 8110SOL     OW25228   1.261   4.293   0.675
 8110SOL    HW125229   1.324   4.360   0.714
 8110SOL    HW225230   1.251   4.216   0.738
 8111SOL     OW25231   3.028   5.930   4.222
 8111SOL    HW125232   3.085   6.003   4.186
 8111SOL    HW225233   2.985   5.881   4.147
 8112SOL     OW25234   4.246   1.034   4.740
 8112SOL    HW125235   4.275   0.989   4.655
 8112SOL    HW225236   4.199   0.968   4.798
 8113SOL     OW25237   4.065   2.927   6.262
 8113SOL    HW125238   4.050   2.842   6.211
 8113SOL    HW225239   3.999   2.996   6.232
 8114SOL     OW25240   3.259   3.612   1.779
 8114SOL    HW125241   3.245   3.592   1.876
 8114SOL    HW225242   3.357   3.620   1.760
 8115SOL     OW25243   3.777   1.941   0.771
 8115SOL    HW125244   3.739   1.855   0.805
 8115SOL    HW225245   3.869   1.925   0.735
 8116SOL     OW25246   4.868   1.330   5.534
 8116SOL    HW125247   4.909   1.421   5.527
 8116SOL    HW225248   4.900   1.286   5.618
 8117SOL     OW25249   2.283   1.881   5.943
 8117SOL    HW125250   2.377   1.872   5.976
 8117SOL    HW225251   2.242   1.964   5.982
 8118SOL     OW25252   1.223   2.370   4.205
 8118SOL    HW125253   1.239   2.277   4.170
 8118SOL    HW225254   1.255   2.436   4.137
 8119SOL     OW25255   1.317   5.959   1.840
 8119SOL    HW125256   1.347   5.916   1.754
 8119SOL    HW225257   1.361   6.049   1.848
 8120SOL     OW25258   4.664   4.169   1.702
 8120SOL    HW125259   4.587   4.190   1.762
 8120SOL    HW225260   4.636   4.177   1.607
 8121SOL     OW25261   6.793   6.772   3.359
 8121SOL    HW125262   6.799   6.776   3.260
 8121SOL    HW225263   6.823   6.859   3.398
 8122SOL     OW25264   0.620   5.867   1.810
 8122SOL    HW125265   0.524   5.895   1.814
 8122SOL    HW225266   0.625   5.774   1.774
 8123SOL     OW25267   0.539   5.391   0.466
 8123SOL    HW125268   0.601   5.314   0.479
 8123SOL    HW225269   0.456   5.376   0.520
 8124SOL     OW25270   1.145   6.545   3.086
 8124SOL    HW125271   1.130   6.529   2.988
 8124SOL    HW225272   1.219   6.487   3.118
 8125SOL     OW25273   5.995   5.675   2.681
 8125SOL    HW125274   5.987   5.639   2.774
 8125SOL    HW225275   6.046   5.761   2.682
 8126SOL     OW25276   6.615   4.627   2.736
 8126SOL    HW125277   6.643   4.606   2.642
 8126SOL    HW225278   6.582   4.544   2.780
 8127SOL     OW25279   3.749   4.947   1.067
 8127SOL    HW125280   3.654   4.918   1.082
 8127SOL    HW225281   3.766   5.031   1.119
 8128SOL     OW25282   3.559   2.237   5.449
 8128SOL    HW125283   3.468   2.258   5.414
 8128SOL    HW225284   3.599   2.163   5.395
 8129SOL     OW25285   4.947   6.107   6.756
 8129SOL    HW125286   4.929   6.014   6.789
 8129SOL    HW225287   4.879   6.170   6.795
 8130SOL     OW25288   0.711   6.668   0.559
 8130SOL    HW125289   0.779   6.622   0.502
 8130SOL    HW225290   0.746   6.757   0.587
 8131SOL     OW25291   1.515   1.230   0.288
 8131SOL    HW125292   1.420   1.222   0.318
 8131SOL    HW225293   1.540   1.150   0.234
 8132SOL     OW25294   6.161   4.349   2.767
 8132SOL    HW125295   6.213   4.422   2.722
 8132SOL    HW225296   6.205   4.325   2.853
 8133SOL     OW25297   0.545   5.801   2.388
 8133SOL    HW125298   0.562   5.706   2.364
 8133SOL    HW225299   0.609   5.860   2.338
 8134SOL     OW25300   1.833   2.888   2.148
 8134SOL    HW125301   1.827   2.983   2.180
 8134SOL    HW225302   1.884   2.885   2.062
 8135SOL     OW25303   3.987   6.204   2.424
 8135SOL    HW125304   4.046   6.152   2.487
 8135SOL    HW225305   3.904   6.151   2.406
 8136SOL     OW25306   2.718   6.154   1.568
 8136SOL    HW125307   2.663   6.177   1.488
 8136SOL    HW225308   2.715   6.231   1.633
 8137SOL     OW25309   3.356   3.268   4.911
 8137SOL    HW125310   3.440   3.252   4.860
 8137SOL    HW225311   3.361   3.224   5.000
 8138SOL     OW25312   4.936   0.663   3.645
 8138SOL    HW125313   4.866   0.664   3.717
 8138SOL    HW225314   4.931   0.747   3.592
 8139SOL     OW25315   1.832   3.196   4.893
 8139SOL    HW125316   1.781   3.273   4.853
 8139SOL    HW225317   1.907   3.170   4.832
 8140SOL     OW25318   4.460   0.990   1.137
 8140SOL    HW125319   4.452   1.085   1.105
 8140SOL    HW225320   4.475   0.990   1.236
 8141SOL     OW25321   6.067   0.308   5.652
 8141SOL    HW125322   5.979   0.352   5.632
 8141SOL    HW225323   6.139   0.351   5.597
 8142SOL     OW25324   2.425   5.547   0.629
 8142SOL    HW125325   2.443   5.566   0.532
 8142SOL    HW225326   2.512   5.544   0.678
 8143SOL     OW25327   5.720   4.819   0.910
 8143SOL    HW125328   5.816   4.815   0.936
 8143SOL    HW225329   5.706   4.896   0.847
 8144SOL     OW25330   0.900   5.771   0.570
 8144SOL    HW125331   0.814   5.744   0.527
 8144SOL    HW225332   0.909   5.870   0.569
 8145SOL     OW25333   5.786   5.926   7.005
 8145SOL    HW125334   5.826   5.940   0.078
 8145SOL    HW225335   5.773   6.014   6.960
 8146SOL     OW25336   6.576   6.516   4.661
 8146SOL    HW125337   6.660   6.547   4.706
 8146SOL    HW225338   6.510   6.488   4.731
 8147SOL     OW25339   1.897   0.811   5.984
 8147SOL    HW125340   1.802   0.783   5.977
 8147SOL    HW225341   1.953   0.753   5.925
 8148SOL     OW25342   4.656   3.949   0.522
 8148SOL    HW125343   4.612   4.016   0.582
 8148SOL    HW225344   4.628   3.964   0.428
 8149SOL     OW25345   1.076   0.347   5.279
 8149SOL    HW125346   1.171   0.327   5.257
 8149SOL    HW225347   1.029   0.382   5.197
 8150SOL     OW25348   0.476   4.035   0.737
 8150SOL    HW125349   0.421   3.961   0.697
 8150SOL    HW225350   0.572   4.009   0.737
 8151SOL     OW25351   6.492   5.619   3.130
 8151SOL    HW125352   6.515   5.610   3.033
 8151SOL    HW225353   6.392   5.622   3.140
 8152SOL     OW25354   5.074   1.538   2.765
 8152SOL    HW125355   5.100   1.572   2.675
 8152SOL    HW225356   5.125   1.454   2.785
 8153SOL     OW25357   0.314   1.817   2.431
 8153SOL    HW125358   0.334   1.824   2.529
 8153SOL    HW225359   0.336   1.903   2.387
 8154SOL     OW25360   1.767   0.940   2.810
 8154SOL    HW125361   1.807   0.995   2.737
 8154SOL    HW225362   1.824   0.946   2.891
 8155SOL     OW25363   1.646   4.793   3.913
 8155SOL    HW125364   1.702   4.734   3.854
 8155SOL    HW225365   1.551   4.788   3.885
 8156SOL     OW25366   0.960   4.011   0.654
 8156SOL    HW125367   1.027   4.000   0.728
 8156SOL    HW225368   0.951   4.108   0.633
 8157SOL     OW25369   6.761   4.215   5.011
 8157SOL    HW125370   6.679   4.161   4.993
 8157SOL    HW225371   6.826   4.203   4.936
 8158SOL     OW25372   6.125   5.673   6.700
 8158SOL    HW125373   6.151   5.751   6.644
 8158SOL    HW225374   6.037   5.637   6.668
 8159SOL     OW25375   2.531   0.080   5.192
 8159SOL    HW125376   2.544   0.145   5.267
 8159SOL    HW225377   2.440   0.040   5.199
 8160SOL     OW25378   5.745   1.588   2.113
 8160SOL    HW125379   5.820   1.612   2.174
 8160SOL    HW225380   5.758   1.494   2.080
 8161SOL     OW25381   6.296   2.611   2.073
 8161SOL    HW125382   6.341   2.633   2.160
 8161SOL    HW225383   6.277   2.513   2.069
 8162SOL     OW25384   0.734   5.474   5.031
 8162SOL    HW125385   0.701   5.504   5.120
 8162SOL    HW225386   0.833   5.488   5.026
 8163SOL     OW25387   4.488   4.651   5.578
 8163SOL    HW125388   4.428   4.570   5.584
 8163SOL    HW225389   4.516   4.678   5.670
 8164SOL     OW25390   5.420   1.683   0.786
 8164SOL    HW125391   5.414   1.718   0.693
 8164SOL    HW225392   5.412   1.759   0.851
 8165SOL     OW25393   0.677   1.604   6.360
 8165SOL    HW125394   0.657   1.659   6.441
 8165SOL    HW225395   0.731   1.658   6.296
 8166SOL     OW25396   1.828   1.950   5.027
 8166SOL    HW125397   1.852   1.854   5.017
 8166SOL    HW225398   1.775   1.980   4.948
 8167SOL     OW25399   1.523   3.089   3.453
 8167SOL    HW125400   1.546   3.165   3.513
 8167SOL    HW225401   1.603   3.032   3.439
 8168SOL     OW25402   1.874   0.139   2.822
 8168SOL    HW125403   1.867   0.227   2.775
 8168SOL    HW225404   1.966   0.101   2.808
 8169SOL     OW25405   4.943   3.806   0.733
 8169SOL    HW125406   5.020   3.748   0.760
 8169SOL    HW225407   4.978   3.891   0.694
 8170SOL     OW25408   6.891   5.122   2.307
 8170SOL    HW125409   6.982   5.085   2.322
 8170SOL    HW225410   6.872   5.194   2.373
 8171SOL     OW25411   2.659   1.837   1.060
 8171SOL    HW125412   2.689   1.783   1.139
 8171SOL    HW225413   2.587   1.788   1.011
 8172SOL     OW25414   1.431   2.789   0.899
 8172SOL    HW125415   1.468   2.722   0.963
 8172SOL    HW225416   1.394   2.741   0.819
 8173SOL     OW25417   5.699   0.625   1.553
 8173SOL    HW125418   5.751   0.545   1.522
 8173SOL    HW225419   5.719   0.641   1.650
 8174SOL     OW25420   2.525   6.100   3.587
 8174SOL    HW125421   2.499   6.192   3.558
 8174SOL    HW225422   2.620   6.083   3.560
 8175SOL     OW25423   1.233   2.054   6.036
 8175SOL    HW125424   1.140   2.039   6.069
 8175SOL    HW225425   1.232   2.123   5.964
 8176SOL     OW25426   2.768   4.626   0.307
 8176SOL    HW125427   2.838   4.612   0.377
 8176SOL    HW225428   2.679   4.600   0.344
 8177SOL     OW25429   2.989   1.530   3.810
 8177SOL    HW125430   2.902   1.574   3.831
 8177SOL    HW225431   2.974   1.432   3.794
 8178SOL     OW25432   2.781   6.445   1.082
 8178SOL    HW125433   2.783   6.544   1.075
 8178SOL    HW225434   2.753   6.419   1.175
 8179SOL     OW25435   5.608   0.673   3.539
 8179SOL    HW125436   5.551   0.751   3.564
 8179SOL    HW225437   5.697   0.681   3.583
 8180SOL     OW25438   5.053   5.968   0.307
 8180SOL    HW125439   5.073   6.010   0.218
 8180SOL    HW225440   5.117   5.894   0.324
 8181SOL     OW25441   0.199   0.418   6.700
 8181SOL    HW125442   0.107   0.420   6.740
 8181SOL    HW225443   0.192   0.439   6.602
 8182SOL     OW25444   3.303   3.754   3.948
 8182SOL    HW125445   3.319   3.756   4.047
 8182SOL    HW225446   3.284   3.660   3.919
 8183SOL     OW25447   6.906   0.684   5.645
 8183SOL    HW125448   6.974   0.613   5.626
 8183SOL    HW225449   6.953   0.768   5.674
 8184SOL     OW25450   0.073   5.957   6.333
 8184SOL    HW125451   7.005   5.949   6.283
 8184SOL    HW225452   0.148   5.969   6.268
 8185SOL     OW25453   0.021   6.168   5.702
 8185SOL    HW125454   0.072   6.172   5.788
 8185SOL    HW225455   0.081   6.134   5.629
 8186SOL     OW25456   1.895   5.396   0.212
 8186SOL    HW125457   1.985   5.366   0.181
 8186SOL    HW225458   1.885   5.374   0.309
 8187SOL     OW25459   1.521   0.052   5.263
 8187SOL    HW125460   1.602   0.110   5.258
 8187SOL    HW225461   1.543   6.989   5.317
 8188SOL     OW25462   1.992   2.818   2.572
 8188SOL    HW125463   1.963   2.889   2.507
 8188SOL    HW225464   1.911   2.776   2.614
 8189SOL     OW25465   5.759   5.172   3.475
 8189SOL    HW125466   5.810   5.096   3.435
 8189SOL    HW225467   5.822   5.239   3.514
 8190SOL     OW25468   6.323   4.101   2.965
 8190SOL    HW125469   6.309   4.137   3.057
 8190SOL    HW225470   6.415   4.124   2.934
 8191SOL     OW25471   4.254   5.299   1.174
 8191SOL    HW125472   4.193   5.231   1.217
 8191SOL    HW225473   4.204   5.385   1.163
 8192SOL     OW25474   0.503   5.825   3.334
 8192SOL    HW125475   0.564   5.886   3.385
 8192SOL    HW225476   0.547   5.796   3.250
 8193SOL     OW25477   0.877   4.545   4.158
 8193SOL    HW125478   0.836   4.631   4.187
 8193SOL    HW225479   0.968   4.563   4.121
 8194SOL     OW25480   4.547   0.325   1.829
 8194SOL    HW125481   4.571   0.275   1.746
 8194SOL    HW225482   4.453   0.356   1.823
 8195SOL     OW25483   6.340   0.240   4.159
 8195SOL    HW125484   6.355   0.166   4.225
 8195SOL    HW225485   6.271   0.211   4.092
 8196SOL     OW25486   4.642   1.301   1.931
 8196SOL    HW125487   4.650   1.295   1.831
 8196SOL    HW225488   4.622   1.395   1.957
 8197SOL     OW25489   3.679   2.009   3.264
 8197SOL    HW125490   3.666   2.010   3.363
 8197SOL    HW225491   3.747   2.078   3.238
 8198SOL     OW25492   1.312   5.870   1.568
 8198SOL    HW125493   1.316   5.862   1.469
 8198SOL    HW225494   1.229   5.825   1.602
 8199SOL     OW25495   5.848   2.679   0.533
 8199SOL    HW125496   5.835   2.596   0.587
 8199SOL    HW225497   5.807   2.757   0.582
 8200SOL     OW25498   4.702   3.632   0.472
 8200SOL    HW125499   4.731   3.604   0.563
 8200SOL    HW225500   4.708   3.732   0.464
 8201SOL     OW25501   5.984   6.841   5.537
 8201SOL    HW125502   5.944   6.755   5.568
 8201SOL    HW225503   6.079   6.826   5.510
 8202SOL     OW25504   0.846   6.239   1.822
 8202SOL    HW125505   0.802   6.211   1.736
 8202SOL    HW225506   0.901   6.163   1.856
 8203SOL     OW25507   1.975   3.635   1.263
 8203SOL    HW125508   2.042   3.705   1.286
 8203SOL    HW225509   2.020   3.546   1.255
 8204SOL     OW25510   2.795   3.150   0.861
 8204SOL    HW125511   2.872   3.206   0.892
 8204SOL    HW225512   2.711   3.205   0.862
 8205SOL     OW25513   1.025   4.380   6.949
 8205SOL    HW125514   1.064   4.445   7.015
 8205SOL    HW225515   1.099   4.326   6.908
 8206SOL     OW25516   2.850   0.927   1.131
 8206SOL    HW125517   2.929   0.873   1.103
 8206SOL    HW225518   2.847   1.012   1.077
 8207SOL     OW25519   3.697   3.881   4.216
 8207SOL    HW125520   3.782   3.926   4.244
 8207SOL    HW225521   3.630   3.888   4.290
 8208SOL     OW25522   1.953   0.706   0.264
 8208SOL    HW125523   2.035   0.741   0.310
 8208SOL    HW225524   1.978   0.672   0.174
 8209SOL     OW25525   6.286   1.707   4.713
 8209SOL    HW125526   6.357   1.769   4.747
 8209SOL    HW225527   6.229   1.754   4.646
 8210SOL     OW25528   2.213   2.713   0.069
 8210SOL    HW125529   2.183   2.694   6.993
 8210SOL    HW225530   2.266   2.636   0.103
 8211SOL     OW25531   3.910   4.793   1.442
 8211SOL    HW125532   3.883   4.732   1.516
 8211SOL    HW225533   3.839   4.862   1.427
 8212SOL     OW25534   1.832   2.743   2.963
 8212SOL    HW125535   1.907   2.808   2.971
 8212SOL    HW225536   1.755   2.786   2.914
 8213SOL     OW25537   6.575   5.086   1.265
 8213SOL    HW125538   6.613   5.178   1.257
 8213SOL    HW225539   6.636   5.030   1.320
 8214SOL     OW25540   5.629   3.723   3.626
 8214SOL    HW125541   5.705   3.680   3.676
 8214SOL    HW225542   5.546   3.667   3.638
 8215SOL     OW25543   3.677   4.970   2.844
 8215SOL    HW125544   3.748   4.943   2.910
 8215SOL    HW225545   3.710   5.049   2.792
 8216SOL     OW25546   5.744   4.031   3.838
 8216SOL    HW125547   5.754   4.128   3.861
 8216SOL    HW225548   5.651   4.014   3.808
 8217SOL     OW25549   2.117   5.936   1.045
 8217SOL    HW125550   2.068   5.958   1.129
 8217SOL    HW225551   2.053   5.931   0.969
 8218SOL     OW25552   6.414   2.497   0.090
 8218SOL    HW125553   6.452   2.589   0.104
 8218SOL    HW225554   6.486   2.436   0.059
 8219SOL     OW25555   5.659   1.912   0.044
 8219SOL    HW125556   5.645   1.891   6.966
 8219SOL    HW225557   5.570   1.915   0.090
 8220SOL     OW25558   4.302   3.786   1.663
 8220SOL    HW125559   4.230   3.737   1.711
 8220SOL    HW225560   4.287   3.885   1.673
 8221SOL     OW25561   5.397   5.447   2.954
 8221SOL    HW125562   5.305   5.458   2.915
 8221SOL    HW225563   5.463   5.438   2.880
 8222SOL     OW25564   6.490   2.183   2.157
 8222SOL    HW125565   6.504   2.104   2.098
 8222SOL    HW225566   6.525   2.164   2.248
 8223SOL     OW25567   0.208   5.348   5.835
 8223SOL    HW125568   0.136   5.322   5.899
 8223SOL    HW225569   0.230   5.270   5.777
 8224SOL     OW25570   1.392   2.869   3.406
 8224SOL    HW125571   1.335   2.879   3.325
 8224SOL    HW225572   1.430   2.958   3.431
 8225SOL     OW25573   5.108   1.535   0.437
 8225SOL    HW125574   5.088   1.437   0.434
 8225SOL    HW225575   5.044   1.580   0.499
 8226SOL     OW25576   4.064   0.180   0.291
 8226SOL    HW125577   3.969   0.199   0.315
 8226SOL    HW225578   4.110   0.135   0.368
 8227SOL     OW25579   6.336   3.483   2.758
 8227SOL    HW125580   6.362   3.519   2.668
 8227SOL    HW225581   6.241   3.507   2.777
 8228SOL     OW25582   6.947   2.643   4.608
 8228SOL    HW125583   6.889   2.572   4.648
 8228SOL    HW225584   0.025   2.619   4.621
 8229SOL     OW25585   3.615   5.654   0.617
 8229SOL    HW125586   3.549   5.657   0.542
 8229SOL    HW225587   3.567   5.650   0.704
 8230SOL     OW25588   4.997   0.087   4.356
 8230SOL    HW125589   5.010   0.083   4.257
 8230SOL    HW225590   5.043   0.009   4.399
 8231SOL     OW25591   4.564   5.832   1.378
 8231SOL    HW125592   4.647   5.862   1.425
 8231SOL    HW225593   4.531   5.905   1.318
 8232SOL     OW25594   3.075   1.707   6.663
 8232SOL    HW125595   3.174   1.712   6.656
 8232SOL    HW225596   3.036   1.799   6.656
 8233SOL     OW25597   0.460   5.035   6.519
 8233SOL    HW125598   0.539   5.039   6.581
 8233SOL    HW225599   0.386   5.091   6.556
 8234SOL     OW25600   3.607   2.904   7.001
 8234SOL    HW125601   3.531   2.902   6.936
 8234SOL    HW225602   3.681   2.847   6.968
 8235SOL     OW25603   4.495   2.270   0.122
 8235SOL    HW125604   4.484   2.370   0.120
 8235SOL    HW225605   4.459   2.231   0.037
 8236SOL     OW25606   5.881   2.508   1.183
 8236SOL    HW125607   5.886   2.529   1.280
 8236SOL    HW225608   5.831   2.581   1.136
 8237SOL     OW25609   3.892   5.833   5.521
 8237SOL    HW125610   3.812   5.888   5.498
 8237SOL    HW225611   3.969   5.894   5.542
 8238SOL     OW25612   1.822   1.080   6.452
 8238SOL    HW125613   1.814   0.980   6.455
 8238SOL    HW225614   1.732   1.120   6.432
 8239SOL     OW25615   6.998   1.293   6.625
 8239SOL    HW125616   0.042   1.368   6.648
 8239SOL    HW225617   6.944   1.269   6.705
 8240SOL     OW25618   3.607   4.086   3.489
 8240SOL    HW125619   3.703   4.058   3.482
 8240SOL    HW225620   3.580   4.133   3.405
 8241SOL     OW25621   4.493   6.680   1.175
 8241SOL    HW125622   4.579   6.631   1.189
 8241SOL    HW225623   4.490   6.716   1.082
 8242SOL     OW25624   0.924   3.888   5.519
 8242SOL    HW125625   0.965   3.915   5.432
 8242SOL    HW225626   0.976   3.926   5.595
 8243SOL     OW25627   1.076   3.380   4.599
 8243SOL    HW125628   0.984   3.413   4.616
 8243SOL    HW225629   1.142   3.438   4.647
 8244SOL     OW25630   1.218   5.932   4.853
 8244SOL    HW125631   1.269   6.017   4.862
 8244SOL    HW225632   1.248   5.868   4.924
 8245SOL     OW25633   4.103   3.378   0.861
 8245SOL    HW125634   4.080   3.354   0.767
 8245SOL    HW225635   4.064   3.311   0.924
 8246SOL     OW25636   5.171   4.107   5.509
 8246SOL    HW125637   5.121   4.142   5.430
 8246SOL    HW225638   5.199   4.013   5.491
 8247SOL     OW25639   1.195   6.663   1.899
 8247SOL    HW125640   1.253   6.684   1.820
 8247SOL    HW225641   1.127   6.736   1.909
 8248SOL     OW25642   0.147   4.496   3.392
 8248SOL    HW125643   0.065   4.536   3.432
 8248SOL    HW225644   0.124   4.411   3.345
 8249SOL     OW25645   1.807   5.484   3.461
 8249SOL    HW125646   1.784   5.459   3.367
 8249SOL    HW225647   1.853   5.573   3.461
 8250SOL     OW25648   3.987   3.901   2.319
 8250SOL    HW125649   4.032   3.950   2.394
 8250SOL    HW225650   4.030   3.812   2.308
 8251SOL     OW25651   6.163   1.481   5.314
 8251SOL    HW125652   6.090   1.506   5.250
 8251SOL    HW225653   6.196   1.389   5.293
 8252SOL     OW25654   1.304   3.173   4.386
 8252SOL    HW125655   1.352   3.230   4.452
 8252SOL    HW225656   1.366   3.101   4.353
 8253SOL     OW25657   2.940   2.692   5.620
 8253SOL    HW125658   2.998   2.752   5.675
 8253SOL    HW225659   2.991   2.658   5.541
 8254SOL     OW25660   4.047   6.321   3.709
 8254SOL    HW125661   3.980   6.253   3.678
 8254SOL    HW225662   4.041   6.402   3.652
 8255SOL     OW25663   4.583   5.337   3.726
 8255SOL    HW125664   4.679   5.332   3.699
 8255SOL    HW225665   4.571   5.295   3.816
 8256SOL     OW25666   6.689   1.961   4.099
 8256SOL    HW125667   6.778   2.001   4.078
 8256SOL    HW225668   6.623   2.035   4.114
 8257SOL     OW25669   6.512   4.465   3.995
 8257SOL    HW125670   6.456   4.467   4.078
 8257SOL    HW225671   6.529   4.371   3.968
 8258SOL     OW25672   4.470   1.753   6.885
 8258SOL    HW125673   4.529   1.783   6.810
 8258SOL    HW225674   4.525   1.737   6.966
 8259SOL     OW25675   3.595   1.367   1.823
 8259SOL    HW125676   3.625   1.273   1.843
 8259SOL    HW225677   3.594   1.420   1.908
 8260SOL     OW25678   2.757   5.973   0.209
 8260SOL    HW125679   2.740   5.963   0.307
 8260SOL    HW225680   2.741   5.885   0.164
 8261SOL     OW25681   5.327   1.328   1.307
 8261SOL    HW125682   5.312   1.238   1.349
 8261SOL    HW225683   5.278   1.332   1.220
 8262SOL     OW25684   0.872   2.226   0.385
 8262SOL    HW125685   0.882   2.146   0.444
 8262SOL    HW225686   0.850   2.306   0.440
 8263SOL     OW25687   5.805   0.827   0.273
 8263SOL    HW125688   5.792   0.914   0.226
 8263SOL    HW225689   5.760   0.831   0.362
 8264SOL     OW25690   2.234   4.335   2.772
 8264SOL    HW125691   2.145   4.361   2.737
 8264SOL    HW225692   2.262   4.248   2.732
 8265SOL     OW25693   2.037   1.136   1.724
 8265SOL    HW125694   2.011   1.226   1.758
 8265SOL    HW225695   1.989   1.117   1.639
 8266SOL     OW25696   3.624   0.518   2.993
 8266SOL    HW125697   3.681   0.574   2.933
 8266SOL    HW225698   3.540   0.567   3.015
 8267SOL     OW25699   0.721   3.501   0.698
 8267SOL    HW125700   0.673   3.414   0.708
 8267SOL    HW225701   0.664   3.575   0.734
 8268SOL     OW25702   3.293   6.001   5.741
 8268SOL    HW125703   3.268   6.097   5.758
 8268SOL    HW225704   3.358   5.970   5.810
 8269SOL     OW25705   5.655   1.914   1.548
 8269SOL    HW125706   5.706   1.922   1.462
 8269SOL    HW225707   5.587   1.841   1.540
 8270SOL     OW25708   3.137   6.346   3.944
 8270SOL    HW125709   3.161   6.301   3.858
 8270SOL    HW225710   3.210   6.409   3.971
 8271SOL     OW25711   6.735   2.147   1.810
 8271SOL    HW125712   6.821   2.112   1.849
 8271SOL    HW225713   6.751   2.238   1.772
 8272SOL     OW25714   3.474   1.077   3.559
 8272SOL    HW125715   3.500   1.170   3.533
 8272SOL    HW225716   3.547   1.035   3.612
 8273SOL     OW25717   2.109   6.762   1.211
 8273SOL    HW125718   2.184   6.812   1.255
 8273SOL    HW225719   2.033   6.825   1.194
 8274SOL     OW25720   5.127   4.648   3.335
 8274SOL    HW125721   5.043   4.635   3.387
 8274SOL    HW225722   5.205   4.613   3.387
 8275SOL     OW25723   4.804   2.304   6.457
 8275SOL    HW125724   4.893   2.270   6.427
 8275SOL    HW225725   4.796   2.292   6.556
 8276SOL     OW25726   0.501   2.229   3.045
 8276SOL    HW125727   0.415   2.270   3.077
 8276SOL    HW225728   0.559   2.209   3.124
 8277SOL     OW25729   6.400   0.647   6.866
 8277SOL    HW125730   6.425   0.585   6.791
 8277SOL    HW225731   6.450   0.733   6.856
 8278SOL     OW25732   1.723   2.833   0.025
 8278SOL    HW125733   1.669   2.841   6.960
 8278SOL    HW225734   1.678   2.882   0.099
 8279SOL     OW25735   6.629   6.440   4.023
 8279SOL    HW125736   6.649   6.350   4.061
 8279SOL    HW225737   6.661   6.445   3.929
 8280SOL     OW25738   2.722   2.235   6.175
 8280SOL    HW125739   2.763   2.266   6.089
 8280SOL    HW225740   2.794   2.210   6.239
 8281SOL     OW25741   6.196   5.477   2.272
 8281SOL    HW125742   6.185   5.384   2.235
 8281SOL    HW225743   6.134   5.489   2.350
 8282SOL     OW25744   5.324   2.318   5.730
 8282SOL    HW125745   5.250   2.326   5.664
 8282SOL    HW225746   5.334   2.223   5.759
 8283SOL     OW25747   2.012   3.629   5.334
 8283SOL    HW125748   2.033   3.534   5.360
 8283SOL    HW225749   1.999   3.684   5.416
 8284SOL     OW25750   6.403   4.477   1.401
 8284SOL    HW125751   6.368   4.383   1.400
 8284SOL    HW225752   6.339   4.537   1.353
 8285SOL     OW25753   3.784   3.596   4.249
 8285SOL    HW125754   3.738   3.686   4.248
 8285SOL    HW225755   3.796   3.564   4.155
 8286SOL     OW25756   6.853   2.069   6.347
 8286SOL    HW125757   6.773   2.020   6.382
 8286SOL    HW225758   6.891   2.019   6.269
 8287SOL     OW25759   0.901   5.580   4.616
 8287SOL    HW125760   0.960   5.563   4.695
 8287SOL    HW225761   0.850   5.665   4.630
 8288SOL     OW25762   2.814   2.208   3.003
 8288SOL    HW125763   2.901   2.195   3.052
 8288SOL    HW225764   2.833   2.228   2.907
 8289SOL     OW25765   0.151   6.263   0.032
 8289SOL    HW125766   0.212   6.338   0.055
 8289SOL    HW225767   0.056   6.295   0.028
 8290SOL     OW25768   6.767   2.756   0.733
 8290SOL    HW125769   6.799   2.701   0.810
 8290SOL    HW225770   6.682   2.717   0.698
 8291SOL     OW25771   4.327   0.120   1.193
 8291SOL    HW125772   4.345   0.204   1.244
 8291SOL    HW225773   4.238   0.082   1.221
 8292SOL     OW25774   3.287   6.705   6.448
 8292SOL    HW125775   3.218   6.677   6.381
 8292SOL    HW225776   3.298   6.633   6.517
 8293SOL     OW25777   5.154   5.565   4.728
 8293SOL    HW125778   5.151   5.561   4.628
 8293SOL    HW225779   5.171   5.660   4.757
 8294SOL     OW25780   5.610   2.630   0.371
 8294SOL    HW125781   5.670   2.677   0.308
 8294SOL    HW225782   5.660   2.556   0.416
 8295SOL     OW25783   5.113   3.864   0.349
 8295SOL    HW125784   5.184   3.910   0.295
 8295SOL    HW225785   5.144   3.772   0.374
 8296SOL     OW25786   1.337   5.776   6.893
 8296SOL    HW125787   1.345   5.743   6.987
 8296SOL    HW225788   1.416   5.833   6.871
 8297SOL     OW25789   0.625   2.603   3.098
 8297SOL    HW125790   0.525   2.606   3.102
 8297SOL    HW225791   0.653   2.544   3.022
 8298SOL     OW25792   4.790   1.631   1.702
 8298SOL    HW125793   4.886   1.617   1.726
 8298SOL    HW225794   4.737   1.643   1.786
 8299SOL     OW25795   6.714   2.357   1.423
 8299SOL    HW125796   6.687   2.451   1.444
 8299SOL    HW225797   6.642   2.294   1.454
 8300SOL     OW25798   0.564   4.796   3.251
 8300SOL    HW125799   0.634   4.746   3.302
 8300SOL    HW225800   0.478   4.746   3.257
 8301SOL     OW25801   3.422   3.243   6.908
 8301SOL    HW125802   3.332   3.280   6.931
 8301SOL    HW225803   3.456   3.287   6.826
 8302SOL     OW25804   5.606   5.686   6.317
 8302SOL    HW125805   5.665   5.766   6.313
 8302SOL    HW225806   5.543   5.687   6.238
 8303SOL     OW25807   0.227   0.628   5.338
 8303SOL    HW125808   0.199   0.621   5.434
 8303SOL    HW225809   0.250   0.724   5.318
 8304SOL     OW25810   0.201   3.466   6.628
 8304SOL    HW125811   0.266   3.391   6.621
 8304SOL    HW225812   0.190   3.493   6.723
 8305SOL     OW25813   2.896   5.789   3.779
 8305SOL    HW125814   2.979   5.764   3.830
 8305SOL    HW225815   2.832   5.836   3.841
 8306SOL     OW25816   1.011   3.402   4.141
 8306SOL    HW125817   1.017   3.360   4.232
 8306SOL    HW225818   1.012   3.331   4.071
 8307SOL     OW25819   2.702   5.573   1.109
 8307SOL    HW125820   2.751   5.660   1.117
 8307SOL    HW225821   2.735   5.511   1.180
 8308SOL     OW25822   3.719   6.531   3.167
 8308SOL    HW125823   3.662   6.502   3.090
 8308SOL    HW225824   3.778   6.607   3.138
 8309SOL     OW25825   5.124   6.032   2.317
 8309SOL    HW125826   5.135   6.129   2.339
 8309SOL    HW225827   5.039   6.019   2.266
 8310SOL     OW25828   6.670   4.059   0.296
 8310SOL    HW125829   6.692   4.018   0.208
 8310SOL    HW225830   6.577   4.095   0.294
 8311SOL     OW25831   6.506   0.243   0.930
 8311SOL    HW125832   6.471   0.196   1.011
 8311SOL    HW225833   6.534   0.176   0.862
 8312SOL     OW25834   5.206   6.701   1.446
 8312SOL    HW125835   5.155   6.666   1.524
 8312SOL    HW225836   5.177   6.655   1.362
 8313SOL     OW25837   3.307   1.227   2.908
 8313SOL    HW125838   3.372   1.300   2.886
 8313SOL    HW225839   3.335   1.142   2.862
 8314SOL     OW25840   6.650   6.978   3.092
 8314SOL    HW125841   6.552   6.957   3.091
 8314SOL    HW225842   6.667   0.040   3.150
 8315SOL     OW25843   4.963   4.497   6.321
 8315SOL    HW125844   4.865   4.517   6.319
 8315SOL    HW225845   5.006   4.551   6.393
 8316SOL     OW25846   2.147   5.205   6.669
 8316SOL    HW125847   2.204   5.288   6.670
 8316SOL    HW225848   2.053   5.230   6.648
 8317SOL     OW25849   1.994   4.445   2.171
 8317SOL    HW125850   1.966   4.524   2.226
 8317SOL    HW225851   1.973   4.361   2.220
 8318SOL     OW25852   3.640   1.235   5.637
 8318SOL    HW125853   3.672   1.271   5.724
 8318SOL    HW225854   3.620   1.311   5.575
 8319SOL     OW25855   3.397   0.473   4.838
 8319SOL    HW125856   3.396   0.467   4.739
 8319SOL    HW225857   3.303   0.471   4.873
 8320SOL     OW25858   3.621   4.335   1.695
 8320SOL    HW125859   3.602   4.270   1.769
 8320SOL    HW225860   3.614   4.428   1.731
 8321SOL     OW25861   0.593   0.649   1.329
 8321SOL    HW125862   0.531   0.716   1.370
 8321SOL    HW225863   0.639   0.598   1.402
 8322SOL     OW25864   6.387   6.735   0.117
 8322SOL    HW125865   6.409   6.822   0.161
 8322SOL    HW225866   6.306   6.745   0.061
 8323SOL     OW25867   1.748   2.099   1.728
 8323SOL    HW125868   1.806   2.034   1.679
 8323SOL    HW225869   1.727   2.177   1.669
 8324SOL     OW25870   6.742   1.011   1.877
 8324SOL    HW125871   6.773   1.106   1.879
 8324SOL    HW225872   6.706   0.986   1.967
 8325SOL     OW25873   3.537   3.022   3.654
 8325SOL    HW125874   3.462   3.089   3.659
 8325SOL    HW225875   3.584   3.018   3.742
 8326SOL     OW25876   3.711   3.359   5.699
 8326SOL    HW125877   3.797   3.392   5.739
 8326SOL    HW225878   3.727   3.271   5.655
 8327SOL     OW25879   4.952   1.935   6.124
 8327SOL    HW125880   4.970   1.998   6.049
 8327SOL    HW225881   5.036   1.920   6.177
 8328SOL     OW25882   2.765   2.370   5.248
 8328SOL    HW125883   2.736   2.445   5.308
 8328SOL    HW225884   2.690   2.304   5.240
 8329SOL     OW25885   0.047   3.049   5.260
 8329SOL    HW125886   6.984   3.098   5.228
 8329SOL    HW225887   0.085   2.994   5.185
 8330SOL     OW25888   2.764   6.462   6.875
 8330SOL    HW125889   2.715   6.533   6.824
 8330SOL    HW225890   2.839   6.504   6.925
 8331SOL     OW25891   2.731   0.207   0.809
 8331SOL    HW125892   2.778   0.254   0.884
 8331SOL    HW225893   2.726   0.268   0.730
 8332SOL     OW25894   5.180   6.027   2.859
 8332SOL    HW125895   5.127   6.068   2.933
 8332SOL    HW225896   5.171   5.928   2.862
 8333SOL     OW25897   0.642   5.704   6.387
 8333SOL    HW125898   0.644   5.778   6.319
 8333SOL    HW225899   0.675   5.739   6.474
 8334SOL     OW25900   5.959   1.405   3.711
 8334SOL    HW125901   6.010   1.336   3.762
 8334SOL    HW225902   5.997   1.495   3.728
 8335SOL     OW25903   5.381   6.616   5.641
 8335SOL    HW125904   5.358   6.527   5.680
 8335SOL    HW225905   5.311   6.682   5.665
 8336SOL     OW25906   0.375   2.101   2.312
 8336SOL    HW125907   0.473   2.117   2.302
 8336SOL    HW225908   0.330   2.186   2.339
 8337SOL     OW25909   0.435   6.281   2.501
 8337SOL    HW125910   0.378   6.229   2.565
 8337SOL    HW225911   0.394   6.371   2.486
 8338SOL     OW25912   1.599   4.748   0.349
 8338SOL    HW125913   1.610   4.714   0.442
 8338SOL    HW225914   1.681   4.798   0.322
 8339SOL     OW25915   5.617   1.034   2.615
 8339SOL    HW125916   5.545   0.986   2.664
 8339SOL    HW225917   5.577   1.101   2.553
 8340SOL     OW25918   5.182   3.190   0.310
 8340SOL    HW125919   5.167   3.250   0.232
 8340SOL    HW225920   5.129   3.106   0.299
 8341SOL     OW25921   2.336   6.453   0.904
 8341SOL    HW125922   2.308   6.357   0.899
 8341SOL    HW225923   2.255   6.510   0.922
 8342SOL     OW25924   4.341   0.970   0.724
 8342SOL    HW125925   4.406   1.038   0.758
 8342SOL    HW225926   4.303   0.919   0.800
 8343SOL     OW25927   1.737   5.368   5.909
 8343SOL    HW125928   1.723   5.409   5.999
 8343SOL    HW225929   1.651   5.331   5.875
 8344SOL     OW25930   3.801   6.759   5.472
 8344SOL    HW125931   3.863   6.741   5.549
 8344SOL    HW225932   3.846   6.733   5.386
 8345SOL     OW25933   6.319   1.067   2.684
 8345SOL    HW125934   6.301   1.058   2.782
 8345SOL    HW225935   6.393   1.133   2.670
 8346SOL     OW25936   3.173   5.479   1.891
 8346SOL    HW125937   3.165   5.431   1.804
 8346SOL    HW225938   3.177   5.413   1.966
 8347SOL     OW25939   3.679   5.274   4.234
 8347SOL    HW125940   3.639   5.248   4.322
 8347SOL    HW225941   3.616   5.336   4.187
 8348SOL     OW25942   1.890   0.336   0.103
 8348SOL    HW125943   1.856   0.274   0.174
 8348SOL    HW225944   1.950   0.285   0.041
 8349SOL     OW25945   5.882   5.182   1.858
 8349SOL    HW125946   5.925   5.251   1.800
 8349SOL    HW225947   5.949   5.113   1.884
 8350SOL     OW25948   6.079   0.729   4.746
 8350SOL    HW125949   6.030   0.660   4.798
 8350SOL    HW225950   6.156   0.686   4.698
 8351SOL     OW25951   3.297   6.099   2.948
 8351SOL    HW125952   3.371   6.166   2.938
 8351SOL    HW225953   3.328   6.011   2.912
 8352SOL     OW25954   0.022   6.667   1.687
 8352SOL    HW125955   6.960   6.711   1.646
 8352SOL    HW225956   0.086   6.640   1.616
 8353SOL     OW25957   0.390   3.614   2.265
 8353SOL    HW125958   0.448   3.619   2.184
 8353SOL    HW225959   0.312   3.554   2.246
 8354SOL     OW25960   2.485   0.832   0.322
 8354SOL    HW125961   2.517   0.917   0.364
 8354SOL    HW225962   2.525   0.823   0.230
 8355SOL     OW25963   3.238   1.100   0.281
 8355SOL    HW125964   3.258   1.147   0.195
 8355SOL    HW225965   3.159   1.040   0.268
 8356SOL     OW25966   1.995   5.000   6.767
 8356SOL    HW125967   2.061   5.068   6.735
 8356SOL    HW225968   1.953   5.032   6.851
 8357SOL     OW25969   5.203   5.265   4.266
 8357SOL    HW125970   5.284   5.252   4.208
 8357SOL    HW225971   5.129   5.303   4.211
 8358SOL     OW25972   2.140   2.692   5.783
 8358SOL    HW125973   2.126   2.789   5.801
 8358SOL    HW225974   2.232   2.665   5.814
 8359SOL     OW25975   4.282   5.047   3.858
 8359SOL    HW125976   4.271   5.116   3.787
 8359SOL    HW225977   4.239   5.078   3.943
 8360SOL     OW25978   4.824   0.267   3.142
 8360SOL    HW125979   4.873   0.216   3.070
 8360SOL    HW225980   4.743   0.216   3.170
 8361SOL     OW25981   1.904   0.395   2.670
 8361SOL    HW125982   1.979   0.344   2.628
 8361SOL    HW225983   1.918   0.493   2.656
 8362SOL     OW25984   2.706   2.597   0.259
 8362SOL    HW125985   2.779   2.666   0.256
 8362SOL    HW225986   2.651   2.603   0.176
 8363SOL     OW25987   0.181   3.262   0.582
 8363SOL    HW125988   0.196   3.348   0.631
 8363SOL    HW225989   0.224   3.187   0.631
 8364SOL     OW25990   6.611   4.178   3.629
 8364SOL    HW125991   6.660   4.091   3.626
 8364SOL    HW225992   6.567   4.194   3.541
 8365SOL     OW25993   2.016   3.174   6.183
 8365SOL    HW125994   1.988   3.081   6.157
 8365SOL    HW225995   1.935   3.232   6.190
 8366SOL     OW25996   2.795   6.556   2.987
 8366SOL    HW125997   2.708   6.533   2.943
 8366SOL    HW225998   2.868   6.555   2.919
 8367SOL     OW25999   5.596   5.304   3.792
 8367SOL    HW126000   5.567   5.400   3.793
 8367SOL    HW226001   5.535   5.251   3.851
 8368SOL     OW26002   2.907   4.960   6.797
 8368SOL    HW126003   2.919   5.058   6.782
 8368SOL    HW226004   2.992   4.920   6.830
 8369SOL     OW26005   2.413   1.383   1.028
 8369SOL    HW126006   2.324   1.418   0.998
 8369SOL    HW226007   2.482   1.401   0.957
 8370SOL     OW26008   1.241   1.503   6.505
 8370SOL    HW126009   1.197   1.463   6.424
 8370SOL    HW226010   1.181   1.573   6.544
 8371SOL     OW26011   2.103   3.359   0.811
 8371SOL    HW126012   2.108   3.425   0.886
 8371SOL    HW226013   2.164   3.283   0.830
 8372SOL     OW26014   0.203   0.328   1.966
 8372SOL    HW126015   0.191   0.274   1.883
 8372SOL    HW226016   0.298   0.325   1.995
 8373SOL     OW26017   1.425   6.702   5.170
 8373SOL    HW126018   1.454   6.706   5.075
 8373SOL    HW226019   1.502   6.722   5.230
 8374SOL     OW26020   6.599   6.961   6.436
 8374SOL    HW126021   6.663   6.913   6.497
 8374SOL    HW226022   6.570   0.028   6.479
 8375SOL     OW26023   3.569   0.574   6.494
 8375SOL    HW126024   3.589   0.499   6.431
 8375SOL    HW226025   3.651   0.597   6.546
 8376SOL     OW26026   3.573   0.171   4.902
 8376SOL    HW126027   3.595   0.266   4.924
 8376SOL    HW226028   3.498   0.169   4.836
 8377SOL     OW26029   5.760   4.380   0.984
 8377SOL    HW126030   5.813   4.363   1.067
 8377SOL    HW226031   5.700   4.459   0.998
 8378SOL     OW26032   4.900   2.665   3.717
 8378SOL    HW126033   4.923   2.708   3.804
 8378SOL    HW226034   4.823   2.713   3.675
 8379SOL     OW26035   5.768   2.323   2.218
 8379SOL    HW126036   5.743   2.417   2.239
 8379SOL    HW226037   5.747   2.265   2.297
 8380SOL     OW26038   4.550   1.695   3.633
 8380SOL    HW126039   4.616   1.644   3.578
 8380SOL    HW226040   4.595   1.772   3.677
 8381SOL     OW26041   1.636   5.351   4.641
 8381SOL    HW126042   1.562   5.417   4.627
 8381SOL    HW226043   1.596   5.260   4.659
 8382SOL     OW26044   1.203   3.195   2.396
 8382SOL    HW126045   1.133   3.239   2.340
 8382SOL    HW226046   1.177   3.100   2.413
 8383SOL     OW26047   3.295   2.077   6.615
 8383SOL    HW126048   3.231   2.090   6.540
 8383SOL    HW226049   3.385   2.053   6.579
 8384SOL     OW26050   0.705   6.424   1.959
 8384SOL    HW126051   0.757   6.358   1.905
 8384SOL    HW226052   0.703   6.512   1.911
 8385SOL     OW26053   4.892   2.180   1.032
 8385SOL    HW126054   4.885   2.276   1.006
 8385SOL    HW226055   4.879   2.171   1.131
 8386SOL     OW26056   1.319   4.885   2.571
 8386SOL    HW126057   1.385   4.959   2.583
 8386SOL    HW226058   1.359   4.813   2.514
 8387SOL     OW26059   0.155   2.269   1.286
 8387SOL    HW126060   0.113   2.232   1.203
 8387SOL    HW226061   0.255   2.266   1.278
 8388SOL     OW26062   1.277   6.883   2.438
 8388SOL    HW126063   1.217   6.954   2.402
 8388SOL    HW226064   1.237   6.846   2.522
 8389SOL     OW26065   5.123   2.619   2.425
 8389SOL    HW126066   5.209   2.655   2.459
 8389SOL    HW226067   5.122   2.519   2.435
 8390SOL     OW26068   4.997   1.521   5.886
 8390SOL    HW126069   4.976   1.424   5.894
 8390SOL    HW226070   4.927   1.574   5.935
 8391SOL     OW26071   6.883   0.122   1.589
 8391SOL    HW126072   6.981   0.135   1.601
 8391SOL    HW226073   6.841   0.099   1.676
 8392SOL     OW26074   5.143   2.599   5.113
 8392SOL    HW126075   5.153   2.507   5.151
 8392SOL    HW226076   5.061   2.603   5.057
 8393SOL     OW26077   5.224   0.434   1.562
 8393SOL    HW126078   5.155   0.370   1.596
 8393SOL    HW226079   5.311   0.386   1.551
 8394SOL     OW26080   5.606   3.510   1.914
 8394SOL    HW126081   5.638   3.522   2.008
 8394SOL    HW226082   5.508   3.490   1.914
 8395SOL     OW26083   1.918   1.429   4.578
 8395SOL    HW126084   1.890   1.349   4.525
 8395SOL    HW226085   1.908   1.410   4.676
 8396SOL     OW26086   4.239   5.842   4.273
 8396SOL    HW126087   4.215   5.745   4.267
 8396SOL    HW226088   4.207   5.879   4.360
 8397SOL     OW26089   6.025   1.260   2.800
 8397SOL    HW126090   6.110   1.250   2.850
 8397SOL    HW226091   5.965   1.182   2.817
 8398SOL     OW26092   4.632   2.250   6.219
 8398SOL    HW126093   4.665   2.303   6.298
 8398SOL    HW226094   4.623   2.154   6.246
 8399SOL     OW26095   6.995   5.003   1.052
 8399SOL    HW126096   6.959   4.910   1.041
 8399SOL    HW226097   0.075   5.003   1.032
 8400SOL     OW26098   1.644   1.767   4.494
 8400SOL    HW126099   1.626   1.688   4.435
 8400SOL    HW226100   1.723   1.747   4.552
 8401SOL     OW26101   2.567   6.784   5.761
 8401SOL    HW126102   2.599   6.867   5.806
 8401SOL    HW226103   2.638   6.714   5.768
 8402SOL     OW26104   3.359   0.592   6.140
 8402SOL    HW126105   3.448   0.552   6.121
 8402SOL    HW226106   3.360   0.635   6.230
 8403SOL     OW26107   5.802   4.517   4.895
 8403SOL    HW126108   5.839   4.486   4.808
 8403SOL    HW226109   5.771   4.437   4.948
 8404SOL     OW26110   0.981   1.906   6.441
 8404SOL    HW126111   0.916   1.980   6.457
 8404SOL    HW226112   0.958   1.860   6.355
 8405SOL     OW26113   4.018   0.244   5.808
 8405SOL    HW126114   4.091   0.232   5.741
 8405SOL    HW226115   3.931   0.212   5.769
 8406SOL     OW26116   5.380   0.189   6.178
 8406SOL    HW126117   5.449   0.216   6.246
 8406SOL    HW226118   5.333   0.270   6.145
 8407SOL     OW26119   3.377   6.909   4.161
 8407SOL    HW126120   3.343   6.816   4.167
 8407SOL    HW226121   3.428   6.921   4.076
 8408SOL     OW26122   3.697   1.410   1.574
 8408SOL    HW126123   3.655   1.388   1.663
 8408SOL    HW226124   3.669   1.502   1.546
 8409SOL     OW26125   4.279   2.375   1.908
 8409SOL    HW126126   4.368   2.383   1.953
 8409SOL    HW226127   4.236   2.289   1.934
 8410SOL     OW26128   6.842   1.841   1.670
 8410SOL    HW126129   6.744   1.860   1.677
 8410SOL    HW226130   6.857   1.743   1.682
 8411SOL     OW26131   1.492   5.627   0.815
 8411SOL    HW126132   1.473   5.666   0.725
 8411SOL    HW226133   1.554   5.688   0.865
 8412SOL     OW26134   2.840   2.319   6.579
 8412SOL    HW126135   2.753   2.270   6.589
 8412SOL    HW226136   2.832   2.409   6.621
 8413SOL     OW26137   4.183   5.579   4.293
 8413SOL    HW126138   4.162   5.519   4.370
 8413SOL    HW226139   4.178   5.527   4.208
 8414SOL     OW26140   1.185   0.371   1.315
 8414SOL    HW126141   1.087   0.392   1.310
 8414SOL    HW226142   1.236   0.454   1.336
 8415SOL     OW26143   2.285   1.574   5.580
 8415SOL    HW126144   2.328   1.491   5.616
 8415SOL    HW226145   2.276   1.565   5.480
 8416SOL     OW26146   6.376   1.773   5.486
 8416SOL    HW126147   6.346   1.818   5.571
 8416SOL    HW226148   6.303   1.780   5.418
 8417SOL     OW26149   1.458   3.422   5.436
 8417SOL    HW126150   1.479   3.436   5.533
 8417SOL    HW226151   1.543   3.409   5.385
 8418SOL     OW26152   0.615   6.156   2.323
 8418SOL    HW126153   0.556   6.214   2.380
 8418SOL    HW226154   0.664   6.213   2.257
 8419SOL     OW26155   4.657   1.862   4.235
 8419SOL    HW126156   4.716   1.877   4.315
 8419SOL    HW226157   4.662   1.767   4.206
 8420SOL     OW26158   3.092   0.200   1.874
 8420SOL    HW126159   3.015   0.139   1.853
 8420SOL    HW226160   3.136   0.228   1.788
 8421SOL     OW26161   4.519   6.467   6.244
 8421SOL    HW126162   4.596   6.494   6.302
 8421SOL    HW226163   4.554   6.425   6.160
 8422SOL     OW26164   5.071   2.375   3.378
 8422SOL    HW126165   5.056   2.472   3.400
 8422SOL    HW226166   5.166   2.362   3.349
 8423SOL     OW26167   0.066   4.791   6.491
 8423SOL    HW126168   0.059   4.742   6.578
 8423SOL    HW226169   0.114   4.877   6.505
 8424SOL     OW26170   2.875   0.708   4.424
 8424SOL    HW126171   2.859   0.616   4.460
 8424SOL    HW226172   2.856   0.710   4.326
 8425SOL     OW26173   3.354   4.091   2.369
 8425SOL    HW126174   3.339   3.992   2.369
 8425SOL    HW226175   3.420   4.114   2.297
 8426SOL     OW26176   4.012   3.040   2.014
 8426SOL    HW126177   4.046   3.134   2.015
 8426SOL    HW226178   4.089   2.976   2.025
 8427SOL     OW26179   3.432   3.746   3.586
 8427SOL    HW126180   3.467   3.835   3.558
 8427SOL    HW226181   3.450   3.680   3.513
 8428SOL     OW26182   6.212   6.887   1.237
 8428SOL    HW126183   6.225   6.891   1.336
 8428SOL    HW226184   6.297   6.858   1.193
 8429SOL     OW26185   2.797   5.912   5.150
 8429SOL    HW126186   2.846   5.871   5.226
 8429SOL    HW226187   2.699   5.895   5.160
 8430SOL     OW26188   4.536   6.954   4.793
 8430SOL    HW126189   4.547   7.004   4.879
 8430SOL    HW226190   4.443   6.968   4.758
 8431SOL     OW26191   2.444   3.170   6.340
 8431SOL    HW126192   2.481   3.239   6.402
 8431SOL    HW226193   2.390   3.214   6.268
 8432SOL     OW26194   6.221   5.130   6.277
 8432SOL    HW126195   6.311   5.111   6.237
 8432SOL    HW226196   6.225   5.115   6.376
 8433SOL     OW26197   5.216   2.259   1.146
 8433SOL    HW126198   5.230   2.169   1.103
 8433SOL    HW226199   5.251   2.330   1.086
 8434SOL     OW26200   2.687   5.638   4.954
 8434SOL    HW126201   2.780   5.639   4.915
 8434SOL    HW226202   2.688   5.587   5.040
 8435SOL     OW26203   5.379   1.794   2.704
 8435SOL    HW126204   5.354   1.888   2.680
 8435SOL    HW226205   5.410   1.746   2.622
 8436SOL     OW26206   2.396   5.755   2.342
 8436SOL    HW126207   2.465   5.822   2.370
 8436SOL    HW226208   2.348   5.721   2.423
 8437SOL     OW26209   1.324   5.066   2.250
 8437SOL    HW126210   1.263   4.987   2.238
 8437SOL    HW226211   1.417   5.042   2.221
 8438SOL     OW26212   0.853   4.188   2.475
 8438SOL    HW126213   0.867   4.205   2.377
 8438SOL    HW226214   0.862   4.090   2.494
 8439SOL     OW26215   5.679   4.730   2.773
 8439SOL    HW126216   5.605   4.670   2.744
 8439SOL    HW226217   5.766   4.694   2.739
 8440SOL     OW26218   2.100   2.023   2.800
 8440SOL    HW126219   2.173   1.959   2.773
 8440SOL    HW226220   2.044   1.981   2.871
 8441SOL     OW26221   6.579   1.587   5.445
 8441SOL    HW126222   6.511   1.657   5.471
 8441SOL    HW226223   6.539   1.525   5.378
 8442SOL     OW26224   3.620   1.395   6.500
 8442SOL    HW126225   3.567   1.343   6.432
 8442SOL    HW226226   3.688   1.451   6.453
 8443SOL     OW26227   1.224   3.917   3.352
 8443SOL    HW126228   1.129   3.942   3.370
 8443SOL    HW226229   1.268   3.890   3.438
 8444SOL     OW26230   5.477   5.043   4.717
 8444SOL    HW126231   5.531   5.098   4.654
 8444SOL    HW226232   5.528   5.029   4.801
 8445SOL     OW26233   4.441   5.825   6.213
 8445SOL    HW126234   4.447   5.889   6.290
 8445SOL    HW226235   4.454   5.731   6.247
 8446SOL     OW26236   0.018   5.172   5.016
 8446SOL    HW126237   0.066   5.097   5.061
 8446SOL    HW226238   0.014   5.251   5.078
 8447SOL     OW26239   4.144   2.159   3.355
 8447SOL    HW126240   4.092   2.151   3.440
 8447SOL    HW226241   4.237   2.125   3.370
 8448SOL     OW26242   3.149   6.207   3.140
 8448SOL    HW126243   3.127   6.304   3.131
 8448SOL    HW226244   3.198   6.177   3.059
 8449SOL     OW26245   2.290   2.160   3.246
 8449SOL    HW126246   2.246   2.240   3.285
 8449SOL    HW226247   2.226   2.083   3.244
 8450SOL     OW26248   0.158   1.487   6.686
 8450SOL    HW126249   0.246   1.491   6.637
 8450SOL    HW226250   0.165   1.540   6.771
 8451SOL     OW26251   4.297   2.646   0.678
 8451SOL    HW126252   4.294   2.739   0.715
 8451SOL    HW226253   4.393   2.618   0.669
 8452SOL     OW26254   5.023   1.830   5.494
 8452SOL    HW126255   5.040   1.905   5.431
 8452SOL    HW226256   5.009   1.866   5.587
 8453SOL     OW26257   7.007   6.009   0.452
 8453SOL    HW126258   0.065   5.994   0.514
 8453SOL    HW226259   6.923   6.023   0.505
 8454SOL     OW26260   6.392   3.797   6.895
 8454SOL    HW126261   6.414   3.787   6.992
 8454SOL    HW226262   6.377   3.707   6.854
 8455SOL     OW26263   6.708   1.742   2.668
 8455SOL    HW126264   6.738   1.676   2.600
 8455SOL    HW226265   6.714   1.701   2.759
 8456SOL     OW26266   6.572   0.568   3.372
 8456SOL    HW126267   6.667   0.576   3.341
 8456SOL    HW226268   6.547   0.471   3.376
 8457SOL     OW26269   6.739   6.916   5.405
 8457SOL    HW126270   6.820   6.924   5.347
 8457SOL    HW226271   6.718   6.819   5.420
 8458SOL     OW26272   0.641   6.789   6.670
 8458SOL    HW126273   0.605   6.717   6.731
 8458SOL    HW226274   0.614   6.878   6.706
 8459SOL     OW26275   1.596   6.198   3.625
 8459SOL    HW126276   1.660   6.122   3.618
 8459SOL    HW226277   1.505   6.163   3.649
 8460SOL     OW26278   3.197   4.026   3.315
 8460SOL    HW126279   3.275   3.965   3.330
 8460SOL    HW226280   3.157   4.051   3.403
 8461SOL     OW26281   6.540   3.796   4.007
 8461SOL    HW126282   6.520   3.718   3.948
 8461SOL    HW226283   6.455   3.846   4.026
 8462SOL     OW26284   2.303   2.847   1.613
 8462SOL    HW126285   2.385   2.903   1.614
 8462SOL    HW226286   2.247   2.867   1.694
 8463SOL     OW26287   5.307   0.680   2.116
 8463SOL    HW126288   5.292   0.779   2.110
 8463SOL    HW226289   5.276   0.636   2.032
 8464SOL     OW26290   6.484   1.805   4.916
 8464SOL    HW126291   6.436   1.747   4.982
 8464SOL    HW226292   6.516   1.888   4.962
 8465SOL     OW26293   2.144   1.983   6.892
 8465SOL    HW126294   2.229   1.953   6.934
 8465SOL    HW226295   2.123   2.077   6.922
 8466SOL     OW26296   0.218   0.113   4.061
 8466SOL    HW126297   0.263   0.133   3.974
 8466SOL    HW226298   0.269   0.041   4.109
 8467SOL     OW26299   3.354   5.859   1.214
 8467SOL    HW126300   3.330   5.905   1.129
 8467SOL    HW226301   3.410   5.778   1.194
 8468SOL     OW26302   4.701   2.453   0.330
 8468SOL    HW126303   4.667   2.380   0.389
 8468SOL    HW226304   4.626   2.485   0.271
 8469SOL     OW26305   3.801   2.449   6.930
 8469SOL    HW126306   3.860   2.389   6.984
 8469SOL    HW226307   3.825   2.442   6.834
 8470SOL     OW26308   1.206   3.094   6.758
 8470SOL    HW126309   1.162   3.059   6.676
 8470SOL    HW226310   1.148   3.164   6.800
 8471SOL     OW26311   4.548   1.076   4.268
 8471SOL    HW126312   4.579   0.981   4.260
 8471SOL    HW226313   4.512   1.107   4.180
 8472SOL     OW26314   1.531   6.992   3.097
 8472SOL    HW126315   1.547   6.896   3.120
 8472SOL    HW226316   1.470   0.014   3.165
 8473SOL     OW26317   6.444   5.820   6.860
 8473SOL    HW126318   6.444   5.747   6.793
 8473SOL    HW226319   6.494   5.791   6.942
 8474SOL     OW26320   4.305   5.320   0.898
 8474SOL    HW126321   4.405   5.322   0.904
 8474SOL    HW226322   4.267   5.295   0.987
 8475SOL     OW26323   4.512   1.265   3.015
 8475SOL    HW126324   4.510   1.353   2.968
 8475SOL    HW226325   4.586   1.263   3.081
 8476SOL     OW26326   4.664   0.602   2.671
 8476SOL    HW126327   4.759   0.572   2.671
 8476SOL    HW226328   4.609   0.539   2.617
 8477SOL     OW26329   2.559   0.980   2.185
 8477SOL    HW126330   2.609   1.066   2.201
 8477SOL    HW226331   2.462   0.993   2.206
 8478SOL     OW26332   1.509   0.197   5.635
 8478SOL    HW126333   1.532   0.204   5.732
 8478SOL    HW226334   1.465   0.109   5.617
 8479SOL     OW26335   4.482   1.280   2.266
 8479SOL    HW126336   4.474   1.193   2.217
 8479SOL    HW226337   4.537   1.267   2.349
 8480SOL     OW26338   1.210   1.406   1.345
 8480SOL    HW126339   1.152   1.453   1.412
 8480SOL    HW226340   1.160   1.396   1.259
 8481SOL     OW26341   4.168   0.035   4.429
 8481SOL    HW126342   4.097   6.995   4.389
 8481SOL    HW226343   4.206   7.008   4.510
 8482SOL     OW26344   0.476   0.284   1.990
 8482SOL    HW126345   0.544   0.212   1.984
 8482SOL    HW226346   0.520   0.373   1.977
 8483SOL     OW26347   4.624   6.237   1.946
 8483SOL    HW126348   4.684   6.280   2.013
 8483SOL    HW226349   4.678   6.205   1.868
 8484SOL     OW26350   0.841   4.318   4.652
 8484SOL    HW126351   0.865   4.264   4.572
 8484SOL    HW226352   0.841   4.260   4.733
 8485SOL     OW26353   2.661   3.192   6.050
 8485SOL    HW126354   2.643   3.263   5.981
 8485SOL    HW226355   2.642   3.229   6.141
 8486SOL     OW26356   3.976   0.149   2.428
 8486SOL    HW126357   3.901   0.167   2.491
 8486SOL    HW226358   4.042   0.224   2.432
 8487SOL     OW26359   4.548   6.969   1.208
 8487SOL    HW126360   4.460   7.015   1.215
 8487SOL    HW226361   4.621   0.016   1.228
 8488SOL     OW26362   5.422   2.965   4.742
 8488SOL    HW126363   5.415   2.925   4.651
 8488SOL    HW226364   5.400   3.063   4.738
 8489SOL     OW26365   4.497   5.284   3.024
 8489SOL    HW126366   4.477   5.317   2.931
 8489SOL    HW226367   4.595   5.286   3.040
 8490SOL     OW26368   3.614   5.758   2.477
 8490SOL    HW126369   3.591   5.683   2.416
 8490SOL    HW226370   3.707   5.790   2.458
 8491SOL     OW26371   1.708   1.081   1.955
 8491SOL    HW126372   1.647   1.155   1.925
 8491SOL    HW226373   1.789   1.078   1.897
 8492SOL     OW26374   5.597   3.981   4.590
 8492SOL    HW126375   5.552   4.033   4.663
 8492SOL    HW226376   5.691   4.012   4.580
 8493SOL     OW26377   3.255   2.263   0.826
 8493SOL    HW126378   3.300   2.174   0.816
 8493SOL    HW226379   3.251   2.309   0.738
 8494SOL     OW26380   3.738   5.813   7.004
 8494SOL    HW126381   3.690   5.900   6.994
 8494SOL    HW226382   3.783   5.790   6.918
 8495SOL     OW26383   0.494   2.769   0.060
 8495SOL    HW126384   0.525   2.740   6.988
 8495SOL    HW226385   0.404   2.729   0.079
 8496SOL     OW26386   6.449   2.573   2.941
 8496SOL    HW126387   6.514   2.649   2.935
 8496SOL    HW226388   6.356   2.608   2.939
 8497SOL     OW26389   6.309   5.047   3.390
 8497SOL    HW126390   6.243   4.978   3.359
 8497SOL    HW226391   6.315   5.120   3.322
 8498SOL     OW26392   6.395   1.043   0.472
 8498SOL    HW126393   6.389   1.065   0.569
 8498SOL    HW226394   6.402   0.944   0.461
 8499SOL     OW26395   3.018   4.185   6.054
 8499SOL    HW126396   2.997   4.222   6.144
 8499SOL    HW226397   3.006   4.256   5.984
 8500SOL     OW26398   3.166   0.426   6.214
 8500SOL    HW126399   3.238   0.486   6.181
 8500SOL    HW226400   3.150   0.442   6.312
 8501SOL     OW26401   2.587   4.709   5.885
 8501SOL    HW126402   2.585   4.790   5.944
 8501SOL    HW226403   2.510   4.714   5.821
 8502SOL     OW26404   0.295   0.114   2.172
 8502SOL    HW126405   0.295   0.177   2.250
 8502SOL    HW226406   0.337   0.159   2.093
 8503SOL     OW26407   3.341   5.871   3.250
 8503SOL    HW126408   3.347   5.968   3.227
 8503SOL    HW226409   3.347   5.861   3.350
 8504SOL     OW26410   0.911   5.701   3.367
 8504SOL    HW126411   0.894   5.798   3.379
 8504SOL    HW226412   0.975   5.669   3.438
 8505SOL     OW26413   4.957   3.040   4.166
 8505SOL    HW126414   5.046   2.996   4.177
 8505SOL    HW226415   4.946   3.071   4.071
 8506SOL     OW26416   0.945   6.429   0.829
 8506SOL    HW126417   1.024   6.384   0.787
 8506SOL    HW226418   0.976   6.490   0.901
 8507SOL     OW26419   1.891   0.783   4.410
 8507SOL    HW126420   1.797   0.754   4.425
 8507SOL    HW226421   1.895   0.883   4.407
 8508SOL     OW26422   1.073   2.999   6.534
 8508SOL    HW126423   0.999   3.064   6.515
 8508SOL    HW226424   1.137   2.997   6.457
 8509SOL     OW26425   5.912   2.198   4.528
 8509SOL    HW126426   5.974   2.247   4.467
 8509SOL    HW226427   5.947   2.203   4.622
 8510SOL     OW26428   4.789   0.265   2.770
 8510SOL    HW126429   4.757   0.182   2.724
 8510SOL    HW226430   4.866   0.304   2.720
 8511SOL     OW26431   0.071   4.493   2.177
 8511SOL    HW126432   0.009   4.514   2.252
 8511SOL    HW226433   0.132   4.418   2.204
 8512SOL     OW26434   4.045   2.567   0.702
 8512SOL    HW126435   4.136   2.604   0.687
 8512SOL    HW226436   4.016   2.586   0.796
 8513SOL     OW26437   0.632   4.641   1.440
 8513SOL    HW126438   0.533   4.635   1.431
 8513SOL    HW226439   0.676   4.604   1.358
 8514SOL     OW26440   2.241   2.370   5.993
 8514SOL    HW126441   2.204   2.372   5.900
 8514SOL    HW226442   2.313   2.438   6.002
 8515SOL     OW26443   1.775   0.456   1.066
 8515SOL    HW126444   1.695   0.439   1.008
 8515SOL    HW226445   1.818   0.369   1.089
 8516SOL     OW26446   5.298   2.410   4.290
 8516SOL    HW126447   5.345   2.322   4.301
 8516SOL    HW226448   5.364   2.482   4.271
 8517SOL     OW26449   2.192   1.745   6.199
 8517SOL    HW126450   2.157   1.666   6.251
 8517SOL    HW226451   2.192   1.723   6.102
 8518SOL     OW26452   5.618   4.742   6.660
 8518SOL    HW126453   5.586   4.673   6.725
 8518SOL    HW226454   5.717   4.733   6.648
 8519SOL     OW26455   1.293   3.008   0.956
 8519SOL    HW126456   1.281   3.066   0.876
 8519SOL    HW226457   1.353   2.931   0.932
 8520SOL     OW26458   3.789   3.907   5.975
 8520SOL    HW126459   3.770   3.842   5.902
 8520SOL    HW226460   3.745   3.877   6.060
 8521SOL     OW26461   2.098   6.420   5.425
 8521SOL    HW126462   2.043   6.403   5.344
 8521SOL    HW226463   2.140   6.335   5.455
 8522SOL     OW26464   0.675   0.004   0.636
 8522SOL    HW126465   0.749   0.000   0.569
 8522SOL    HW226466   0.617   0.084   0.618
 8523SOL     OW26467   3.642   1.334   0.182
 8523SOL    HW126468   3.578   1.366   0.112
 8523SOL    HW226469   3.602   1.348   0.272
 8524SOL     OW26470   2.127   5.283   4.474
 8524SOL    HW126471   2.047   5.341   4.458
 8524SOL    HW226472   2.135   5.216   4.400
 8525SOL     OW26473   6.132   4.562   1.793
 8525SOL    HW126474   6.133   4.467   1.824
 8525SOL    HW226475   6.148   4.623   1.871
 8526SOL     OW26476   0.470   4.774   0.825
 8526SOL    HW126477   0.568   4.759   0.836
 8526SOL    HW226478   0.423   4.749   0.910
 8527SOL     OW26479   2.945   0.872   5.305
 8527SOL    HW126480   2.942   0.923   5.219
 8527SOL    HW226481   2.854   0.871   5.347
 8528SOL     OW26482   5.320   0.992   0.307
 8528SOL    HW126483   5.276   0.964   0.392
 8528SOL    HW226484   5.419   0.997   0.320
 8529SOL     OW26485   1.000   6.055   6.422
 8529SOL    HW126486   1.010   6.073   6.325
 8529SOL    HW226487   1.082   6.010   6.457
 8530SOL     OW26488   3.188   3.779   3.691
 8530SOL    HW126489   3.216   3.781   3.787
 8530SOL    HW226490   3.269   3.783   3.633
 8531SOL     OW26491   0.039   5.117   4.407
 8531SOL    HW126492   0.080   5.143   4.495
 8531SOL    HW226493   0.087   5.037   4.370
 8532SOL     OW26494   2.708   4.802   6.306
 8532SOL    HW126495   2.735   4.766   6.395
 8532SOL    HW226496   2.622   4.851   6.314
 8533SOL     OW26497   2.463   6.277   5.327
 8533SOL    HW126498   2.561   6.259   5.324
 8533SOL    HW226499   2.415   6.213   5.267
 8534SOL     OW26500   2.431   2.196   3.473
 8534SOL    HW126501   2.370   2.267   3.508
 8534SOL    HW226502   2.397   2.163   3.385
 8535SOL     OW26503   6.469   0.170   2.671
 8535SOL    HW126504   6.523   0.209   2.745
 8535SOL    HW226505   6.439   0.243   2.609
 8536SOL     OW26506   0.679   1.451   5.111
 8536SOL    HW126507   0.643   1.544   5.120
 8536SOL    HW226508   0.607   1.390   5.079
 8537SOL     OW26509   6.797   1.057   2.465
 8537SOL    HW126510   6.767   1.016   2.379
 8537SOL    HW226511   6.731   1.036   2.536
 8538SOL     OW26512   0.532   2.399   0.021
 8538SOL    HW126513   0.619   2.443   0.044
 8538SOL    HW226514   0.520   2.317   0.078
 8539SOL     OW26515   5.418   2.978   2.967
 8539SOL    HW126516   5.450   3.072   2.968
 8539SOL    HW226517   5.491   2.918   2.935
 8540SOL     OW26518   3.800   0.220   0.352
 8540SOL    HW126519   3.749   0.153   0.297
 8540SOL    HW226520   3.738   0.260   0.420
 8541SOL     OW26521   1.989   2.775   4.752
 8541SOL    HW126522   1.968   2.812   4.843
 8541SOL    HW226523   2.003   2.676   4.759
 8542SOL     OW26524   3.492   5.142   0.690
 8542SOL    HW126525   3.427   5.173   0.621
 8542SOL    HW226526   3.479   5.045   0.708
 8543SOL     OW26527   2.345   2.169   6.400
 8543SOL    HW126528   2.358   2.263   6.369
 8543SOL    HW226529   2.260   2.133   6.361
 8544SOL     OW26530   6.181   2.622   3.380
 8544SOL    HW126531   6.243   2.686   3.426
 8544SOL    HW226532   6.100   2.608   3.436
 8545SOL     OW26533   4.307   6.330   4.835
 8545SOL    HW126534   4.223   6.384   4.839
 8545SOL    HW226535   4.368   6.358   4.909
 8546SOL     OW26536   4.351   2.000   6.424
 8546SOL    HW126537   4.414   1.991   6.347
 8546SOL    HW226538   4.403   2.003   6.509
 8547SOL     OW26539   0.805   4.466   2.815
 8547SOL    HW126540   0.782   4.369   2.827
 8547SOL    HW226541   0.876   4.475   2.745
 8548SOL     OW26542   6.134   1.518   5.650
 8548SOL    HW126543   6.058   1.461   5.617
 8548SOL    HW226544   6.215   1.501   5.595
 8549SOL     OW26545   5.416   2.715   5.064
 8549SOL    HW126546   5.446   2.767   5.144
 8549SOL    HW226547   5.374   2.629   5.093
 8550SOL     OW26548   0.828   4.254   6.410
 8550SOL    HW126549   0.880   4.175   6.379
 8550SOL    HW226550   0.889   4.331   6.424
 8551SOL     OW26551   3.050   4.202   1.321
 8551SOL    HW126552   2.993   4.150   1.385
 8551SOL    HW226553   3.129   4.148   1.295
 8552SOL     OW26554   3.032   6.672   4.287
 8552SOL    HW126555   3.010   6.704   4.195
 8552SOL    HW226556   3.005   6.576   4.296
 8553SOL     OW26557   6.061   4.818   6.872
 8553SOL    HW126558   6.144   4.856   6.830
 8553SOL    HW226559   5.995   4.795   6.801
 8554SOL     OW26560   5.973   3.901   6.565
 8554SOL    HW126561   5.967   3.816   6.513
 8554SOL    HW226562   6.053   3.898   6.625
 8555SOL     OW26563   1.197   6.838   4.395
 8555SOL    HW126564   1.186   6.809   4.299
 8555SOL    HW226565   1.113   6.883   4.425
 8556SOL     OW26566   6.440   0.373   4.368
 8556SOL    HW126567   6.366   0.364   4.436
 8556SOL    HW226568   6.410   0.331   4.282
 8557SOL     OW26569   0.057   0.736   0.209
 8557SOL    HW126570   0.143   0.774   0.174
 8557SOL    HW226571   7.011   0.811   0.226
 8558SOL     OW26572   0.940   5.640   2.149
 8558SOL    HW126573   0.892   5.557   2.174
 8558SOL    HW226574   0.990   5.676   2.228
 8559SOL     OW26575   0.451   1.389   5.722
 8559SOL    HW126576   0.503   1.333   5.787
 8559SOL    HW226577   0.514   1.446   5.670
 8560SOL     OW26578   6.555   2.668   6.233
 8560SOL    HW126579   6.602   2.733   6.174
 8560SOL    HW226580   6.566   2.697   6.329
 8561SOL     OW26581   4.825   6.702   5.355
 8561SOL    HW126582   4.758   6.734   5.422
 8561SOL    HW226583   4.894   6.773   5.341
 8562SOL     OW26584   3.383   0.023   4.391
 8562SOL    HW126585   3.455   6.987   4.433
 8562SOL    HW226586   3.370   7.014   4.296
 8563SOL     OW26587   2.970   2.877   6.413
 8563SOL    HW126588   2.903   2.942   6.449
 8563SOL    HW226589   2.973   2.884   6.313
 8564SOL     OW26590   0.114   6.613   3.864
 8564SOL    HW126591   0.117   6.518   3.893
 8564SOL    HW226592   0.067   6.620   3.776
 8565SOL     OW26593   4.167   0.424   2.106
 8565SOL    HW126594   4.088   0.372   2.140
 8565SOL    HW226595   4.183   0.502   2.166
 8566SOL     OW26596   2.127   3.732   3.312
 8566SOL    HW126597   2.127   3.805   3.243
 8566SOL    HW226598   2.194   3.754   3.383
 8567SOL     OW26599   5.209   6.336   0.464
 8567SOL    HW126600   5.266   6.389   0.401
 8567SOL    HW226601   5.197   6.387   0.550
 8568SOL     OW26602   5.512   1.635   0.122
 8568SOL    HW126603   5.592   1.597   0.076
 8568SOL    HW226604   5.512   1.605   0.218
 8569SOL     OW26605   3.964   1.790   5.807
 8569SOL    HW126606   4.048   1.830   5.843
 8569SOL    HW226607   3.920   1.854   5.745
 8570SOL     OW26608   0.599   4.484   6.711
 8570SOL    HW126609   0.600   4.519   6.805
 8570SOL    HW226610   0.659   4.541   6.655
 8571SOL     OW26611   6.895   4.324   4.504
 8571SOL    HW126612   6.882   4.321   4.405
 8571SOL    HW226613   6.990   4.300   4.525
 8572SOL     OW26614   3.306   4.838   5.488
 8572SOL    HW126615   3.330   4.774   5.414
 8572SOL    HW226616   3.222   4.887   5.464
 8573SOL     OW26617   4.130   5.923   4.535
 8573SOL    HW126618   4.055   5.924   4.469
 8573SOL    HW226619   4.125   5.839   4.590
 8574SOL     OW26620   0.483   3.636   4.387
 8574SOL    HW126621   0.474   3.712   4.323
 8574SOL    HW226622   0.401   3.580   4.384
 8575SOL     OW26623   2.657   3.529   6.254
 8575SOL    HW126624   2.719   3.606   6.269
 8575SOL    HW226625   2.678   3.457   6.320
 8576SOL     OW26626   1.528   0.276   1.495
 8576SOL    HW126627   1.585   0.203   1.533
 8576SOL    HW226628   1.575   0.364   1.505
 8577SOL     OW26629   6.850   5.575   3.204
 8577SOL    HW126630   6.817   5.636   3.132
 8577SOL    HW226631   6.860   5.483   3.167
 8578SOL     OW26632   4.737   6.918   4.174
 8578SOL    HW126633   4.787   6.991   4.129
 8578SOL    HW226634   4.777   6.830   4.150
 8579SOL     OW26635   0.828   5.247   3.134
 8579SOL    HW126636   0.816   5.344   3.153
 8579SOL    HW226637   0.923   5.220   3.150
 8580SOL     OW26638   3.199   4.426   5.727
 8580SOL    HW126639   3.288   4.454   5.762
 8580SOL    HW226640   3.135   4.502   5.733
 8581SOL     OW26641   3.313   3.215   0.557
 8581SOL    HW126642   3.384   3.217   0.487
 8581SOL    HW226643   3.291   3.121   0.581
 8582SOL     OW26644   4.611   4.271   1.444
 8582SOL    HW126645   4.598   4.365   1.477
 8582SOL    HW226646   4.526   4.238   1.402
 8583SOL     OW26647   5.421   0.573   5.460
 8583SOL    HW126648   5.482   0.549   5.385
 8583SOL    HW226649   5.455   0.655   5.506
 8584SOL     OW26650   0.481   5.337   6.418
 8584SOL    HW126651   0.483   5.340   6.518
 8584SOL    HW226652   0.505   5.246   6.386
 8585SOL     OW26653   1.331   0.880   0.846
 8585SOL    HW126654   1.254   0.931   0.807
 8585SOL    HW226655   1.327   0.785   0.813
 8586SOL     OW26656   4.091   5.381   4.111
 8586SOL    HW126657   4.121   5.303   4.055
 8586SOL    HW226658   4.034   5.348   4.186
 8587SOL     OW26659   0.167   2.055   1.619
 8587SOL    HW126660   0.184   1.970   1.569
 8587SOL    HW226661   0.083   2.097   1.585
 8588SOL     OW26662   3.869   2.129   0.439
 8588SOL    HW126663   3.809   2.111   0.362
 8588SOL    HW226664   3.821   2.184   0.508
 8589SOL     OW26665   2.950   1.528   4.747
 8589SOL    HW126666   2.996   1.472   4.678
 8589SOL    HW226667   2.955   1.624   4.719
 8590SOL     OW26668   6.164   4.883   5.368
 8590SOL    HW126669   6.208   4.843   5.288
 8590SOL    HW226670   6.065   4.877   5.358
 8591SOL     OW26671   0.652   2.841   0.266
 8591SOL    HW126672   0.722   2.771   0.279
 8591SOL    HW226673   0.600   2.822   0.183
 8592SOL     OW26674   6.217   5.616   6.374
 8592SOL    HW126675   6.170   5.531   6.395
 8592SOL    HW226676   6.208   5.679   6.451
 8593SOL     OW26677   0.446   6.859   3.080
 8593SOL    HW126678   0.392   6.938   3.050
 8593SOL    HW226679   0.536   6.862   3.035
 8594SOL     OW26680   2.924   3.229   3.360
 8594SOL    HW126681   2.925   3.303   3.427
 8594SOL    HW226682   2.940   3.265   3.269
 8595SOL     OW26683   1.991   3.061   1.485
 8595SOL    HW126684   2.066   3.003   1.452
 8595SOL    HW226685   1.904   3.028   1.448
 8596SOL     OW26686   6.772   4.169   2.350
 8596SOL    HW126687   6.699   4.196   2.288
 8596SOL    HW226688   6.742   4.092   2.406
 8597SOL     OW26689   2.193   1.849   0.636
 8597SOL    HW126690   2.202   1.922   0.569
 8597SOL    HW226691   2.205   1.887   0.728
 8598SOL     OW26692   5.028   4.204   1.184
 8598SOL    HW126693   5.109   4.261   1.170
 8598SOL    HW226694   4.993   4.218   1.277
 8599SOL     OW26695   1.001   3.494   1.771
 8599SOL    HW126696   0.964   3.553   1.842
 8599SOL    HW226697   1.083   3.448   1.805
 8600SOL     OW26698   6.274   3.333   6.034
 8600SOL    HW126699   6.315   3.356   6.122
 8600SOL    HW226700   6.260   3.416   5.980
 8601SOL     OW26701   0.168   0.861   5.040
 8601SOL    HW126702   0.235   0.801   4.995
 8601SOL    HW226703   0.082   0.811   5.052
 8602SOL     OW26704   2.222   5.818   2.128
 8602SOL    HW126705   2.268   5.857   2.049
 8602SOL    HW226706   2.288   5.801   2.201
 8603SOL     OW26707   4.642   3.718   1.294
 8603SOL    HW126708   4.707   3.787   1.325
 8603SOL    HW226709   4.688   3.629   1.286
 8604SOL     OW26710   5.636   1.858   2.449
 8604SOL    HW126711   5.606   1.937   2.503
 8604SOL    HW226712   5.581   1.778   2.475
 8605SOL     OW26713   2.831   6.343   2.035
 8605SOL    HW126714   2.920   6.372   2.069
 8605SOL    HW226715   2.841   6.258   1.983
 8606SOL     OW26716   4.344   5.317   5.644
 8606SOL    HW126717   4.319   5.388   5.578
 8606SOL    HW226718   4.330   5.351   5.737
 8607SOL     OW26719   3.001   5.811   1.706
 8607SOL    HW126720   2.929   5.755   1.666
 8607SOL    HW226721   3.001   5.800   1.806
 8608SOL     OW26722   5.318   6.332   2.140
 8608SOL    HW126723   5.263   6.267   2.087
 8608SOL    HW226724   5.272   6.351   2.227
 8609SOL     OW26725   4.581   0.508   6.269
 8609SOL    HW126726   4.597   0.595   6.317
 8609SOL    HW226727   4.485   0.503   6.242
 8610SOL     OW26728   6.885   6.626   4.536
 8610SOL    HW126729   6.865   6.609   4.632
 8610SOL    HW226730   6.984   6.619   4.520
 8611SOL     OW26731   1.760   2.039   3.322
 8611SOL    HW126732   1.739   1.978   3.246
 8611SOL    HW226733   1.727   2.131   3.302
 8612SOL     OW26734   4.463   2.588   5.027
 8612SOL    HW126735   4.390   2.537   4.982
 8612SOL    HW226736   4.504   2.652   4.962
 8613SOL     OW26737   1.406   1.828   0.075
 8613SOL    HW126738   1.355   1.868   0.152
 8613SOL    HW226739   1.499   1.808   0.104
 8614SOL     OW26740   1.306   1.441   3.281
 8614SOL    HW126741   1.274   1.518   3.336
 8614SOL    HW226742   1.393   1.465   3.238
 8615SOL     OW26743   4.345   2.146   5.488
 8615SOL    HW126744   4.376   2.126   5.395
 8615SOL    HW226745   4.305   2.063   5.528
 8616SOL     OW26746   1.296   3.208   0.180
 8616SOL    HW126747   1.350   3.147   0.238
 8616SOL    HW226748   1.202   3.172   0.173
 8617SOL     OW26749   6.529   2.956   1.142
 8617SOL    HW126750   6.502   3.040   1.096
 8617SOL    HW226751   6.619   2.927   1.109
 8618SOL     OW26752   4.941   0.645   3.020
 8618SOL    HW126753   4.842   0.650   3.034
 8618SOL    HW226754   4.988   0.695   3.093
 8619SOL     OW26755   4.194   5.881   0.766
 8619SOL    HW126756   4.191   5.883   0.866
 8619SOL    HW226757   4.114   5.928   0.730
 8620SOL     OW26758   6.361   6.403   3.146
 8620SOL    HW126759   6.450   6.434   3.114
 8620SOL    HW226760   6.366   6.306   3.170
 8621SOL     OW26761   5.689   0.747   2.810
 8621SOL    HW126762   5.709   0.747   2.712
 8621SOL    HW226763   5.602   0.792   2.827
 8622SOL     OW26764   5.599   5.252   0.031
 8622SOL    HW126765   5.684   5.217   7.009
 8622SOL    HW226766   5.596   5.351   0.022
 8623SOL     OW26767   6.333   2.921   2.678
 8623SOL    HW126768   6.332   2.931   2.777
 8623SOL    HW226769   6.399   2.985   2.639
 8624SOL     OW26770   0.324   4.734   3.746
 8624SOL    HW126771   0.361   4.670   3.812
 8624SOL    HW226772   0.368   4.720   3.657
 8625SOL     OW26773   3.332   0.687   6.391
 8625SOL    HW126774   3.263   0.640   6.446
 8625SOL    HW226775   3.423   0.657   6.419
 8626SOL     OW26776   3.513   3.123   2.215
 8626SOL    HW126777   3.536   3.163   2.304
 8626SOL    HW226778   3.414   3.117   2.206
 8627SOL     OW26779   2.515   0.040   6.738
 8627SOL    HW126780   2.490   0.136   6.744
 8627SOL    HW226781   2.583   0.019   6.809
 8628SOL     OW26782   5.508   0.954   0.024
 8628SOL    HW126783   5.561   0.884   0.073
 8628SOL    HW226784   5.424   0.974   0.075
 8629SOL     OW26785   1.134   5.117   3.912
 8629SOL    HW126786   1.168   5.127   3.818
 8629SOL    HW226787   1.195   5.168   3.974
 8630SOL     OW26788   5.492   4.782   3.896
 8630SOL    HW126789   5.425   4.817   3.961
 8630SOL    HW226790   5.547   4.857   3.861
 8631SOL     OW26791   4.278   6.211   3.781
 8631SOL    HW126792   4.202   6.252   3.731
 8631SOL    HW226793   4.279   6.247   3.875
 8632SOL     OW26794   4.676   0.656   3.104
 8632SOL    HW126795   4.698   0.572   3.153
 8632SOL    HW226796   4.635   0.722   3.166
 8633SOL     OW26797   5.895   0.512   3.806
 8633SOL    HW126798   5.898   0.438   3.738
 8633SOL    HW226799   5.933   0.596   3.765
 8634SOL     OW26800   6.684   5.259   1.555
 8634SOL    HW126801   6.647   5.196   1.624
 8634SOL    HW226802   6.748   5.210   1.496
 8635SOL     OW26803   6.122   3.505   5.489
 8635SOL    HW126804   6.185   3.551   5.427
 8635SOL    HW226805   6.123   3.552   5.577
 8636SOL     OW26806   5.555   5.758   0.317
 8636SOL    HW126807   5.632   5.746   0.255
 8636SOL    HW226808   5.522   5.669   0.348
 8637SOL     OW26809   1.479   0.749   1.751
 8637SOL    HW126810   1.392   0.700   1.762
 8637SOL    HW226811   1.533   0.705   1.679
 8638SOL     OW26812   4.752   5.323   1.086
 8638SOL    HW126813   4.693   5.387   1.134
 8638SOL    HW226814   4.806   5.372   1.018
 8639SOL     OW26815   6.658   3.149   1.748
 8639SOL    HW126816   6.615   3.149   1.658
 8639SOL    HW226817   6.590   3.124   1.817
 8640SOL     OW26818   5.359   6.147   1.196
 8640SOL    HW126819   5.391   6.114   1.108
 8640SOL    HW226820   5.380   6.244   1.205
 8641SOL     OW26821   5.214   4.912   3.326
 8641SOL    HW126822   5.183   4.816   3.325
 8641SOL    HW226823   5.279   4.925   3.401
 8642SOL     OW26824   4.779   1.793   1.485
 8642SOL    HW126825   4.687   1.833   1.489
 8642SOL    HW226826   4.800   1.750   1.573
 8643SOL     OW26827   4.783   0.981   6.743
 8643SOL    HW126828   4.774   1.075   6.776
 8643SOL    HW226829   4.877   0.966   6.711
 8644SOL     OW26830   6.489   3.562   5.620
 8644SOL    HW126831   6.465   3.542   5.525
 8644SOL    HW226832   6.462   3.656   5.642
 8645SOL     OW26833   6.280   4.667   1.587
 8645SOL    HW126834   6.236   4.659   1.677
 8645SOL    HW226835   6.237   4.602   1.524
 8646SOL     OW26836   5.240   0.458   0.884
 8646SOL    HW126837   5.291   0.533   0.926
 8646SOL    HW226838   5.236   0.381   0.947
 8647SOL     OW26839   4.613   4.863   2.210
 8647SOL    HW126840   4.630   4.940   2.149
 8647SOL    HW226841   4.609   4.779   2.156
 8648SOL     OW26842   5.880   1.729   4.715
 8648SOL    HW126843   5.863   1.813   4.663
 8648SOL    HW226844   5.798   1.673   4.717
 8649SOL     OW26845   0.418   4.820   5.262
 8649SOL    HW126846   0.379   4.729   5.273
 8649SOL    HW226847   0.398   4.875   5.344
 8650SOL     OW26848   0.704   4.827   2.217
 8650SOL    HW126849   0.765   4.788   2.287
 8650SOL    HW226850   0.755   4.894   2.163
 8651SOL     OW26851   3.266   2.511   1.090
 8651SOL    HW126852   3.357   2.467   1.094
 8651SOL    HW226853   3.215   2.488   1.172
 8652SOL     OW26854   1.907   3.363   4.143
 8652SOL    HW126855   2.000   3.377   4.178
 8652SOL    HW226856   1.901   3.396   4.049
 8653SOL     OW26857   5.945   3.266   6.282
 8653SOL    HW126858   5.949   3.173   6.246
 8653SOL    HW226859   6.032   3.289   6.326
 8654SOL     OW26860   6.774   6.759   3.082
 8654SOL    HW126861   6.718   6.840   3.070
 8654SOL    HW226862   6.854   6.764   3.022
 8655SOL     OW26863   6.081   6.197   3.914
 8655SOL    HW126864   6.012   6.167   3.981
 8655SOL    HW226865   6.039   6.202   3.823
 8656SOL     OW26866   6.412   2.061   1.395
 8656SOL    HW126867   6.431   2.134   1.461
 8656SOL    HW226868   6.368   1.984   1.442
 8657SOL     OW26869   3.207   4.008   0.847
 8657SOL    HW126870   3.300   3.988   0.818
 8657SOL    HW226871   3.209   4.057   0.934
 8658SOL     OW26872   0.459   5.145   0.231
 8658SOL    HW126873   0.419   5.115   0.318
 8658SOL    HW226874   0.460   5.245   0.227
 8659SOL     OW26875   4.677   0.460   3.759
 8659SOL    HW126876   4.603   0.393   3.756
 8659SOL    HW226877   4.749   0.428   3.821
 8660SOL     OW26878   5.431   5.003   0.910
 8660SOL    HW126879   5.366   4.938   0.873
 8660SOL    HW226880   5.521   4.987   0.869
 8661SOL     OW26881   6.385   3.622   1.304
 8661SOL    HW126882   6.390   3.684   1.382
 8661SOL    HW226883   6.365   3.674   1.221
 8662SOL     OW26884   0.021   0.571   0.951
 8662SOL    HW126885   0.008   0.623   0.867
 8662SOL    HW226886   0.097   0.611   1.003
 8663SOL     OW26887   2.431   5.937   0.735
 8663SOL    HW126888   2.386   6.005   0.677
 8663SOL    HW226889   2.490   5.879   0.678
 8664SOL     OW26890   4.169   5.108   1.816
 8664SOL    HW126891   4.213   5.182   1.764
 8664SOL    HW226892   4.071   5.125   1.820
 8665SOL     OW26893   4.637   5.165   5.210
 8665SOL    HW126894   4.610   5.260   5.197
 8665SOL    HW226895   4.585   5.126   5.287
 8666SOL     OW26896   5.610   3.704   4.559
 8666SOL    HW126897   5.591   3.801   4.575
 8666SOL    HW226898   5.536   3.649   4.598
 8667SOL     OW26899   5.120   1.760   3.130
 8667SOL    HW126900   5.209   1.805   3.122
 8667SOL    HW226901   5.049   1.820   3.094
 8668SOL     OW26902   3.413   1.381   4.488
 8668SOL    HW126903   3.366   1.380   4.399
 8668SOL    HW226904   3.476   1.458   4.491
 8669SOL     OW26905   4.526   0.115   5.695
 8669SOL    HW126906   4.527   0.056   5.614
 8669SOL    HW226907   4.617   0.114   5.737
 8670SOL     OW26908   4.194   4.784   3.799
 8670SOL    HW126909   4.205   4.883   3.808
 8670SOL    HW226910   4.279   4.739   3.825
 8671SOL     OW26911   5.763   6.326   2.690
 8671SOL    HW126912   5.808   6.333   2.780
 8671SOL    HW226913   5.667   6.352   2.698
 8672SOL     OW26914   3.416   4.661   5.274
 8672SOL    HW126915   3.322   4.652   5.243
 8672SOL    HW226916   3.450   4.572   5.304
 8673SOL     OW26917   5.588   2.141   0.796
 8673SOL    HW126918   5.651   2.118   0.722
 8673SOL    HW226919   5.597   2.238   0.819
 8674SOL     OW26920   0.574   0.360   2.616
 8674SOL    HW126921   0.658   0.362   2.671
 8674SOL    HW226922   0.496   0.341   2.676
 8675SOL     OW26923   1.823   2.026   2.672
 8675SOL    HW126924   1.905   2.077   2.699
 8675SOL    HW226925   1.850   1.939   2.629
 8676SOL     OW26926   4.610   6.881   3.521
 8676SOL    HW126927   4.593   6.902   3.617
 8676SOL    HW226928   4.562   6.947   3.463
 8677SOL     OW26929   2.311   4.451   5.042
 8677SOL    HW126930   2.346   4.429   5.134
 8677SOL    HW226931   2.384   4.493   4.988
 8678SOL     OW26932   1.153   0.760   6.047
 8678SOL    HW126933   1.233   0.788   5.994
 8678SOL    HW226934   1.176   0.679   6.102
 8679SOL     OW26935   6.509   2.290   5.093
 8679SOL    HW126936   6.527   2.222   5.021
 8679SOL    HW226937   6.506   2.381   5.052
 8680SOL     OW26938   1.049   3.569   0.331
 8680SOL    HW126939   0.966   3.523   0.360
 8680SOL    HW226940   1.068   3.646   0.392
 8681SOL     OW26941   4.659   3.830   1.045
 8681SOL    HW126942   4.577   3.799   0.997
 8681SOL    HW226943   4.659   3.794   1.138
 8682SOL     OW26944   1.937   5.789   2.703
 8682SOL    HW126945   1.846   5.752   2.683
 8682SOL    HW226946   1.958   5.772   2.800
 8683SOL     OW26947   6.148   3.359   6.471
 8683SOL    HW126948   6.225   3.366   6.407
 8683SOL    HW226949   6.165   3.416   6.551
 8684SOL     OW26950   6.309   2.546   4.431
 8684SOL    HW126951   6.405   2.553   4.461
 8684SOL    HW226952   6.293   2.610   4.356
 8685SOL     OW26953   0.630   2.124   5.124
 8685SOL    HW126954   0.533   2.136   5.103
 8685SOL    HW226955   0.679   2.209   5.106
 8686SOL     OW26956   6.144   2.154   3.390
 8686SOL    HW126957   6.157   2.235   3.332
 8686SOL    HW226958   6.175   2.073   3.340
 8687SOL     OW26959   4.349   0.728   2.760
 8687SOL    HW126960   4.415   0.724   2.685
 8687SOL    HW226961   4.381   0.670   2.835
 8688SOL     OW26962   2.116   6.952   2.302
 8688SOL    HW126963   2.093   7.001   2.218
 8688SOL    HW226964   2.144   6.859   2.280
 8689SOL     OW26965   4.524   5.419   0.599
 8689SOL    HW126966   4.485   5.348   0.541
 8689SOL    HW226967   4.458   5.494   0.608
 8690SOL     OW26968   1.194   1.316   2.546
 8690SOL    HW126969   1.269   1.335   2.482
 8690SOL    HW226970   1.115   1.283   2.495
 8691SOL     OW26971   5.968   1.618   0.740
 8691SOL    HW126972   6.014   1.545   0.789
 8691SOL    HW226973   5.869   1.601   0.738
 8692SOL     OW26974   1.331   1.680   4.243
 8692SOL    HW126975   1.356   1.591   4.282
 8692SOL    HW226976   1.344   1.752   4.311
 8693SOL     OW26977   5.628   2.192   0.227
 8693SOL    HW126978   5.655   2.265   0.289
 8693SOL    HW226979   5.651   2.218   0.133
 8694SOL     OW26980   4.032   6.147   6.030
 8694SOL    HW126981   3.998   6.132   5.937
 8694SOL    HW226982   3.965   6.112   6.096
 8695SOL     OW26983   4.422   4.034   5.311
 8695SOL    HW126984   4.349   3.984   5.264
 8695SOL    HW226985   4.493   4.059   5.245
 8696SOL     OW26986   1.698   5.426   1.151
 8696SOL    HW126987   1.785   5.393   1.116
 8696SOL    HW226988   1.667   5.367   1.225
 8697SOL     OW26989   5.598   4.566   0.231
 8697SOL    HW126990   5.622   4.470   0.214
 8697SOL    HW226991   5.580   4.611   0.144
 8698SOL     OW26992   5.949   5.855   4.086
 8698SOL    HW126993   5.894   5.839   4.168
 8698SOL    HW226994   5.969   5.768   4.041
 8699SOL     OW26995   1.432   1.732   5.462
 8699SOL    HW126996   1.362   1.792   5.421
 8699SOL    HW226997   1.486   1.689   5.389
 8700SOL     OW26998   2.590   1.998   6.259
 8700SOL    HW126999   2.519   2.026   6.324
 8700SOL    HW227000   2.629   2.079   6.216
 8701SOL     OW27001   1.203   2.090   4.177
 8701SOL    HW127002   1.269   2.025   4.139
 8701SOL    HW227003   1.111   2.054   4.164
 8702SOL     OW27004   5.313   5.835   6.830
 8702SOL    HW127005   5.276   5.779   6.904
 8702SOL    HW227006   5.412   5.821   6.825
 8703SOL     OW27007   1.925   5.749   1.178
 8703SOL    HW127008   1.881   5.717   1.262
 8703SOL    HW227009   2.018   5.780   1.198
 8704SOL     OW27010   0.754   4.377   1.783
 8704SOL    HW127011   0.725   4.300   1.726
 8704SOL    HW227012   0.799   4.445   1.726
 8705SOL     OW27013   5.093   6.632   5.071
 8705SOL    HW127014   4.996   6.611   5.054
 8705SOL    HW227015   5.147   6.606   4.991
 8706SOL     OW27016   5.220   2.362   6.834
 8706SOL    HW127017   5.216   2.423   6.756
 8706SOL    HW227018   5.171   2.403   6.911
 8707SOL     OW27019   4.732   2.540   5.677
 8707SOL    HW127020   4.794   2.475   5.723
 8707SOL    HW227021   4.659   2.489   5.633
 8708SOL     OW27022   4.132   1.496   0.827
 8708SOL    HW127023   4.163   1.402   0.821
 8708SOL    HW227024   4.097   1.514   0.919
 8709SOL     OW27025   6.657   3.697   0.964
 8709SOL    HW127026   6.691   3.787   0.937
 8709SOL    HW227027   6.559   3.703   0.984
 8710SOL     OW27028   0.874   3.293   3.431
 8710SOL    HW127029   0.815   3.225   3.386
 8710SOL    HW227030   0.871   3.379   3.380
 8711SOL     OW27031   0.517   1.673   4.162
 8711SOL    HW127032   0.510   1.576   4.143
 8711SOL    HW227033   0.579   1.716   4.096
 8712SOL     OW27034   3.648   1.050   6.025
 8712SOL    HW127035   3.638   1.143   6.063
 8712SOL    HW227036   3.695   0.992   6.092
 8713SOL     OW27037   6.389   4.752   2.681
 8713SOL    HW127038   6.475   4.725   2.724
 8713SOL    HW227039   6.342   4.819   2.740
 8714SOL     OW27040   1.553   1.287   4.804
 8714SOL    HW127041   1.642   1.331   4.811
 8714SOL    HW227042   1.483   1.356   4.786
 8715SOL     OW27043   5.960   1.587   1.699
 8715SOL    HW127044   5.980   1.499   1.743
 8715SOL    HW227045   5.886   1.575   1.633
 8716SOL     OW27046   1.378   1.587   1.734
 8716SOL    HW127047   1.385   1.506   1.676
 8716SOL    HW227048   1.466   1.604   1.778
 8717SOL     OW27049   3.975   3.162   0.999
 8717SOL    HW127050   3.929   3.090   0.947
 8717SOL    HW227051   3.907   3.211   1.054
 8718SOL     OW27052   6.684   3.172   6.191
 8718SOL    HW127053   6.587   3.170   6.214
 8718SOL    HW227054   6.726   3.084   6.213
 8719SOL     OW27055   6.696   0.697   5.968
 8719SOL    HW127056   6.729   0.769   5.907
 8719SOL    HW227057   6.711   0.607   5.926
 8720SOL     OW27058   5.078   3.634   5.844
 8720SOL    HW127059   5.058   3.538   5.862
 8720SOL    HW227060   5.042   3.690   5.919
 8721SOL     OW27061   0.085   2.071   4.375
 8721SOL    HW127062   0.182   2.059   4.396
 8721SOL    HW227063   0.058   2.005   4.305
 8722SOL     OW27064   3.863   2.993   0.809
 8722SOL    HW127065   3.881   2.909   0.859
 8722SOL    HW227066   3.767   2.993   0.778
 8723SOL     OW27067   6.847   4.653   0.188
 8723SOL    HW127068   6.821   4.640   0.092
 8723SOL    HW227069   6.902   4.736   0.196
 8724SOL     OW27070   5.461   6.520   6.529
 8724SOL    HW127071   5.530   6.479   6.469
 8724SOL    HW227072   5.376   6.468   6.523
 8725SOL     OW27073   2.391   5.834   1.025
 8725SOL    HW127074   2.422   5.810   0.933
 8725SOL    HW227075   2.292   5.852   1.023
 8726SOL     OW27076   4.888   0.600   1.309
 8726SOL    HW127077   4.873   0.562   1.401
 8726SOL    HW227078   4.831   0.551   1.244
 8727SOL     OW27079   5.983   5.589   0.749
 8727SOL    HW127080   6.079   5.597   0.722
 8727SOL    HW227081   5.945   5.503   0.714
 8728SOL     OW27082   2.310   6.800   5.703
 8728SOL    HW127083   2.407   6.792   5.725
 8728SOL    HW227084   2.260   6.832   5.784
 8729SOL     OW27085   5.739   6.400   4.723
 8729SOL    HW127086   5.652   6.352   4.740
 8729SOL    HW227087   5.737   6.489   4.769
 8730SOL     OW27088   0.390   6.902   1.525
 8730SOL    HW127089   0.316   6.923   1.460
 8730SOL    HW227090   0.351   6.888   1.616
 8731SOL     OW27091   1.147   1.945   2.755
 8731SOL    HW127092   1.150   1.845   2.752
 8731SOL    HW227093   1.052   1.975   2.758
 8732SOL     OW27094   5.305   4.585   1.688
 8732SOL    HW127095   5.225   4.546   1.642
 8732SOL    HW227096   5.344   4.658   1.631
 8733SOL     OW27097   0.025   6.237   1.427
 8733SOL    HW127098   0.038   6.333   1.402
 8733SOL    HW227099   0.012   6.230   1.526
 8734SOL     OW27100   6.794   4.796   0.428
 8734SOL    HW127101   6.883   4.797   0.473
 8734SOL    HW227102   6.797   4.738   0.348
 8735SOL     OW27103   6.617   2.701   6.742
 8735SOL    HW127104   6.709   2.727   6.772
 8735SOL    HW227105   6.622   2.618   6.687
 8736SOL     OW27106   0.751   4.855   6.442
 8736SOL    HW127107   0.717   4.903   6.523
 8736SOL    HW227108   0.689   4.871   6.365
 8737SOL     OW27109   3.822   5.693   6.453
 8737SOL    HW127110   3.825   5.764   6.383
 8737SOL    HW227111   3.903   5.701   6.512
 8738SOL     OW27112   1.694   3.404   4.770
 8738SOL    HW127113   1.633   3.403   4.849
 8738SOL    HW227114   1.727   3.497   4.755
 8739SOL     OW27115   1.293   2.870   5.087
 8739SOL    HW127116   1.391   2.871   5.069
 8739SOL    HW227117   1.275   2.917   5.174
 8740SOL     OW27118   1.855   6.148   1.458
 8740SOL    HW127119   1.888   6.128   1.550
 8740SOL    HW227120   1.759   6.122   1.451
 8741SOL     OW27121   1.157   3.712   2.186
 8741SOL    HW127122   1.210   3.684   2.266
 8741SOL    HW227123   1.214   3.709   2.104
 8742SOL     OW27124   4.731   6.921   2.264
 8742SOL    HW127125   4.797   6.901   2.191
 8742SOL    HW227126   4.774   6.905   2.353
 8743SOL     OW27127   2.309   4.395   3.447
 8743SOL    HW127128   2.255   4.478   3.441
 8743SOL    HW227129   2.315   4.366   3.543
 8744SOL     OW27130   3.206   3.061   5.855
 8744SOL    HW127131   3.135   3.131   5.843
 8744SOL    HW227132   3.240   3.064   5.949
 8745SOL     OW27133   6.337   1.823   6.770
 8745SOL    HW127134   6.342   1.774   6.857
 8745SOL    HW227135   6.366   1.763   6.696
 8746SOL     OW27136   5.342   4.308   5.195
 8746SOL    HW127137   5.288   4.243   5.140
 8746SOL    HW227138   5.423   4.262   5.231
 8747SOL     OW27139   1.715   2.561   4.090
 8747SOL    HW127140   1.631   2.600   4.129
 8747SOL    HW227141   1.705   2.554   3.990
 8748SOL     OW27142   2.711   0.647   6.815
 8748SOL    HW127143   2.804   0.680   6.832
 8748SOL    HW227144   2.647   0.724   6.821
 8749SOL     OW27145   4.100   1.264   4.205
 8749SOL    HW127146   4.047   1.297   4.128
 8749SOL    HW227147   4.148   1.340   4.248
 8750SOL     OW27148   2.469   1.009   5.253
 8750SOL    HW127149   2.462   1.103   5.288
 8750SOL    HW227150   2.399   0.995   5.184
 8751SOL     OW27151   2.128   0.080   2.916
 8751SOL    HW127152   2.185   0.015   2.966
 8751SOL    HW227153   2.178   0.165   2.904
 8752SOL     OW27154   1.994   2.722   6.632
 8752SOL    HW127155   1.976   2.816   6.662
 8752SOL    HW227156   2.006   2.721   6.532
 8753SOL     OW27157   5.650   1.114   5.194
 8753SOL    HW127158   5.733   1.109   5.249
 8753SOL    HW227159   5.603   1.026   5.198
 8754SOL     OW27160   1.731   1.037   5.737
 8754SOL    HW127161   1.776   1.076   5.657
 8754SOL    HW227162   1.747   1.097   5.816
 8755SOL     OW27163   2.232   2.068   0.490
 8755SOL    HW127164   2.331   2.077   0.497
 8755SOL    HW227165   2.187   2.139   0.545
 8756SOL     OW27166   2.174   3.003   3.784
 8756SOL    HW127167   2.177   2.938   3.708
 8756SOL    HW227168   2.204   2.956   3.868
 8757SOL     OW27169   4.791   5.824   4.093
 8757SOL    HW127170   4.733   5.772   4.156
 8757SOL    HW227171   4.865   5.868   4.144
 8758SOL     OW27172   5.063   6.241   2.012
 8758SOL    HW127173   5.058   6.293   1.927
 8758SOL    HW227174   5.109   6.154   1.997
 8759SOL     OW27175   5.218   1.169   5.938
 8759SOL    HW127176   5.257   1.225   6.010
 8759SOL    HW227177   5.216   1.073   5.968
 8760SOL     OW27178   1.710   2.910   3.417
 8760SOL    HW127179   1.783   2.979   3.418
 8760SOL    HW227180   1.735   2.836   3.355
 8761SOL     OW27181   5.234   6.447   0.735
 8761SOL    HW127182   5.137   6.427   0.749
 8761SOL    HW227183   5.289   6.370   0.769
 8762SOL     OW27184   0.976   4.083   0.032
 8762SOL    HW127185   1.035   4.154   7.012
 8762SOL    HW227186   0.993   3.996   7.004
 8763SOL     OW27187   6.916   6.372   5.567
 8763SOL    HW127188   6.990   6.396   5.505
 8763SOL    HW227189   6.949   6.308   5.636
 8764SOL     OW27190   3.293   2.322   5.438
 8764SOL    HW127191   3.252   2.382   5.369
 8764SOL    HW227192   3.309   2.374   5.522
 8765SOL     OW27193   0.111   0.422   5.226
 8765SOL    HW127194   0.017   0.415   5.260
 8765SOL    HW227195   0.154   0.505   5.263
 8766SOL     OW27196   2.404   4.573   2.483
 8766SOL    HW127197   2.453   4.538   2.404
 8766SOL    HW227198   2.418   4.672   2.490
 8767SOL     OW27199   5.208   1.608   4.895
 8767SOL    HW127200   5.109   1.611   4.877
 8767SOL    HW227201   5.251   1.690   4.859
 8768SOL     OW27202   1.246   4.246   6.840
 8768SOL    HW127203   1.240   4.153   6.805
 8768SOL    HW227204   1.334   4.259   6.885
 8769SOL     OW27205   2.051   0.765   5.540
 8769SOL    HW127206   1.952   0.777   5.525
 8769SOL    HW227207   2.095   0.745   5.452
 8770SOL     OW27208   5.349   2.103   2.166
 8770SOL    HW127209   5.332   2.197   2.136
 8770SOL    HW227210   5.345   2.098   2.266
 8771SOL     OW27211   1.705   2.487   6.465
 8771SOL    HW127212   1.622   2.538   6.485
 8771SOL    HW227213   1.719   2.416   6.535
 8772SOL     OW27214   5.830   6.592   6.760
 8772SOL    HW127215   5.814   6.637   6.848
 8772SOL    HW227216   5.776   6.508   6.756
 8773SOL     OW27217   3.115   2.190   3.590
 8773SOL    HW127218   3.113   2.168   3.493
 8773SOL    HW227219   3.205   2.225   3.615
 8774SOL     OW27220   0.983   1.100   6.918
 8774SOL    HW127221   0.915   1.086   6.846
 8774SOL    HW227222   1.073   1.114   6.876
 8775SOL     OW27223   6.402   0.040   4.348
 8775SOL    HW127224   6.415   6.969   4.304
 8775SOL    HW227225   6.427   0.033   4.445
 8776SOL     OW27226   2.992   3.514   4.705
 8776SOL    HW127227   3.037   3.506   4.794
 8776SOL    HW227228   2.993   3.610   4.676
 8777SOL     OW27229   6.578   5.783   2.053
 8777SOL    HW127230   6.528   5.726   2.118
 8777SOL    HW227231   6.583   5.736   1.965
 8778SOL     OW27232   0.673   2.159   3.246
 8778SOL    HW127233   0.688   2.067   3.284
 8778SOL    HW227234   0.750   2.218   3.271
 8779SOL     OW27235   1.466   4.409   0.812
 8779SOL    HW127236   1.544   4.353   0.838
 8779SOL    HW227237   1.446   4.475   0.885
 8780SOL     OW27238   2.171   5.684   4.293
 8780SOL    HW127239   2.198   5.778   4.312
 8780SOL    HW227240   2.245   5.622   4.318
 8781SOL     OW27241   0.743   2.289   2.652
 8781SOL    HW127242   0.771   2.238   2.571
 8781SOL    HW227243   0.655   2.254   2.685
 8782SOL     OW27244   4.923   1.754   2.844
 8782SOL    HW127245   4.838   1.707   2.821
 8782SOL    HW227246   5.000   1.692   2.834
 8783SOL     OW27247   5.096   2.265   5.538
 8783SOL    HW127248   5.082   2.364   5.550
 8783SOL    HW227249   5.008   2.219   5.538
 8784SOL     OW27250   5.239   4.216   5.777
 8784SOL    HW127251   5.256   4.176   5.687
 8784SOL    HW227252   5.178   4.156   5.829
 8785SOL     OW27253   5.375   4.676   6.537
 8785SOL    HW127254   5.467   4.699   6.568
 8785SOL    HW227255   5.375   4.663   6.438
 8786SOL     OW27256   1.128   5.997   0.770
 8786SOL    HW127257   1.088   5.975   0.859
 8786SOL    HW227258   1.219   5.957   0.764
 8787SOL     OW27259   1.377   2.714   0.286
 8787SOL    HW127260   1.412   2.643   0.347
 8787SOL    HW227261   1.284   2.739   0.314
 8788SOL     OW27262   1.226   1.874   5.369
 8788SOL    HW127263   1.212   1.844   5.274
 8788SOL    HW227264   1.162   1.948   5.390
 8789SOL     OW27265   0.211   6.952   6.648
 8789SOL    HW127266   0.206   6.945   6.548
 8789SOL    HW227267   0.265   0.014   6.673
 8790SOL     OW27268   5.217   1.528   7.006
 8790SOL    HW127269   5.271   1.602   6.966
 8790SOL    HW227270   5.141   1.504   6.945
 8791SOL     OW27271   4.712   6.214   5.081
 8791SOL    HW127272   4.642   6.278   5.049
 8791SOL    HW227273   4.776   6.195   5.006
 8792SOL     OW27274   5.278   0.184   3.098
 8792SOL    HW127275   5.217   0.251   3.140
 8792SOL    HW227276   5.282   0.102   3.155
 8793SOL     OW27277   1.199   4.447   4.158
 8793SOL    HW127278   1.152   4.391   4.227
 8793SOL    HW227279   1.266   4.506   4.203
 8794SOL     OW27280   2.364   6.468   2.734
 8794SOL    HW127281   2.432   6.455   2.662
 8794SOL    HW227282   2.399   6.533   2.802
 8795SOL     OW27283   1.828   6.271   5.313
 8795SOL    HW127284   1.886   6.218   5.251
 8795SOL    HW227285   1.799   6.213   5.389
 8796SOL     OW27286   5.730   2.354   5.304
 8796SOL    HW127287   5.820   2.365   5.346
 8796SOL    HW227288   5.712   2.256   5.290
 8797SOL     OW27289   0.604   6.531   6.817
 8797SOL    HW127290   0.663   6.466   6.770
 8797SOL    HW227291   0.585   6.499   6.910
 8798SOL     OW27292   3.958   3.427   5.822
 8798SOL    HW127293   3.983   3.514   5.780
 8798SOL    HW227294   4.040   3.376   5.846
 8799SOL     OW27295   3.851   6.428   2.309
 8799SOL    HW127296   3.904   6.352   2.347
 8799SOL    HW227297   3.802   6.397   2.227
 8800SOL     OW27298   4.762   5.339   0.393
 8800SOL    HW127299   4.732   5.392   0.472
 8800SOL    HW227300   4.767   5.400   0.313
 8801SOL     OW27301   2.980   6.887   4.795
 8801SOL    HW127302   2.976   6.857   4.700
 8801SOL    HW227303   2.946   6.814   4.854
 8802SOL     OW27304   2.482   6.981   2.207
 8802SOL    HW127305   2.577   6.964   2.184
 8802SOL    HW227306   2.472   6.987   2.306
 8803SOL     OW27307   3.580   6.090   0.532
 8803SOL    HW127308   3.536   6.017   0.585
 8803SOL    HW227309   3.664   6.053   0.490
 8804SOL     OW27310   3.826   0.409   0.920
 8804SOL    HW127311   3.733   0.445   0.919
 8804SOL    HW227312   3.888   0.475   0.877
 8805SOL     OW27313   0.300   0.077   3.030
 8805SOL    HW127314   0.280   0.150   3.095
 8805SOL    HW227315   0.347   0.114   2.950
 8806SOL     OW27316   2.294   5.009   0.215
 8806SOL    HW127317   2.229   4.947   0.260
 8806SOL    HW227318   2.373   5.022   0.274
 8807SOL     OW27319   1.611   6.182   5.937
 8807SOL    HW127320   1.569   6.269   5.910
 8807SOL    HW227321   1.696   6.168   5.885
 8808SOL     OW27322   6.082   1.404   0.877
 8808SOL    HW127323   6.181   1.417   0.884
 8808SOL    HW227324   6.043   1.398   0.969
 8809SOL     OW27325   6.144   4.265   1.013
 8809SOL    HW127326   6.121   4.189   1.074
 8809SOL    HW227327   6.235   4.300   1.035
 8810SOL     OW27328   5.010   1.263   3.631
 8810SOL    HW127329   5.084   1.274   3.566
 8810SOL    HW227330   5.042   1.212   3.711
 8811SOL     OW27331   1.131   1.494   3.958
 8811SOL    HW127332   1.080   1.522   4.040
 8811SOL    HW227333   1.174   1.406   3.974
 8812SOL     OW27334   1.879   0.734   0.753
 8812SOL    HW127335   1.822   0.669   0.803
 8812SOL    HW227336   1.959   0.688   0.716
 8813SOL     OW27337   1.555   5.376   0.856
 8813SOL    HW127338   1.539   5.474   0.855
 8813SOL    HW227339   1.621   5.353   0.927
 8814SOL     OW27340   5.491   6.841   0.538
 8814SOL    HW127341   5.475   6.821   0.442
 8814SOL    HW227342   5.429   6.787   0.595
 8815SOL     OW27343   0.158   5.672   2.728
 8815SOL    HW127344   0.176   5.758   2.681
 8815SOL    HW227345   0.182   5.596   2.668
 8816SOL     OW27346   1.045   6.008   1.831
 8816SOL    HW127347   1.144   5.990   1.824
 8816SOL    HW227348   1.004   5.940   1.891
 8817SOL     OW27349   2.685   4.351   5.285
 8817SOL    HW127350   2.680   4.445   5.251
 8817SOL    HW227351   2.782   4.324   5.293
 8818SOL     OW27352   7.016   5.221   4.690
 8818SOL    HW127353   0.072   5.259   4.745
 8818SOL    HW227354   6.950   5.175   4.750
 8819SOL     OW27355   5.203   0.298   4.000
 8819SOL    HW127356   5.258   0.380   4.015
 8819SOL    HW227357   5.140   0.314   3.924
 8820SOL     OW27358   1.706   2.870   3.973
 8820SOL    HW127359   1.731   2.843   4.066
 8820SOL    HW227360   1.783   2.915   3.928
 8821SOL     OW27361   1.824   0.521   6.547
 8821SOL    HW127362   1.729   0.492   6.535
 8821SOL    HW227363   1.833   0.617   6.519
 8822SOL     OW27364   0.357   1.790   3.930
 8822SOL    HW127365   0.331   1.694   3.938
 8822SOL    HW227366   0.451   1.802   3.959
 8823SOL     OW27367   2.721   5.034   2.022
 8823SOL    HW127368   2.782   4.957   2.006
 8823SOL    HW227369   2.744   5.078   2.108
 8824SOL     OW27370   4.535   4.074   0.723
 8824SOL    HW127371   4.462   4.025   0.771
 8824SOL    HW227372   4.620   4.068   0.777
 8825SOL     OW27373   1.610   2.539   1.456
 8825SOL    HW127374   1.542   2.553   1.384
 8825SOL    HW227375   1.599   2.608   1.527
 8826SOL     OW27376   5.592   0.672   0.068
 8826SOL    HW127377   5.570   0.606   0.140
 8826SOL    HW227378   5.688   0.699   0.075
 8827SOL     OW27379   0.667   1.285   3.508
 8827SOL    HW127380   0.756   1.257   3.542
 8827SOL    HW227381   0.678   1.353   3.436
 8828SOL     OW27382   1.441   6.165   2.692
 8828SOL    HW127383   1.364   6.176   2.630
 8828SOL    HW227384   1.514   6.229   2.667
 8829SOL     OW27385   0.751   1.749   6.810
 8829SOL    HW127386   0.768   1.829   6.867
 8829SOL    HW227387   0.808   1.673   6.841
 8830SOL     OW27388   0.925   1.785   0.566
 8830SOL    HW127389   0.929   1.880   0.594
 8830SOL    HW227390   0.981   1.772   0.483
 8831SOL     OW27391   0.055   1.154   2.689
 8831SOL    HW127392   0.017   1.185   2.776
 8831SOL    HW227393   0.040   1.223   2.619
 8832SOL     OW27394   0.057   0.910   2.515
 8832SOL    HW127395   6.989   0.931   2.470
 8832SOL    HW227396   0.093   0.993   2.559
 8833SOL     OW27397   1.801   4.555   3.345
 8833SOL    HW127398   1.720   4.497   3.335
 8833SOL    HW227399   1.806   4.620   3.270
 8834SOL     OW27400   5.863   3.753   4.283
 8834SOL    HW127401   5.848   3.703   4.198
 8834SOL    HW227402   5.826   3.846   4.274
 8835SOL     OW27403   0.416   0.047   6.227
 8835SOL    HW127404   0.496   7.005   6.236
 8835SOL    HW227405   0.424   0.098   6.142
 8836SOL     OW27406   5.029   1.912   1.472
 8836SOL    HW127407   4.930   1.898   1.477
 8836SOL    HW227408   5.048   2.009   1.458
 8837SOL     OW27409   1.102   1.774   2.231
 8837SOL    HW127410   1.096   1.785   2.330
 8837SOL    HW227411   1.014   1.797   2.189
 8838SOL     OW27412   2.311   5.768   3.892
 8838SOL    HW127413   2.295   5.853   3.941
 8838SOL    HW227414   2.229   5.710   3.897
 8839SOL     OW27415   5.797   7.008   4.019
 8839SOL    HW127416   5.751   6.931   3.975
 8839SOL    HW227417   5.758   0.005   4.109
 8840SOL     OW27418   4.921   1.496   2.510
 8840SOL    HW127419   4.899   1.511   2.606
 8840SOL    HW227420   4.971   1.575   2.474
 8841SOL     OW27421   1.975   0.088   4.239
 8841SOL    HW127422   1.920   0.004   4.239
 8841SOL    HW227423   1.979   0.124   4.332
 8842SOL     OW27424   1.601   2.744   2.038
 8842SOL    HW127425   1.606   2.785   1.947
 8842SOL    HW227426   1.673   2.782   2.096
 8843SOL     OW27427   0.641   3.517   4.634
 8843SOL    HW127428   0.629   3.418   4.633
 8843SOL    HW227429   0.601   3.557   4.551
 8844SOL     OW27430   5.750   1.371   6.363
 8844SOL    HW127431   5.817   1.442   6.342
 8844SOL    HW227432   5.796   1.296   6.412
 8845SOL     OW27433   5.678   3.631   6.927
 8845SOL    HW127434   5.655   3.652   6.833
 8845SOL    HW227435   5.777   3.639   6.940
 8846SOL     OW27436   2.750   4.689   3.331
 8846SOL    HW127437   2.730   4.593   3.350
 8846SOL    HW227438   2.746   4.741   3.416
 8847SOL     OW27439   1.910   0.705   2.566
 8847SOL    HW127440   1.920   0.783   2.628
 8847SOL    HW227441   1.828   0.719   2.509
 8848SOL     OW27442   1.375   0.308   2.908
 8848SOL    HW127443   1.333   0.219   2.891
 8848SOL    HW227444   1.472   0.305   2.885
 8849SOL     OW27445   2.658   6.695   1.157
 8849SOL    HW127446   2.631   6.675   1.251
 8849SOL    HW227447   2.674   6.794   1.147
 8850SOL     OW27448   2.535   2.731   7.017
 8850SOL    HW127449   2.489   2.818   0.020
 8850SOL    HW227450   2.491   2.688   6.938
 8851SOL     OW27451   1.734   3.630   2.507
 8851SOL    HW127452   1.756   3.540   2.545
 8851SOL    HW227453   1.650   3.664   2.548
 8852SOL     OW27454   1.101   2.267   5.583
 8852SOL    HW127455   1.052   2.183   5.560
 8852SOL    HW227456   1.050   2.346   5.549
 8853SOL     OW27457   5.392   0.674   1.628
 8853SOL    HW127458   5.325   0.606   1.596
 8853SOL    HW227459   5.484   0.645   1.601
 8854SOL     OW27460   1.045   2.440   4.875
 8854SOL    HW127461   1.089   2.513   4.928
 8854SOL    HW227462   1.077   2.443   4.781
 8855SOL     OW27463   5.107   5.067   1.242
 8855SOL    HW127464   5.027   5.043   1.187
 8855SOL    HW227465   5.137   5.159   1.219
 8856SOL     OW27466   6.450   0.985   5.886
 8856SOL    HW127467   6.523   0.989   5.818
 8856SOL    HW227468   6.469   1.051   5.959
 8857SOL     OW27469   6.446   2.067   6.195
 8857SOL    HW127470   6.432   1.988   6.135
 8857SOL    HW227471   6.452   2.150   6.141
 8858SOL     OW27472   6.675   6.083   4.992
 8858SOL    HW127473   6.582   6.121   4.992
 8858SOL    HW227474   6.694   6.044   4.902
 8859SOL     OW27475   0.825   5.970   3.370
 8859SOL    HW127476   0.739   5.994   3.415
 8859SOL    HW227477   0.858   6.049   3.318
 8860SOL     OW27478   6.942   4.101   2.929
 8860SOL    HW127479   6.925   4.183   2.874
 8860SOL    HW227480   6.863   4.084   2.989
 8861SOL     OW27481   3.464   2.654   1.577
 8861SOL    HW127482   3.377   2.603   1.582
 8861SOL    HW227483   3.527   2.618   1.645
 8862SOL     OW27484   4.435   4.641   4.685
 8862SOL    HW127485   4.411   4.619   4.779
 8862SOL    HW227486   4.493   4.569   4.647
 8863SOL     OW27487   1.768   3.718   3.181
 8863SOL    HW127488   1.727   3.628   3.174
 8863SOL    HW227489   1.863   3.709   3.212
 8864SOL     OW27490   6.442   2.217   5.547
 8864SOL    HW127491   6.488   2.128   5.551
 8864SOL    HW227492   6.506   2.287   5.516
 8865SOL     OW27493   3.039   1.993   0.630
 8865SOL    HW127494   2.945   1.959   0.640
 8865SOL    HW227495   3.084   1.994   0.719
 8866SOL     OW27496   5.847   6.643   1.922
 8866SOL    HW127497   5.785   6.569   1.947
 8866SOL    HW227498   5.884   6.685   2.005
 8867SOL     OW27499   6.415   3.207   2.649
 8867SOL    HW127500   6.505   3.244   2.670
 8867SOL    HW227501   6.344   3.269   2.683
 8868SOL     OW27502   0.124   3.665   4.011
 8868SOL    HW127503   0.067   3.714   4.076
 8868SOL    HW227504   0.180   3.730   3.959
 8869SOL     OW27505   4.587   0.218   3.427
 8869SOL    HW127506   4.547   0.299   3.384
 8869SOL    HW227507   4.546   0.135   3.388
 8870SOL     OW27508   1.745   0.647   2.103
 8870SOL    HW127509   1.691   0.724   2.069
 8870SOL    HW227510   1.743   0.573   2.035
 8871SOL     OW27511   0.012   0.560   1.794
 8871SOL    HW127512   0.073   0.485   1.819
 8871SOL    HW227513   0.054   0.615   1.722
 8872SOL     OW27514   0.099   4.041   3.771
 8872SOL    HW127515   0.082   4.139   3.756
 8872SOL    HW227516   0.181   4.030   3.827
 8873SOL     OW27517   2.488   2.201   2.458
 8873SOL    HW127518   2.456   2.249   2.377
 8873SOL    HW227519   2.418   2.205   2.529
 8874SOL     OW27520   2.667   6.230   0.093
 8874SOL    HW127521   2.716   6.146   0.117
 8874SOL    HW227522   2.693   6.302   0.157
 8875SOL     OW27523   6.575   3.102   4.391
 8875SOL    HW127524   6.600   3.168   4.321
 8875SOL    HW227525   6.623   3.123   4.476
 8876SOL     OW27526   4.376   0.355   6.606
 8876SOL    HW127527   4.284   0.373   6.570
 8876SOL    HW227528   4.408   0.435   6.657
 8877SOL     OW27529   1.545   5.021   1.258
 8877SOL    HW127530   1.475   4.985   1.320
 8877SOL    HW227531   1.515   5.009   1.164
 8878SOL     OW27532   4.860   4.204   1.420
 8878SOL    HW127533   4.765   4.229   1.405
 8878SOL    HW227534   4.871   4.168   1.513
 8879SOL     OW27535   6.600   4.333   2.698
 8879SOL    HW127536   6.577   4.315   2.602
 8879SOL    HW227537   6.550   4.269   2.756
 8880SOL     OW27538   4.147   2.105   3.077
 8880SOL    HW127539   4.161   2.133   3.172
 8880SOL    HW227540   4.118   2.009   3.075
 8881SOL     OW27541   3.981   4.838   3.311
 8881SOL    HW127542   4.006   4.777   3.236
 8881SOL    HW227543   3.889   4.873   3.296
 8882SOL     OW27544   4.082   0.631   0.510
 8882SOL    HW127545   4.130   0.577   0.440
 8882SOL    HW227546   4.138   0.710   0.535
 8883SOL     OW27547   6.996   6.583   3.584
 8883SOL    HW127548   6.955   6.539   3.504
 8883SOL    HW227549   6.923   6.618   3.643
 8884SOL     OW27550   5.040   2.995   5.492
 8884SOL    HW127551   5.130   3.038   5.495
 8884SOL    HW227552   5.048   2.901   5.458
 8885SOL     OW27553   5.835   5.810   0.473
 8885SOL    HW127554   5.775   5.732   0.458
 8885SOL    HW227555   5.794   5.871   0.541
 8886SOL     OW27556   3.876   5.852   6.738
 8886SOL    HW127557   3.941   5.786   6.699
 8886SOL    HW227558   3.915   5.892   6.821
 8887SOL     OW27559   4.235   0.360   1.823
 8887SOL    HW127560   4.170   0.304   1.772
 8887SOL    HW227561   4.201   0.375   1.916
 8888SOL     OW27562   3.197   1.845   2.386
 8888SOL    HW127563   3.142   1.919   2.345
 8888SOL    HW227564   3.177   1.759   2.340
 8889SOL     OW27565   1.641   5.244   0.082
 8889SOL    HW127566   1.615   5.194   7.017
 8889SOL    HW227567   1.574   5.226   0.154
 8890SOL     OW27568   1.143   6.761   0.297
 8890SOL    HW127569   1.080   6.722   0.231
 8890SOL    HW227570   1.177   6.690   0.358
 8891SOL     OW27571   5.871   4.016   5.548
 8891SOL    HW127572   5.860   4.114   5.565
 8891SOL    HW227573   5.935   3.978   5.615
 8892SOL     OW27574   2.665   5.160   5.039
 8892SOL    HW127575   2.582   5.147   5.094
 8892SOL    HW227576   2.690   5.073   4.997
 8893SOL     OW27577   1.261   5.337   5.443
 8893SOL    HW127578   1.250   5.363   5.347
 8893SOL    HW227579   1.286   5.240   5.449
 8894SOL     OW27580   5.070   1.604   1.815
 8894SOL    HW127581   5.046   1.690   1.860
 8894SOL    HW227582   5.087   1.534   1.884
 8895SOL     OW27583   6.506   3.214   1.019
 8895SOL    HW127584   6.534   3.263   0.937
 8895SOL    HW227585   6.527   3.268   1.100
 8896SOL     OW27586   1.040   1.830   3.349
 8896SOL    HW127587   1.123   1.884   3.357
 8896SOL    HW227588   1.030   1.772   3.430
 8897SOL     OW27589   1.993   5.572   4.131
 8897SOL    HW127590   2.055   5.624   4.190
 8897SOL    HW227591   2.030   5.568   4.039
 8898SOL     OW27592   4.917   3.826   2.672
 8898SOL    HW127593   4.891   3.837   2.576
 8898SOL    HW227594   4.890   3.907   2.724
 8899SOL     OW27595   1.737   3.746   2.910
 8899SOL    HW127596   1.755   3.756   3.008
 8899SOL    HW227597   1.649   3.700   2.897
 8900SOL     OW27598   4.876   1.921   4.116
 8900SOL    HW127599   4.796   1.874   4.152
 8900SOL    HW227600   4.947   1.854   4.094
 8901SOL     OW27601   1.324   5.235   4.639
 8901SOL    HW127602   1.303   5.321   4.594
 8901SOL    HW227603   1.322   5.161   4.572
 8902SOL     OW27604   0.540   4.598   0.297
 8902SOL    HW127605   0.535   4.689   0.255
 8902SOL    HW227606   0.520   4.528   0.228
 8903SOL     OW27607   1.149   0.121   5.655
 8903SOL    HW127608   1.222   0.053   5.651
 8903SOL    HW227609   1.189   0.212   5.662
 8904SOL     OW27610   0.850   1.123   3.656
 8904SOL    HW127611   0.833   1.041   3.711
 8904SOL    HW227612   0.928   1.107   3.596
 8905SOL     OW27613   1.316   3.939   2.928
 8905SOL    HW127614   1.304   3.971   3.022
 8905SOL    HW227615   1.405   3.896   2.918
 8906SOL     OW27616   6.027   0.218   0.323
 8906SOL    HW127617   5.995   0.313   0.321
 8906SOL    HW227618   6.044   0.191   0.418
 8907SOL     OW27619   3.160   3.141   5.310
 8907SOL    HW127620   3.095   3.189   5.252
 8907SOL    HW227621   3.141   3.162   5.406
 8908SOL     OW27622   1.372   4.459   6.258
 8908SOL    HW127623   1.307   4.494   6.325
 8908SOL    HW227624   1.325   4.401   6.191
 8909SOL     OW27625   1.795   5.627   1.374
 8909SOL    HW127626   1.702   5.593   1.358
 8909SOL    HW227627   1.839   5.571   1.445
 8910SOL     OW27628   0.992   0.402   3.533
 8910SOL    HW127629   1.063   0.416   3.464
 8910SOL    HW227630   1.031   0.413   3.624
 8911SOL     OW27631   4.333   2.320   4.401
 8911SOL    HW127632   4.374   2.377   4.472
 8911SOL    HW227633   4.362   2.225   4.414
 8912SOL     OW27634   3.679   3.532   3.972
 8912SOL    HW127635   3.599   3.521   3.912
 8912SOL    HW227636   3.681   3.625   4.007
 8913SOL     OW27637   5.297   6.086   0.610
 8913SOL    HW127638   5.354   6.037   0.544
 8913SOL    HW227639   5.254   6.165   0.565
 8914SOL     OW27640   4.762   5.523   5.388
 8914SOL    HW127641   4.831   5.582   5.429
 8914SOL    HW227642   4.694   5.579   5.340
 8915SOL     OW27643   1.548   1.081   2.909
 8915SOL    HW127644   1.633   1.030   2.893
 8915SOL    HW227645   1.487   1.069   2.831
 8916SOL     OW27646   5.228   1.276   1.061
 8916SOL    HW127647   5.253   1.348   0.996
 8916SOL    HW227648   5.129   1.263   1.060
 8917SOL     OW27649   5.943   1.805   0.361
 8917SOL    HW127650   5.874   1.733   0.363
 8917SOL    HW227651   6.032   1.766   0.336
 8918SOL     OW27652   0.858   3.441   2.816
 8918SOL    HW127653   0.950   3.436   2.855
 8918SOL    HW227654   0.834   3.353   2.774
 8919SOL     OW27655   6.260   2.970   1.595
 8919SOL    HW127656   6.207   2.891   1.626
 8919SOL    HW227657   6.354   2.942   1.577
 8920SOL     OW27658   0.306   0.797   0.043
 8920SOL    HW127659   0.215   0.821   0.010
 8920SOL    HW227660   0.326   0.701   0.021
 8921SOL     OW27661   1.110   3.150   2.033
 8921SOL    HW127662   1.090   3.053   2.043
 8921SOL    HW227663   1.055   3.203   2.097
 8922SOL     OW27664   4.440   5.568   3.708
 8922SOL    HW127665   4.344   5.577   3.734
 8922SOL    HW227666   4.471   5.474   3.726
 8923SOL     OW27667   2.435   1.645   4.556
 8923SOL    HW127668   2.391   1.555   4.552
 8923SOL    HW227669   2.445   1.673   4.651
 8924SOL     OW27670   6.383   4.850   5.150
 8924SOL    HW127671   6.428   4.819   5.233
 8924SOL    HW227672   6.405   4.787   5.075
 8925SOL     OW27673   0.848   6.572   2.629
 8925SOL    HW127674   0.771   6.543   2.572
 8925SOL    HW227675   0.933   6.541   2.587
 8926SOL     OW27676   5.953   1.005   0.010
 8926SOL    HW127677   5.871   1.037   0.057
 8926SOL    HW227678   5.939   0.912   6.995
 8927SOL     OW27679   1.615   0.728   6.288
 8927SOL    HW127680   1.526   0.721   6.334
 8927SOL    HW227681   1.602   0.745   6.191
 8928SOL     OW27682   1.035   6.692   5.581
 8928SOL    HW127683   1.096   6.720   5.655
 8928SOL    HW227684   0.940   6.704   5.611
 8929SOL     OW27685   6.763   1.654   3.671
 8929SOL    HW127686   6.784   1.637   3.768
 8929SOL    HW227687   6.773   1.569   3.619
 8930SOL     OW27688   1.964   4.434   3.823
 8930SOL    HW127689   2.058   4.441   3.856
 8930SOL    HW227690   1.942   4.338   3.806
 8931SOL     OW27691   4.261   3.502   0.397
 8931SOL    HW127692   4.293   3.452   0.316
 8931SOL    HW227693   4.339   3.517   0.459
 8932SOL     OW27694   1.068   3.544   3.470
 8932SOL    HW127695   1.157   3.527   3.514
 8932SOL    HW227696   1.082   3.556   3.372
 8933SOL     OW27697   4.248   1.915   5.599
 8933SOL    HW127698   4.230   1.930   5.696
 8933SOL    HW227699   4.162   1.914   5.548
 8934SOL     OW27700   2.548   5.975   2.752
 8934SOL    HW127701   2.552   5.961   2.653
 8934SOL    HW227702   2.565   5.888   2.799
 8935SOL     OW27703   6.955   4.532   0.571
 8935SOL    HW127704   6.903   4.512   0.488
 8935SOL    HW227705   6.991   4.625   0.566
 8936SOL     OW27706   3.899   2.629   0.484
 8936SOL    HW127707   3.942   2.624   0.574
 8936SOL    HW227708   3.830   2.701   0.483
 8937SOL     OW27709   0.488   6.748   6.237
 8937SOL    HW127710   0.554   6.779   6.306
 8937SOL    HW227711   0.439   6.668   6.271
 8938SOL     OW27712   5.046   6.173   1.370
 8938SOL    HW127713   5.039   6.087   1.420
 8938SOL    HW227714   5.130   6.173   1.316
 8939SOL     OW27715   4.526   1.859   4.960
 8939SOL    HW127716   4.622   1.833   4.953
 8939SOL    HW227717   4.481   1.846   4.872
 8940SOL     OW27718   5.653   6.908   2.408
 8940SOL    HW127719   5.656   6.999   2.366
 8940SOL    HW227720   5.700   6.911   2.496
 8941SOL     OW27721   4.765   1.214   6.404
 8941SOL    HW127722   4.778   1.285   6.473
 8941SOL    HW227723   4.784   1.252   6.313
 8942SOL     OW27724   1.146   2.859   5.457
 8942SOL    HW127725   1.197   2.792   5.404
 8942SOL    HW227726   1.092   2.916   5.395
 8943SOL     OW27727   5.104   3.506   0.726
 8943SOL    HW127728   5.085   3.450   0.645
 8943SOL    HW227729   5.161   3.454   0.789
 8944SOL     OW27730   4.330   5.564   1.426
 8944SOL    HW127731   4.283   5.644   1.463
 8944SOL    HW227732   4.271   5.519   1.358
 8945SOL     OW27733   1.449   0.781   4.709
 8945SOL    HW127734   1.466   0.878   4.724
 8945SOL    HW227735   1.352   0.762   4.720
 8946SOL     OW27736   4.067   1.642   4.618
 8946SOL    HW127737   4.141   1.576   4.601
 8946SOL    HW227738   4.096   1.706   4.689
 8947SOL     OW27739   3.591   4.099   5.000
 8947SOL    HW127740   3.656   4.083   5.074
 8947SOL    HW227741   3.638   4.141   4.922
 8948SOL     OW27742   6.090   5.012   2.660
 8948SOL    HW127743   6.081   5.026   2.759
 8948SOL    HW227744   6.184   5.033   2.633
 8949SOL     OW27745   2.443   5.236   6.292
 8949SOL    HW127746   2.382   5.299   6.341
 8949SOL    HW227747   2.520   5.212   6.351
 8950SOL     OW27748   4.788   2.260   4.637
 8950SOL    HW127749   4.826   2.313   4.560
 8950SOL    HW227750   4.845   2.274   4.718
 8951SOL     OW27751   2.197   2.106   5.611
 8951SOL    HW127752   2.156   2.109   5.520
 8951SOL    HW227753   2.292   2.079   5.604
 8952SOL     OW27754   6.494   0.072   3.364
 8952SOL    HW127755   6.456   0.028   3.282
 8952SOL    HW227756   6.505   0.004   3.437
 8953SOL     OW27757   1.536   4.670   6.501
 8953SOL    HW127758   1.447   4.705   6.471
 8953SOL    HW227759   1.534   4.570   6.505
 8954SOL     OW27760   2.045   6.383   5.749
 8954SOL    HW127761   2.054   6.394   5.650
 8954SOL    HW227762   2.033   6.473   5.791
 8955SOL     OW27763   6.281   3.822   4.029
 8955SOL    HW127764   6.249   3.833   3.935
 8955SOL    HW227765   6.257   3.730   4.062
 8956SOL     OW27766   1.039   1.061   5.035
 8956SOL    HW127767   0.971   1.127   5.064
 8956SOL    HW227768   1.127   1.083   5.077
 8957SOL     OW27769   2.651   5.332   2.093
 8957SOL    HW127770   2.576   5.282   2.048
 8957SOL    HW227771   2.665   5.419   2.046
 8958SOL     OW27772   2.380   0.923   4.315
 8958SOL    HW127773   2.289   0.939   4.276
 8958SOL    HW227774   2.379   0.945   4.412
 8959SOL     OW27775   3.167   4.740   0.712
 8959SOL    HW127776   3.086   4.681   0.710
 8959SOL    HW227777   3.167   4.799   0.632
 8960SOL     OW27778   3.841   6.088   1.249
 8960SOL    HW127779   3.900   6.163   1.219
 8960SOL    HW227780   3.813   6.104   1.344
 8961SOL     OW27781   1.816   2.278   3.797
 8961SOL    HW127782   1.761   2.360   3.814
 8961SOL    HW227783   1.764   2.197   3.824
 8962SOL     OW27784   5.081   0.342   3.220
 8962SOL    HW127785   5.104   0.438   3.237
 8962SOL    HW227786   4.982   0.334   3.203
 8963SOL     OW27787   6.958   0.856   3.500
 8963SOL    HW127788   6.983   0.905   3.417
 8963SOL    HW227789   6.859   0.846   3.504
 8964SOL     OW27790   6.584   4.161   2.949
 8964SOL    HW127791   6.619   4.068   2.952
 8964SOL    HW227792   6.639   4.220   3.008
 8965SOL     OW27793   1.099   5.414   2.013
 8965SOL    HW127794   1.156   5.427   1.932
 8965SOL    HW227795   1.064   5.502   2.044
 8966SOL     OW27796   3.201   2.801   5.491
 8966SOL    HW127797   3.129   2.800   5.423
 8966SOL    HW227798   3.272   2.735   5.466
 8967SOL     OW27799   4.511   0.018   0.749
 8967SOL    HW127800   4.580   0.089   0.736
 8967SOL    HW227801   4.520   6.967   0.677
 8968SOL     OW27802   4.919   4.931   2.757
 8968SOL    HW127803   4.957   4.942   2.664
 8968SOL    HW227804   4.980   4.872   2.810
 8969SOL     OW27805   6.359   0.917   4.462
 8969SOL    HW127806   6.395   0.938   4.371
 8969SOL    HW227807   6.263   0.891   4.454
 8970SOL     OW27808   3.545   2.136   1.098
 8970SOL    HW127809   3.540   2.209   1.030
 8970SOL    HW227810   3.636   2.096   1.097
 8971SOL     OW27811   4.659   6.078   3.211
 8971SOL    HW127812   4.652   6.014   3.288
 8971SOL    HW227813   4.586   6.058   3.145
 8972SOL     OW27814   5.371   0.652   4.764
 8972SOL    HW127815   5.417   0.732   4.804
 8972SOL    HW227816   5.403   0.637   4.671
 8973SOL     OW27817   1.890   4.552   0.191
 8973SOL    HW127818   1.914   4.566   0.287
 8973SOL    HW227819   1.928   4.625   0.136
 8974SOL     OW27820   0.298   2.814   3.616
 8974SOL    HW127821   0.307   2.905   3.655
 8974SOL    HW227822   0.223   2.765   3.662
 8975SOL     OW27823   3.218   7.013   6.813
 8975SOL    HW127824   3.224   6.925   6.861
 8975SOL    HW227825   3.223   6.998   6.715
 8976SOL     OW27826   0.535   4.862   4.689
 8976SOL    HW127827   0.558   4.841   4.784
 8976SOL    HW227828   0.512   4.959   4.681
 8977SOL     OW27829   5.557   0.942   6.400
 8977SOL    HW127830   5.652   0.960   6.376
 8977SOL    HW227831   5.545   0.845   6.420
 8978SOL     OW27832   5.669   5.765   0.988
 8978SOL    HW127833   5.618   5.682   0.965
 8978SOL    HW227834   5.697   5.761   1.085
 8979SOL     OW27835   1.862   5.351   4.894
 8979SOL    HW127836   1.941   5.381   4.947
 8979SOL    HW227837   1.780   5.357   4.951
 8980SOL     OW27838   3.745   3.145   4.412
 8980SOL    HW127839   3.779   3.084   4.483
 8980SOL    HW227840   3.663   3.192   4.445
 8981SOL     OW27841   2.879   1.120   5.567
 8981SOL    HW127842   2.866   1.106   5.468
 8981SOL    HW227843   2.835   1.045   5.617
 8982SOL     OW27844   4.341   4.404   0.133
 8982SOL    HW127845   4.339   4.493   0.179
 8982SOL    HW227846   4.281   4.340   0.181
 8983SOL     OW27847   5.475   5.223   0.650
 8983SOL    HW127848   5.377   5.240   0.659
 8983SOL    HW227849   5.494   5.178   0.563
 8984SOL     OW27850   1.508   6.653   3.140
 8984SOL    HW127851   1.464   6.678   3.226
 8984SOL    HW227852   1.438   6.617   3.077
 8985SOL     OW27853   3.558   3.020   5.852
 8985SOL    HW127854   3.515   3.110   5.862
 8985SOL    HW227855   3.625   3.007   5.925
 8986SOL     OW27856   3.557   6.134   2.719
 8986SOL    HW127857   3.630   6.148   2.653
 8986SOL    HW227858   3.552   6.037   2.744
 8987SOL     OW27859   5.230   6.020   1.961
 8987SOL    HW127860   5.216   5.993   1.866
 8987SOL    HW227861   5.327   6.036   1.978
 8988SOL     OW27862   0.828   5.724   5.182
 8988SOL    HW127863   0.917   5.680   5.172
 8988SOL    HW227864   0.774   5.674   5.250
 8989SOL     OW27865   3.153   3.106   6.958
 8989SOL    HW127866   3.214   3.102   0.019
 8989SOL    HW227867   3.059   3.085   6.986
 8990SOL     OW27868   0.398   6.547   3.545
 8990SOL    HW127869   0.439   6.597   3.469
 8990SOL    HW227870   0.315   6.501   3.514
 8991SOL     OW27871   1.360   1.922   5.087
 8991SOL    HW127872   1.261   1.919   5.074
 8991SOL    HW227873   1.385   2.006   5.136
 8992SOL     OW27874   6.159   2.344   0.506
 8992SOL    HW127875   6.219   2.325   0.428
 8992SOL    HW227876   6.192   2.426   0.554
 8993SOL     OW27877   4.749   2.653   0.536
 8993SOL    HW127878   4.745   2.587   0.461
 8993SOL    HW227879   4.683   2.726   0.519
 8994SOL     OW27880   1.716   5.950   3.933
 8994SOL    HW127881   1.791   5.903   3.979
 8994SOL    HW227882   1.740   6.046   3.919
 8995SOL     OW27883   0.177   0.754   0.701
 8995SOL    HW127884   0.234   0.676   0.725
 8995SOL    HW227885   0.131   0.737   0.614
 8996SOL     OW27886   4.354   6.032   5.577
 8996SOL    HW127887   4.335   6.109   5.638
 8996SOL    HW227888   4.450   6.034   5.550
 8997SOL     OW27889   6.172   0.648   5.173
 8997SOL    HW127890   6.104   0.712   5.137
 8997SOL    HW227891   6.162   0.560   5.128
 8998SOL     OW27892   6.200   3.312   4.561
 8998SOL    HW127893   6.278   3.358   4.603
 8998SOL    HW227894   6.231   3.226   4.519
 8999SOL     OW27895   3.819   6.591   5.689
 8999SOL    HW127896   3.754   6.526   5.727
 8999SOL    HW227897   3.822   6.581   5.590
 9000SOL     OW27898   1.616   4.258   1.007
 9000SOL    HW127899   1.678   4.183   0.984
 9000SOL    HW227900   1.562   4.233   1.088
 9001SOL     OW27901   0.710   5.900   2.723
 9001SOL    HW127902   0.762   5.817   2.704
 9001SOL    HW227903   0.746   5.945   2.804
 9002SOL     OW27904   0.934   4.482   0.276
 9002SOL    HW127905   0.859   4.537   0.241
 9002SOL    HW227906   1.013   4.490   0.215
 9003SOL     OW27907   5.621   0.366   1.205
 9003SOL    HW127908   5.658   0.347   1.296
 9003SOL    HW227909   5.602   0.280   1.158
 9004SOL     OW27910   4.390   4.616   6.863
 9004SOL    HW127911   4.412   4.613   6.765
 9004SOL    HW227912   4.395   4.710   6.895
 9005SOL     OW27913   5.092   1.597   5.393
 9005SOL    HW127914   5.061   1.683   5.434
 9005SOL    HW227915   5.055   1.589   5.301
 9006SOL     OW27916   3.787   5.956   0.422
 9006SOL    HW127917   3.835   5.954   0.334
 9006SOL    HW227918   3.823   5.885   0.482
 9007SOL     OW27919   2.221   0.910   2.545
 9007SOL    HW127920   2.192   0.827   2.497
 9007SOL    HW227921   2.287   0.959   2.488
 9008SOL     OW27922   0.944   6.072   2.660
 9008SOL    HW127923   0.925   6.117   2.748
 9008SOL    HW227924   0.863   6.078   2.601
 9009SOL     OW27925   3.378   6.302   1.043
 9009SOL    HW127926   3.453   6.359   1.010
 9009SOL    HW227927   3.292   6.354   1.039
 9010SOL     OW27928   1.264   5.834   4.151
 9010SOL    HW127929   1.292   5.797   4.240
 9010SOL    HW227930   1.224   5.925   4.164
 9011SOL     OW27931   2.597   2.161   1.779
 9011SOL    HW127932   2.596   2.064   1.805
 9011SOL    HW227933   2.597   2.169   1.680
 9012SOL     OW27934   1.877   6.285   6.807
 9012SOL    HW127935   1.811   6.242   6.745
 9012SOL    HW227936   1.918   6.365   6.762
 9013SOL     OW27937   2.016   6.274   3.943
 9013SOL    HW127938   1.933   6.219   3.936
 9013SOL    HW227939   1.998   6.354   4.001
 9014SOL     OW27940   5.422   3.098   3.610
 9014SOL    HW127941   5.498   3.033   3.616
 9014SOL    HW227942   5.414   3.131   3.516
 9015SOL     OW27943   5.162   1.394   6.551
 9015SOL    HW127944   5.219   1.393   6.633
 9015SOL    HW227945   5.153   1.488   6.517
 9016SOL     OW27946   5.030   5.314   6.430
 9016SOL    HW127947   5.130   5.313   6.434
 9016SOL    HW227948   4.996   5.220   6.434
 9017SOL     OW27949   3.860   0.450   4.159
 9017SOL    HW127950   3.768   0.490   4.159
 9017SOL    HW227951   3.857   0.359   4.200
 9018SOL     OW27952   4.181   4.500   6.334
 9018SOL    HW127953   4.136   4.492   6.244
 9018SOL    HW227954   4.267   4.549   6.324
 9019SOL     OW27955   0.680   3.649   3.877
 9019SOL    HW127956   0.622   3.578   3.917
 9019SOL    HW227957   0.760   3.662   3.935
 9020SOL     OW27958   5.368   5.758   2.749
 9020SOL    HW127959   5.392   5.661   2.738
 9020SOL    HW227960   5.408   5.811   2.675
 9021SOL     OW27961   0.269   1.001   4.629
 9021SOL    HW127962   0.210   0.985   4.709
 9021SOL    HW227963   0.359   1.030   4.661
 9022SOL     OW27964   4.986   3.783   6.048
 9022SOL    HW127965   5.060   3.841   6.083
 9022SOL    HW227966   4.921   3.838   5.996
 9023SOL     OW27967   5.823   4.323   0.690
 9023SOL    HW127968   5.755   4.301   0.760
 9023SOL    HW227969   5.848   4.420   0.698
 9024SOL     OW27970   2.364   6.253   6.232
 9024SOL    HW127971   2.406   6.170   6.270
 9024SOL    HW227972   2.272   6.263   6.270
 9025SOL     OW27973   0.909   5.684   1.200
 9025SOL    HW127974   0.942   5.674   1.106
 9025SOL    HW227975   0.809   5.681   1.201
 9026SOL     OW27976   5.278   1.753   0.486
 9026SOL    HW127977   5.282   1.820   0.412
 9026SOL    HW227978   5.232   1.671   0.454
 9027SOL     OW27979   0.796   3.882   3.198
 9027SOL    HW127980   0.778   3.936   3.116
 9027SOL    HW227981   0.889   3.900   3.229
 9028SOL     OW27982   3.379   5.179   5.918
 9028SOL    HW127983   3.472   5.215   5.927
 9028SOL    HW227984   3.323   5.212   5.993
 9029SOL     OW27985   4.391   6.791   4.388
 9029SOL    HW127986   4.340   6.839   4.459
 9029SOL    HW227987   4.327   6.754   4.320
 9030SOL     OW27988   2.896   1.484   2.569
 9030SOL    HW127989   2.961   1.409   2.561
 9030SOL    HW227990   2.909   1.530   2.658
 9031SOL     OW27991   4.631   6.718   4.475
 9031SOL    HW127992   4.681   6.800   4.504
 9031SOL    HW227993   4.547   6.745   4.427
 9032SOL     OW27994   4.984   3.777   2.007
 9032SOL    HW127995   4.975   3.778   2.106
 9032SOL    HW227996   4.911   3.830   1.965
 9033SOL     OW27997   0.969   7.017   3.119
 9033SOL    HW127998   0.952   0.048   3.204
 9033SOL    HW227999   0.973   6.919   3.137
 9034SOL     OW28000   4.434   0.095   4.312
 9034SOL    HW128001   4.348   0.087   4.362
 9034SOL    HW228002   4.480   0.006   4.311
 9035SOL     OW28003   2.331   4.805   6.399
 9035SOL    HW128004   2.369   4.849   6.318
 9035SOL    HW228005   2.231   4.802   6.391
 9036SOL     OW28006   1.659   4.059   5.493
 9036SOL    HW128007   1.703   4.131   5.546
 9036SOL    HW228008   1.641   3.980   5.552
 9037SOL     OW28009   1.429   1.557   2.941
 9037SOL    HW128010   1.385   1.577   3.029
 9037SOL    HW228011   1.382   1.482   2.896
 9038SOL     OW28012   4.458   2.817   5.709
 9038SOL    HW128013   4.406   2.747   5.659
 9038SOL    HW228014   4.547   2.828   5.666
 9039SOL     OW28015   4.066   5.696   6.586
 9039SOL    HW128016   4.128   5.684   6.508
 9039SOL    HW228017   4.087   5.628   6.656
 9040SOL     OW28018   2.340   1.771   1.248
 9040SOL    HW128019   2.249   1.789   1.209
 9040SOL    HW228020   2.386   1.857   1.266
 9041SOL     OW28021   6.771   2.013   2.179
 9041SOL    HW128022   6.723   1.958   2.248
 9041SOL    HW228023   6.711   2.027   2.100
 9042SOL     OW28024   3.587   6.213   0.245
 9042SOL    HW128025   3.623   6.237   0.335
 9042SOL    HW228026   3.624   6.276   0.177
 9043SOL     OW28027   3.269   2.002   0.439
 9043SOL    HW128028   3.302   1.908   0.435
 9043SOL    HW228029   3.169   2.002   0.442
 9044SOL     OW28030   0.777   1.241   0.313
 9044SOL    HW128031   0.838   1.292   0.252
 9044SOL    HW228032   0.786   1.277   0.406
 9045SOL     OW28033   4.031   1.853   3.153
 9045SOL    HW128034   3.994   1.855   3.246
 9045SOL    HW228035   3.976   1.792   3.096
 9046SOL     OW28036   3.268   3.315   2.172
 9046SOL    HW128037   3.254   3.240   2.107
 9046SOL    HW228038   3.254   3.282   2.265
 9047SOL     OW28039   1.439   3.745   6.364
 9047SOL    HW128040   1.397   3.682   6.299
 9047SOL    HW228041   1.519   3.702   6.406
 9048SOL     OW28042   6.896   1.692   6.574
 9048SOL    HW128043   6.815   1.691   6.633
 9048SOL    HW228044   6.979   1.685   6.630
 9049SOL     OW28045   3.114   6.806   6.074
 9049SOL    HW128046   3.168   6.728   6.043
 9049SOL    HW228047   3.173   6.887   6.079
 9050SOL     OW28048   0.727   4.733   0.872
 9050SOL    HW128049   0.797   4.694   0.813
 9050SOL    HW228050   0.742   4.831   0.883
 9051SOL     OW28051   2.798   0.905   1.394
 9051SOL    HW128052   2.802   0.935   1.298
 9051SOL    HW228053   2.891   0.887   1.427
 9052SOL     OW28054   1.187   2.366   5.227
 9052SOL    HW128055   1.208   2.297   5.296
 9052SOL    HW228056   1.237   2.347   5.143
 9053SOL     OW28057   1.568   0.947   0.208
 9053SOL    HW128058   1.552   0.927   0.111
 9053SOL    HW228059   1.552   0.865   0.262
 9054SOL     OW28060   2.217   5.590   2.491
 9054SOL    HW128061   2.193   5.507   2.541
 9054SOL    HW228062   2.259   5.655   2.554
 9055SOL     OW28063   0.260   3.491   4.448
 9055SOL    HW128064   0.172   3.457   4.413
 9055SOL    HW228065   0.295   3.427   4.517
 9056SOL     OW28066   6.681   2.894   2.685
 9056SOL    HW128067   6.667   2.806   2.640
 9056SOL    HW228068   6.639   2.892   2.776
 9057SOL     OW28069   4.306   1.811   4.339
 9057SOL    HW128070   4.235   1.783   4.404
 9057SOL    HW228071   4.267   1.815   4.247
 9058SOL     OW28072   2.385   0.357   5.611
 9058SOL    HW128073   2.446   0.412   5.667
 9058SOL    HW228074   2.379   0.264   5.648
 9059SOL     OW28075   1.233   2.339   2.691
 9059SOL    HW128076   1.274   2.342   2.600
 9059SOL    HW228077   1.290   2.283   2.751
 9060SOL     OW28078   5.263   2.546   5.841
 9060SOL    HW128079   5.303   2.472   5.787
 9060SOL    HW228080   5.230   2.618   5.780
 9061SOL     OW28081   3.018   5.406   2.967
 9061SOL    HW128082   3.116   5.422   2.969
 9061SOL    HW228083   2.981   5.412   3.060
 9062SOL     OW28084   1.536   5.774   1.248
 9062SOL    HW128085   1.587   5.736   1.171
 9062SOL    HW228086   1.511   5.700   1.311
 9063SOL     OW28087   2.879   1.814   1.868
 9063SOL    HW128088   2.955   1.791   1.929
 9063SOL    HW228089   2.865   1.913   1.868
 9064SOL     OW28090   5.508   3.582   0.384
 9064SOL    HW128091   5.522   3.483   0.387
 9064SOL    HW228092   5.596   3.628   0.380
 9065SOL     OW28093   2.281   0.696   6.885
 9065SOL    HW128094   2.271   0.672   6.788
 9065SOL    HW228095   2.319   0.618   6.934
 9066SOL     OW28096   4.892   6.792   0.010
 9066SOL    HW128097   4.977   6.844   7.017
 9066SOL    HW228098   4.873   6.782   0.108
 9067SOL     OW28099   1.547   6.812   2.039
 9067SOL    HW128100   1.600   6.848   2.116
 9067SOL    HW228101   1.456   6.786   2.070
 9068SOL     OW28102   1.126   6.344   6.553
 9068SOL    HW128103   1.210   6.370   6.507
 9068SOL    HW228104   1.115   6.245   6.552
 9069SOL     OW28105   1.209   2.384   6.062
 9069SOL    HW128106   1.152   2.362   5.983
 9069SOL    HW228107   1.179   2.332   6.141
 9070SOL     OW28108   1.238   4.289   3.594
 9070SOL    HW128109   1.303   4.287   3.670
 9070SOL    HW228110   1.166   4.221   3.609
 9071SOL     OW28111   4.892   5.753   0.350
 9071SOL    HW128112   4.933   5.844   0.353
 9071SOL    HW228113   4.860   5.734   0.257
 9072SOL     OW28114   6.020   4.993   0.060
 9072SOL    HW128115   6.106   5.039   0.083
 9072SOL    HW228116   6.034   4.936   6.997
 9073SOL     OW28117   1.851   0.488   1.588
 9073SOL    HW128118   1.923   0.558   1.584
 9073SOL    HW228119   1.885   0.408   1.637
 9074SOL     OW28120   0.474   0.409   3.347
 9074SOL    HW128121   0.549   0.355   3.387
 9074SOL    HW228122   0.507   0.501   3.327
 9075SOL     OW28123   0.626   0.505   2.008
 9075SOL    HW128124   0.652   0.590   2.054
 9075SOL    HW228125   0.681   0.493   1.926
 9076SOL     OW28126   6.955   1.867   5.200
 9076SOL    HW128127   6.891   1.834   5.268
 9076SOL    HW228128   6.920   1.952   5.159
 9077SOL     OW28129   6.183   5.782   1.549
 9077SOL    HW128130   6.174   5.844   1.627
 9077SOL    HW228131   6.225   5.697   1.579
 9078SOL     OW28132   3.893   2.944   5.073
 9078SOL    HW128133   3.965   2.944   5.004
 9078SOL    HW228134   3.804   2.949   5.028
 9079SOL     OW28135   3.798   0.804   5.496
 9079SOL    HW128136   3.829   0.893   5.530
 9079SOL    HW228137   3.824   0.794   5.400
 9080SOL     OW28138   5.498   1.580   0.400
 9080SOL    HW128139   5.436   1.510   0.433
 9080SOL    HW228140   5.460   1.670   0.420
 9081SOL     OW28141   5.288   0.158   2.477
 9081SOL    HW128142   5.358   0.207   2.528
 9081SOL    HW228143   5.295   0.060   2.495
 9082SOL     OW28144   3.156   0.771   2.484
 9082SOL    HW128145   3.120   0.863   2.469
 9082SOL    HW228146   3.179   0.729   2.396
 9083SOL     OW28147   4.451   4.516   4.126
 9083SOL    HW128148   4.532   4.487   4.178
 9083SOL    HW228149   4.392   4.572   4.184
 9084SOL     OW28150   3.406   4.089   2.885
 9084SOL    HW128151   3.422   4.107   2.789
 9084SOL    HW228152   3.333   4.022   2.895
 9085SOL     OW28153   0.856   2.062   0.604
 9085SOL    HW128154   0.771   2.114   0.614
 9085SOL    HW228155   0.927   2.102   0.662
 9086SOL     OW28156   0.059   3.659   0.180
 9086SOL    HW128157   0.000   3.666   0.100
 9086SOL    HW228158   0.117   3.740   0.187
 9087SOL     OW28159   5.181   3.583   2.015
 9087SOL    HW128160   5.159   3.500   1.964
 9087SOL    HW228161   5.103   3.645   2.013
 9088SOL     OW28162   4.972   6.355   0.808
 9088SOL    HW128163   4.933   6.340   0.717
 9088SOL    HW228164   4.916   6.310   0.877
 9089SOL     OW28165   4.509   0.408   5.994
 9089SOL    HW128166   4.598   0.365   6.008
 9089SOL    HW228167   4.451   0.391   6.074
 9090SOL     OW28168   5.565   1.303   3.126
 9090SOL    HW128169   5.465   1.311   3.126
 9090SOL    HW228170   5.595   1.259   3.041
 9091SOL     OW28171   3.526   2.418   6.929
 9091SOL    HW128172   3.499   2.350   6.997
 9091SOL    HW228173   3.624   2.435   6.935
 9092SOL     OW28174   0.021   2.896   6.596
 9092SOL    HW128175   0.104   2.879   6.649
 9092SOL    HW228176   6.960   2.890   6.657
 9093SOL     OW28177   1.771   6.058   4.580
 9093SOL    HW128178   1.857   6.021   4.613
 9093SOL    HW228179   1.741   6.133   4.639
 9094SOL     OW28180   1.258   4.008   1.405
 9094SOL    HW128181   1.279   3.910   1.408
 9094SOL    HW228182   1.208   4.028   1.321
 9095SOL     OW28183   6.895   6.765   5.921
 9095SOL    HW128184   6.891   6.690   5.855
 9095SOL    HW228185   6.803   6.789   5.950
 9096SOL     OW28186   6.600   5.352   3.785
 9096SOL    HW128187   6.592   5.448   3.759
 9096SOL    HW228188   6.598   5.344   3.885
 9097SOL     OW28189   0.960   2.665   6.027
 9097SOL    HW128190   0.936   2.717   6.109
 9097SOL    HW228191   0.983   2.571   6.052
 9098SOL     OW28192   2.196   4.034   3.615
 9098SOL    HW128193   2.184   3.973   3.694
 9098SOL    HW228194   2.113   4.087   3.601
 9099SOL     OW28195   2.411   1.489   6.663
 9099SOL    HW128196   2.330   1.481   6.605
 9099SOL    HW228197   2.400   1.568   6.724
 9100SOL     OW28198   1.587   4.345   3.973
 9100SOL    HW128199   1.672   4.392   3.993
 9100SOL    HW228200   1.538   4.325   4.059
 9101SOL     OW28201   0.408   2.382   0.818
 9101SOL    HW128202   0.467   2.380   0.899
 9101SOL    HW228203   0.344   2.305   0.822
 9102SOL     OW28204   3.903   6.714   3.107
 9102SOL    HW128205   3.995   6.730   3.072
 9102SOL    HW228206   3.899   6.738   3.204
 9103SOL     OW28207   6.307   1.287   1.011
 9103SOL    HW128208   6.400   1.283   0.975
 9103SOL    HW228209   6.293   1.374   1.058
 9104SOL     OW28210   5.868   1.612   6.304
 9104SOL    HW128211   5.831   1.701   6.277
 9104SOL    HW228212   5.936   1.583   6.237
 9105SOL     OW28213   2.664   1.311   5.582
 9105SOL    HW128214   2.621   1.222   5.597
 9105SOL    HW228215   2.761   1.306   5.604
 9106SOL     OW28216   1.625   4.008   6.982
 9106SOL    HW128217   1.648   3.912   6.970
 9106SOL    HW228218   1.646   4.037   0.057
 9107SOL     OW28219   3.112   1.618   0.477
 9107SOL    HW128220   3.016   1.643   0.490
 9107SOL    HW228221   3.118   1.531   0.429
 9108SOL     OW28222   6.882   5.567   5.881
 9108SOL    HW128223   6.796   5.601   5.843
 9108SOL    HW228224   6.880   5.573   5.980
 9109SOL     OW28225   5.697   3.749   2.922
 9109SOL    HW128226   5.676   3.730   2.826
 9109SOL    HW228227   5.676   3.844   2.944
 9110SOL     OW28228   1.329   5.892   3.309
 9110SOL    HW128229   1.378   5.846   3.383
 9110SOL    HW228230   1.313   5.988   3.334
 9111SOL     OW28231   3.833   2.380   6.421
 9111SOL    HW128232   3.757   2.345   6.475
 9111SOL    HW228233   3.810   2.471   6.387
 9112SOL     OW28234   0.784   5.372   1.764
 9112SOL    HW128235   0.781   5.436   1.841
 9112SOL    HW228236   0.834   5.414   1.688
 9113SOL     OW28237   5.586   0.579   4.211
 9113SOL    HW128238   5.620   0.568   4.305
 9113SOL    HW228239   5.643   0.527   4.148
 9114SOL     OW28240   1.027   6.968   5.817
 9114SOL    HW128241   1.062   0.014   5.749
 9114SOL    HW228242   0.927   6.961   5.807
 9115SOL     OW28243   4.873   4.380   5.197
 9115SOL    HW128244   4.785   4.375   5.245
 9115SOL    HW228245   4.859   4.361   5.100
 9116SOL     OW28246   1.904   0.282   3.791
 9116SOL    HW128247   1.988   0.233   3.768
 9116SOL    HW228248   1.898   0.293   3.890
 9117SOL     OW28249   1.985   6.491   0.123
 9117SOL    HW128250   1.897   6.539   0.125
 9117SOL    HW228251   2.003   6.461   0.029
 9118SOL     OW28252   6.848   3.928   1.696
 9118SOL    HW128253   6.749   3.933   1.711
 9118SOL    HW228254   6.896   3.965   1.775
 9119SOL     OW28255   3.177   1.260   0.539
 9119SOL    HW128256   3.125   1.315   0.604
 9119SOL    HW228257   3.127   1.254   0.453
 9120SOL     OW28258   6.382   3.969   4.429
 9120SOL    HW128259   6.365   4.008   4.338
 9120SOL    HW228260   6.434   3.885   4.421
 9121SOL     OW28261   3.980   0.818   4.287
 9121SOL    HW128262   3.917   0.820   4.209
 9121SOL    HW228263   3.996   0.723   4.314
 9122SOL     OW28264   0.760   2.684   1.638
 9122SOL    HW128265   0.795   2.682   1.544
 9122SOL    HW228266   0.661   2.696   1.636
 9123SOL     OW28267   0.579   5.926   4.459
 9123SOL    HW128268   0.514   5.993   4.495
 9123SOL    HW228269   0.535   5.836   4.454
 9124SOL     OW28270   2.928   5.689   0.947
 9124SOL    HW128271   2.944   5.719   1.041
 9124SOL    HW228272   3.011   5.705   0.893
 9125SOL     OW28273   5.401   6.390   1.756
 9125SOL    HW128274   5.369   6.473   1.802
 9125SOL    HW228275   5.473   6.348   1.812
 9126SOL     OW28276   4.442   4.938   0.871
 9126SOL    HW128277   4.359   4.977   0.832
 9126SOL    HW228278   4.434   4.934   0.970
 9127SOL     OW28279   6.540   4.731   5.332
 9127SOL    HW128280   6.614   4.744   5.266
 9127SOL    HW228281   6.563   4.779   5.417
 9128SOL     OW28282   5.604   4.128   5.676
 9128SOL    HW128283   5.530   4.095   5.616
 9128SOL    HW228284   5.659   4.196   5.626
 9129SOL     OW28285   0.634   2.840   0.538
 9129SOL    HW128286   0.547   2.794   0.558
 9129SOL    HW228287   0.639   2.860   0.441
 9130SOL     OW28288   2.979   3.219   5.118
 9130SOL    HW128289   2.955   3.192   5.024
 9130SOL    HW228290   2.904   3.197   5.179
 9131SOL     OW28291   5.626   2.496   0.788
 9131SOL    HW128292   5.551   2.531   0.733
 9131SOL    HW228293   5.698   2.460   0.728
 9132SOL     OW28294   1.098   3.824   3.751
 9132SOL    HW128295   1.172   3.783   3.698
 9132SOL    HW228296   1.130   3.842   3.844
 9133SOL     OW28297   5.914   0.420   1.154
 9133SOL    HW128298   5.947   0.340   1.203
 9133SOL    HW228299   5.817   0.408   1.131
 9134SOL     OW28300   4.884   4.791   0.345
 9134SOL    HW128301   4.928   4.843   0.271
 9134SOL    HW228302   4.795   4.757   0.313
 9135SOL     OW28303   6.423   5.853   2.708
 9135SOL    HW128304   6.469   5.932   2.748
 9135SOL    HW228305   6.488   5.778   2.699
 9136SOL     OW28306   0.381   5.019   0.498
 9136SOL    HW128307   0.315   5.093   0.485
 9136SOL    HW228308   0.333   4.931   0.497
 9137SOL     OW28309   5.507   6.254   5.187
 9137SOL    HW128310   5.582   6.309   5.223
 9137SOL    HW228311   5.430   6.313   5.164
 9138SOL     OW28312   2.368   4.176   6.244
 9138SOL    HW128313   2.450   4.195   6.190
 9138SOL    HW228314   2.369   4.231   6.327
 9139SOL     OW28315   6.778   0.156   1.827
 9139SOL    HW128316   6.824   0.167   1.915
 9139SOL    HW228317   6.682   0.184   1.836
 9140SOL     OW28318   2.239   4.076   2.632
 9140SOL    HW128319   2.221   3.993   2.579
 9140SOL    HW228320   2.271   4.149   2.572
 9141SOL     OW28321   0.262   6.115   5.054
 9141SOL    HW128322   0.264   6.087   4.958
 9141SOL    HW228323   0.352   6.148   5.081
 9142SOL     OW28324   0.904   4.246   3.373
 9142SOL    HW128325   0.882   4.260   3.469
 9142SOL    HW228326   0.977   4.309   3.346
 9143SOL     OW28327   6.542   3.932   3.232
 9143SOL    HW128328   6.559   3.931   3.134
 9143SOL    HW228329   6.616   3.885   3.279
 9144SOL     OW28330   3.193   4.188   5.318
 9144SOL    HW128331   3.159   4.168   5.226
 9144SOL    HW228332   3.293   4.181   5.319
 9145SOL     OW28333   1.541   6.027   5.311
 9145SOL    HW128334   1.502   6.019   5.219
 9145SOL    HW228335   1.637   6.052   5.304
 9146SOL     OW28336   6.187   2.359   3.209
 9146SOL    HW128337   6.160   2.348   3.113
 9146SOL    HW228338   6.183   2.456   3.234
 9147SOL     OW28339   3.764   0.220   5.690
 9147SOL    HW128340   3.785   0.282   5.614
 9147SOL    HW228341   3.720   0.137   5.654
 9148SOL     OW28342   4.973   5.601   1.872
 9148SOL    HW128343   4.991   5.660   1.950
 9148SOL    HW228344   4.890   5.547   1.889
 9149SOL     OW28345   1.285   3.686   1.117
 9149SOL    HW128346   1.385   3.685   1.119
 9149SOL    HW228347   1.250   3.613   1.176
 9150SOL     OW28348   2.953   3.896   6.760
 9150SOL    HW128349   2.953   3.992   6.787
 9150SOL    HW228350   2.997   3.886   6.671
 9151SOL     OW28351   1.835   3.214   3.607
 9151SOL    HW128352   1.810   3.167   3.692
 9151SOL    HW228353   1.799   3.307   3.609
 9152SOL     OW28354   1.953   4.249   2.425
 9152SOL    HW128355   1.884   4.221   2.359
 9152SOL    HW228356   1.997   4.168   2.464
 9153SOL     OW28357   0.079   2.932   6.919
 9153SOL    HW128358   0.062   2.957   7.015
 9153SOL    HW228359   0.110   3.013   6.869
 9154SOL     OW28360   4.810   4.640   3.267
 9154SOL    HW128361   4.757   4.698   3.329
 9154SOL    HW228362   4.789   4.544   3.287
 9155SOL     OW28363   1.217   6.395   2.819
 9155SOL    HW128364   1.221   6.367   2.723
 9155SOL    HW228365   1.298   6.449   2.841
 9156SOL     OW28366   7.007   4.034   5.702
 9156SOL    HW128367   6.940   4.107   5.715
 9156SOL    HW228368   0.055   4.036   5.777
 9157SOL     OW28369   2.089   4.302   5.563
 9157SOL    HW128370   2.117   4.210   5.535
 9157SOL    HW228371   2.041   4.296   5.651
 9158SOL     OW28372   6.935   3.859   4.781
 9158SOL    HW128373   6.971   3.815   4.698
 9158SOL    HW228374   6.928   3.791   4.854
 9159SOL     OW28375   2.240   1.186   4.088
 9159SOL    HW128376   2.190   1.198   4.003
 9159SOL    HW228377   2.323   1.133   4.071
 9160SOL     OW28378   1.238   2.753   6.614
 9160SOL    HW128379   1.248   2.779   6.710
 9160SOL    HW228380   1.216   2.834   6.559
 9161SOL     OW28381   6.364   3.279   2.947
 9161SOL    HW128382   6.337   3.367   2.906
 9161SOL    HW228383   6.453   3.252   2.911
 9162SOL     OW28384   3.637   2.247   1.493
 9162SOL    HW128385   3.726   2.246   1.449
 9162SOL    HW228386   3.644   2.293   1.582
 9163SOL     OW28387   1.931   2.129   4.075
 9163SOL    HW128388   1.941   2.147   3.977
 9163SOL    HW228389   1.874   2.200   4.116
 9164SOL     OW28390   2.517   6.626   6.604
 9164SOL    HW128391   2.496   6.532   6.628
 9164SOL    HW228392   2.476   6.688   6.671
 9165SOL     OW28393   5.173   1.590   6.120
 9165SOL    HW128394   5.130   1.583   6.030
 9165SOL    HW228395   5.112   1.552   6.190
 9166SOL     OW28396   4.057   6.461   1.999
 9166SOL    HW128397   4.034   6.558   2.006
 9166SOL    HW228398   4.100   6.444   1.910
 9167SOL     OW28399   1.408   1.400   4.420
 9167SOL    HW128400   1.502   1.431   4.412
 9167SOL    HW228401   1.368   1.437   4.504
 9168SOL     OW28402   6.040   5.766   5.194
 9168SOL    HW128403   6.039   5.691   5.260
 9168SOL    HW228404   5.988   5.740   5.113
 9169SOL     OW28405   6.519   5.858   0.414
 9169SOL    HW128406   6.600   5.823   0.366
 9169SOL    HW228407   6.471   5.923   0.356
 9170SOL     OW28408   1.902   0.604   5.738
 9170SOL    HW128409   1.871   0.680   5.680
 9170SOL    HW228410   2.000   0.590   5.724
 9171SOL     OW28411   3.548   6.022   0.033
 9171SOL    HW128412   3.567   6.084   0.109
 9171SOL    HW228413   3.481   5.954   0.060
 9172SOL     OW28414   4.397   1.615   5.748
 9172SOL    HW128415   4.489   1.582   5.770
 9172SOL    HW228416   4.380   1.701   5.796
 9173SOL     OW28417   6.115   3.582   5.744
 9173SOL    HW128418   6.180   3.595   5.818
 9173SOL    HW228419   6.022   3.587   5.779
 9174SOL     OW28420   6.035   4.530   0.991
 9174SOL    HW128421   6.060   4.434   0.983
 9174SOL    HW228422   5.961   4.540   1.057
 9175SOL     OW28423   2.153   0.525   1.415
 9175SOL    HW128424   2.119   0.438   1.378
 9175SOL    HW228425   2.228   0.507   1.479
 9176SOL     OW28426   2.090   0.992   1.942
 9176SOL    HW128427   2.057   1.035   1.858
 9176SOL    HW228428   2.150   0.915   1.919
 9177SOL     OW28429   0.969   6.228   3.983
 9177SOL    HW128430   0.985   6.147   3.926
 9177SOL    HW228431   1.040   6.296   3.964
 9178SOL     OW28432   1.225   4.088   0.864
 9178SOL    HW128433   1.302   4.040   0.822
 9178SOL    HW228434   1.156   4.022   0.894
 9179SOL     OW28435   3.953   5.195   3.572
 9179SOL    HW128436   4.008   5.247   3.507
 9179SOL    HW228437   4.006   5.119   3.608
 9180SOL     OW28438   0.308   0.862   5.274
 9180SOL    HW128439   0.281   0.869   5.178
 9180SOL    HW228440   0.402   0.895   5.285
 9181SOL     OW28441   2.797   1.694   4.196
 9181SOL    HW128442   2.805   1.614   4.136
 9181SOL    HW228443   2.761   1.665   4.285
 9182SOL     OW28444   0.034   2.081   2.370
 9182SOL    HW128445   0.096   2.117   2.440
 9182SOL    HW228446   6.959   2.076   2.407
 9183SOL     OW28447   1.865   1.470   6.324
 9183SOL    HW128448   1.956   1.445   6.292
 9183SOL    HW228449   1.872   1.511   6.415
 9184SOL     OW28450   2.905   4.717   1.180
 9184SOL    HW128451   2.809   4.697   1.160
 9184SOL    HW228452   2.929   4.674   1.268
 9185SOL     OW28453   1.583   0.174   5.888
 9185SOL    HW128454   1.580   0.115   5.969
 9185SOL    HW228455   1.629   0.260   5.911
 9186SOL     OW28456   5.478   6.622   6.772
 9186SOL    HW128457   5.551   6.674   6.817
 9186SOL    HW228458   5.502   6.607   6.676
 9187SOL     OW28459   5.359   2.559   0.757
 9187SOL    HW128460   5.354   2.580   0.854
 9187SOL    HW228461   5.285   2.497   0.732
 9188SOL     OW28462   1.253   0.225   1.535
 9188SOL    HW128463   1.212   0.284   1.465
 9188SOL    HW228464   1.352   0.229   1.527
 9189SOL     OW28465   3.090   0.555   5.501
 9189SOL    HW128466   3.116   0.586   5.410
 9189SOL    HW228467   3.079   0.634   5.561
 9190SOL     OW28468   4.522   0.889   5.453
 9190SOL    HW128469   4.475   0.837   5.382
 9190SOL    HW228470   4.612   0.850   5.470
 9191SOL     OW28471   5.401   6.902   1.652
 9191SOL    HW128472   5.369   6.972   1.716
 9191SOL    HW228473   5.476   6.851   1.695
 9192SOL     OW28474   5.087   4.026   4.830
 9192SOL    HW128475   4.998   4.070   4.812
 9192SOL    HW228476   5.108   3.963   4.755
 9193SOL     OW28477   3.511   4.179   3.236
 9193SOL    HW128478   3.531   4.159   3.141
 9193SOL    HW228479   3.431   4.239   3.242
 9194SOL     OW28480   3.853   4.862   3.046
 9194SOL    HW128481   3.855   4.962   3.040
 9194SOL    HW228482   3.784   4.834   3.113
 9195SOL     OW28483   0.600   2.693   2.813
 9195SOL    HW128484   0.590   2.741   2.901
 9195SOL    HW228485   0.642   2.604   2.828
 9196SOL     OW28486   4.791   6.529   4.029
 9196SOL    HW128487   4.727   6.464   3.989
 9196SOL    HW228488   4.760   6.554   4.121
 9197SOL     OW28489   4.591   1.500   6.687
 9197SOL    HW128490   4.509   1.452   6.718
 9197SOL    HW228491   4.672   1.445   6.707
 9198SOL     OW28492   5.749   2.728   5.335
 9198SOL    HW128493   5.808   2.679   5.399
 9198SOL    HW228494   5.659   2.740   5.376
 9199SOL     OW28495   1.289   3.240   6.286
 9199SOL    HW128496   1.260   3.303   6.357
 9199SOL    HW228497   1.243   3.152   6.298
 9200SOL     OW28498   5.075   5.703   1.221
 9200SOL    HW128499   5.063   5.633   1.291
 9200SOL    HW228500   5.097   5.660   1.133
 9201SOL     OW28501   0.159   3.462   2.213
 9201SOL    HW128502   0.155   3.397   2.137
 9201SOL    HW228503   0.073   3.513   2.218
 9202SOL     OW28504   2.577   6.100   4.390
 9202SOL    HW128505   2.626   6.164   4.332
 9202SOL    HW228506   2.537   6.028   4.334
 9203SOL     OW28507   5.005   0.861   6.915
 9203SOL    HW128508   4.996   0.762   6.898
 9203SOL    HW228509   5.036   0.906   6.831
 9204SOL     OW28510   5.282   4.642   2.563
 9204SOL    HW128511   5.342   4.584   2.617
 9204SOL    HW228512   5.278   4.734   2.603
 9205SOL     OW28513   4.340   2.310   1.461
 9205SOL    HW128514   4.306   2.403   1.474
 9205SOL    HW228515   4.398   2.307   1.379
 9206SOL     OW28516   6.086   6.039   4.606
 9206SOL    HW128517   6.117   6.033   4.701
 9206SOL    HW228518   5.999   6.089   4.603
 9207SOL     OW28519   4.429   6.536   0.258
 9207SOL    HW128520   4.484   6.469   0.209
 9207SOL    HW228521   4.397   6.496   0.344
 9208SOL     OW28522   4.523   4.495   1.539
 9208SOL    HW128523   4.442   4.456   1.583
 9208SOL    HW228524   4.537   4.588   1.572
 9209SOL     OW28525   4.504   0.450   3.334
 9209SOL    HW128526   4.559   0.521   3.377
 9209SOL    HW228527   4.407   0.469   3.349
 9210SOL     OW28528   0.738   6.603   0.154
 9210SOL    HW128529   0.668   6.537   0.125
 9210SOL    HW228530   0.693   6.686   0.185
 9211SOL     OW28531   4.818   0.954   6.416
 9211SOL    HW128532   4.796   1.049   6.399
 9211SOL    HW228533   4.828   0.938   6.514
 9212SOL     OW28534   5.838   3.401   5.514
 9212SOL    HW128535   5.845   3.359   5.604
 9212SOL    HW228536   5.904   3.476   5.507
 9213SOL     OW28537   6.684   5.773   1.719
 9213SOL    HW128538   6.670   5.702   1.788
 9213SOL    HW228539   6.619   5.761   1.644
 9214SOL     OW28540   2.385   1.552   5.893
 9214SOL    HW128541   2.292   1.589   5.900
 9214SOL    HW228542   2.430   1.559   5.982
 9215SOL     OW28543   0.338   3.741   3.809
 9215SOL    HW128544   0.433   3.711   3.801
 9215SOL    HW228545   0.277   3.666   3.786
 9216SOL     OW28546   2.048   6.229   3.547
 9216SOL    HW128547   2.096   6.244   3.460
 9216SOL    HW228548   1.950   6.232   3.532
 9217SOL     OW28549   3.728   2.112   7.013
 9217SOL    HW128550   3.735   2.147   6.920
 9217SOL    HW228551   3.819   2.110   0.037
 9218SOL     OW28552   5.168   5.932   6.244
 9218SOL    HW128553   5.190   5.837   6.264
 9218SOL    HW228554   5.252   5.984   6.228
 9219SOL     OW28555   3.583   2.070   6.016
 9219SOL    HW128556   3.619   2.085   6.108
 9219SOL    HW228557   3.499   2.123   6.004
 9220SOL     OW28558   0.580   6.394   3.340
 9220SOL    HW128559   0.499   6.346   3.376
 9220SOL    HW228560   0.553   6.485   3.308
 9221SOL     OW28561   3.099   1.764   1.482
 9221SOL    HW128562   3.069   1.788   1.574
 9221SOL    HW228563   3.162   1.834   1.448
 9222SOL     OW28564   1.540   5.301   3.943
 9222SOL    HW128565   1.575   5.212   3.974
 9222SOL    HW228566   1.593   5.332   3.864
 9223SOL     OW28567   6.743   3.519   4.717
 9223SOL    HW128568   6.703   3.609   4.736
 9223SOL    HW228569   6.705   3.452   4.781
 9224SOL     OW28570   1.676   4.227   2.281
 9224SOL    HW128571   1.602   4.292   2.264
 9224SOL    HW228572   1.722   4.205   2.195
 9225SOL     OW28573   6.877   5.541   6.156
 9225SOL    HW128574   6.958   5.570   6.207
 9225SOL    HW228575   6.797   5.590   6.189
 9226SOL     OW28576   1.005   0.704   5.413
 9226SOL    HW128577   1.033   0.768   5.342
 9226SOL    HW228578   0.907   0.714   5.430
 9227SOL     OW28579   3.726   4.296   1.090
 9227SOL    HW128580   3.635   4.285   1.129
 9227SOL    HW228581   3.725   4.269   0.994
 9228SOL     OW28582   4.116   3.448   4.816
 9228SOL    HW128583   4.102   3.380   4.888
 9228SOL    HW228584   4.212   3.477   4.816
 9229SOL     OW28585   0.158   5.244   0.403
 9229SOL    HW128586   0.203   5.305   0.469
 9229SOL    HW228587   0.108   5.298   0.336
 9230SOL     OW28588   4.563   0.227   5.333
 9230SOL    HW128589   4.507   0.158   5.379
 9230SOL    HW228590   4.578   0.305   5.395
 9231SOL     OW28591   6.319   5.996   1.711
 9231SOL    HW128592   6.400   5.966   1.661
 9231SOL    HW228593   6.341   6.080   1.762
 9232SOL     OW28594   1.136   5.681   2.348
 9232SOL    HW128595   1.149   5.761   2.407
 9232SOL    HW228596   1.224   5.653   2.311
 9233SOL     OW28597   0.720   0.116   5.691
 9233SOL    HW128598   0.649   0.098   5.760
 9233SOL    HW228599   0.735   0.214   5.684
 9234SOL     OW28600   3.555   4.591   5.931
 9234SOL    HW128601   3.487   4.610   5.859
 9234SOL    HW228602   3.637   4.645   5.913
 9235SOL     OW28603   2.459   2.111   2.779
 9235SOL    HW128604   2.474   2.013   2.776
 9235SOL    HW228605   2.397   2.133   2.854
 9236SOL     OW28606   1.289   3.215   5.852
 9236SOL    HW128607   1.326   3.274   5.923
 9236SOL    HW228608   1.335   3.233   5.766
 9237SOL     OW28609   6.088   5.088   2.942
 9237SOL    HW128610   6.047   5.179   2.929
 9237SOL    HW228611   6.028   5.032   2.999
 9238SOL     OW28612   1.565   2.793   5.026
 9238SOL    HW128613   1.560   2.736   4.944
 9238SOL    HW228614   1.649   2.847   5.025
 9239SOL     OW28615   1.491   5.658   6.266
 9239SOL    HW128616   1.403   5.618   6.240
 9239SOL    HW228617   1.511   5.736   6.207
 9240SOL     OW28618   4.110   1.683   3.729
 9240SOL    HW128619   4.162   1.646   3.806
 9240SOL    HW228620   4.172   1.697   3.651
 9241SOL     OW28621   5.790   6.593   0.201
 9241SOL    HW128622   5.748   6.658   0.265
 9241SOL    HW228623   5.737   6.509   0.199
 9242SOL     OW28624   1.761   2.336   1.223
 9242SOL    HW128625   1.828   2.324   1.150
 9242SOL    HW228626   1.759   2.432   1.251
 9243SOL     OW28627   2.040   0.182   0.486
 9243SOL    HW128628   2.114   0.114   0.486
 9243SOL    HW228629   2.078   0.273   0.503
 9244SOL     OW28630   2.414   5.955   6.612
 9244SOL    HW128631   2.362   5.898   6.674
 9244SOL    HW228632   2.511   5.951   6.637
 9245SOL     OW28633   0.966   4.935   3.105
 9245SOL    HW128634   0.896   4.975   3.163
 9245SOL    HW228635   1.030   4.881   3.160
 9246SOL     OW28636   5.176   6.153   6.603
 9246SOL    HW128637   5.099   6.118   6.657
 9246SOL    HW228638   5.254   6.169   6.664
 9247SOL     OW28639   3.609   6.611   2.898
 9247SOL    HW128640   3.518   6.581   2.869
 9247SOL    HW228641   3.649   6.671   2.829
 9248SOL     OW28642   2.718   0.248   6.553
 9248SOL    HW128643   2.740   0.221   6.647
 9248SOL    HW228644   2.660   0.329   6.555
 9249SOL     OW28645   2.888   0.087   0.060
 9249SOL    HW128646   2.975   0.132   0.038
 9249SOL    HW228647   2.844   0.134   0.136
 9250SOL     OW28648   0.227   3.621   3.382
 9250SOL    HW128649   0.312   3.599   3.429
 9250SOL    HW228650   0.179   3.694   3.431
 9251SOL     OW28651   3.686   1.680   1.093
 9251SOL    HW128652   3.604   1.734   1.113
 9251SOL    HW228653   3.767   1.729   1.124
 9252SOL     OW28654   5.640   1.271   4.769
 9252SOL    HW128655   5.681   1.203   4.830
 9252SOL    HW228656   5.547   1.290   4.798
 9253SOL     OW28657   2.234   4.729   4.109
 9253SOL    HW128658   2.262   4.807   4.053
 9253SOL    HW228659   2.271   4.740   4.201
 9254SOL     OW28660   0.352   5.058   2.167
 9254SOL    HW128661   0.364   5.140   2.111
 9254SOL    HW228662   0.361   4.977   2.109
 9255SOL     OW28663   6.312   3.518   1.013
 9255SOL    HW128664   6.384   3.472   1.065
 9255SOL    HW228665   6.225   3.472   1.030
 9256SOL     OW28666   2.653   6.773   0.707
 9256SOL    HW128667   2.752   6.766   0.706
 9256SOL    HW228668   2.617   6.725   0.788
 9257SOL     OW28669   6.196   6.066   4.865
 9257SOL    HW128670   6.277   6.114   4.896
 9257SOL    HW228671   6.209   5.967   4.877
 9258SOL     OW28672   4.852   5.248   2.247
 9258SOL    HW128673   4.935   5.276   2.200
 9258SOL    HW228674   4.860   5.152   2.275
 9259SOL     OW28675   0.434   2.304   6.816
 9259SOL    HW128676   0.345   2.339   6.787
 9259SOL    HW228677   0.472   2.364   6.886
 9260SOL     OW28678   4.938   3.776   4.760
 9260SOL    HW128679   4.894   3.707   4.818
 9260SOL    HW228680   4.917   3.757   4.664
 9261SOL     OW28681   1.336   2.948   1.893
 9261SOL    HW128682   1.291   2.978   1.977
 9261SOL    HW228683   1.316   3.013   1.820
 9262SOL     OW28684   6.613   6.326   5.879
 9262SOL    HW128685   6.579   6.274   5.801
 9262SOL    HW228686   6.547   6.320   5.954
 9263SOL     OW28687   2.501   4.571   2.960
 9263SOL    HW128688   2.472   4.534   2.872
 9263SOL    HW228689   2.448   4.654   2.980
 9264SOL     OW28690   5.427   3.661   5.561
 9264SOL    HW128691   5.508   3.687   5.612
 9264SOL    HW228692   5.376   3.592   5.611
 9265SOL     OW28693   4.722   1.028   1.602
 9265SOL    HW128694   4.720   1.034   1.702
 9265SOL    HW228695   4.809   0.988   1.573
 9266SOL     OW28696   2.007   4.946   0.698
 9266SOL    HW128697   1.951   4.931   0.780
 9266SOL    HW228698   1.948   4.956   0.618
 9267SOL     OW28699   6.904   1.867   3.540
 9267SOL    HW128700   6.851   1.784   3.555
 9267SOL    HW228701   6.854   1.927   3.477
 9268SOL     OW28702   0.446   0.755   1.933
 9268SOL    HW128703   0.481   0.662   1.946
 9268SOL    HW228704   0.485   0.794   1.849
 9269SOL     OW28705   4.620   0.923   0.471
 9269SOL    HW128706   4.577   1.012   0.455
 9269SOL    HW228707   4.653   0.919   0.565
 9270SOL     OW28708   2.541   1.062   5.573
 9270SOL    HW128709   2.455   1.041   5.618
 9270SOL    HW228710   2.548   1.010   5.488
 9271SOL     OW28711   1.478   4.570   5.891
 9271SOL    HW128712   1.484   4.660   5.936
 9271SOL    HW228713   1.533   4.504   5.942
 9272SOL     OW28714   6.090   5.903   5.474
 9272SOL    HW128715   6.111   5.995   5.440
 9272SOL    HW228716   6.104   5.837   5.400
 9273SOL     OW28717   5.709   3.305   3.841
 9273SOL    HW128718   5.611   3.321   3.837
 9273SOL    HW228719   5.733   3.227   3.782
 9274SOL     OW28720   0.283   3.553   0.302
 9274SOL    HW128721   0.333   3.638   0.287
 9274SOL    HW228722   0.206   3.548   0.238
 9275SOL     OW28723   5.742   1.007   0.587
 9275SOL    HW128724   5.780   0.999   0.680
 9275SOL    HW228725   5.651   0.966   0.586
 9276SOL     OW28726   2.144   4.408   6.777
 9276SOL    HW128727   2.134   4.321   6.729
 9276SOL    HW228728   2.054   4.444   6.799
 9277SOL     OW28729   4.189   6.011   2.430
 9277SOL    HW128730   4.236   6.065   2.361
 9277SOL    HW228731   4.239   6.017   2.517
 9278SOL     OW28732   0.720   6.965   5.924
 9278SOL    HW128733   0.744   0.010   5.998
 9278SOL    HW228734   0.686   6.880   5.963
 9279SOL     OW28735   2.736   6.007   2.074
 9279SOL    HW128736   2.660   6.036   2.132
 9279SOL    HW228737   2.742   5.907   2.074
 9280SOL     OW28738   1.181   5.961   2.856
 9280SOL    HW128739   1.165   5.892   2.926
 9280SOL    HW228740   1.182   6.052   2.897
 9281SOL     OW28741   1.510   5.142   0.738
 9281SOL    HW128742   1.483   5.149   0.642
 9281SOL    HW228743   1.492   5.229   0.784
 9282SOL     OW28744   2.835   7.018   5.163
 9282SOL    HW128745   2.854   0.097   5.171
 9282SOL    HW228746   2.737   7.003   5.176
 9283SOL     OW28747   5.083   6.039   0.053
 9283SOL    HW128748   4.992   6.079   0.057
 9283SOL    HW228749   5.111   6.031   6.975
 9284SOL     OW28750   4.278   6.109   0.440
 9284SOL    HW128751   4.251   6.168   0.517
 9284SOL    HW228752   4.365   6.064   0.462
 9285SOL     OW28753   0.016   6.050   3.572
 9285SOL    HW128754   6.940   6.051   3.539
 9285SOL    HW228755   0.079   6.053   3.495
 9286SOL     OW28756   5.141   6.766   1.737
 9286SOL    HW128757   5.128   6.751   1.835
 9286SOL    HW228758   5.237   6.785   1.718
 9287SOL     OW28759   4.244   3.986   6.288
 9287SOL    HW128760   4.258   3.977   6.190
 9287SOL    HW228761   4.240   4.083   6.312
 9288SOL     OW28762   3.917   1.771   2.434
 9288SOL    HW128763   3.969   1.775   2.349
 9288SOL    HW228764   3.972   1.808   2.509
 9289SOL     OW28765   4.619   6.340   1.371
 9289SOL    HW128766   4.645   6.387   1.286
 9289SOL    HW228767   4.545   6.276   1.352
 9290SOL     OW28768   5.909   0.992   3.561
 9290SOL    HW128769   6.002   1.002   3.526
 9290SOL    HW228770   5.894   1.057   3.635
 9291SOL     OW28771   0.323   4.289   5.481
 9291SOL    HW128772   0.284   4.320   5.394
 9291SOL    HW228773   0.319   4.189   5.486
 9292SOL     OW28774   0.478   1.510   6.631
 9292SOL    HW128775   0.574   1.484   6.631
 9292SOL    HW228776   0.470   1.610   6.631
 9293SOL     OW28777   4.502   1.958   5.258
 9293SOL    HW128778   4.567   2.034   5.256
 9293SOL    HW228779   4.517   1.899   5.179
 9294SOL     OW28780   4.762   6.314   6.886
 9294SOL    HW128781   4.786   6.261   6.967
 9294SOL    HW228782   4.813   6.400   6.886
 9295SOL     OW28783   5.961   0.951   3.948
 9295SOL    HW128784   6.003   0.918   3.864
 9295SOL    HW228785   5.922   0.875   3.999
 9296SOL     OW28786   2.083   4.085   6.046
 9296SOL    HW128787   2.121   4.144   6.117
 9296SOL    HW228788   1.992   4.118   6.021
 9297SOL     OW28789   6.979   4.660   1.952
 9297SOL    HW128790   6.953   4.606   1.873
 9297SOL    HW228791   7.009   4.600   2.026
 9298SOL     OW28792   0.566   4.217   6.495
 9298SOL    HW128793   0.645   4.251   6.444
 9298SOL    HW228794   0.554   4.270   6.579
 9299SOL     OW28795   2.938   1.795   4.663
 9299SOL    HW128796   2.939   1.880   4.610
 9299SOL    HW228797   2.969   1.814   4.756
 9300SOL     OW28798   2.193   6.203   4.697
 9300SOL    HW128799   2.222   6.175   4.605
 9300SOL    HW228800   2.271   6.241   4.746
 9301SOL     OW28801   1.094   3.996   4.040
 9301SOL    HW128802   1.140   4.061   3.980
 9301SOL    HW228803   1.004   4.032   4.066
 9302SOL     OW28804   3.139   5.609   4.184
 9302SOL    HW128805   3.044   5.592   4.156
 9302SOL    HW228806   3.143   5.696   4.233
 9303SOL     OW28807   2.892   4.516   0.110
 9303SOL    HW128808   2.831   4.546   0.184
 9303SOL    HW228809   2.984   4.552   0.126
 9304SOL     OW28810   5.442   5.917   6.420
 9304SOL    HW128811   5.360   5.901   6.475
 9304SOL    HW228812   5.483   5.830   6.395
 9305SOL     OW28813   1.420   1.659   0.996
 9305SOL    HW128814   1.365   1.640   0.915
 9305SOL    HW228815   1.513   1.685   0.968
 9306SOL     OW28816   6.584   6.300   4.483
 9306SOL    HW128817   6.579   6.378   4.546
 9306SOL    HW228818   6.540   6.220   4.525
 9307SOL     OW28819   1.659   4.163   1.417
 9307SOL    HW128820   1.601   4.196   1.492
 9307SOL    HW228821   1.667   4.063   1.424
 9308SOL     OW28822   2.474   3.675   1.669
 9308SOL    HW128823   2.460   3.598   1.731
 9308SOL    HW228824   2.432   3.654   1.580
 9309SOL     OW28825   4.739   5.177   5.965
 9309SOL    HW128826   4.830   5.207   5.996
 9309SOL    HW228827   4.719   5.217   5.876
 9310SOL     OW28828   5.871   5.950   5.611
 9310SOL    HW128829   5.955   5.912   5.572
 9310SOL    HW228830   5.866   5.927   5.708
 9311SOL     OW28831   5.352   4.013   0.794
 9311SOL    HW128832   5.265   4.008   0.745
 9311SOL    HW228833   5.403   4.093   0.764
 9312SOL     OW28834   6.618   2.566   3.612
 9312SOL    HW128835   6.704   2.582   3.563
 9312SOL    HW228836   6.558   2.508   3.556
 9313SOL     OW28837   0.670   0.669   2.593
 9313SOL    HW128838   0.624   0.740   2.540
 9313SOL    HW228839   0.618   0.652   2.677
 9314SOL     OW28840   5.025   5.123   1.737
 9314SOL    HW128841   5.048   5.211   1.779
 9314SOL    HW228842   4.958   5.138   1.664
 9315SOL     OW28843   5.842   5.663   5.669
 9315SOL    HW128844   5.826   5.662   5.768
 9315SOL    HW228845   5.759   5.635   5.622
 9316SOL     OW28846   4.983   6.740   0.795
 9316SOL    HW128847   5.076   6.721   0.828
 9316SOL    HW228848   4.970   6.695   0.706
 9317SOL     OW28849   1.939   5.865   3.736
 9317SOL    HW128850   1.940   5.860   3.836
 9317SOL    HW228851   2.011   5.927   3.705
 9318SOL     OW28852   3.693   6.780   2.700
 9318SOL    HW128853   3.749   6.705   2.665
 9318SOL    HW228854   3.609   6.787   2.647
 9319SOL     OW28855   4.106   2.067   0.287
 9319SOL    HW128856   4.037   2.097   0.351
 9319SOL    HW228857   4.135   1.974   0.310
 9320SOL     OW28858   6.939   6.563   6.573
 9320SOL    HW128859   6.860   6.502   6.567
 9320SOL    HW228860   7.012   6.518   6.624
 9321SOL     OW28861   1.090   2.981   4.205
 9321SOL    HW128862   1.006   2.927   4.206
 9321SOL    HW228863   1.080   3.060   4.266
 9322SOL     OW28864   5.544   2.770   6.990
 9322SOL    HW128865   5.506   2.857   0.005
 9322SOL    HW228866   5.632   2.786   6.946
 9323SOL     OW28867   0.614   2.122   5.877
 9323SOL    HW128868   0.540   2.076   5.829
 9323SOL    HW228869   0.673   2.169   5.810
 9324SOL     OW28870   0.455   4.927   1.231
 9324SOL    HW128871   0.485   5.000   1.169
 9324SOL    HW228872   0.487   4.946   1.323
 9325SOL     OW28873   0.766   4.984   3.278
 9325SOL    HW128874   0.736   5.064   3.226
 9325SOL    HW228875   0.695   4.914   3.277
 9326SOL     OW28876   4.799   4.491   0.588
 9326SOL    HW128877   4.821   4.442   0.503
 9326SOL    HW228878   4.787   4.588   0.568
 9327SOL     OW28879   2.916   1.438   3.242
 9327SOL    HW128880   2.856   1.365   3.274
 9327SOL    HW228881   2.962   1.410   3.158
 9328SOL     OW28882   1.685   0.679   3.483
 9328SOL    HW128883   1.632   0.595   3.495
 9328SOL    HW228884   1.668   0.742   3.558
 9329SOL     OW28885   1.271   5.605   6.608
 9329SOL    HW128886   1.357   5.578   6.564
 9329SOL    HW228887   1.231   5.526   6.654
 9330SOL     OW28888   1.278   6.809   0.729
 9330SOL    HW128889   1.242   6.846   0.815
 9330SOL    HW228890   1.321   6.721   0.746
 9331SOL     OW28891   2.451   4.451   4.307
 9331SOL    HW128892   2.462   4.441   4.208
 9331SOL    HW228893   2.361   4.419   4.335
 9332SOL     OW28894   6.711   5.187   6.856
 9332SOL    HW128895   6.683   5.197   6.761
 9332SOL    HW228896   6.799   5.138   6.860
 9333SOL     OW28897   2.732   4.799   1.452
 9333SOL    HW128898   2.808   4.864   1.459
 9333SOL    HW228899   2.728   4.743   1.534
 9334SOL     OW28900   6.805   5.514   6.518
 9334SOL    HW128901   6.904   5.524   6.504
 9334SOL    HW228902   6.784   5.518   6.616
 9335SOL     OW28903   0.270   3.692   1.048
 9335SOL    HW128904   0.212   3.755   1.100
 9335SOL    HW228905   0.308   3.623   1.109
 9336SOL     OW28906   4.980   6.794   5.948
 9336SOL    HW128907   4.928   6.803   5.863
 9336SOL    HW228908   4.971   6.878   6.001
 9337SOL     OW28909   2.704   1.569   5.424
 9337SOL    HW128910   2.782   1.617   5.462
 9337SOL    HW228911   2.680   1.492   5.484
 9338SOL     OW28912   5.365   6.235   0.834
 9338SOL    HW128913   5.439   6.197   0.890
 9338SOL    HW228914   5.332   6.165   0.771
 9339SOL     OW28915   6.685   3.848   5.271
 9339SOL    HW128916   6.765   3.908   5.265
 9339SOL    HW228917   6.713   3.754   5.255
 9340SOL     OW28918   2.636   5.006   2.399
 9340SOL    HW128919   2.645   5.053   2.487
 9340SOL    HW228920   2.707   4.937   2.391
 9341SOL     OW28921   5.874   5.372   6.835
 9341SOL    HW128922   5.857   5.280   6.870
 9341SOL    HW228923   5.789   5.411   6.800
 9342SOL     OW28924   3.084   6.875   5.215
 9342SOL    HW128925   2.984   6.880   5.211
 9342SOL    HW228926   3.114   6.784   5.188
 9343SOL     OW28927   4.723   4.117   1.168
 9343SOL    HW128928   4.640   4.066   1.146
 9343SOL    HW228929   4.781   4.062   1.229
 9344SOL     OW28930   5.885   0.156   5.122
 9344SOL    HW128931   5.926   0.209   5.195
 9344SOL    HW228932   5.954   0.133   5.054
 9345SOL     OW28933   0.110   4.556   0.151
 9345SOL    HW128934   0.042   4.626   0.168
 9345SOL    HW228935   0.136   4.513   0.237
 9346SOL     OW28936   5.111   0.464   2.161
 9346SOL    HW128937   5.195   0.504   2.196
 9346SOL    HW228938   5.032   0.520   2.189
 9347SOL     OW28939   4.738   6.396   1.603
 9347SOL    HW128940   4.757   6.315   1.660
 9347SOL    HW228941   4.674   6.371   1.531
 9348SOL     OW28942   2.483   5.142   1.976
 9348SOL    HW128943   2.412   5.077   2.003
 9348SOL    HW228944   2.572   5.098   1.978
 9349SOL     OW28945   6.360   6.406   1.033
 9349SOL    HW128946   6.326   6.334   1.093
 9349SOL    HW228947   6.436   6.454   1.077
 9350SOL     OW28948   6.744   0.551   0.446
 9350SOL    HW128949   6.828   0.497   0.452
 9350SOL    HW228950   6.665   0.490   0.454
 9351SOL     OW28951   3.972   3.486   6.260
 9351SOL    HW128952   4.069   3.498   6.282
 9351SOL    HW228953   3.944   3.558   6.197
 9352SOL     OW28954   2.966   2.542   6.822
 9352SOL    HW128955   3.060   2.515   6.799
 9352SOL    HW228956   2.935   2.489   6.901
 9353SOL     OW28957   1.006   2.920   1.600
 9353SOL    HW128958   1.037   3.014   1.615
 9353SOL    HW228959   0.959   2.914   1.512
 9354SOL     OW28960   5.352   1.699   1.807
 9354SOL    HW128961   5.266   1.650   1.816
 9354SOL    HW228962   5.428   1.635   1.821
 9355SOL     OW28963   0.060   1.216   2.233
 9355SOL    HW128964   7.003   1.240   2.172
 9355SOL    HW228965   0.074   1.291   2.299
 9356SOL     OW28966   5.495   3.407   2.806
 9356SOL    HW128967   5.564   3.334   2.813
 9356SOL    HW228968   5.415   3.373   2.758
 9357SOL     OW28969   2.974   4.396   0.656
 9357SOL    HW128970   2.975   4.382   0.755
 9357SOL    HW228971   2.973   4.307   0.609
 9358SOL     OW28972   5.132   4.022   2.504
 9358SOL    HW128973   5.042   3.983   2.519
 9358SOL    HW228974   5.163   4.000   2.411
 9359SOL     OW28975   5.251   5.317   6.070
 9359SOL    HW128976   5.329   5.348   6.015
 9359SOL    HW228977   5.280   5.244   6.132
 9360SOL     OW28978   1.188   1.425   5.277
 9360SOL    HW128979   1.169   1.411   5.180
 9360SOL    HW228980   1.283   1.402   5.296
 9361SOL     OW28981   2.504   1.517   1.975
 9361SOL    HW128982   2.562   1.452   1.924
 9361SOL    HW228983   2.436   1.466   2.028
 9362SOL     OW28984   2.155   1.878   3.302
 9362SOL    HW128985   2.073   1.824   3.287
 9362SOL    HW228986   2.156   1.914   3.395
 9363SOL     OW28987   1.703   6.340   1.869
 9363SOL    HW128988   1.653   6.420   1.902
 9363SOL    HW228989   1.692   6.264   1.932
 9364SOL     OW28990   5.496   4.591   1.291
 9364SOL    HW128991   5.398   4.607   1.300
 9364SOL    HW228992   5.523   4.600   1.195
 9365SOL     OW28993   2.474   1.325   4.763
 9365SOL    HW128994   2.562   1.369   4.745
 9365SOL    HW228995   2.454   1.330   4.860
 9366SOL     OW28996   3.333   1.410   1.706
 9366SOL    HW128997   3.415   1.429   1.758
 9366SOL    HW228998   3.310   1.313   1.715
 9367SOL     OW28999   6.564   5.892   4.472
 9367SOL    HW129000   6.617   5.834   4.534
 9367SOL    HW229001   6.592   5.875   4.378
 9368SOL     OW29002   4.456   2.920   0.995
 9368SOL    HW129003   4.529   2.938   1.062
 9368SOL    HW229004   4.397   3.000   0.988
 9369SOL     OW29005   0.027   2.377   5.953
 9369SOL    HW129006   0.051   2.365   6.050
 9369SOL    HW229007   6.957   2.423   5.946
 9370SOL     OW29008   6.180   5.937   3.342
 9370SOL    HW129009   6.246   5.863   3.351
 9370SOL    HW229010   6.126   5.944   3.426
 9371SOL     OW29011   1.396   6.652   0.487
 9371SOL    HW129012   1.353   6.701   0.563
 9371SOL    HW229013   1.333   6.584   0.451
 9372SOL     OW29014   5.887   6.787   0.008
 9372SOL    HW129015   5.838   6.731   0.074
 9372SOL    HW229016   5.986   6.782   0.026
 9373SOL     OW29017   4.720   2.797   4.091
 9373SOL    HW129018   4.729   2.805   4.190
 9373SOL    HW229019   4.717   2.888   4.050
 9374SOL     OW29020   5.103   4.489   0.536
 9374SOL    HW129021   5.010   4.490   0.573
 9374SOL    HW229022   5.163   4.441   0.600
 9375SOL     OW29023   0.067   1.769   3.728
 9375SOL    HW129024   0.119   1.690   3.697
 9375SOL    HW229025   0.030   1.819   3.650
 9376SOL     OW29026   1.706   2.866   1.821
 9376SOL    HW129027   1.742   2.953   1.788
 9376SOL    HW229028   1.782   2.804   1.840
 9377SOL     OW29029   6.015   5.516   2.477
 9377SOL    HW129030   5.992   5.424   2.507
 9377SOL    HW229031   6.020   5.577   2.556
 9378SOL     OW29032   3.342   6.064   1.389
 9378SOL    HW129033   3.266   6.129   1.384
 9378SOL    HW229034   3.336   5.999   1.313
 9379SOL     OW29035   5.934   4.408   5.397
 9379SOL    HW129036   5.931   4.337   5.327
 9379SOL    HW229037   5.900   4.494   5.358
 9380SOL     OW29038   5.812   5.660   6.562
 9380SOL    HW129039   5.803   5.630   6.467
 9380SOL    HW229040   5.834   5.757   6.566
 9381SOL     OW29041   1.595   0.916   0.571
 9381SOL    HW129042   1.652   0.998   0.560
 9381SOL    HW229043   1.599   0.886   0.666
 9382SOL     OW29044   5.583   2.065   2.009
 9382SOL    HW129045   5.534   2.085   2.095
 9382SOL    HW229046   5.592   1.966   1.998
 9383SOL     OW29047   5.799   5.143   5.558
 9383SOL    HW129048   5.893   5.179   5.564
 9383SOL    HW229049   5.760   5.137   5.650
 9384SOL     OW29050   3.836   6.570   2.568
 9384SOL    HW129051   3.932   6.583   2.545
 9384SOL    HW229052   3.782   6.559   2.484
 9385SOL     OW29053   3.622   0.475   3.982
 9385SOL    HW129054   3.563   0.451   3.905
 9385SOL    HW229055   3.565   0.512   4.056
 9386SOL     OW29056   3.965   6.972   5.317
 9386SOL    HW129057   3.876   6.989   5.273
 9386SOL    HW229058   3.953   6.967   5.416
 9387SOL     OW29059   3.969   6.277   0.963
 9387SOL    HW129060   3.941   6.358   0.911
 9387SOL    HW229061   3.896   6.208   0.958
 9388SOL     OW29062   6.163   6.608   2.399
 9388SOL    HW129063   6.064   6.620   2.387
 9388SOL    HW229064   6.191   6.522   2.357
 9389SOL     OW29065   3.474   1.431   7.012
 9389SOL    HW129066   3.406   1.504   7.004
 9389SOL    HW229067   3.449   1.355   6.952
 9390SOL     OW29068   2.706   6.416   1.644
 9390SOL    HW129069   2.794   6.461   1.634
 9390SOL    HW229070   2.663   6.446   1.729
 9391SOL     OW29071   6.989   1.376   5.471
 9391SOL    HW129072   0.068   1.381   5.495
 9391SOL    HW229073   6.939   1.447   5.521
 9392SOL     OW29074   1.175   6.575   4.573
 9392SOL    HW129075   1.190   6.630   4.492
 9392SOL    HW229076   1.176   6.634   4.654
 9393SOL     OW29077   3.796   1.912   5.612
 9393SOL    HW129078   3.699   1.924   5.629
 9393SOL    HW229079   3.817   1.939   5.518
 9394SOL     OW29080   5.757   2.783   1.600
 9394SOL    HW129081   5.695   2.777   1.678
 9394SOL    HW229082   5.708   2.822   1.522
 9395SOL     OW29083   1.932   2.888   6.314
 9395SOL    HW129084   2.009   2.882   6.250
 9395SOL    HW229085   1.877   2.805   6.309
 9396SOL     OW29086   6.171   0.314   6.755
 9396SOL    HW129087   6.248   0.308   6.691
 9396SOL    HW229088   6.203   0.298   6.848
 9397SOL     OW29089   3.212   1.244   1.223
 9397SOL    HW129090   3.132   1.184   1.228
 9397SOL    HW229091   3.185   1.338   1.245
 9398SOL     OW29092   2.152   1.251   0.943
 9398SOL    HW129093   2.211   1.202   0.878
 9398SOL    HW229094   2.095   1.317   0.892
 9399SOL     OW29095   6.610   0.716   5.611
 9399SOL    HW129096   6.707   0.700   5.627
 9399SOL    HW229097   6.556   0.663   5.677
 9400SOL     OW29098   4.434   2.122   3.400
 9400SOL    HW129099   4.461   2.194   3.337
 9400SOL    HW229100   4.508   2.056   3.409
 9401SOL     OW29101   4.161   0.190   3.358
 9401SOL    HW129102   4.179   0.277   3.313
 9401SOL    HW229103   4.132   0.122   3.290
 9402SOL     OW29104   2.086   4.835   0.291
 9402SOL    HW129105   2.079   4.804   0.196
 9402SOL    HW229106   2.050   4.764   0.351
 9403SOL     OW29107   5.769   0.653   5.169
 9403SOL    HW129108   5.697   0.722   5.166
 9403SOL    HW229109   5.728   0.562   5.156
 9404SOL     OW29110   1.091   3.987   5.279
 9404SOL    HW129111   1.153   4.062   5.255
 9404SOL    HW229112   1.000   4.023   5.296
 9405SOL     OW29113   6.816   0.534   0.736
 9405SOL    HW129114   6.729   0.537   0.688
 9405SOL    HW229115   6.804   0.568   0.829
 9406SOL     OW29116   6.558   1.238   5.637
 9406SOL    HW129117   6.597   1.149   5.659
 9406SOL    HW229118   6.596   1.307   5.699
 9407SOL     OW29119   3.577   6.245   2.988
 9407SOL    HW129120   3.631   6.186   3.048
 9407SOL    HW229121   3.585   6.213   2.893
 9408SOL     OW29122   4.109   1.835   6.663
 9408SOL    HW129123   4.110   1.895   6.583
 9408SOL    HW229124   4.136   1.743   6.636
 9409SOL     OW29125   6.225   3.447   3.355
 9409SOL    HW129126   6.304   3.459   3.415
 9409SOL    HW229127   6.247   3.380   3.284
 9410SOL     OW29128   4.667   6.532   2.170
 9410SOL    HW129129   4.663   6.564   2.075
 9410SOL    HW229130   4.727   6.452   2.176
 9411SOL     OW29131   4.806   5.603   1.345
 9411SOL    HW129132   4.785   5.610   1.248
 9411SOL    HW229133   4.733   5.645   1.398
 9412SOL     OW29134   6.511   3.090   1.969
 9412SOL    HW129135   6.472   2.998   1.964
 9412SOL    HW229136   6.443   3.152   2.009
 9413SOL     OW29137   3.486   5.202   4.429
 9413SOL    HW129138   3.466   5.105   4.442
 9413SOL    HW229139   3.429   5.239   4.356
 9414SOL     OW29140   2.543   1.300   2.277
 9414SOL    HW129141   2.566   1.377   2.337
 9414SOL    HW229142   2.450   1.312   2.243
 9415SOL     OW29143   2.790   0.829   2.353
 9415SOL    HW129144   2.852   0.751   2.352
 9415SOL    HW229145   2.717   0.814   2.286
 9416SOL     OW29146   1.479   1.777   1.234
 9416SOL    HW129147   1.578   1.782   1.246
 9416SOL    HW229148   1.458   1.712   1.160
 9417SOL     OW29149   2.125   0.499   4.505
 9417SOL    HW129150   2.164   0.531   4.418
 9417SOL    HW229151   2.198   0.491   4.572
 9418SOL     OW29152   3.940   4.471   1.099
 9418SOL    HW129153   3.908   4.562   1.126
 9418SOL    HW229154   3.864   4.406   1.107
 9419SOL     OW29155   3.498   5.675   4.652
 9419SOL    HW129156   3.509   5.579   4.625
 9419SOL    HW229157   3.463   5.728   4.576
 9420SOL     OW29158   0.897   1.407   4.359
 9420SOL    HW129159   0.810   1.396   4.312
 9420SOL    HW229160   0.956   1.469   4.307
 9421SOL     OW29161   1.875   5.181   4.657
 9421SOL    HW129162   1.926   5.218   4.735
 9421SOL    HW229163   1.787   5.228   4.649
 9422SOL     OW29164   3.677   1.184   2.506
 9422SOL    HW129165   3.759   1.197   2.562
 9422SOL    HW229166   3.691   1.107   2.443
 9423SOL     OW29167   4.942   0.522   4.681
 9423SOL    HW129168   4.886   0.490   4.757
 9423SOL    HW229169   4.929   0.462   4.602
 9424SOL     OW29170   3.038   6.102   4.452
 9424SOL    HW129171   3.005   6.073   4.542
 9424SOL    HW229172   3.014   6.032   4.385
 9425SOL     OW29173   1.228   4.688   3.320
 9425SOL    HW129174   1.180   4.608   3.284
 9425SOL    HW229175   1.165   4.766   3.325
 9426SOL     OW29176   4.063   6.381   0.355
 9426SOL    HW129177   4.078   6.292   0.312
 9426SOL    HW229178   4.062   6.370   0.454
 9427SOL     OW29179   3.085   4.914   4.359
 9427SOL    HW129180   3.003   4.957   4.395
 9427SOL    HW229181   3.097   4.941   4.263
 9428SOL     OW29182   4.483   6.026   2.059
 9428SOL    HW129183   4.541   6.107   2.050
 9428SOL    HW229184   4.420   6.039   2.136
 9429SOL     OW29185   6.818   3.195   2.454
 9429SOL    HW129186   6.804   3.169   2.359
 9429SOL    HW229187   6.858   3.119   2.504
 9430SOL     OW29188   6.100   6.844   1.720
 9430SOL    HW129189   6.063   6.926   1.677
 9430SOL    HW229190   6.088   6.849   1.819
 9431SOL     OW29191   6.147   4.070   1.178
 9431SOL    HW129192   6.097   3.995   1.134
 9431SOL    HW229193   6.236   4.080   1.134
 9432SOL     OW29194   6.763   6.787   4.371
 9432SOL    HW129195   6.798   6.715   4.430
 9432SOL    HW229196   6.800   6.775   4.278
 9433SOL     OW29197   3.320   4.987   4.697
 9433SOL    HW129198   3.234   5.034   4.678
 9433SOL    HW229199   3.337   4.986   4.796
 9434SOL     OW29200   5.123   4.832   2.930
 9434SOL    HW129201   5.109   4.740   2.966
 9434SOL    HW229202   5.117   4.898   3.005
 9435SOL     OW29203   1.612   1.930   5.218
 9435SOL    HW129204   1.545   1.896   5.151
 9435SOL    HW229205   1.699   1.948   5.173
 9436SOL     OW29206   2.051   2.494   6.235
 9436SOL    HW129207   2.102   2.449   6.161
 9436SOL    HW229208   1.978   2.549   6.196
 9437SOL     OW29209   0.606   4.949   3.987
 9437SOL    HW129210   0.638   5.038   4.018
 9437SOL    HW229211   0.506   4.950   3.981
 9438SOL     OW29212   0.728   6.853   2.018
 9438SOL    HW129213   0.677   6.803   1.949
 9438SOL    HW229214   0.682   6.844   2.107
 9439SOL     OW29215   1.252   2.767   1.612
 9439SOL    HW129216   1.227   2.677   1.646
 9439SOL    HW229217   1.170   2.820   1.594
 9440SOL     OW29218   4.531   5.760   4.959
 9440SOL    HW129219   4.607   5.795   4.904
 9440SOL    HW229220   4.474   5.701   4.902
 9441SOL     OW29221   1.750   5.690   5.131
 9441SOL    HW129222   1.713   5.645   5.049
 9441SOL    HW229223   1.687   5.677   5.207
 9442SOL     OW29224   0.802   3.801   1.203
 9442SOL    HW129225   0.838   3.868   1.269
 9442SOL    HW229226   0.879   3.761   1.152
 9443SOL     OW29227   2.300   3.411   1.401
 9443SOL    HW129228   2.241   3.369   1.469
 9443SOL    HW229229   2.306   3.510   1.418
 9444SOL     OW29230   0.661   4.042   5.911
 9444SOL    HW129231   0.719   4.084   5.982
 9444SOL    HW229232   0.710   4.042   5.824
 9445SOL     OW29233   6.331   3.366   1.365
 9445SOL    HW129234   6.233   3.343   1.366
 9445SOL    HW229235   6.341   3.464   1.352
 9446SOL     OW29236   5.993   4.826   1.020
 9446SOL    HW129237   6.081   4.781   1.035
 9446SOL    HW229238   5.944   4.831   1.107
 9447SOL     OW29239   6.068   2.569   1.607
 9447SOL    HW129240   6.049   2.628   1.528
 9447SOL    HW229241   6.051   2.474   1.582
 9448SOL     OW29242   6.354   6.258   0.606
 9448SOL    HW129243   6.341   6.174   0.554
 9448SOL    HW229244   6.348   6.337   0.544
 9449SOL     OW29245   6.823   5.114   4.859
 9449SOL    HW129246   6.901   5.155   4.907
 9449SOL    HW229247   6.794   5.032   4.908
 9450SOL     OW29248   2.949   5.443   4.386
 9450SOL    HW129249   2.918   5.412   4.476
 9450SOL    HW229250   2.957   5.542   4.386
 9451SOL     OW29251   4.278   4.062   5.558
 9451SOL    HW129252   4.349   4.053   5.489
 9451SOL    HW229253   4.313   4.115   5.635
 9452SOL     OW29254   2.769   4.305   1.424
 9452SOL    HW129255   2.843   4.368   1.398
 9452SOL    HW229256   2.715   4.345   1.498
 9453SOL     OW29257   3.144   5.018   1.977
 9453SOL    HW129258   3.084   4.939   1.990
 9453SOL    HW229259   3.191   5.010   1.889
 9454SOL     OW29260   2.131   2.084   5.338
 9454SOL    HW129261   2.201   2.115   5.274
 9454SOL    HW229262   2.041   2.086   5.294
 9455SOL     OW29263   2.786   1.966   2.219
 9455SOL    HW129264   2.842   1.945   2.139
 9455SOL    HW229265   2.694   1.994   2.189
 9456SOL     OW29266   1.384   3.424   0.760
 9456SOL    HW129267   1.480   3.442   0.739
 9456SOL    HW229268   1.375   3.394   0.855
 9457SOL     OW29269   6.619   3.575   0.706
 9457SOL    HW129270   6.623   3.621   0.795
 9457SOL    HW229271   6.711   3.550   0.678
 9458SOL     OW29272   0.421   5.659   4.611
 9458SOL    HW129273   0.410   5.629   4.706
 9458SOL    HW229274   0.496   5.608   4.569
 9459SOL     OW29275   4.123   6.004   1.590
 9459SOL    HW129276   4.147   6.045   1.678
 9459SOL    HW229277   4.061   6.066   1.541
 9460SOL     OW29278   1.119   2.664   4.986
 9460SOL    HW129279   1.087   2.670   5.081
 9460SOL    HW229280   1.213   2.698   4.980
 9461SOL     OW29281   1.052   0.627   2.795
 9461SOL    HW129282   0.967   0.618   2.847
 9461SOL    HW229283   1.104   0.705   2.830
 9462SOL     OW29284   0.090   3.598   3.156
 9462SOL    HW129285   0.146   3.611   3.238
 9462SOL    HW229286   0.133   3.532   3.095
 9463SOL     OW29287   5.442   2.124   6.657
 9463SOL    HW129288   5.444   2.181   6.739
 9463SOL    HW229289   5.427   2.181   6.576
 9464SOL     OW29290   4.369   6.838   6.096
 9464SOL    HW129291   4.422   6.755   6.082
 9464SOL    HW229292   4.289   6.817   6.152
 9465SOL     OW29293   5.840   0.281   4.332
 9465SOL    HW129294   5.879   0.226   4.406
 9465SOL    HW229295   5.881   0.254   4.245
 9466SOL     OW29296   2.356   2.189   6.779
 9466SOL    HW129297   2.333   2.264   6.841
 9466SOL    HW229298   2.350   2.221   6.684
 9467SOL     OW29299   2.061   3.347   1.819
 9467SOL    HW129300   2.115   3.400   1.884
 9467SOL    HW229301   2.023   3.267   1.864
 9468SOL     OW29302   0.373   2.449   6.342
 9468SOL    HW129303   0.378   2.524   6.408
 9468SOL    HW229304   0.401   2.482   6.252
 9469SOL     OW29305   6.394   4.084   2.368
 9469SOL    HW129306   6.451   4.156   2.407
 9469SOL    HW229307   6.326   4.125   2.307
 9470SOL     OW29308   5.912   3.681   1.458
 9470SOL    HW129309   5.838   3.642   1.512
 9470SOL    HW229310   5.981   3.720   1.520
 9471SOL     OW29311   0.511   2.400   5.891
 9471SOL    HW129312   0.539   2.304   5.898
 9471SOL    HW229313   0.446   2.410   5.815
 9472SOL     OW29314   6.430   3.069   4.810
 9472SOL    HW129315   6.498   3.000   4.786
 9472SOL    HW229316   6.400   3.056   4.904
 9473SOL     OW29317   3.966   5.311   4.352
 9473SOL    HW129318   3.951   5.371   4.431
 9473SOL    HW229319   3.878   5.289   4.310
 9474SOL     OW29320   3.642   5.368   3.356
 9474SOL    HW129321   3.732   5.411   3.361
 9474SOL    HW229322   3.582   5.424   3.298
 9475SOL     OW29323   1.538   3.453   1.262
 9475SOL    HW129324   1.508   3.389   1.191
 9475SOL    HW229325   1.547   3.545   1.223
 9476SOL     OW29326   3.844   4.110   5.123
 9476SOL    HW129327   3.934   4.135   5.157
 9476SOL    HW229328   3.847   4.101   5.023
 9477SOL     OW29329   0.782   2.676   0.894
 9477SOL    HW129330   0.757   2.727   0.812
 9477SOL    HW229331   0.711   2.688   0.964
 9478SOL     OW29332   5.233   4.799   5.069
 9478SOL    HW129333   5.271   4.714   5.107
 9478SOL    HW229334   5.230   4.869   5.141
 9479SOL     OW29335   6.395   5.851   5.636
 9479SOL    HW129336   6.415   5.754   5.621
 9479SOL    HW229337   6.427   5.904   5.557
 9480SOL     OW29338   5.806   4.127   6.641
 9480SOL    HW129339   5.760   4.075   6.714
 9480SOL    HW229340   5.883   4.074   6.606
 9481SOL     OW29341   6.182   3.616   2.215
 9481SOL    HW129342   6.244   3.553   2.168
 9481SOL    HW229343   6.226   3.650   2.298
 9482SOL     OW29344   4.306   6.972   2.601
 9482SOL    HW129345   4.209   6.968   2.626
 9482SOL    HW229346   4.320   6.928   2.512
 9483SOL     OW29347   1.760   1.639   0.443
 9483SOL    HW129348   1.765   1.569   0.371
 9483SOL    HW229349   1.829   1.619   0.513
 9484SOL     OW29350   6.271   1.479   2.701
 9484SOL    HW129351   6.294   1.452   2.795
 9484SOL    HW229352   6.353   1.480   2.645
 9485SOL     OW29353   0.867   0.857   2.921
 9485SOL    HW129354   0.791   0.916   2.896
 9485SOL    HW229355   0.951   0.891   2.878
 9486SOL     OW29356   2.847   5.976   2.377
 9486SOL    HW129357   2.929   5.932   2.341
 9486SOL    HW229358   2.843   6.070   2.345
 9487SOL     OW29359   3.500   2.884   3.427
 9487SOL    HW129360   3.585   2.831   3.418
 9487SOL    HW229361   3.508   2.945   3.506
 9488SOL     OW29362   1.357   0.580   1.383
 9488SOL    HW129363   1.411   0.629   1.451
 9488SOL    HW229364   1.417   0.548   1.310
 9489SOL     OW29365   3.753   4.454   0.809
 9489SOL    HW129366   3.848   4.422   0.800
 9489SOL    HW229367   3.741   4.498   0.898
 9490SOL     OW29368   5.592   1.276   0.042
 9490SOL    HW129369   5.623   1.366   0.010
 9490SOL    HW229370   5.495   1.281   0.066
 9491SOL     OW29371   6.632   5.100   5.844
 9491SOL    HW129372   6.649   5.038   5.768
 9491SOL    HW229373   6.698   5.175   5.841
 9492SOL     OW29374   2.794   3.906   1.668
 9492SOL    HW129375   2.875   3.943   1.713
 9492SOL    HW229376   2.772   3.817   1.707
 9493SOL     OW29377   5.482   6.320   2.828
 9493SOL    HW129378   5.511   6.415   2.814
 9493SOL    HW229379   5.413   6.296   2.760
 9494SOL     OW29380   3.783   3.577   6.012
 9494SOL    HW129381   3.699   3.527   6.035
 9494SOL    HW229382   3.839   3.520   5.952
 9495SOL     OW29383   5.618   2.605   4.892
 9495SOL    HW129384   5.661   2.665   4.959
 9495SOL    HW229385   5.523   2.631   4.879
 9496SOL     OW29386   5.654   3.876   0.175
 9496SOL    HW129387   5.624   3.914   0.263
 9496SOL    HW229388   5.717   3.940   0.131
 9497SOL     OW29389   0.180   6.720   5.758
 9497SOL    HW129390   0.089   6.759   5.743
 9497SOL    HW229391   0.200   6.721   5.856
 9498SOL     OW29392   4.134   0.175   6.051
 9498SOL    HW129393   4.089   0.202   5.966
 9498SOL    HW229394   4.225   0.139   6.030
 9499SOL     OW29395   4.980   4.202   6.297
 9499SOL    HW129396   4.921   4.164   6.227
 9499SOL    HW229397   4.969   4.301   6.300
 9500SOL     OW29398   5.060   5.819   2.064
 9500SOL    HW129399   5.136   5.882   2.046
 9500SOL    HW229400   5.061   5.793   2.161
 9501SOL     OW29401   3.223   1.699   4.953
 9501SOL    HW129402   3.212   1.615   4.900
 9501SOL    HW229403   3.318   1.709   4.982
 9502SOL     OW29404   5.260   3.213   5.411
 9502SOL    HW129405   5.176   3.262   5.436
 9502SOL    HW229406   5.331   3.230   5.479
 9503SOL     OW29407   1.275   6.750   1.315
 9503SOL    HW129408   1.333   6.714   1.389
 9503SOL    HW229409   1.247   6.844   1.338
 9504SOL     OW29410   0.760   3.360   6.794
 9504SOL    HW129411   0.685   3.426   6.801
 9504SOL    HW229412   0.734   3.276   6.841
 9505SOL     OW29413   5.055   3.421   2.960
 9505SOL    HW129414   4.998   3.456   2.885
 9505SOL    HW229415   5.043   3.479   3.041
 9506SOL     OW29416   6.388   2.896   0.403
 9506SOL    HW129417   6.402   2.817   0.464
 9506SOL    HW229418   6.393   2.865   0.308
 9507SOL     OW29419   0.831   1.993   3.857
 9507SOL    HW129420   0.916   2.036   3.825
 9507SOL    HW229421   0.769   1.981   3.780
 9508SOL     OW29422   5.077   2.179   0.099
 9508SOL    HW129423   5.070   2.163   0.197
 9508SOL    HW229424   5.106   2.273   0.082
 9509SOL     OW29425   2.665   6.574   5.351
 9509SOL    HW129426   2.712   6.498   5.396
 9509SOL    HW229427   2.730   6.649   5.335
 9510SOL     OW29428   6.216   4.192   3.201
 9510SOL    HW129429   6.274   4.251   3.258
 9510SOL    HW229430   6.124   4.230   3.196
 9511SOL     OW29431   1.741   1.274   0.907
 9511SOL    HW129432   1.777   1.261   0.815
 9511SOL    HW229433   1.658   1.221   0.918
 9512SOL     OW29434   1.508   2.439   4.279
 9512SOL    HW129435   1.506   2.340   4.293
 9512SOL    HW229436   1.457   2.462   4.196
 9513SOL     OW29437   2.446   4.366   4.036
 9513SOL    HW129438   2.502   4.421   3.974
 9513SOL    HW229439   2.460   4.269   4.017
 9514SOL     OW29440   2.317   2.811   6.213
 9514SOL    HW129441   2.320   2.827   6.312
 9514SOL    HW229442   2.382   2.872   6.167
 9515SOL     OW29443   2.554   5.747   5.429
 9515SOL    HW129444   2.599   5.660   5.409
 9515SOL    HW229445   2.603   5.795   5.501
 9516SOL     OW29446   5.468   3.932   4.963
 9516SOL    HW129447   5.426   3.942   5.053
 9516SOL    HW229448   5.483   3.835   4.944
 9517SOL     OW29449   0.871   5.829   1.978
 9517SOL    HW129450   0.896   5.770   2.055
 9517SOL    HW229451   0.772   5.845   1.979
 9518SOL     OW29452   0.795   3.134   5.675
 9518SOL    HW129453   0.741   3.217   5.662
 9518SOL    HW229454   0.891   3.153   5.654
 9519SOL     OW29455   3.726   3.466   3.170
 9519SOL    HW129456   3.823   3.454   3.151
 9519SOL    HW229457   3.694   3.392   3.229
 9520SOL     OW29458   5.210   0.442   6.256
 9520SOL    HW129459   5.246   0.437   6.349
 9520SOL    HW229460   5.124   0.391   6.251
 9521SOL     OW29461   3.334   0.994   1.099
 9521SOL    HW129462   3.428   0.974   1.073
 9521SOL    HW229463   3.332   1.022   1.195
 9522SOL     OW29464   3.128   6.260   2.412
 9522SOL    HW129465   3.207   6.260   2.474
 9522SOL    HW229466   3.062   6.329   2.443
 9523SOL     OW29467   2.804   4.718   3.853
 9523SOL    HW129468   2.847   4.809   3.847
 9523SOL    HW229469   2.728   4.722   3.917
 9524SOL     OW29470   2.488   3.957   0.892
 9524SOL    HW129471   2.580   3.985   0.865
 9524SOL    HW229472   2.433   3.937   0.811
 9525SOL     OW29473   2.474   3.249   5.390
 9525SOL    HW129474   2.484   3.184   5.314
 9525SOL    HW229475   2.447   3.199   5.473
 9526SOL     OW29476   5.635   4.898   0.136
 9526SOL    HW129477   5.626   4.819   0.076
 9526SOL    HW229478   5.670   4.976   0.083
 9527SOL     OW29479   4.183   0.100   3.970
 9527SOL    HW129480   4.188   0.174   4.037
 9527SOL    HW229481   4.098   0.048   3.984
 9528SOL     OW29482   5.438   2.324   0.444
 9528SOL    HW129483   5.406   2.401   0.390
 9528SOL    HW229484   5.536   2.334   0.463
 9529SOL     OW29485   5.835   1.282   1.333
 9529SOL    HW129486   5.854   1.196   1.381
 9529SOL    HW229487   5.746   1.317   1.362
 9530SOL     OW29488   1.713   5.643   3.768
 9530SOL    HW129489   1.649   5.717   3.786
 9530SOL    HW229490   1.805   5.680   3.757
 9531SOL     OW29491   3.575   5.640   2.711
 9531SOL    HW129492   3.561   5.704   2.786
 9531SOL    HW229493   3.583   5.690   2.625
 9532SOL     OW29494   6.558   5.262   3.064
 9532SOL    HW129495   6.463   5.252   3.093
 9532SOL    HW229496   6.619   5.225   3.135
 9533SOL     OW29497   1.471   3.599   3.768
 9533SOL    HW129498   1.444   3.695   3.763
 9533SOL    HW229499   1.568   3.592   3.792
 9534SOL     OW29500   5.647   4.864   4.416
 9534SOL    HW129501   5.646   4.830   4.511
 9534SOL    HW229502   5.615   4.958   4.414
 9535SOL     OW29503   0.378   1.592   5.287
 9535SOL    HW129504   0.381   1.684   5.247
 9535SOL    HW229505   0.347   1.527   5.218
 9536SOL     OW29506   3.398   3.912   4.957
 9536SOL    HW129507   3.324   3.907   5.024
 9536SOL    HW229508   3.457   3.989   4.978
 9537SOL     OW29509   0.172   1.979   3.890
 9537SOL    HW129510   0.184   2.035   3.972
 9537SOL    HW229511   0.203   1.885   3.909
 9538SOL     OW29512   5.012   0.281   4.903
 9538SOL    HW129513   4.983   0.255   4.811
 9538SOL    HW229514   4.951   0.353   4.938
 9539SOL     OW29515   2.933   3.673   1.947
 9539SOL    HW129516   2.842   3.676   1.990
 9539SOL    HW229517   2.930   3.610   1.869
 9540SOL     OW29518   4.558   4.753   3.415
 9540SOL    HW129519   4.533   4.802   3.331
 9540SOL    HW229520   4.572   4.820   3.488
 9541SOL     OW29521   2.539   5.845   5.183
 9541SOL    HW129522   2.459   5.802   5.142
 9541SOL    HW229523   2.550   5.811   5.277
 9542SOL     OW29524   6.253   4.256   4.001
 9542SOL    HW129525   6.275   4.350   4.029
 9542SOL    HW229526   6.165   4.256   3.953
 9543SOL     OW29527   2.872   6.837   6.013
 9543SOL    HW129528   2.871   6.874   5.920
 9543SOL    HW229529   2.964   6.807   6.036
 9544SOL     OW29530   5.979   3.366   4.442
 9544SOL    HW129531   6.067   3.350   4.486
 9544SOL    HW229532   5.941   3.453   4.475
 9545SOL     OW29533   0.219   4.328   1.586
 9545SOL    HW129534   0.296   4.320   1.649
 9545SOL    HW229535   0.246   4.294   1.496
 9546SOL     OW29536   2.480   3.004   0.311
 9546SOL    HW129537   2.386   2.969   0.314
 9546SOL    HW229538   2.543   2.932   0.339
 9547SOL     OW29539   3.946   6.758   3.699
 9547SOL    HW129540   3.969   6.851   3.669
 9547SOL    HW229541   3.975   6.745   3.794
 9548SOL     OW29542   1.420   5.164   6.859
 9548SOL    HW129543   1.364   5.087   6.830
 9548SOL    HW229544   1.379   5.250   6.829
 9549SOL     OW29545   4.681   2.042   0.456
 9549SOL    HW129546   4.752   1.976   0.432
 9549SOL    HW229547   4.702   2.083   0.545
 9550SOL     OW29548   5.312   3.510   1.562
 9550SOL    HW129549   5.228   3.487   1.513
 9550SOL    HW229550   5.386   3.525   1.497
 9551SOL     OW29551   6.423   3.637   6.347
 9551SOL    HW129552   6.437   3.622   6.444
 9551SOL    HW229553   6.436   3.552   6.297
 9552SOL     OW29554   3.312   1.645   0.067
 9552SOL    HW129555   3.306   1.740   0.098
 9552SOL    HW229556   3.222   1.615   0.037
 9553SOL     OW29557   5.398   1.554   6.339
 9553SOL    HW129558   5.442   1.518   6.421
 9553SOL    HW229559   5.310   1.594   6.363
 9554SOL     OW29560   3.492   0.847   4.005
 9554SOL    HW129561   3.444   0.914   3.947
 9554SOL    HW229562   3.440   0.762   4.006
 9555SOL     OW29563   6.813   0.272   3.680
 9555SOL    HW129564   6.793   0.181   3.716
 9555SOL    HW229565   6.911   0.290   3.689
 9556SOL     OW29566   1.807   4.665   6.544
 9556SOL    HW129567   1.841   4.572   6.562
 9556SOL    HW229568   1.708   4.662   6.534
 9557SOL     OW29569   4.924   0.757   1.802
 9557SOL    HW129570   4.858   0.739   1.875
 9557SOL    HW229571   5.017   0.736   1.834
 9558SOL     OW29572   4.741   6.996   6.923
 9558SOL    HW129573   4.663   7.009   6.862
 9558SOL    HW229574   4.778   6.904   6.910
 9559SOL     OW29575   1.756   4.347   0.023
 9559SOL    HW129576   1.750   4.259   0.068
 9559SOL    HW229577   1.805   4.412   0.082
 9560SOL     OW29578   3.279   6.891   2.360
 9560SOL    HW129579   3.287   6.951   2.281
 9560SOL    HW229580   3.253   6.945   2.441
 9561SOL     OW29581   0.870   0.527   0.390
 9561SOL    HW129582   0.926   0.445   0.402
 9561SOL    HW229583   0.921   0.607   0.421
 9562SOL     OW29584   2.709   6.185   2.812
 9562SOL    HW129585   2.674   6.091   2.819
 9562SOL    HW229586   2.665   6.242   2.881
 9563SOL     OW29587   0.362   6.029   0.149
 9563SOL    HW129588   0.317   5.953   0.197
 9563SOL    HW229589   0.295   6.100   0.129
 9564SOL     OW29590   1.380   0.602   0.044
 9564SOL    HW129591   1.384   0.536   6.988
 9564SOL    HW229592   1.472   0.618   0.080
 9565SOL     OW29593   3.249   1.814   4.111
 9565SOL    HW129594   3.291   1.895   4.153
 9565SOL    HW229595   3.168   1.788   4.163
 9566SOL     OW29596   3.259   0.624   6.756
 9566SOL    HW129597   3.301   0.710   6.727
 9566SOL    HW229598   3.218   0.579   6.677
 9567SOL     OW29599   0.047   3.634   1.202
 9567SOL    HW129600   0.056   3.574   1.123
 9567SOL    HW229601   0.125   3.621   1.264
 9568SOL     OW29602   5.018   1.426   6.861
 9568SOL    HW129603   5.055   1.338   6.830
 9568SOL    HW229604   4.926   1.413   6.896
 9569SOL     OW29605   5.768   0.854   2.013
 9569SOL    HW129606   5.766   0.757   2.040
 9569SOL    HW229607   5.862   0.887   2.014
 9570SOL     OW29608   0.414   2.979   1.774
 9570SOL    HW129609   0.335   3.015   1.824
 9570SOL    HW229610   0.498   3.013   1.817
 9571SOL     OW29611   1.765   2.303   6.672
 9571SOL    HW129612   1.750   2.305   6.771
 9571SOL    HW229613   1.695   2.246   6.628
 9572SOL     OW29614   2.318   4.185   3.840
 9572SOL    HW129615   2.296   4.124   3.764
 9572SOL    HW229616   2.296   4.141   3.926
 9573SOL     OW29617   6.543   0.734   4.539
 9573SOL    HW129618   6.483   0.680   4.598
 9573SOL    HW229619   6.497   0.819   4.514
 9574SOL     OW29620   3.434   3.341   1.075
 9574SOL    HW129621   3.464   3.250   1.048
 9574SOL    HW229622   3.334   3.342   1.085
 9575SOL     OW29623   6.124   6.472   1.360
 9575SOL    HW129624   6.030   6.477   1.325
 9575SOL    HW229625   6.169   6.391   1.324
 9576SOL     OW29626   1.139   6.783   6.745
 9576SOL    HW129627   1.047   6.755   6.720
 9576SOL    HW229628   1.204   6.710   6.721
 9577SOL     OW29629   6.217   5.019   2.296
 9577SOL    HW129630   6.192   5.111   2.266
 9577SOL    HW229631   6.247   5.022   2.392
 9578SOL     OW29632   2.139   3.211   2.630
 9578SOL    HW129633   2.113   3.307   2.622
 9578SOL    HW229634   2.167   3.192   2.724
 9579SOL     OW29635   6.108   5.631   1.884
 9579SOL    HW129636   6.023   5.647   1.933
 9579SOL    HW229637   6.152   5.719   1.864
 9580SOL     OW29638   5.341   4.518   3.004
 9580SOL    HW129639   5.254   4.538   3.051
 9580SOL    HW229640   5.341   4.423   2.973
 9581SOL     OW29641   6.097   0.990   0.256
 9581SOL    HW129642   6.043   0.971   0.174
 9581SOL    HW229643   6.154   1.071   0.240
 9582SOL     OW29644   4.588   6.366   4.419
 9582SOL    HW129645   4.686   6.352   4.427
 9582SOL    HW229646   4.540   6.285   4.454
 9583SOL     OW29647   3.850   4.597   1.645
 9583SOL    HW129648   3.756   4.584   1.676
 9583SOL    HW229649   3.869   4.537   1.567
 9584SOL     OW29650   2.573   5.246   4.378
 9584SOL    HW129651   2.636   5.301   4.433
 9584SOL    HW229652   2.526   5.305   4.312
 9585SOL     OW29653   4.409   5.701   1.102
 9585SOL    HW129654   4.311   5.713   1.086
 9585SOL    HW229655   4.432   5.736   1.193
 9586SOL     OW29656   4.089   4.734   2.994
 9586SOL    HW129657   3.996   4.757   3.023
 9586SOL    HW229658   4.095   4.742   2.894
 9587SOL     OW29659   2.821   5.381   1.796
 9587SOL    HW129660   2.808   5.293   1.841
 9587SOL    HW229661   2.795   5.455   1.858
 9588SOL     OW29662   6.761   5.055   0.448
 9588SOL    HW129663   6.762   4.955   0.450
 9588SOL    HW229664   6.670   5.088   0.475
 9589SOL     OW29665   1.710   3.588   6.470
 9589SOL    HW129666   1.682   3.681   6.493
 9589SOL    HW229667   1.636   3.524   6.494
 9590SOL     OW29668   5.871   1.059   0.945
 9590SOL    HW129669   5.841   1.141   0.994
 9590SOL    HW229670   5.971   1.058   0.942
 9591SOL     OW29671   4.075   0.760   0.237
 9591SOL    HW129672   4.171   0.746   0.216
 9591SOL    HW229673   4.066   0.803   0.327
 9592SOL     OW29674   2.306   6.160   5.727
 9592SOL    HW129675   2.279   6.207   5.811
 9592SOL    HW229676   2.230   6.163   5.661
 9593SOL     OW29677   1.549   1.282   4.018
 9593SOL    HW129678   1.480   1.287   4.090
 9593SOL    HW229679   1.633   1.243   4.055
 9594SOL     OW29680   0.112   6.833   4.008
 9594SOL    HW129681   0.205   6.845   4.044
 9594SOL    HW229682   0.106   6.745   3.960
 9595SOL     OW29683   0.436   3.363   3.277
 9595SOL    HW129684   0.480   3.349   3.366
 9595SOL    HW229685   0.375   3.442   3.283
 9596SOL     OW29686   0.515   6.899   0.989
 9596SOL    HW129687   0.438   6.913   1.051
 9596SOL    HW229688   0.599   6.928   1.035
 9597SOL     OW29689   0.954   3.004   2.604
 9597SOL    HW129690   0.926   3.099   2.586
 9597SOL    HW229691   0.983   2.961   2.519
 9598SOL     OW29692   1.775   3.632   3.814
 9598SOL    HW129693   1.834   3.663   3.739
 9598SOL    HW229694   1.796   3.684   3.897
 9599SOL     OW29695   4.265   6.682   3.497
 9599SOL    HW129696   4.185   6.624   3.514
 9599SOL    HW229697   4.267   6.756   3.563
 9600SOL     OW29698   2.969   0.627   1.790
 9600SOL    HW129699   3.059   0.593   1.761
 9600SOL    HW229700   2.969   0.639   1.889
 9601SOL     OW29701   0.531   3.794   1.260
 9601SOL    HW129702   0.560   3.767   1.352
 9601SOL    HW229703   0.611   3.805   1.201
 9602SOL     OW29704   4.451   5.081   5.397
 9602SOL    HW129705   4.450   5.115   5.491
 9602SOL    HW229706   4.358   5.060   5.368
 9603SOL     OW29707   4.973   5.429   4.877
 9603SOL    HW129708   5.051   5.482   4.845
 9603SOL    HW229709   5.004   5.359   4.941
 9604SOL     OW29710   5.204   6.588   0.128
 9604SOL    HW129711   5.262   6.667   0.110
 9604SOL    HW229712   5.210   6.524   0.051
 9605SOL     OW29713   6.518   6.224   2.632
 9605SOL    HW129714   6.421   6.212   2.607
 9605SOL    HW229715   6.531   6.195   2.727
 9606SOL     OW29716   1.514   1.567   6.450
 9606SOL    HW129717   1.528   1.665   6.443
 9606SOL    HW229718   1.431   1.548   6.503
 9607SOL     OW29719   3.232   2.762   6.057
 9607SOL    HW129720   3.284   2.847   6.062
 9607SOL    HW229721   3.294   2.686   6.039
 9608SOL     OW29722   6.537   3.354   3.890
 9608SOL    HW129723   6.488   3.440   3.880
 9608SOL    HW229724   6.473   3.282   3.918
 9609SOL     OW29725   4.540   3.201   6.547
 9609SOL    HW129726   4.615   3.147   6.586
 9609SOL    HW229727   4.457   3.147   6.546
 9610SOL     OW29728   1.182   4.378   3.319
 9610SOL    HW129729   1.276   4.402   3.293
 9610SOL    HW229730   1.185   4.311   3.393
 9611SOL     OW29731   1.827   0.182   0.321
 9611SOL    HW129732   1.914   0.198   0.367
 9611SOL    HW229733   1.814   0.083   0.308
 9612SOL     OW29734   6.762   2.922   3.550
 9612SOL    HW129735   6.763   2.920   3.450
 9612SOL    HW229736   6.793   2.834   3.586
 9613SOL     OW29737   5.901   5.566   3.611
 9613SOL    HW129738   5.918   5.474   3.574
 9613SOL    HW229739   5.812   5.568   3.655
 9614SOL     OW29740   4.633   2.480   3.647
 9614SOL    HW129741   4.664   2.533   3.567
 9614SOL    HW229742   4.619   2.542   3.724
 9615SOL     OW29743   2.500   3.758   1.061
 9615SOL    HW129744   2.483   3.821   0.986
 9615SOL    HW229745   2.574   3.793   1.119
 9616SOL     OW29746   4.343   3.392   0.150
 9616SOL    HW129747   4.376   3.304   0.184
 9616SOL    HW229748   4.267   3.377   0.086
 9617SOL     OW29749   2.214   2.097   3.874
 9617SOL    HW129750   2.147   2.064   3.940
 9617SOL    HW229751   2.221   2.196   3.880
 9618SOL     OW29752   2.994   1.433   0.999
 9618SOL    HW129753   3.024   1.461   1.090
 9618SOL    HW229754   3.033   1.494   0.930
 9619SOL     OW29755   2.944   1.127   4.811
 9619SOL    HW129756   3.036   1.167   4.814
 9619SOL    HW229757   2.880   1.186   4.859
 9620SOL     OW29758   6.027   0.896   5.874
 9620SOL    HW129759   5.956   0.847   5.823
 9620SOL    HW229760   6.055   0.976   5.821
 9621SOL     OW29761   1.767   2.714   3.243
 9621SOL    HW129762   1.772   2.730   3.144
 9621SOL    HW229763   1.800   2.622   3.263
 9622SOL     OW29764   5.480   0.050   1.343
 9622SOL    HW129765   5.563   0.027   1.394
 9622SOL    HW229766   5.502   0.060   1.246
 9623SOL     OW29767   2.539   3.791   6.486
 9623SOL    HW129768   2.469   3.729   6.521
 9623SOL    HW229769   2.628   3.744   6.487
 9624SOL     OW29770   6.430   3.514   3.591
 9624SOL    HW129771   6.514   3.535   3.541
 9624SOL    HW229772   6.437   3.422   3.630
 9625SOL     OW29773   6.228   6.044   0.459
 9625SOL    HW129774   6.146   6.086   0.419
 9625SOL    HW229775   6.298   6.035   0.389
 9626SOL     OW29776   2.981   6.509   6.661
 9626SOL    HW129777   2.923   6.546   6.588
 9626SOL    HW229778   2.936   6.430   6.702
 9627SOL     OW29779   1.366   6.617   6.684
 9627SOL    HW129780   1.390   6.547   6.617
 9627SOL    HW229781   1.429   6.694   6.675
 9628SOL     OW29782   4.070   6.180   2.160
 9628SOL    HW129783   4.042   6.271   2.129
 9628SOL    HW229784   4.076   6.178   2.260
 9629SOL     OW29785   2.573   6.616   0.903
 9629SOL    HW129786   2.495   6.554   0.910
 9629SOL    HW229787   2.618   6.624   0.992
 9630SOL     OW29788   6.616   0.635   6.208
 9630SOL    HW129789   6.540   0.577   6.178
 9630SOL    HW229790   6.669   0.664   6.128
 9631SOL     OW29791   6.035   6.195   0.353
 9631SOL    HW129792   6.044   6.287   0.315
 9631SOL    HW229793   5.951   6.190   0.408
 9632SOL     OW29794   1.672   6.142   2.057
 9632SOL    HW129795   1.616   6.067   2.020
 9632SOL    HW229796   1.650   6.155   2.154
 9633SOL     OW29797   6.803   5.282   6.379
 9633SOL    HW129798   6.790   5.375   6.413
 9633SOL    HW229799   6.900   5.268   6.358
 9634SOL     OW29800   0.878   5.811   4.928
 9634SOL    HW129801   0.941   5.746   4.887
 9634SOL    HW229802   0.842   5.774   5.013
 9635SOL     OW29803   1.670   5.209   5.550
 9635SOL    HW129804   1.657   5.212   5.451
 9635SOL    HW229805   1.755   5.161   5.571
 9636SOL     OW29806   4.174   1.540   6.606
 9636SOL    HW129807   4.220   1.513   6.691
 9636SOL    HW229808   4.228   1.510   6.528
 9637SOL     OW29809   2.274   1.067   0.229
 9637SOL    HW129810   2.269   1.034   0.135
 9637SOL    HW229811   2.181   1.080   0.264
 9638SOL     OW29812   6.795   2.110   5.617
 9638SOL    HW129813   6.781   2.090   5.714
 9638SOL    HW229814   6.724   2.064   5.563
 9639SOL     OW29815   4.083   0.776   2.760
 9639SOL    HW129816   4.182   0.761   2.755
 9639SOL    HW229817   4.058   0.801   2.854
 9640SOL     OW29818   1.998   2.721   2.289
 9640SOL    HW129819   1.921   2.760   2.237
 9640SOL    HW229820   2.077   2.782   2.282
 9641SOL     OW29821   6.284   5.696   0.200
 9641SOL    HW129822   6.267   5.750   0.283
 9641SOL    HW229823   6.245   5.604   0.212
 9642SOL     OW29824   3.304   0.228   4.161
 9642SOL    HW129825   3.380   0.170   4.191
 9642SOL    HW229826   3.217   0.188   4.191
 9643SOL     OW29827   4.201   4.673   3.366
 9643SOL    HW129828   4.126   4.623   3.411
 9643SOL    HW229829   4.213   4.761   3.411
 9644SOL     OW29830   2.460   1.945   6.828
 9644SOL    HW129831   2.419   2.035   6.814
 9644SOL    HW229832   2.490   1.937   6.923
 9645SOL     OW29833   2.886   5.311   5.144
 9645SOL    HW129834   2.914   5.246   5.215
 9645SOL    HW229835   2.816   5.270   5.087
 9646SOL     OW29836   4.122   5.332   3.389
 9646SOL    HW129837   4.118   5.411   3.451
 9646SOL    HW229838   4.181   5.353   3.312
 9647SOL     OW29839   6.915   2.794   0.161
 9647SOL    HW129840   6.909   2.883   0.116
 9647SOL    HW229841   6.869   2.725   0.105
 9648SOL     OW29842   4.425   3.705   0.956
 9648SOL    HW129843   4.468   3.630   0.906
 9648SOL    HW229844   4.390   3.672   1.043
 9649SOL     OW29845   2.154   5.643   0.596
 9649SOL    HW129846   2.245   5.611   0.620
 9649SOL    HW229847   2.091   5.621   0.671
 9650SOL     OW29848   7.013   6.983   2.149
 9650SOL    HW129849   0.077   7.008   2.098
 9650SOL    HW229850   7.008   0.020   2.232
 9651SOL     OW29851   0.347   1.886   5.165
 9651SOL    HW129852   0.342   1.983   5.144
 9651SOL    HW229853   0.291   1.834   5.099
 9652SOL     OW29854   0.290   5.455   2.546
 9652SOL    HW129855   0.302   5.445   2.447
 9652SOL    HW229856   0.378   5.480   2.587
 9653SOL     OW29857   6.296   5.384   4.092
 9653SOL    HW129858   6.267   5.413   4.183
 9653SOL    HW229859   6.394   5.402   4.081
 9654SOL     OW29860   2.185   2.912   2.208
 9654SOL    HW129861   2.261   2.873   2.157
 9654SOL    HW229862   2.220   2.975   2.277
 9655SOL     OW29863   5.960   2.314   6.866
 9655SOL    HW129864   5.979   2.216   6.865
 9655SOL    HW229865   6.046   2.365   6.863
 9656SOL     OW29866   3.760   0.709   2.794
 9656SOL    HW129867   3.812   0.657   2.725
 9656SOL    HW229868   3.818   0.781   2.832
 9657SOL     OW29869   0.357   0.338   5.101
 9657SOL    HW129870   0.263   0.364   5.122
 9657SOL    HW229871   0.385   0.262   5.159
 9658SOL     OW29872   5.672   2.387   2.862
 9658SOL    HW129873   5.771   2.373   2.864
 9658SOL    HW229874   5.632   2.350   2.946
 9659SOL     OW29875   0.720   5.253   0.044
 9659SOL    HW129876   0.645   5.189   0.062
 9659SOL    HW229877   0.688   5.346   0.058
 9660SOL     OW29878   0.464   5.180   0.759
 9660SOL    HW129879   0.420   5.103   0.713
 9660SOL    HW229880   0.394   5.240   0.798
 9661SOL     OW29881   4.560   6.309   0.943
 9661SOL    HW129882   4.609   6.364   1.010
 9661SOL    HW229883   4.462   6.326   0.950
 9662SOL     OW29884   4.937   0.839   4.709
 9662SOL    HW129885   4.983   0.820   4.622
 9662SOL    HW229886   5.003   0.833   4.783
 9663SOL     OW29887   2.175   5.942   3.340
 9663SOL    HW129888   2.199   6.038   3.352
 9663SOL    HW229889   2.250   5.884   3.371
 9664SOL     OW29890   2.424   5.658   1.585
 9664SOL    HW129891   2.371   5.664   1.670
 9664SOL    HW229892   2.491   5.733   1.582
 9665SOL     OW29893   5.380   4.131   4.080
 9665SOL    HW129894   5.409   4.113   4.174
 9665SOL    HW229895   5.387   4.046   4.026
 9666SOL     OW29896   5.680   4.769   4.679
 9666SOL    HW129897   5.709   4.675   4.700
 9666SOL    HW229898   5.583   4.779   4.700
 9667SOL     OW29899   3.873   4.024   3.455
 9667SOL    HW129900   3.942   3.962   3.491
 9667SOL    HW229901   3.864   4.011   3.357
 9668SOL     OW29902   0.484   1.362   4.923
 9668SOL    HW129903   0.498   1.267   4.951
 9668SOL    HW229904   0.416   1.405   4.983
 9669SOL     OW29905   1.966   6.034   0.255
 9669SOL    HW129906   1.914   5.953   0.231
 9669SOL    HW229907   2.002   6.025   0.348
 9670SOL     OW29908   6.107   4.652   6.406
 9670SOL    HW129909   6.205   4.673   6.405
 9670SOL    HW229910   6.078   4.624   6.315
 9671SOL     OW29911   0.419   0.142   0.009
 9671SOL    HW129912   0.336   0.189   0.039
 9671SOL    HW229913   0.462   0.097   0.087
 9672SOL     OW29914   1.040   6.231   4.872
 9672SOL    HW129915   1.122   6.257   4.821
 9672SOL    HW229916   0.967   6.208   4.807
 9673SOL     OW29917   2.436   2.418   6.532
 9673SOL    HW129918   2.353   2.467   6.506
 9673SOL    HW229919   2.487   2.392   6.450
 9674SOL     OW29920   2.759   6.945   2.108
 9674SOL    HW129921   2.833   6.972   2.169
 9674SOL    HW229922   2.789   6.869   2.051
 9675SOL     OW29923   0.207   3.150   1.856
 9675SOL    HW129924   0.108   3.150   1.869
 9675SOL    HW229925   0.239   3.243   1.836
 9676SOL     OW29926   0.194   3.581   4.786
 9676SOL    HW129927   0.258   3.581   4.863
 9676SOL    HW229928   0.205   3.665   4.734
 9677SOL     OW29929   2.095   3.453   4.760
 9677SOL    HW129930   2.001   3.477   4.785
 9677SOL    HW229931   2.152   3.454   4.842
 9678SOL     OW29932   4.129   3.394   3.166
 9678SOL    HW129933   4.117   3.339   3.248
 9678SOL    HW229934   4.185   3.344   3.100
 9679SOL     OW29935   1.164   3.325   0.995
 9679SOL    HW129936   1.174   3.411   0.946
 9679SOL    HW229937   1.107   3.263   0.942
 9680SOL     OW29938   5.564   5.127   3.194
 9680SOL    HW129939   5.575   5.105   3.291
 9680SOL    HW229940   5.639   5.186   3.164
 9681SOL     OW29941   0.968   1.235   3.999
 9681SOL    HW129942   0.882   1.186   4.011
 9681SOL    HW229943   0.953   1.317   3.944
 9682SOL     OW29944   0.035   4.724   3.092
 9682SOL    HW129945   6.966   4.693   3.055
 9682SOL    HW229946   0.110   4.677   3.044
 9683SOL     OW29947   4.415   6.425   5.892
 9683SOL    HW129948   4.383   6.520   5.886
 9683SOL    HW229949   4.506   6.418   5.851
 9684SOL     OW29950   0.835   4.311   3.635
 9684SOL    HW129951   0.856   4.256   3.715
 9684SOL    HW229952   0.779   4.389   3.662
 9685SOL     OW29953   1.934   2.063   0.233
 9685SOL    HW129954   1.929   2.120   0.316
 9685SOL    HW229955   1.845   2.022   0.215
 9686SOL     OW29956   5.585   0.711   1.862
 9686SOL    HW129957   5.514   0.770   1.824
 9686SOL    HW229958   5.667   0.765   1.879
 9687SOL     OW29959   3.452   0.437   3.778
 9687SOL    HW129960   3.383   0.506   3.801
 9687SOL    HW229961   3.444   0.413   3.681
 9688SOL     OW29962   6.683   1.903   3.759
 9688SOL    HW129963   6.777   1.891   3.792
 9688SOL    HW229964   6.658   1.825   3.702
 9689SOL     OW29965   1.976   5.892   5.975
 9689SOL    HW129966   1.997   5.865   5.881
 9689SOL    HW229967   2.031   5.839   6.039
 9690SOL     OW29968   6.055   4.179   0.743
 9690SOL    HW129969   6.088   4.219   0.829
 9690SOL    HW229970   5.967   4.219   0.720
 9691SOL     OW29971   1.513   4.292   1.613
 9691SOL    HW129972   1.473   4.357   1.548
 9691SOL    HW229973   1.485   4.316   1.706
 9692SOL     OW29974   2.257   5.686   1.362
 9692SOL    HW129975   2.275   5.764   1.303
 9692SOL    HW229976   2.336   5.669   1.422
 9693SOL     OW29977   5.960   5.461   1.717
 9693SOL    HW129978   6.025   5.509   1.775
 9693SOL    HW229979   5.988   5.468   1.621
 9694SOL     OW29980   2.320   2.234   0.138
 9694SOL    HW129981   2.249   2.295   0.172
 9694SOL    HW229982   2.405   2.285   0.125
 9695SOL     OW29983   5.957   4.122   1.391
 9695SOL    HW129984   5.877   4.062   1.399
 9695SOL    HW229985   6.017   4.088   1.318
 9696SOL     OW29986   3.647   3.923   0.963
 9696SOL    HW129987   3.608   3.941   1.053
 9696SOL    HW229988   3.736   3.877   0.974
 9697SOL     OW29989   0.683   5.970   6.865
 9697SOL    HW129990   0.731   6.006   6.785
 9697SOL    HW229991   0.585   5.985   6.855
 9698SOL     OW29992   5.607   1.794   5.343
 9698SOL    HW129993   5.637   1.746   5.425
 9698SOL    HW229994   5.558   1.730   5.283
 9699SOL     OW29995   2.145   3.113   0.517
 9699SOL    HW129996   2.081   3.147   0.448
 9699SOL    HW229997   2.127   3.017   0.534
 9700SOL     OW29998   2.962   3.813   4.126
 9700SOL    HW129999   2.923   3.776   4.210
 9700SOL    HW230000   3.020   3.891   4.148
 9701SOL     OW30001   5.256   3.859   5.193
 9701SOL    HW130002   5.267   3.818   5.283
 9701SOL    HW230003   5.250   3.787   5.124
 9702SOL     OW30004   4.116   0.644   1.014
 9702SOL    HW130005   4.023   0.676   1.028
 9702SOL    HW230006   4.175   0.722   0.992
 9703SOL     OW30007   3.032   6.365   4.251
 9703SOL    HW130008   3.052   6.333   4.159
 9703SOL    HW230009   3.104   6.334   4.314
 9704SOL     OW30010   2.445   0.606   3.592
 9704SOL    HW130011   2.407   0.587   3.501
 9704SOL    HW230012   2.522   0.669   3.582
 9705SOL     OW30013   3.473   3.959   0.729
 9705SOL    HW130014   3.539   3.976   0.656
 9705SOL    HW230015   3.521   3.953   0.816
 9706SOL     OW30016   5.779   2.657   2.746
 9706SOL    HW130017   5.791   2.590   2.673
 9706SOL    HW230018   5.742   2.611   2.827
 9707SOL     OW30019   2.868   5.088   3.156
 9707SOL    HW130020   2.776   5.072   3.193
 9707SOL    HW230021   2.920   5.003   3.156
 9708SOL     OW30022   2.205   1.939   2.508
 9708SOL    HW130023   2.191   2.037   2.524
 9708SOL    HW230024   2.141   1.908   2.438
 9709SOL     OW30025   1.853   4.847   2.925
 9709SOL    HW130026   1.808   4.766   2.887
 9709SOL    HW230027   1.936   4.866   2.873
 9710SOL     OW30028   0.013   0.606   3.782
 9710SOL    HW130029   0.051   0.565   3.865
 9710SOL    HW230030   0.025   0.705   3.785
 9711SOL     OW30031   1.620   4.031   5.835
 9711SOL    HW130032   1.535   4.019   5.783
 9711SOL    HW230033   1.689   4.075   5.777
 9712SOL     OW30034   4.589   2.686   4.613
 9712SOL    HW130035   4.626   2.715   4.702
 9712SOL    HW230036   4.551   2.594   4.622
 9713SOL     OW30037   6.817   5.089   2.024
 9713SOL    HW130038   6.873   5.026   1.970
 9713SOL    HW230039   6.867   5.114   2.107
 9714SOL     OW30040   1.479   2.500   1.928
 9714SOL    HW130041   1.533   2.578   1.957
 9714SOL    HW230042   1.507   2.419   1.980
 9715SOL     OW30043   5.542   5.375   4.672
 9715SOL    HW130044   5.466   5.375   4.607
 9715SOL    HW230045   5.514   5.328   4.756
 9716SOL     OW30046   4.133   2.317   6.803
 9716SOL    HW130047   4.133   2.342   6.706
 9716SOL    HW230048   4.130   2.400   6.859
 9717SOL     OW30049   5.949   4.642   3.110
 9717SOL    HW130050   5.891   4.719   3.082
 9717SOL    HW230051   5.964   4.581   3.033
 9718SOL     OW30052   4.336   3.427   1.731
 9718SOL    HW130053   4.426   3.450   1.696
 9718SOL    HW230054   4.277   3.508   1.732
 9719SOL     OW30055   0.647   1.640   0.498
 9719SOL    HW130056   0.737   1.684   0.487
 9719SOL    HW230057   0.585   1.702   0.545
 9720SOL     OW30058   0.558   0.213   1.285
 9720SOL    HW130059   0.582   0.140   1.350
 9720SOL    HW230060   0.577   0.302   1.327
 9721SOL     OW30061   6.704   3.225   2.929
 9721SOL    HW130062   6.716   3.230   2.830
 9721SOL    HW230063   6.736   3.310   2.970
 9722SOL     OW30064   6.775   0.577   4.257
 9722SOL    HW130065   6.687   0.624   4.247
 9722SOL    HW230066   6.761   0.491   4.305
 9723SOL     OW30067   6.770   1.421   3.526
 9723SOL    HW130068   6.762   1.322   3.541
 9723SOL    HW230069   6.681   1.458   3.500
 9724SOL     OW30070   4.035   2.973   1.264
 9724SOL    HW130071   3.994   2.936   1.348
 9724SOL    HW230072   4.038   3.072   1.270
 9725SOL     OW30073   4.232   3.260   5.858
 9725SOL    HW130074   4.299   3.226   5.793
 9725SOL    HW230075   4.276   3.276   5.946
 9726SOL     OW30076   5.527   5.633   4.863
 9726SOL    HW130077   5.520   5.553   4.802
 9726SOL    HW230078   5.438   5.677   4.869
 9727SOL     OW30079   1.374   2.030   6.272
 9727SOL    HW130080   1.328   2.056   6.186
 9727SOL    HW230081   1.424   2.109   6.307
 9728SOL     OW30082   3.161   5.689   0.044
 9728SOL    HW130083   3.098   5.711   6.988
 9728SOL    HW230084   3.111   5.646   0.119
 9729SOL     OW30085   2.979   5.446   2.554
 9729SOL    HW130086   3.053   5.513   2.560
 9729SOL    HW230087   2.975   5.409   2.461
 9730SOL     OW30088   6.177   3.779   2.965
 9730SOL    HW130089   6.110   3.853   2.955
 9730SOL    HW230090   6.255   3.797   2.906
 9731SOL     OW30091   4.969   5.354   1.341
 9731SOL    HW130092   4.918   5.437   1.317
 9731SOL    HW230093   5.047   5.344   1.279
 9732SOL     OW30094   6.510   5.446   3.330
 9732SOL    HW130095   6.514   5.503   3.412
 9732SOL    HW230096   6.524   5.503   3.249
 9733SOL     OW30097   5.315   4.326   6.497
 9733SOL    HW130098   5.389   4.260   6.485
 9733SOL    HW230099   5.233   4.279   6.529
 9734SOL     OW30100   5.014   2.388   4.746
 9734SOL    HW130101   5.005   2.300   4.792
 9734SOL    HW230102   5.088   2.384   4.680
 9735SOL     OW30103   1.959   3.915   0.174
 9735SOL    HW130104   1.966   3.829   0.123
 9735SOL    HW230105   1.963   3.896   0.272
 9736SOL     OW30106   3.620   1.254   1.300
 9736SOL    HW130107   3.661   1.293   1.383
 9736SOL    HW230108   3.561   1.177   1.325
 9737SOL     OW30109   4.087   2.142   5.113
 9737SOL    HW130110   4.152   2.070   5.091
 9737SOL    HW230111   4.114   2.227   5.067
 9738SOL     OW30112   1.974   0.508   2.223
 9738SOL    HW130113   1.896   0.554   2.180
 9738SOL    HW230114   2.005   0.560   2.303
 9739SOL     OW30115   5.357   5.138   2.063
 9739SOL    HW130116   5.416   5.188   2.125
 9739SOL    HW230117   5.412   5.085   1.998
 9740SOL     OW30118   6.676   3.612   3.522
 9740SOL    HW130119   6.699   3.650   3.432
 9740SOL    HW230120   6.754   3.561   3.558
 9741SOL     OW30121   3.879   1.766   1.732
 9741SOL    HW130122   3.788   1.803   1.711
 9741SOL    HW230123   3.871   1.695   1.802
 9742SOL     OW30124   4.550   1.554   4.144
 9742SOL    HW130125   4.591   1.597   4.063
 9742SOL    HW230126   4.451   1.560   4.137
 9743SOL     OW30127   1.739   2.286   5.479
 9743SOL    HW130128   1.700   2.197   5.459
 9743SOL    HW230129   1.778   2.286   5.571
 9744SOL     OW30130   2.111   0.505   1.798
 9744SOL    HW130131   2.175   0.455   1.739
 9744SOL    HW230132   2.072   0.581   1.747
 9745SOL     OW30133   6.918   1.803   4.751
 9745SOL    HW130134   6.859   1.765   4.822
 9745SOL    HW230135   6.870   1.798   4.663
 9746SOL     OW30136   5.930   1.159   4.133
 9746SOL    HW130137   5.995   1.191   4.201
 9746SOL    HW230138   5.973   1.091   4.074
 9747SOL     OW30139   0.685   7.008   0.043
 9747SOL    HW130140   0.626   0.021   6.986
 9747SOL    HW230141   0.772   6.975   0.006
 9748SOL     OW30142   0.581   5.157   4.210
 9748SOL    HW130143   0.550   5.232   4.152
 9748SOL    HW230144   0.502   5.108   4.247
 9749SOL     OW30145   0.848   4.118   4.123
 9749SOL    HW130146   0.810   4.184   4.188
 9749SOL    HW230147   0.799   4.031   4.132
 9750SOL     OW30148   3.588   5.269   3.041
 9750SOL    HW130149   3.539   5.207   3.102
 9750SOL    HW230150   3.535   5.282   2.957
 9751SOL     OW30151   1.897   2.534   0.373
 9751SOL    HW130152   1.818   2.595   0.380
 9751SOL    HW230153   1.977   2.578   0.413
 9752SOL     OW30154   3.465   1.785   6.322
 9752SOL    HW130155   3.558   1.802   6.353
 9752SOL    HW230156   3.462   1.702   6.267
 9753SOL     OW30157   6.835   6.156   5.205
 9753SOL    HW130158   6.755   6.139   5.147
 9753SOL    HW230159   6.865   6.250   5.194
 9754SOL     OW30160   6.907   2.297   6.986
 9754SOL    HW130161   6.964   2.302   0.050
 9754SOL    HW230162   6.961   2.262   6.910
 9755SOL     OW30163   4.196   4.713   5.245
 9755SOL    HW130164   4.210   4.627   5.197
 9755SOL    HW230165   4.283   4.744   5.283
 9756SOL     OW30166   5.251   2.302   6.017
 9756SOL    HW130167   5.342   2.280   6.051
 9756SOL    HW230168   5.260   2.348   5.928
 9757SOL     OW30169   5.933   2.214   3.562
 9757SOL    HW130170   6.029   2.196   3.540
 9757SOL    HW230171   5.874   2.162   3.501
 9758SOL     OW30172   2.861   0.857   6.982
 9758SOL    HW130173   2.845   0.949   6.946
 9758SOL    HW230174   2.911   0.803   6.914
 9759SOL     OW30175   2.845   5.792   1.269
 9759SOL    HW130176   2.864   5.755   1.360
 9759SOL    HW230177   2.757   5.838   1.269
 9760SOL     OW30178   5.627   4.755   6.097
 9760SOL    HW130179   5.622   4.656   6.090
 9760SOL    HW230180   5.538   4.792   6.124
 9761SOL     OW30181   5.307   6.098   2.635
 9761SOL    HW130182   5.271   6.079   2.726
 9761SOL    HW230183   5.378   6.032   2.612
 9762SOL     OW30184   2.699   1.306   3.354
 9762SOL    HW130185   2.673   1.380   3.417
 9762SOL    HW230186   2.639   1.308   3.274
 9763SOL     OW30187   1.613   1.676   1.883
 9763SOL    HW130188   1.632   1.683   1.981
 9763SOL    HW230189   1.584   1.765   1.849
 9764SOL     OW30190   0.918   2.789   1.854
 9764SOL    HW130191   0.942   2.803   1.758
 9764SOL    HW230192   0.851   2.715   1.861
 9765SOL     OW30193   6.839   1.500   5.209
 9765SOL    HW130194   6.918   1.548   5.170
 9765SOL    HW230195   6.869   1.448   5.289
 9766SOL     OW30196   2.738   0.052   2.654
 9766SOL    HW130197   2.790   0.137   2.645
 9766SOL    HW230198   2.656   0.057   2.597
 9767SOL     OW30199   5.182   0.488   5.328
 9767SOL    HW130200   5.260   0.481   5.389
 9767SOL    HW230201   5.213   0.504   5.234
 9768SOL     OW30202   5.030   2.279   3.660
 9768SOL    HW130203   5.041   2.324   3.571
 9768SOL    HW230204   5.066   2.339   3.731
 9769SOL     OW30205   0.486   1.508   1.805
 9769SOL    HW130206   0.488   1.436   1.875
 9769SOL    HW230207   0.524   1.593   1.844
 9770SOL     OW30208   6.443   4.505   6.029
 9770SOL    HW130209   6.456   4.491   6.128
 9770SOL    HW230210   6.526   4.479   5.980
 9771SOL     OW30211   3.106   5.132   4.142
 9771SOL    HW130212   3.177   5.064   4.124
 9771SOL    HW230213   3.148   5.218   4.171
 9772SOL     OW30214   6.348   0.465   1.464
 9772SOL    HW130215   6.405   0.538   1.501
 9772SOL    HW230216   6.396   0.419   1.390
 9773SOL     OW30217   5.352   5.381   3.304
 9773SOL    HW130218   5.396   5.345   3.387
 9773SOL    HW230219   5.375   5.322   3.227
 9774SOL     OW30220   6.895   4.764   3.409
 9774SOL    HW130221   6.827   4.832   3.382
 9774SOL    HW230222   6.939   4.793   3.495
 9775SOL     OW30223   2.858   2.230   5.044
 9775SOL    HW130224   2.813   2.278   5.119
 9775SOL    HW230225   2.946   2.274   5.025
 9776SOL     OW30226   0.299   4.731   4.584
 9776SOL    HW130227   0.232   4.782   4.637
 9776SOL    HW230228   0.391   4.754   4.617
 9777SOL     OW30229   5.664   5.170   6.345
 9777SOL    HW130230   5.618   5.258   6.330
 9777SOL    HW230231   5.686   5.160   6.442
 9778SOL     OW30232   4.028   0.683   3.597
 9778SOL    HW130233   3.944   0.659   3.549
 9778SOL    HW230234   4.064   0.603   3.644
 9779SOL     OW30235   2.821   1.987   6.411
 9779SOL    HW130236   2.730   2.002   6.371
 9779SOL    HW230237   2.891   2.000   6.341
 9780SOL     OW30238   3.423   4.206   0.594
 9780SOL    HW130239   3.457   4.127   0.644
 9780SOL    HW230240   3.448   4.290   0.644
 9781SOL     OW30241   1.677   6.244   4.141
 9781SOL    HW130242   1.703   6.149   4.157
 9781SOL    HW230243   1.590   6.263   4.188
 9782SOL     OW30244   6.112   0.582   1.392
 9782SOL    HW130245   6.196   0.531   1.411
 9782SOL    HW230246   6.116   0.620   1.300
 9783SOL     OW30247   5.993   1.439   3.024
 9783SOL    HW130248   6.092   1.438   3.009
 9783SOL    HW230249   5.948   1.387   2.951
 9784SOL     OW30250   5.358   0.741   4.368
 9784SOL    HW130251   5.371   0.709   4.274
 9784SOL    HW230252   5.406   0.680   4.431
 9785SOL     OW30253   0.723   2.964   0.763
 9785SOL    HW130254   0.649   2.960   0.830
 9785SOL    HW230255   0.685   2.964   0.671
 9786SOL     OW30256   2.021   0.163   5.154
 9786SOL    HW130257   2.021   0.074   5.108
 9786SOL    HW230258   1.937   0.174   5.206
 9787SOL     OW30259   5.866   4.513   1.727
 9787SOL    HW130260   5.814   4.432   1.755
 9787SOL    HW230261   5.961   4.503   1.757
 9788SOL     OW30262   0.195   1.131   5.120
 9788SOL    HW130263   0.123   1.186   5.076
 9788SOL    HW230264   0.179   1.034   5.102
 9789SOL     OW30265   1.280   5.777   4.447
 9789SOL    HW130266   1.216   5.827   4.506
 9789SOL    HW230267   1.261   5.679   4.454
 9790SOL     OW30268   6.798   1.550   3.937
 9790SOL    HW130269   6.850   1.468   3.963
 9790SOL    HW230270   6.764   1.595   4.020
 9791SOL     OW30271   1.061   2.622   1.427
 9791SOL    HW130272   1.119   2.573   1.492
 9791SOL    HW230273   1.105   2.623   1.337
 9792SOL     OW30274   4.149   5.666   2.033
 9792SOL    HW130275   4.174   5.752   2.077
 9792SOL    HW230276   4.231   5.612   2.017
 9793SOL     OW30277   5.294   6.354   2.622
 9793SOL    HW130278   5.217   6.374   2.684
 9793SOL    HW230279   5.301   6.255   2.609
 9794SOL     OW30280   2.897   3.461   6.692
 9794SOL    HW130281   2.890   3.361   6.699
 9794SOL    HW230282   2.980   3.491   6.739
 9795SOL     OW30283   2.602   4.649   4.036
 9795SOL    HW130284   2.552   4.736   4.033
 9795SOL    HW230285   2.648   4.641   4.125
 9796SOL     OW30286   3.827   4.669   0.499
 9796SOL    HW130287   3.848   4.698   0.593
 9796SOL    HW230288   3.827   4.749   0.439
 9797SOL     OW30289   4.669   2.732   4.888
 9797SOL    HW130290   4.649   2.829   4.901
 9797SOL    HW230291   4.769   2.720   4.882
 9798SOL     OW30292   2.176   1.928   1.631
 9798SOL    HW130293   2.184   1.846   1.574
 9798SOL    HW230294   2.189   1.902   1.727
 9799SOL     OW30295   3.078   3.378   1.927
 9799SOL    HW130296   3.139   3.431   1.869
 9799SOL    HW230297   3.113   3.284   1.936
 9800SOL     OW30298   3.548   5.227   0.131
 9800SOL    HW130299   3.620   5.266   0.073
 9800SOL    HW230300   3.549   5.127   0.123
 9801SOL     OW30301   4.769   5.269   7.015
 9801SOL    HW130302   4.719   5.299   6.933
 9801SOL    HW230303   4.846   5.212   6.987
 9802SOL     OW30304   0.934   4.835   1.629
 9802SOL    HW130305   1.020   4.810   1.674
 9802SOL    HW230306   0.889   4.908   1.681
 9803SOL     OW30307   5.042   0.199   6.309
 9803SOL    HW130308   5.070   0.198   6.405
 9803SOL    HW230309   4.956   0.248   6.300
 9804SOL     OW30310   5.733   5.277   4.172
 9804SOL    HW130311   5.826   5.273   4.208
 9804SOL    HW230312   5.714   5.370   4.141
 9805SOL     OW30313   3.317   4.392   1.672
 9805SOL    HW130314   3.397   4.340   1.703
 9805SOL    HW230315   3.329   4.417   1.576
 9806SOL     OW30316   6.713   1.905   2.435
 9806SOL    HW130317   6.804   1.876   2.405
 9806SOL    HW230318   6.689   1.857   2.519
 9807SOL     OW30319   3.343   2.719   0.715
 9807SOL    HW130320   3.330   2.675   0.627
 9807SOL    HW230321   3.277   2.682   0.781
 9808SOL     OW30322   2.083   2.111   4.849
 9808SOL    HW130323   2.032   2.026   4.864
 9808SOL    HW230324   2.041   2.184   4.901
 9809SOL     OW30325   0.627   0.447   4.424
 9809SOL    HW130326   0.566   0.516   4.464
 9809SOL    HW230327   0.721   0.481   4.428
 9810SOL     OW30328   4.318   1.263   3.251
 9810SOL    HW130329   4.257   1.315   3.192
 9810SOL    HW230330   4.368   1.196   3.198
 9811SOL     OW30331   0.921   0.279   2.711
 9811SOL    HW130332   0.890   0.347   2.777
 9811SOL    HW230333   0.983   0.321   2.645
 9812SOL     OW30334   5.365   2.660   5.456
 9812SOL    HW130335   5.429   2.586   5.470
 9812SOL    HW230336   5.403   2.745   5.493
 9813SOL     OW30337   6.422   4.326   1.024
 9813SOL    HW130338   6.495   4.352   1.087
 9813SOL    HW230339   6.448   4.352   0.931
 9814SOL     OW30340   6.628   0.978   5.668
 9814SOL    HW130341   6.727   0.981   5.686
 9814SOL    HW230342   6.602   0.884   5.644
 9815SOL     OW30343   7.016   3.824   2.658
 9815SOL    HW130344   0.011   3.847   2.755
 9815SOL    HW230345   0.037   3.734   2.640
 9816SOL     OW30346   6.075   0.806   6.171
 9816SOL    HW130347   6.113   0.887   6.216
 9816SOL    HW230348   6.019   0.834   6.093
 9817SOL     OW30349   2.391   0.673   0.505
 9817SOL    HW130350   2.459   0.720   0.448
 9817SOL    HW230351   2.380   0.723   0.591
 9818SOL     OW30352   0.614   0.077   3.239
 9818SOL    HW130353   0.577   0.169   3.246
 9818SOL    HW230354   0.542   0.014   3.209
 9819SOL     OW30355   6.907   2.359   4.334
 9819SOL    HW130356   6.886   2.389   4.241
 9819SOL    HW230357   7.001   2.384   4.357
 9820SOL     OW30358   3.501   2.585   6.320
 9820SOL    HW130359   3.553   2.517   6.372
 9820SOL    HW230360   3.456   2.648   6.382
 9821SOL     OW30361   3.813   2.841   1.092
 9821SOL    HW130362   3.900   2.837   1.142
 9821SOL    HW230363   3.738   2.852   1.157
 9822SOL     OW30364   3.483   5.639   4.292
 9822SOL    HW130365   3.446   5.546   4.294
 9822SOL    HW230366   3.438   5.693   4.363
 9823SOL     OW30367   3.734   6.446   3.455
 9823SOL    HW130368   3.672   6.383   3.502
 9823SOL    HW230369   3.716   6.443   3.357
 9824SOL     OW30370   0.747   5.803   5.883
 9824SOL    HW130371   0.775   5.786   5.789
 9824SOL    HW230372   0.736   5.902   5.897
 9825SOL     OW30373   0.069   6.426   5.219
 9825SOL    HW130374   0.084   6.388   5.127
 9825SOL    HW230375   0.101   6.361   5.288
 9826SOL     OW30376   1.634   5.582   5.383
 9826SOL    HW130377   1.726   5.543   5.387
 9826SOL    HW230378   1.594   5.582   5.474
 9827SOL     OW30379   2.112   4.474   1.927
 9827SOL    HW130380   2.137   4.400   1.865
 9827SOL    HW230381   2.065   4.437   2.007
 9828SOL     OW30382   4.223   1.904   5.071
 9828SOL    HW130383   4.195   1.861   5.157
 9828SOL    HW230384   4.321   1.890   5.057
 9829SOL     OW30385   5.223   4.972   5.279
 9829SOL    HW130386   5.148   5.034   5.299
 9829SOL    HW230387   5.311   5.017   5.297
 9830SOL     OW30388   5.456   1.774   3.809
 9830SOL    HW130389   5.396   1.787   3.887
 9830SOL    HW230390   5.454   1.855   3.750
 9831SOL     OW30391   0.535   4.550   1.873
 9831SOL    HW130392   0.553   4.576   1.968
 9831SOL    HW230393   0.618   4.512   1.833
 9832SOL     OW30394   4.615   5.695   4.319
 9832SOL    HW130395   4.708   5.663   4.305
 9832SOL    HW230396   4.611   5.753   4.400
 9833SOL     OW30397   4.107   3.294   4.464
 9833SOL    HW130398   4.204   3.272   4.474
 9833SOL    HW230399   4.096   3.387   4.428
 9834SOL     OW30400   3.018   6.073   5.635
 9834SOL    HW130401   2.985   6.099   5.726
 9834SOL    HW230402   3.019   5.973   5.627
 9835SOL     OW30403   3.872   4.024   3.758
 9835SOL    HW130404   3.792   3.964   3.759
 9835SOL    HW230405   3.899   4.043   3.664
 9836SOL     OW30406   6.747   3.290   5.654
 9836SOL    HW130407   6.680   3.343   5.706
 9836SOL    HW230408   6.839   3.324   5.674
 9837SOL     OW30409   5.690   1.501   3.313
 9837SOL    HW130410   5.666   1.573   3.248
 9837SOL    HW230411   5.649   1.414   3.282
 9838SOL     OW30412   0.748   6.022   0.968
 9838SOL    HW130413   0.843   6.026   0.998
 9838SOL    HW230414   0.694   5.974   1.037
 9839SOL     OW30415   4.876   6.730   3.841
 9839SOL    HW130416   4.880   6.667   3.919
 9839SOL    HW230417   4.832   6.684   3.764
 9840SOL     OW30418   6.635   1.750   6.396
 9840SOL    HW130419   6.731   1.735   6.420
 9840SOL    HW230420   6.620   1.722   6.301
 9841SOL     OW30421   7.003   6.114   2.573
 9841SOL    HW130422   6.907   6.137   2.562
 9841SOL    HW230423   0.021   6.158   2.655
 9842SOL     OW30424   3.577   0.108   6.971
 9842SOL    HW130425   3.513   0.185   6.966
 9842SOL    HW230426   3.526   0.023   6.983
 9843SOL     OW30427   0.129   0.664   1.571
 9843SOL    HW130428   0.152   0.761   1.574
 9843SOL    HW230429   0.105   0.639   1.477
 9844SOL     OW30430   4.810   0.461   4.908
 9844SOL    HW130431   4.732   0.399   4.916
 9844SOL    HW230432   4.776   0.556   4.904
 9845SOL     OW30433   1.106   3.981   2.367
 9845SOL    HW130434   1.095   3.955   2.271
 9845SOL    HW230435   1.021   3.963   2.417
 9846SOL     OW30436   6.132   2.308   1.574
 9846SOL    HW130437   6.166   2.283   1.483
 9846SOL    HW230438   6.098   2.227   1.620
 9847SOL     OW30439   3.946   4.334   6.655
 9847SOL    HW130440   3.863   4.381   6.625
 9847SOL    HW230441   3.922   4.244   6.692
 9848SOL     OW30442   3.208   3.887   5.758
 9848SOL    HW130443   3.185   3.820   5.688
 9848SOL    HW230444   3.163   3.974   5.739
 9849SOL     OW30445   1.618   2.166   4.252
 9849SOL    HW130446   1.711   2.203   4.251
 9849SOL    HW230447   1.597   2.131   4.343
 9850SOL     OW30448   1.543   6.763   4.630
 9850SOL    HW130449   1.608   6.837   4.647
 9850SOL    HW230450   1.582   6.699   4.564
 9851SOL     OW30451   3.784   5.834   3.487
 9851SOL    HW130452   3.740   5.789   3.409
 9851SOL    HW230453   3.835   5.914   3.455
 9852SOL     OW30454   1.762   6.619   0.123
 9852SOL    HW130455   1.706   6.578   0.195
 9852SOL    HW230456   1.704   6.643   0.045
 9853SOL     OW30457   0.421   4.595   3.524
 9853SOL    HW130458   0.352   4.622   3.456
 9853SOL    HW230459   0.401   4.502   3.555
 9854SOL     OW30460   6.941   3.613   6.697
 9854SOL    HW130461   7.011   3.625   6.626
 9854SOL    HW230462   6.863   3.672   6.676
 9855SOL     OW30463   0.532   6.133   0.471
 9855SOL    HW130464   0.582   6.101   0.552
 9855SOL    HW230465   0.446   6.083   0.463
 9856SOL     OW30466   5.279   3.294   3.107
 9856SOL    HW130467   5.204   3.314   3.044
 9856SOL    HW230468   5.337   3.375   3.117
 9857SOL     OW30469   4.787   0.096   5.808
 9857SOL    HW130470   4.813   0.176   5.861
 9857SOL    HW230471   4.862   0.069   5.748
 9858SOL     OW30472   6.247   6.205   2.594
 9858SOL    HW130473   6.172   6.178   2.654
 9858SOL    HW230474   6.217   6.277   2.532
 9859SOL     OW30475   0.499   5.528   2.696
 9859SOL    HW130476   0.486   5.625   2.716
 9859SOL    HW230477   0.563   5.488   2.762
 9860SOL     OW30478   1.907   3.091   3.906
 9860SOL    HW130479   1.996   3.064   3.871
 9860SOL    HW230480   1.919   3.162   3.976
 9861SOL     OW30481   3.883   2.181   3.232
 9861SOL    HW130482   3.857   2.271   3.265
 9861SOL    HW230483   3.972   2.156   3.269
 9862SOL     OW30484   1.514   3.430   6.573
 9862SOL    HW130485   1.439   3.435   6.640
 9862SOL    HW230486   1.511   3.341   6.527
 9863SOL     OW30487   4.152   6.941   2.089
 9863SOL    HW130488   4.197   6.868   2.039
 9863SOL    HW230489   4.219   7.012   2.113
 9864SOL     OW30490   2.168   6.147   5.478
 9864SOL    HW130491   2.104   6.076   5.510
 9864SOL    HW230492   2.238   6.105   5.420
 9865SOL     OW30493   2.084   5.797   5.719
 9865SOL    HW130494   2.184   5.795   5.726
 9865SOL    HW230495   2.048   5.705   5.726
 9866SOL     OW30496   6.497   5.355   6.042
 9866SOL    HW130497   6.526   5.350   5.947
 9866SOL    HW230498   6.405   5.394   6.047
 9867SOL     OW30499   4.345   1.682   1.963
 9867SOL    HW130500   4.331   1.673   2.062
 9867SOL    HW230501   4.312   1.771   1.932
 9868SOL     OW30502   2.189   4.477   3.991
 9868SOL    HW130503   2.254   4.403   4.007
 9868SOL    HW230504   2.215   4.557   4.046
 9869SOL     OW30505   0.081   2.129   1.873
 9869SOL    HW130506   0.035   2.046   1.905
 9869SOL    HW230507   0.125   2.111   1.785
 9870SOL     OW30508   2.213   2.395   2.895
 9870SOL    HW130509   2.175   2.455   2.966
 9870SOL    HW230510   2.288   2.441   2.849
 9871SOL     OW30511   5.852   5.742   3.381
 9871SOL    HW130512   5.815   5.820   3.432
 9871SOL    HW230513   5.881   5.671   3.445
 9872SOL     OW30514   0.377   5.464   5.372
 9872SOL    HW130515   0.376   5.472   5.272
 9872SOL    HW230516   0.299   5.409   5.402
 9873SOL     OW30517   1.200   1.405   5.567
 9873SOL    HW130518   1.203   1.418   5.468
 9873SOL    HW230519   1.122   1.347   5.591
 9874SOL     OW30520   0.428   2.170   3.373
 9874SOL    HW130521   0.520   2.181   3.335
 9874SOL    HW230522   0.407   2.246   3.435
 9875SOL     OW30523   6.383   6.057   0.807
 9875SOL    HW130524   6.357   6.130   0.743
 9875SOL    HW230525   6.466   6.085   0.857
 9876SOL     OW30526   0.172   6.808   3.543
 9876SOL    HW130527   0.156   6.857   3.629
 9876SOL    HW230528   0.130   6.718   3.548
 9877SOL     OW30529   0.498   6.341   4.704
 9877SOL    HW130530   0.580   6.364   4.651
 9877SOL    HW230531   0.496   6.396   4.787
 9878SOL     OW30532   3.396   2.650   6.865
 9878SOL    HW130533   3.423   2.564   6.910
 9878SOL    HW230534   3.469   2.679   6.804
 9879SOL     OW30535   6.374   5.693   5.134
 9879SOL    HW130536   6.295   5.755   5.131
 9879SOL    HW230537   6.347   5.607   5.177
 9880SOL     OW30538   2.955   1.275   0.781
 9880SOL    HW130539   2.992   1.344   0.843
 9880SOL    HW230540   2.897   1.319   0.712
 9881SOL     OW30541   5.950   0.748   2.980
 9881SOL    HW130542   5.933   0.683   3.054
 9881SOL    HW230543   5.865   0.764   2.929
 9882SOL     OW30544   3.501   3.193   4.530
 9882SOL    HW130545   3.405   3.208   4.509
 9882SOL    HW230546   3.513   3.108   4.580
 9883SOL     OW30547   2.164   6.284   2.188
 9883SOL    HW130548   2.167   6.336   2.102
 9883SOL    HW230549   2.071   6.251   2.204
 9884SOL     OW30550   3.350   2.631   5.331
 9884SOL    HW130551   3.307   2.561   5.275
 9884SOL    HW230552   3.400   2.694   5.273
 9885SOL     OW30553   4.511   2.365   5.577
 9885SOL    HW130554   4.442   2.425   5.617
 9885SOL    HW230555   4.469   2.276   5.558
 9886SOL     OW30556   3.250   5.676   1.391
 9886SOL    HW130557   3.257   5.747   1.321
 9886SOL    HW230558   3.183   5.607   1.362
 9887SOL     OW30559   3.501   1.125   0.405
 9887SOL    HW130560   3.553   1.074   0.338
 9887SOL    HW230561   3.404   1.122   0.382
 9888SOL     OW30562   6.149   6.868   4.067
 9888SOL    HW130563   6.077   6.845   4.001
 9888SOL    HW230564   6.179   6.962   4.052
 9889SOL     OW30565   6.871   5.331   2.544
 9889SOL    HW130566   6.895   5.398   2.474
 9889SOL    HW230567   6.941   5.330   2.615
 9890SOL     OW30568   1.147   3.406   2.866
 9890SOL    HW130569   1.138   3.310   2.894
 9890SOL    HW230570   1.243   3.432   2.869
 9891SOL     OW30571   4.904   6.876   1.984
 9891SOL    HW130572   4.982   6.938   2.000
 9891SOL    HW230573   4.837   6.921   1.926
 9892SOL     OW30574   1.535   5.844   3.770
 9892SOL    HW130575   1.610   5.881   3.825
 9892SOL    HW230576   1.479   5.919   3.735
 9893SOL     OW30577   5.624   4.550   5.248
 9893SOL    HW130578   5.636   4.453   5.226
 9893SOL    HW230579   5.713   4.596   5.249
 9894SOL     OW30580   4.256   3.596   5.368
 9894SOL    HW130581   4.300   3.506   5.375
 9894SOL    HW230582   4.314   3.658   5.315
 9895SOL     OW30583   5.383   2.283   6.433
 9895SOL    HW130584   5.346   2.191   6.417
 9895SOL    HW230585   5.403   2.326   6.345
 9896SOL     OW30586   3.724   3.774   6.713
 9896SOL    HW130587   3.731   3.679   6.742
 9896SOL    HW230588   3.656   3.781   6.639
 9897SOL     OW30589   0.394   1.283   2.987
 9897SOL    HW130590   0.386   1.376   3.023
 9897SOL    HW230591   0.421   1.221   3.061
 9898SOL     OW30592   1.187   5.285   0.129
 9898SOL    HW130593   1.115   5.347   0.161
 9898SOL    HW230594   1.146   5.198   0.102
 9899SOL     OW30595   4.426   5.078   2.657
 9899SOL    HW130596   4.512   5.031   2.675
 9899SOL    HW230597   4.421   5.100   2.560
 9900SOL     OW30598   1.825   4.441   4.072
 9900SOL    HW130599   1.883   4.458   3.992
 9900SOL    HW230600   1.879   4.394   4.142
 9901SOL     OW30601   2.137   2.119   6.044
 9901SOL    HW130602   2.193   2.201   6.036
 9901SOL    HW230603   2.134   2.091   6.140
 9902SOL     OW30604   4.534   3.887   6.593
 9902SOL    HW130605   4.598   3.816   6.622
 9902SOL    HW230606   4.584   3.960   6.547
 9903SOL     OW30607   3.605   1.690   1.510
 9903SOL    HW130608   3.516   1.653   1.485
 9903SOL    HW230609   3.651   1.726   1.429
 9904SOL     OW30610   0.101   6.900   2.475
 9904SOL    HW130611   0.074   6.987   2.433
 9904SOL    HW230612   0.198   6.904   2.498
 9905SOL     OW30613   1.572   6.528   5.652
 9905SOL    HW130614   1.474   6.540   5.635
 9905SOL    HW230615   1.621   6.610   5.620
 9906SOL     OW30616   3.684   3.738   5.778
 9906SOL    HW130617   3.624   3.664   5.809
 9906SOL    HW230618   3.766   3.699   5.738
 9907SOL     OW30619   1.189   6.825   2.961
 9907SOL    HW130620   1.103   6.875   2.977
 9907SOL    HW230621   1.201   6.757   3.034
 9908SOL     OW30622   6.302   3.385   5.102
 9908SOL    HW130623   6.393   3.382   5.142
 9908SOL    HW230624   6.236   3.341   5.164
 9909SOL     OW30625   3.699   6.584   1.891
 9909SOL    HW130626   3.683   6.682   1.880
 9909SOL    HW230627   3.768   6.553   1.825
 9910SOL     OW30628   1.012   4.709   0.769
 9910SOL    HW130629   1.103   4.748   0.783
 9910SOL    HW230630   1.020   4.613   0.741
 9911SOL     OW30631   3.836   5.120   3.040
 9911SOL    HW130632   3.881   5.133   3.128
 9911SOL    HW230633   3.751   5.172   3.039
 9912SOL     OW30634   4.328   0.193   0.952
 9912SOL    HW130635   4.392   0.149   0.890
 9912SOL    HW230636   4.330   0.147   1.041
 9913SOL     OW30637   4.857   2.456   2.757
 9913SOL    HW130638   4.853   2.356   2.745
 9913SOL    HW230639   4.924   2.479   2.827
 9914SOL     OW30640   1.883   4.909   4.633
 9914SOL    HW130641   1.872   5.007   4.649
 9914SOL    HW230642   1.872   4.890   4.535
 9915SOL     OW30643   6.375   4.036   4.164
 9915SOL    HW130644   6.324   4.115   4.129
 9915SOL    HW230645   6.336   3.952   4.126
 9916SOL     OW30646   2.765   3.866   0.530
 9916SOL    HW130647   2.851   3.859   0.481
 9916SOL    HW230648   2.769   3.811   0.613
 9917SOL     OW30649   2.169   3.024   4.848
 9917SOL    HW130650   2.243   3.013   4.914
 9917SOL    HW230651   2.141   2.933   4.815
 9918SOL     OW30652   2.555   1.185   5.008
 9918SOL    HW130653   2.645   1.228   4.994
 9918SOL    HW230654   2.548   1.104   4.950
 9919SOL     OW30655   0.921   5.227   2.601
 9919SOL    HW130656   0.954   5.321   2.587
 9919SOL    HW230657   0.872   5.197   2.519
 9920SOL     OW30658   4.073   6.890   2.728
 9920SOL    HW130659   4.044   6.983   2.749
 9920SOL    HW230660   4.094   6.842   2.813
 9921SOL     OW30661   4.921   0.481   2.582
 9921SOL    HW130662   4.977   0.399   2.565
 9921SOL    HW230663   4.972   0.545   2.638
 9922SOL     OW30664   5.176   3.078   1.863
 9922SOL    HW130665   5.137   3.027   1.786
 9922SOL    HW230666   5.229   3.156   1.829
 9923SOL     OW30667   5.832   0.703   6.626
 9923SOL    HW130668   5.754   0.681   6.567
 9923SOL    HW230669   5.892   0.623   6.632
 9924SOL     OW30670   5.206   0.795   3.984
 9924SOL    HW130671   5.131   0.798   4.051
 9924SOL    HW230672   5.243   0.887   3.972
 9925SOL     OW30673   3.793   2.114   4.781
 9925SOL    HW130674   3.785   2.145   4.876
 9925SOL    HW230675   3.702   2.107   4.741
 9926SOL     OW30676   1.475   0.953   5.693
 9926SOL    HW130677   1.571   0.971   5.716
 9926SOL    HW230678   1.464   0.856   5.671
 9927SOL     OW30679   1.007   2.928   3.040
 9927SOL    HW130680   0.967   2.930   2.949
 9927SOL    HW230681   0.976   2.846   3.089
 9928SOL     OW30682   0.286   3.234   2.379
 9928SOL    HW130683   0.259   3.144   2.413
 9928SOL    HW230684   0.244   3.250   2.290
 9929SOL     OW30685   0.354   4.532   5.224
 9929SOL    HW130686   0.436   4.521   5.168
 9929SOL    HW230687   0.275   4.498   5.173
 9930SOL     OW30688   6.616   5.611   6.098
 9930SOL    HW130689   6.614   5.649   6.006
 9930SOL    HW230690   6.569   5.522   6.098
 9931SOL     OW30691   2.742   4.952   6.576
 9931SOL    HW130692   2.816   4.921   6.635
 9931SOL    HW230693   2.702   5.035   6.614
 9932SOL     OW30694   2.330   2.655   1.031
 9932SOL    HW130695   2.381   2.578   0.993
 9932SOL    HW230696   2.382   2.696   1.106
 9933SOL     OW30697   1.016   1.618   2.479
 9933SOL    HW130698   1.081   1.542   2.472
 9933SOL    HW230699   0.935   1.598   2.424
 9934SOL     OW30700   5.442   0.663   5.826
 9934SOL    HW130701   5.437   0.576   5.777
 9934SOL    HW230702   5.352   0.706   5.828
 9935SOL     OW30703   2.707   2.828   0.590
 9935SOL    HW130704   2.804   2.848   0.607
 9935SOL    HW230705   2.697   2.730   0.572
 9936SOL     OW30706   4.701   6.790   6.525
 9936SOL    HW130707   4.741   6.872   6.566
 9936SOL    HW230708   4.683   6.722   6.596
 9937SOL     OW30709   1.502   6.768   3.768
 9937SOL    HW130710   1.540   6.792   3.678
 9937SOL    HW230711   1.474   6.672   3.766
 9938SOL     OW30712   0.107   1.380   3.221
 9938SOL    HW130713   0.061   1.443   3.285
 9938SOL    HW230714   0.187   1.425   3.182
 9939SOL     OW30715   2.637   4.103   1.698
 9939SOL    HW130716   2.579   4.060   1.767
 9939SOL    HW230717   2.702   4.035   1.663
 9940SOL     OW30718   6.917   0.774   3.119
 9940SOL    HW130719   6.977   0.844   3.156
 9940SOL    HW230720   6.880   0.718   3.194
 9941SOL     OW30721   5.812   3.486   1.167
 9941SOL    HW130722   5.767   3.565   1.209
 9941SOL    HW230723   5.743   3.425   1.128
 9942SOL     OW30724   6.523   6.118   2.881
 9942SOL    HW130725   6.573   6.098   2.965
 9942SOL    HW230726   6.425   6.127   2.901
 9943SOL     OW30727   2.011   3.723   5.614
 9943SOL    HW130728   2.025   3.822   5.614
 9943SOL    HW230729   1.921   3.701   5.652
 9944SOL     OW30730   2.285   5.439   6.396
 9944SOL    HW130731   2.202   5.451   6.342
 9944SOL    HW230732   2.268   5.469   6.490
 9945SOL     OW30733   6.446   3.516   6.911
 9945SOL    HW130734   6.407   3.433   6.952
 9945SOL    HW230735   6.493   3.492   6.826
 9946SOL     OW30736   5.158   2.190   1.782
 9946SOL    HW130737   5.201   2.272   1.745
 9946SOL    HW230738   5.182   2.111   1.727
 9947SOL     OW30739   1.598   1.774   2.386
 9947SOL    HW130740   1.524   1.714   2.417
 9947SOL    HW230741   1.578   1.869   2.411
 9948SOL     OW30742   5.924   0.643   5.740
 9948SOL    HW130743   5.835   0.669   5.702
 9948SOL    HW230744   5.996   0.657   5.672
 9949SOL     OW30745   6.903   3.456   3.569
 9949SOL    HW130746   6.949   3.369   3.549
 9949SOL    HW230747   6.941   3.494   3.653
 9950SOL     OW30748   4.702   4.333   5.585
 9950SOL    HW130749   4.795   4.371   5.584
 9950SOL    HW230750   4.694   4.260   5.518
 9951SOL     OW30751   0.065   2.430   2.591
 9951SOL    HW130752   0.059   2.422   2.492
 9951SOL    HW230753   7.007   2.381   2.633
 9952SOL     OW30754   1.652   4.572   1.414
 9952SOL    HW130755   1.635   4.634   1.337
 9952SOL    HW230756   1.750   4.562   1.429
 9953SOL     OW30757   6.817   4.367   3.902
 9953SOL    HW130758   6.735   4.322   3.938
 9953SOL    HW230759   6.794   4.419   3.821
 9954SOL     OW30760   4.003   1.522   1.119
 9954SOL    HW130761   3.989   1.610   1.165
 9954SOL    HW230762   3.914   1.476   1.110
 9955SOL     OW30763   5.643   5.413   1.319
 9955SOL    HW130764   5.599   5.323   1.332
 9955SOL    HW230765   5.633   5.466   1.403
 9956SOL     OW30766   1.517   3.199   2.955
 9956SOL    HW130767   1.605   3.239   2.929
 9956SOL    HW230768   1.525   3.157   3.045
 9957SOL     OW30769   5.162   6.966   0.402
 9957SOL    HW130770   5.093   0.018   0.416
 9957SOL    HW230771   5.235   6.977   0.469
 9958SOL     OW30772   5.808   6.312   6.492
 9958SOL    HW130773   5.884   6.272   6.442
 9958SOL    HW230774   5.735   6.337   6.427
 9959SOL     OW30775   5.684   4.319   0.197
 9959SOL    HW130776   5.721   4.300   0.106
 9959SOL    HW230777   5.747   4.284   0.267
 9960SOL     OW30778   6.475   0.153   6.823
 9960SOL    HW130779   6.417   0.167   6.903
 9960SOL    HW230780   6.542   0.081   6.843
 9961SOL     OW30781   2.929   5.999   0.853
 9961SOL    HW130782   2.842   6.034   0.820
 9961SOL    HW230783   2.922   5.980   0.951
 9962SOL     OW30784   3.228   0.518   1.776
 9962SOL    HW130785   3.313   0.556   1.741
 9962SOL    HW230786   3.220   0.422   1.747
 9963SOL     OW30787   0.945   6.991   6.489
 9963SOL    HW130788   0.990   0.050   6.532
 9963SOL    HW230789   0.984   6.976   6.398
 9964SOL     OW30790   4.397   5.108   5.060
 9964SOL    HW130791   4.482   5.128   5.109
 9964SOL    HW230792   4.323   5.096   5.126
 9965SOL     OW30793   2.715   4.938   4.153
 9965SOL    HW130794   2.765   5.015   4.193
 9965SOL    HW230795   2.779   4.864   4.133
 9966SOL     OW30796   3.588   5.890   2.856
 9966SOL    HW130797   3.685   5.901   2.835
 9966SOL    HW230798   3.576   5.870   2.953
 9967SOL     OW30799   0.389   0.895   3.188
 9967SOL    HW130800   0.424   0.906   3.095
 9967SOL    HW230801   0.310   0.833   3.187
 9968SOL     OW30802   4.169   6.906   0.170
 9968SOL    HW130803   4.191   6.965   0.247
 9968SOL    HW230804   4.117   6.827   0.202
 9969SOL     OW30805   0.294   5.809   3.519
 9969SOL    HW130806   0.257   5.901   3.529
 9969SOL    HW230807   0.359   5.806   3.444
 9970SOL     OW30808   6.506   3.572   2.132
 9970SOL    HW130809   6.582   3.594   2.071
 9970SOL    HW230810   6.535   3.581   2.227
 9971SOL     OW30811   0.399   5.089   4.575
 9971SOL    HW130812   0.404   5.049   4.483
 9971SOL    HW230813   0.375   5.186   4.567
 9972SOL     OW30814   2.864   4.713   6.080
 9972SOL    HW130815   2.804   4.702   6.000
 9972SOL    HW230816   2.811   4.748   6.157
 9973SOL     OW30817   3.033   1.867   3.232
 9973SOL    HW130818   3.068   1.880   3.324
 9973SOL    HW230819   3.109   1.867   3.167
 9974SOL     OW30820   1.629   2.292   3.009
 9974SOL    HW130821   1.539   2.306   3.051
 9974SOL    HW230822   1.625   2.318   2.913
 9975SOL     OW30823   2.637   4.463   6.224
 9975SOL    HW130824   2.722   4.516   6.236
 9975SOL    HW230825   2.605   4.432   6.313
 9976SOL     OW30826   3.822   5.910   5.198
 9976SOL    HW130827   3.782   5.902   5.289
 9976SOL    HW230828   3.869   5.998   5.190
 9977SOL     OW30829   4.267   0.167   5.354
 9977SOL    HW130830   4.230   0.109   5.282
 9977SOL    HW230831   4.305   0.250   5.313
 9978SOL     OW30832   0.534   2.556   0.352
 9978SOL    HW130833   0.474   2.636   0.360
 9978SOL    HW230834   0.478   2.473   0.353
 9979SOL     OW30835   3.463   4.113   4.588
 9979SOL    HW130836   3.550   4.160   4.577
 9979SOL    HW230837   3.428   4.129   4.681
 9980SOL     OW30838   1.032   0.752   0.495
 9980SOL    HW130839   1.113   0.807   0.476
 9980SOL    HW230840   0.958   0.810   0.527
 9981SOL     OW30841   5.393   0.712   0.415
 9981SOL    HW130842   5.351   0.679   0.499
 9981SOL    HW230843   5.330   0.697   0.338
 9982SOL     OW30844   2.278   2.208   4.429
 9982SOL    HW130845   2.319   2.117   4.417
 9982SOL    HW230846   2.348   2.278   4.415
 9983SOL     OW30847   0.855   3.730   2.298
 9983SOL    HW130848   0.952   3.724   2.320
 9983SOL    HW230849   0.805   3.659   2.348
 9984SOL     OW30850   0.423   4.689   1.103
 9984SOL    HW130851   0.466   4.764   1.154
 9984SOL    HW230852   0.490   4.615   1.091
 9985SOL     OW30853   5.134   4.445   0.071
 9985SOL    HW130854   5.180   4.372   0.021
 9985SOL    HW230855   5.122   4.418   0.166
 9986SOL     OW30856   5.645   4.833   0.444
 9986SOL    HW130857   5.647   4.933   0.439
 9986SOL    HW230858   5.619   4.795   0.355
 9987SOL     OW30859   5.269   1.965   1.191
 9987SOL    HW130860   5.191   1.957   1.129
 9987SOL    HW230861   5.263   1.895   1.263
 9988SOL     OW30862   6.420   6.928   3.612
 9988SOL    HW130863   6.454   6.912   3.704
 9988SOL    HW230864   6.397   6.840   3.569
 9989SOL     OW30865   6.874   5.725   2.062
 9989SOL    HW130866   6.914   5.655   2.003
 9989SOL    HW230867   6.776   5.709   2.070
 9990SOL     OW30868   0.008   0.028   3.022
 9990SOL    HW130869   6.954   6.981   2.996
 9990SOL    HW230870   0.092   0.005   2.974
 9991SOL     OW30871   2.437   4.533   2.187
 9991SOL    HW130872   2.503   4.608   2.180
 9991SOL    HW230873   2.468   4.456   2.131
 9992SOL     OW30874   2.847   5.161   0.495
 9992SOL    HW130875   2.781   5.235   0.504
 9992SOL    HW230876   2.928   5.182   0.549
 9993SOL     OW30877   4.136   0.304   4.781
 9993SOL    HW130878   4.209   0.364   4.812
 9993SOL    HW230879   4.122   0.316   4.682
 9994SOL     OW30880   5.959   4.766   4.835
 9994SOL    HW130881   5.915   4.677   4.837
 9994SOL    HW230882   6.004   4.779   4.747
 9995SOL     OW30883   3.721   1.819   6.342
 9995SOL    HW130884   3.744   1.858   6.253
 9995SOL    HW230885   3.741   1.721   6.341
 9996SOL     OW30886   3.056   4.421   1.183
 9996SOL    HW130887   3.017   4.503   1.224
 9996SOL    HW230888   3.050   4.345   1.248
 9997SOL     OW30889   6.752   1.540   2.474
 9997SOL    HW130890   6.654   1.524   2.477
 9997SOL    HW230891   6.801   1.453   2.475
 9998SOL     OW30892   5.375   3.795   2.494
 9998SOL    HW130893   5.292   3.769   2.443
 9998SOL    HW230894   5.351   3.814   2.589
 9999SOL     OW30895   0.651   0.026   4.809
 9999SOL    HW130896   0.670   0.087   4.733
 9999SOL    HW230897   0.730   6.984   4.824
10000SOL     OW30898   4.526   2.348   1.256
10000SOL    HW130899   4.608   2.331   1.311
10000SOL    HW230900   4.517   2.276   1.187
10001SOL     OW30901   3.645   6.496   1.235
10001SOL    HW130902   3.620   6.426   1.301
10001SOL    HW230903   3.622   6.465   1.143
10002SOL     OW30904   2.247   6.736   2.257
10002SOL    HW130905   2.309   6.696   2.190
10002SOL    HW230906   2.297   6.757   2.341
10003SOL     OW30907   1.468   1.086   2.441
10003SOL    HW130908   1.489   1.010   2.380
10003SOL    HW230909   1.445   1.167   2.388
10004SOL     OW30910   0.635   4.400   3.930
10004SOL    HW130911   0.648   4.446   3.843
10004SOL    HW230912   0.723   4.395   3.979
10005SOL     OW30913   2.727   5.702   3.580
10005SOL    HW130914   2.631   5.726   3.599
10005SOL    HW230915   2.784   5.732   3.656
10006SOL     OW30916   5.313   1.274   5.308
10006SOL    HW130917   5.321   1.325   5.394
10006SOL    HW230918   5.246   1.318   5.249
10007SOL     OW30919   0.844   5.178   3.925
10007SOL    HW130920   0.824   5.179   4.023
10007SOL    HW230921   0.940   5.156   3.911
10008SOL     OW30922   4.222   0.994   6.158
10008SOL    HW130923   4.318   1.020   6.158
10008SOL    HW230924   4.214   0.897   6.132
10009SOL     OW30925   0.919   4.775   2.387
10009SOL    HW130926   0.931   4.711   2.463
10009SOL    HW230927   0.978   4.854   2.400
10010SOL     OW30928   2.068   4.366   1.296
10010SOL    HW130929   2.076   4.465   1.303
10010SOL    HW230930   2.000   4.334   1.362
10011SOL     OW30931   2.744   3.244   0.165
10011SOL    HW130932   2.708   3.337   0.151
10011SOL    HW230933   2.802   3.243   0.247
10012SOL     OW30934   5.577   1.671   3.123
10012SOL    HW130935   5.597   1.715   3.035
10012SOL    HW230936   5.521   1.590   3.108
10013SOL     OW30937   0.686   6.727   4.593
10013SOL    HW130938   0.719   6.635   4.573
10013SOL    HW230939   0.645   6.729   4.684
10014SOL     OW30940   1.507   0.874   3.127
10014SOL    HW130941   1.474   0.781   3.115
10014SOL    HW230942   1.505   0.922   3.039
10015SOL     OW30943   3.495   6.870   6.368
10015SOL    HW130944   3.421   6.814   6.406
10015SOL    HW230945   3.549   6.909   6.442
10016SOL     OW30946   1.864   0.561   4.634
10016SOL    HW130947   1.831   0.649   4.668
10016SOL    HW230948   1.962   0.566   4.619
10017SOL     OW30949   3.431   1.983   2.444
10017SOL    HW130950   3.467   2.013   2.356
10017SOL    HW230951   3.353   1.922   2.430
10018SOL     OW30952   6.885   4.022   5.202
10018SOL    HW130953   6.910   4.011   5.105
10018SOL    HW230954   6.848   4.113   5.217
10019SOL     OW30955   0.380   1.913   1.885
10019SOL    HW130956   0.333   1.953   1.963
10019SOL    HW230957   0.462   1.866   1.916
10020SOL     OW30958   6.828   1.365   2.145
10020SOL    HW130959   6.854   1.457   2.176
10020SOL    HW230960   6.750   1.372   2.083
10021SOL     OW30961   0.965   3.238   2.250
10021SOL    HW130962   0.928   3.195   2.332
10021SOL    HW230963   0.903   3.309   2.217
10022SOL     OW30964   1.479   5.870   6.055
10022SOL    HW130965   1.394   5.879   6.002
10022SOL    HW230966   1.547   5.821   6.002
10023SOL     OW30967   0.414   1.735   5.772
10023SOL    HW130968   0.376   1.700   5.687
10023SOL    HW230969   0.360   1.700   5.849
10024SOL     OW30970   2.008   4.441   2.610
10024SOL    HW130971   1.987   4.398   2.523
10024SOL    HW230972   2.050   4.530   2.595
10025SOL     OW30973   1.271   3.784   0.795
10025SOL    HW130974   1.326   3.754   0.873
10025SOL    HW230975   1.327   3.840   0.734
10026SOL     OW30976   5.760   1.447   5.308
10026SOL    HW130977   5.667   1.420   5.283
10026SOL    HW230978   5.806   1.489   5.229
10027SOL     OW30979   3.634   1.414   5.376
10027SOL    HW130980   3.647   1.373   5.286
10027SOL    HW230981   3.571   1.491   5.368
10028SOL     OW30982   4.577   0.064   1.687
10028SOL    HW130983   4.478   0.066   1.670
10028SOL    HW230984   4.613   6.992   1.661
10029SOL     OW30985   0.500   4.084   4.700
10029SOL    HW130986   0.542   4.044   4.619
10029SOL    HW230987   0.520   4.182   4.703
10030SOL     OW30988   2.574   0.395   4.315
10030SOL    HW130989   2.507   0.468   4.330
10030SOL    HW230990   2.642   0.396   4.388
10031SOL     OW30991   2.298   5.727   2.719
10031SOL    HW130992   2.270   5.818   2.688
10031SOL    HW230993   2.312   5.728   2.818
10032SOL     OW30994   2.826   6.267   4.647
10032SOL    HW130995   2.859   6.220   4.564
10032SOL    HW230996   2.877   6.234   4.726
10033SOL     OW30997   3.668   1.028   4.828
10033SOL    HW130998   3.601   1.082   4.778
10033SOL    HW230999   3.735   1.089   4.871
10034SOL     OW31000   2.705   1.127   3.097
10034SOL    HW131001   2.791   1.126   3.046
10034SOL    HW231002   2.657   1.213   3.082
10035SOL     OW31003   6.571   2.923   2.427
10035SOL    HW131004   6.514   2.990   2.379
10035SOL    HW231005   6.614   2.967   2.507
10036SOL     OW31006   0.821   1.492   6.971
10036SOL    HW131007   0.908   1.454   7.003
10036SOL    HW231008   0.796   1.570   0.009
10037SOL     OW31009   5.918   6.579   6.456
10037SOL    HW131010   5.858   6.568   6.536
10037SOL    HW231011   5.869   6.626   6.383
10038SOL     OW31012   4.387   6.147   6.293
10038SOL    HW131013   4.454   6.209   6.336
10038SOL    HW231014   4.349   6.192   6.212
10039SOL     OW31015   0.453   5.924   2.644
10039SOL    HW131016   0.463   5.869   2.561
10039SOL    HW231017   0.540   5.928   2.692
10040SOL     OW31018   2.910   0.499   0.719
10040SOL    HW131019   2.822   0.490   0.671
10040SOL    HW231020   2.902   0.458   0.810
10041SOL     OW31021   5.931   5.710   4.937
10041SOL    HW131022   5.922   5.618   4.899
10041SOL    HW231023   5.859   5.769   4.900
10042SOL     OW31024   6.609   0.578   5.364
10042SOL    HW131025   6.614   0.640   5.442
10042SOL    HW231026   6.553   0.619   5.292
10043SOL     OW31027   0.818   0.599   3.646
10043SOL    HW131028   0.808   0.677   3.583
10043SOL    HW231029   0.883   0.534   3.607
10044SOL     OW31030   3.051   1.570   6.990
10044SOL    HW131031   3.060   1.532   6.897
10044SOL    HW231032   2.973   1.632   6.994
10045SOL     OW31033   3.971   6.901   4.312
10045SOL    HW131034   3.889   6.928   4.262
10045SOL    HW231035   3.988   6.804   4.297
10046SOL     OW31036   6.741   2.808   1.049
10046SOL    HW131037   6.796   2.826   0.967
10046SOL    HW231038   6.797   2.823   1.130
10047SOL     OW31039   0.365   1.539   3.338
10047SOL    HW131040   0.393   1.494   3.424
10047SOL    HW231041   0.340   1.634   3.357
10048SOL     OW31042   3.648   2.551   1.738
10048SOL    HW131043   3.678   2.482   1.804
10048SOL    HW231044   3.699   2.541   1.653
10049SOL     OW31045   1.804   6.791   4.232
10049SOL    HW131046   1.740   6.768   4.159
10049SOL    HW231047   1.796   6.724   4.305
10050SOL     OW31048   5.815   1.464   4.367
10050SOL    HW131049   5.734   1.508   4.407
10050SOL    HW231050   5.896   1.518   4.389
10051SOL     OW31051   6.376   2.216   6.696
10051SOL    HW131052   6.472   2.242   6.684
10051SOL    HW231053   6.365   2.119   6.673
10052SOL     OW31054   1.259   4.197   2.084
10052SOL    HW131055   1.294   4.234   1.998
10052SOL    HW231056   1.202   4.117   2.064
10053SOL     OW31057   2.729   6.596   3.391
10053SOL    HW131058   2.646   6.614   3.444
10053SOL    HW231059   2.809   6.597   3.451
10054SOL     OW31060   4.307   5.905   3.919
10054SOL    HW131061   4.311   5.992   3.871
10054SOL    HW231062   4.399   5.865   3.924
10055SOL     OW31063   6.685   3.240   6.733
10055SOL    HW131064   6.761   3.265   6.793
10055SOL    HW231065   6.655   3.147   6.754
10056SOL     OW31066   6.579   4.972   1.964
10056SOL    HW131067   6.624   4.884   1.952
10056SOL    HW231068   6.647   5.041   1.992
10057SOL     OW31069   2.721   2.383   3.949
10057SOL    HW131070   2.750   2.288   3.962
10057SOL    HW231071   2.781   2.443   4.002
10058SOL     OW31072   0.654   4.539   3.691
10058SOL    HW131073   0.681   4.621   3.741
10058SOL    HW231074   0.588   4.564   3.620
10059SOL     OW31075   5.187   7.013   1.055
10059SOL    HW131076   5.225   6.944   1.116
10059SOL    HW231077   5.093   6.988   1.031
10060SOL     OW31078   2.150   2.921   1.862
10060SOL    HW131079   2.182   2.890   1.952
10060SOL    HW231080   2.090   3.000   1.873
10061SOL     OW31081   6.386   2.047   4.657
10061SOL    HW131082   6.417   1.988   4.583
10061SOL    HW231083   6.301   2.012   4.695
10062SOL     OW31084   6.220   5.563   3.180
10062SOL    HW131085   6.207   5.576   3.082
10062SOL    HW231086   6.154   5.620   3.230
10063SOL     OW31087   0.878   2.691   2.716
10063SOL    HW131088   0.976   2.690   2.737
10063SOL    HW231089   0.833   2.764   2.768
10064SOL     OW31090   5.397   6.149   4.523
10064SOL    HW131091   5.368   6.236   4.563
10064SOL    HW231092   5.318   6.100   4.488
10065SOL     OW31093   1.007   6.810   3.617
10065SOL    HW131094   1.052   6.736   3.566
10065SOL    HW231095   0.908   6.800   3.608
10066SOL     OW31096   0.546   0.579   3.736
10066SOL    HW131097   0.533   0.619   3.827
10066SOL    HW231098   0.643   0.579   3.713
10067SOL     OW31099   4.488   6.163   3.603
10067SOL    HW131100   4.554   6.234   3.628
10067SOL    HW231101   4.415   6.160   3.671
10068SOL     OW31102   5.187   3.767   5.463
10068SOL    HW131103   5.265   3.712   5.493
10068SOL    HW231104   5.104   3.734   5.507
10069SOL     OW31105   3.990   0.932   3.681
10069SOL    HW131106   4.024   0.847   3.640
10069SOL    HW231107   4.031   1.011   3.634
10070SOL     OW31108   1.109   6.800   4.805
10070SOL    HW131109   1.042   6.747   4.856
10070SOL    HW231110   1.063   6.871   4.751
10071SOL     OW31111   5.403   5.260   4.975
10071SOL    HW131112   5.450   5.175   4.953
10071SOL    HW231113   5.338   5.283   4.903
10072SOL     OW31114   1.132   0.051   3.691
10072SOL    HW131115   1.217   0.057   3.638
10072SOL    HW231116   1.075   6.996   3.654
10073SOL     OW31117   0.469   5.315   6.714
10073SOL    HW131118   0.526   5.396   6.722
10073SOL    HW231119   0.432   5.291   6.804
10074SOL     OW31120   2.339   6.569   5.897
10074SOL    HW131121   2.378   6.502   5.834
10074SOL    HW231122   2.311   6.650   5.847
10075SOL     OW31123   2.256   2.364   3.862
10075SOL    HW131124   2.205   2.393   3.781
10075SOL    HW231125   2.346   2.408   3.862
10076SOL     OW31126   5.694   0.407   4.721
10076SOL    HW131127   5.694   0.366   4.812
10076SOL    HW231128   5.626   0.361   4.664
10077SOL     OW31129   3.926   1.023   6.756
10077SOL    HW131130   3.934   0.942   6.814
10077SOL    HW231131   3.939   1.105   6.812
10078SOL     OW31132   5.754   6.181   5.873
10078SOL    HW131133   5.706   6.201   5.959
10078SOL    HW231134   5.791   6.088   5.877
10079SOL     OW31135   6.769   4.059   6.202
10079SOL    HW131136   6.849   4.005   6.173
10079SOL    HW231137   6.690   3.999   6.210
10080SOL     OW31138   1.690   3.259   6.147
10080SOL    HW131139   1.673   3.176   6.093
10080SOL    HW231140   1.686   3.236   6.244
10081SOL     OW31141   0.229   0.733   6.769
10081SOL    HW131142   0.189   0.649   6.807
10081SOL    HW231143   0.329   0.722   6.762
10082SOL     OW31144   6.393   1.098   0.741
10082SOL    HW131145   6.472   1.110   0.800
10082SOL    HW231146   6.311   1.086   0.797
10083SOL     OW31147   5.259   0.982   4.248
10083SOL    HW131148   5.288   0.903   4.302
10083SOL    HW231149   5.267   1.065   4.304
10084SOL     OW31150   2.505   1.043   6.101
10084SOL    HW131151   2.521   1.116   6.167
10084SOL    HW231152   2.593   1.004   6.073
10085SOL     OW31153   0.639   5.852   3.070
10085SOL    HW131154   0.629   5.950   3.086
10085SOL    HW231155   0.736   5.828   3.064
10086SOL     OW31156   6.259   3.610   2.496
10086SOL    HW131157   6.201   3.533   2.521
10086SOL    HW231158   6.219   3.695   2.530
10087SOL     OW31159   1.319   0.419   4.200
10087SOL    HW131160   1.272   0.372   4.125
10087SOL    HW231161   1.404   0.371   4.221
10088SOL     OW31162   0.015   0.541   4.527
10088SOL    HW131163   6.998   0.468   4.469
10088SOL    HW231164   6.958   0.584   4.576
10089SOL     OW31165   1.142   3.436   2.565
10089SOL    HW131166   1.121   3.351   2.518
10089SOL    HW231167   1.151   3.418   2.663
10090SOL     OW31168   0.775   4.612   1.170
10090SOL    HW131169   0.750   4.660   1.086
10090SOL    HW231170   0.851   4.550   1.151
10091SOL     OW31171   0.656   2.358   3.845
10091SOL    HW131172   0.671   2.456   3.839
10091SOL    HW231173   0.652   2.331   3.941
10092SOL     OW31174   1.756   3.930   5.028
10092SOL    HW131175   1.679   3.886   4.981
10092SOL    HW231176   1.817   3.972   4.960
10093SOL     OW31177   6.749   4.930   6.274
10093SOL    HW131178   6.794   4.949   6.361
10093SOL    HW231179   6.698   5.012   6.245
10094SOL     OW31180   1.692   1.205   1.662
10094SOL    HW131181   1.679   1.271   1.736
10094SOL    HW231182   1.603   1.172   1.631
10095SOL     OW31183   0.280   1.010   5.801
10095SOL    HW131184   0.335   1.060   5.869
10095SOL    HW231185   0.341   0.958   5.742
10096SOL     OW31186   0.451   4.857   2.395
10096SOL    HW131187   0.495   4.779   2.438
10096SOL    HW231188   0.510   4.894   2.323
10097SOL     OW31189   1.288   2.167   6.757
10097SOL    HW131190   1.307   2.082   6.807
10097SOL    HW231191   1.256   2.144   6.665
10098SOL     OW31192   3.731   4.688   6.247
10098SOL    HW131193   3.655   4.747   6.218
10098SOL    HW231194   3.815   4.717   6.202
10099SOL     OW31195   6.470   4.572   4.604
10099SOL    HW131196   6.527   4.491   4.588
10099SOL    HW231197   6.502   4.647   4.546
10100SOL     OW31198   5.821   1.498   5.932
10100SOL    HW131199   5.768   1.421   5.967
10100SOL    HW231200   5.918   1.485   5.953
10101SOL     OW31201   0.410   4.332   1.780
10101SOL    HW131202   0.450   4.275   1.852
10101SOL    HW231203   0.427   4.429   1.800
10102SOL     OW31204   3.851   1.133   2.973
10102SOL    HW131205   3.925   1.193   2.941
10102SOL    HW231206   3.771   1.189   2.997
10103SOL     OW31207   2.793   1.681   6.986
10103SOL    HW131208   2.730   1.635   0.030
10103SOL    HW231209   2.775   1.780   6.988
10104SOL     OW31210   1.363   5.851   5.089
10104SOL    HW131211   1.398   5.781   5.151
10104SOL    HW231212   1.294   5.906   5.136
10105SOL     OW31213   2.603   0.672   6.341
10105SOL    HW131214   2.681   0.733   6.324
10105SOL    HW231215   2.576   0.628   6.256
10106SOL     OW31216   5.699   5.147   0.435
10106SOL    HW131217   5.758   5.094   0.496
10106SOL    HW231218   5.753   5.213   0.384
10107SOL     OW31219   5.629   1.405   6.124
10107SOL    HW131220   5.663   1.375   6.213
10107SOL    HW231221   5.575   1.332   6.083
10108SOL     OW31222   6.195   6.703   0.394
10108SOL    HW131223   6.131   6.748   0.331
10108SOL    HW231224   6.172   6.727   0.488
10109SOL     OW31225   4.929   5.096   3.305
10109SOL    HW131226   4.937   5.054   3.395
10109SOL    HW231227   5.003   5.064   3.246
10110SOL     OW31228   3.223   1.234   5.429
10110SOL    HW131229   3.211   1.331   5.446
10110SOL    HW231230   3.204   1.214   5.333
10111SOL     OW31231   0.328   2.431   2.708
10111SOL    HW131232   0.232   2.444   2.684
10111SOL    HW231233   0.363   2.514   2.752
10112SOL     OW31234   4.055   3.934   5.923
10112SOL    HW131235   4.081   3.919   5.828
10112SOL    HW231236   3.955   3.935   5.930
10113SOL     OW31237   3.615   6.395   6.854
10113SOL    HW131238   3.608   6.489   6.820
10113SOL    HW231239   3.531   6.346   6.834
10114SOL     OW31240   4.171   1.345   1.195
10114SOL    HW131241   4.213   1.398   1.268
10114SOL    HW231242   4.100   1.399   1.151
10115SOL     OW31243   1.552   2.110   3.659
10115SOL    HW131244   1.539   2.164   3.742
10115SOL    HW231245   1.579   2.170   3.584
10116SOL     OW31246   1.339   0.749   1.127
10116SOL    HW131247   1.348   0.798   1.040
10116SOL    HW231248   1.361   0.653   1.113
10117SOL     OW31249   5.085   0.937   5.536
10117SOL    HW131250   4.992   0.908   5.512
10117SOL    HW231251   5.106   1.022   5.488
10118SOL     OW31252   6.318   5.079   2.549
10118SOL    HW131253   6.399   5.047   2.598
10118SOL    HW231254   6.333   5.173   2.518
10119SOL     OW31255   2.652   0.101   5.760
10119SOL    HW131256   2.731   0.040   5.771
10119SOL    HW231257   2.677   0.194   5.788
10120SOL     OW31258   6.346   2.957   3.318
10120SOL    HW131259   6.288   2.910   3.252
10120SOL    HW231260   6.360   2.898   3.398
10121SOL     OW31261   6.876   4.922   4.594
10121SOL    HW131262   6.867   4.854   4.521
10121SOL    HW231263   6.953   4.982   4.573
10122SOL     OW31264   5.400   3.216   0.457
10122SOL    HW131265   5.383   3.176   0.547
10122SOL    HW231266   5.323   3.195   0.397
10123SOL     OW31267   6.847   0.065   0.049
10123SOL    HW131268   6.913   0.124   0.096
10123SOL    HW231269   6.868   6.988   0.070
10124SOL     OW31270   3.385   4.431   1.023
10124SOL    HW131271   3.439   4.351   1.048
10124SOL    HW231272   3.410   4.508   1.082
10125SOL     OW31273   1.206   0.023   1.334
10125SOL    HW131274   1.173   0.066   1.250
10125SOL    HW231275   1.213   0.092   1.406
10126SOL     OW31276   5.947   4.592   0.382
10126SOL    HW131277   5.929   4.641   0.297
10126SOL    HW231278   5.868   4.602   0.443
10127SOL     OW31279   3.759   4.772   5.538
10127SOL    HW131280   3.701   4.837   5.587
10127SOL    HW231281   3.717   4.681   5.541
10128SOL     OW31282   0.474   1.981   1.372
10128SOL    HW131283   0.548   1.914   1.369
10128SOL    HW231284   0.390   1.937   1.404
10129SOL     OW31285   5.339   2.085   3.140
10129SOL    HW131286   5.369   2.018   3.208
10129SOL    HW231287   5.352   2.177   3.177
10130SOL     OW31288   6.779   4.883   1.713
10130SOL    HW131289   6.823   4.796   1.690
10130SOL    HW231290   6.844   4.941   1.762
10131SOL     OW31291   6.820   1.224   0.970
10131SOL    HW131292   6.843   1.272   1.054
10131SOL    HW231293   6.845   1.280   0.891
10132SOL     OW31294   3.016   6.776   2.790
10132SOL    HW131295   3.006   6.677   2.806
10132SOL    HW231296   3.110   6.803   2.809
10133SOL     OW31297   5.152   5.750   2.893
10133SOL    HW131298   5.224   5.753   2.824
10133SOL    HW231299   5.068   5.715   2.851
10134SOL     OW31300   0.126   1.454   2.351
10134SOL    HW131301   0.077   1.524   2.402
10134SOL    HW231302   0.207   1.494   2.308
10135SOL     OW31303   3.866   6.075   3.361
10135SOL    HW131304   3.955   6.112   3.333
10135SOL    HW231305   3.797   6.100   3.293
10136SOL     OW31306   5.975   6.761   2.131
10136SOL    HW131307   6.032   6.842   2.148
10136SOL    HW231308   5.939   6.726   2.217
10137SOL     OW31309   5.608   4.717   4.200
10137SOL    HW131310   5.675   4.701   4.128
10137SOL    HW231311   5.651   4.768   4.275
10138SOL     OW31312   5.612   2.534   6.617
10138SOL    HW131313   5.558   2.506   6.696
10138SOL    HW231314   5.669   2.458   6.587
10139SOL     OW31315   3.953   3.711   3.198
10139SOL    HW131316   4.009   3.684   3.276
10139SOL    HW231317   3.968   3.647   3.122
10140SOL     OW31318   0.233   5.079   5.634
10140SOL    HW131319   0.253   5.005   5.570
10140SOL    HW231320   0.308   5.089   5.699
10141SOL     OW31321   2.350   0.540   3.834
10141SOL    HW131322   2.357   0.635   3.865
10141SOL    HW231323   2.378   0.534   3.738
10142SOL     OW31324   5.110   5.691   4.460
10142SOL    HW131325   5.155   5.747   4.390
10142SOL    HW231326   5.018   5.666   4.430
10143SOL     OW31327   5.137   6.386   1.074
10143SOL    HW131328   5.184   6.382   0.986
10143SOL    HW231329   5.056   6.327   1.071
10144SOL     OW31330   3.054   5.510   3.577
10144SOL    HW131331   3.073   5.599   3.536
10144SOL    HW231332   3.117   5.495   3.654
10145SOL     OW31333   3.392   5.753   6.115
10145SOL    HW131334   3.463   5.722   6.178
10145SOL    HW231335   3.339   5.675   6.084
10146SOL     OW31336   4.523   4.928   4.187
10146SOL    HW131337   4.462   5.002   4.215
10146SOL    HW231338   4.530   4.862   4.262
10147SOL     OW31339   5.244   5.324   4.765
10147SOL    HW131340   5.210   5.418   4.760
10147SOL    HW231341   5.218   5.274   4.682
10148SOL     OW31342   5.453   5.211   1.435
10148SOL    HW131343   5.457   5.133   1.497
10148SOL    HW231344   5.370   5.204   1.378
10149SOL     OW31345   4.420   3.444   0.824
10149SOL    HW131346   4.323   3.443   0.847
10149SOL    HW231347   4.466   3.369   0.871
10150SOL     OW31348   4.795   4.692   1.274
10150SOL    HW131349   4.701   4.658   1.272
10150SOL    HW231350   4.857   4.620   1.304
10151SOL     OW31351   1.166   6.880   5.448
10151SOL    HW131352   1.112   6.800   5.475
10151SOL    HW231353   1.105   6.950   5.412
10152SOL     OW31354   0.234   5.388   3.685
10152SOL    HW131355   0.288   5.307   3.662
10152SOL    HW231356   0.203   5.382   3.780
10153SOL     OW31357   5.573   6.684   4.152
10153SOL    HW131358   5.669   6.684   4.180
10153SOL    HW231359   5.538   6.590   4.150
10154SOL     OW31360   6.494   5.574   5.620
10154SOL    HW131361   6.450   5.487   5.643
10154SOL    HW231362   6.542   5.565   5.533
10155SOL     OW31363   3.801   1.526   6.345
10155SOL    HW131364   3.874   1.491   6.287
10155SOL    HW231365   3.838   1.553   6.433
10156SOL     OW31366   5.895   0.731   2.343
10156SOL    HW131367   5.938   0.803   2.288
10156SOL    HW231368   5.963   0.694   2.407
10157SOL     OW31369   5.582   0.891   6.097
10157SOL    HW131370   5.614   0.821   6.033
10157SOL    HW231371   5.486   0.876   6.117
10158SOL     OW31372   4.130   3.870   6.730
10158SOL    HW131373   4.210   3.811   6.718
10158SOL    HW231374   4.075   3.869   6.646
10159SOL     OW31375   1.261   1.161   6.147
10159SOL    HW131376   1.280   1.225   6.073
10159SOL    HW231377   1.344   1.109   6.168
10160SOL     OW31378   0.333   6.083   3.564
10160SOL    HW131379   0.429   6.060   3.581
10160SOL    HW231380   0.328   6.159   3.499
10161SOL     OW31381   2.691   5.548   5.848
10161SOL    HW131382   2.624   5.574   5.778
10161SOL    HW231383   2.660   5.580   5.937
10162SOL     OW31384   3.457   1.677   6.796
10162SOL    HW131385   3.444   1.697   6.893
10162SOL    HW231386   3.511   1.750   6.754
10163SOL     OW31387   6.322   2.762   5.699
10163SOL    HW131388   6.253   2.810   5.646
10163SOL    HW231389   6.356   2.683   5.647
10164SOL     OW31390   0.484   3.014   5.037
10164SOL    HW131391   0.569   3.046   4.995
10164SOL    HW231392   0.477   3.050   5.130
10165SOL     OW31393   6.771   2.126   2.956
10165SOL    HW131394   6.777   2.033   2.992
10165SOL    HW231395   6.757   2.190   3.031
10166SOL     OW31396   2.051   0.880   2.195
10166SOL    HW131397   2.055   0.924   2.105
10166SOL    HW231398   1.960   0.895   2.235
10167SOL     OW31399   4.419   0.529   6.985
10167SOL    HW131400   4.416   0.571   6.894
10167SOL    HW231401   4.489   0.459   6.986
10168SOL     OW31402   6.632   4.347   4.640
10168SOL    HW131403   6.720   4.324   4.599
10168SOL    HW231404   6.579   4.264   4.654
10169SOL     OW31405   6.198   4.531   3.918
10169SOL    HW131406   6.187   4.445   3.869
10169SOL    HW231407   6.246   4.597   3.859
10170SOL     OW31408   1.897   4.238   4.935
10170SOL    HW131409   1.917   4.179   4.856
10170SOL    HW231410   1.799   4.235   4.953
10171SOL     OW31411   5.864   3.613   5.828
10171SOL    HW131412   5.835   3.520   5.853
10171SOL    HW231413   5.783   3.669   5.811
10172SOL     OW31414   4.884   1.130   3.056
10172SOL    HW131415   4.859   1.210   3.002
10172SOL    HW231416   4.983   1.115   3.050
10173SOL     OW31417   2.124   1.756   2.135
10173SOL    HW131418   2.082   1.667   2.150
10173SOL    HW231419   2.106   1.815   2.214
10174SOL     OW31420   6.932   4.295   1.773
10174SOL    HW131421   6.954   4.376   1.719
10174SOL    HW231422   6.838   4.267   1.754
10175SOL     OW31423   6.129   2.727   5.892
10175SOL    HW131424   6.102   2.822   5.907
10175SOL    HW231425   6.195   2.722   5.817
10176SOL     OW31426   2.059   4.147   0.021
10176SOL    HW131427   2.086   4.241   0.043
10176SOL    HW231428   2.092   4.085   0.091
10177SOL     OW31429   1.884   6.529   6.643
10177SOL    HW131430   1.979   6.556   6.625
10177SOL    HW231431   1.841   6.596   6.703
10178SOL     OW31432   5.472   1.930   4.671
10178SOL    HW131433   5.509   1.864   4.605
10178SOL    HW231434   5.529   2.013   4.670
10179SOL     OW31435   1.192   3.337   6.530
10179SOL    HW131436   1.188   3.248   6.575
10179SOL    HW231437   1.117   3.395   6.561
10180SOL     OW31438   2.694   6.145   5.767
10180SOL    HW131439   2.646   6.147   5.855
10180SOL    HW231440   2.650   6.209   5.704
10181SOL     OW31441   5.224   3.237   1.308
10181SOL    HW131442   5.199   3.152   1.262
10181SOL    HW231443   5.304   3.222   1.365
10182SOL     OW31444   5.441   1.246   0.668
10182SOL    HW131445   5.495   1.163   0.678
10182SOL    HW231446   5.426   1.266   0.571
10183SOL     OW31447   1.713   1.464   6.675
10183SOL    HW131448   1.803   1.440   6.639
10183SOL    HW231449   1.662   1.516   6.606
10184SOL     OW31450   3.987   0.823   5.828
10184SOL    HW131451   3.894   0.860   5.832
10184SOL    HW231452   3.992   0.753   5.756
10185SOL     OW31453   5.109   6.697   0.430
10185SOL    HW131454   5.133   6.792   0.411
10185SOL    HW231455   5.184   6.652   0.478
10186SOL     OW31456   4.514   2.505   3.053
10186SOL    HW131457   4.469   2.451   2.982
10186SOL    HW231458   4.596   2.549   3.014
10187SOL     OW31459   0.741   1.849   1.684
10187SOL    HW131460   0.729   1.797   1.600
10187SOL    HW231461   0.798   1.929   1.666
10188SOL     OW31462   3.698   5.866   1.090
10188SOL    HW131463   3.623   5.925   1.118
10188SOL    HW231464   3.785   5.910   1.113
10189SOL     OW31465   1.295   6.509   5.587
10189SOL    HW131466   1.212   6.566   5.581
10189SOL    HW231467   1.275   6.425   5.637
10190SOL     OW31468   5.517   2.853   0.504
10190SOL    HW131469   5.553   2.776   0.451
10190SOL    HW231470   5.418   2.860   0.489
10191SOL     OW31471   6.360   4.394   6.872
10191SOL    HW131472   6.341   4.317   6.934
10191SOL    HW231473   6.327   4.479   6.913
10192SOL     OW31474   3.154   1.192   5.691
10192SOL    HW131475   3.205   1.214   5.608
10192SOL    HW231476   3.074   1.138   5.668
10193SOL     OW31477   4.839   4.132   0.591
10193SOL    HW131478   4.836   4.186   0.508
10193SOL    HW231479   4.789   4.046   0.578
10194SOL     OW31480   5.413   3.383   5.116
10194SOL    HW131481   5.367   3.305   5.159
10194SOL    HW231482   5.405   3.463   5.175
10195SOL     OW31483   6.973   3.970   1.944
10195SOL    HW131484   0.018   4.009   1.876
10195SOL    HW231485   6.975   4.026   2.027
10196SOL     OW31486   0.343   1.703   4.685
10196SOL    HW131487   0.257   1.743   4.653
10196SOL    HW231488   0.419   1.744   4.634
10197SOL     OW31489   5.781   0.998   6.241
10197SOL    HW131490   5.712   0.953   6.185
10197SOL    HW231491   5.828   1.067   6.187
10198SOL     OW31492   3.629   6.716   3.383
10198SOL    HW131493   3.657   6.620   3.378
10198SOL    HW231494   3.544   6.723   3.436
10199SOL     OW31495   1.432   2.509   5.074
10199SOL    HW131496   1.478   2.563   5.144
10199SOL    HW231497   1.493   2.435   5.044
10200SOL     OW31498   5.953   2.934   1.841
10200SOL    HW131499   5.927   2.964   1.750
10200SOL    HW231500   5.924   2.839   1.855
10201SOL     OW31501   1.382   3.092   0.624
10201SOL    HW131502   1.419   3.050   0.542
10201SOL    HW231503   1.453   3.146   0.669
10202SOL     OW31504   3.520   0.418   5.125
10202SOL    HW131505   3.477   0.494   5.174
10202SOL    HW231506   3.504   0.429   5.027
10203SOL     OW31507   6.541   2.330   4.778
10203SOL    HW131508   6.493   2.410   4.813
10203SOL    HW231509   6.475   2.260   4.752
10204SOL     OW31510   5.597   5.931   6.645
10204SOL    HW131511   5.559   5.918   6.554
10204SOL    HW231512   5.695   5.951   6.637
10205SOL     OW31513   0.975   0.903   5.872
10205SOL    HW131514   0.923   0.972   5.924
10205SOL    HW231515   1.039   0.858   5.933
10206SOL     OW31516   1.502   0.945   4.968
10206SOL    HW131517   1.571   1.012   4.996
10206SOL    HW231518   1.469   0.967   4.877
10207SOL     OW31519   1.903   2.144   5.214
10207SOL    HW131520   1.827   2.190   5.260
10207SOL    HW231521   1.868   2.087   5.140
10208SOL     OW31522   6.383   5.051   5.432
10208SOL    HW131523   6.436   4.992   5.494
10208SOL    HW231524   6.297   5.006   5.409
10209SOL     OW31525   6.827   0.066   5.878
10209SOL    HW131526   6.802   7.017   5.808
10209SOL    HW231527   6.872   0.019   5.954
10210SOL     OW31528   3.474   6.502   2.120
10210SOL    HW131529   3.483   6.591   2.076
10210SOL    HW231530   3.423   6.512   2.205
10211SOL     OW31531   5.358   5.778   5.512
10211SOL    HW131532   5.293   5.807   5.442
10211SOL    HW231533   5.441   5.834   5.506
10212SOL     OW31534   0.637   0.148   6.804
10212SOL    HW131535   0.668   0.142   6.709
10212SOL    HW231536   0.546   0.188   6.807
10213SOL     OW31537   6.028   1.901   0.955
10213SOL    HW131538   5.962   1.955   1.006
10213SOL    HW231539   5.981   1.826   0.908
10214SOL     OW31540   0.625   2.215   0.608
10214SOL    HW131541   0.691   2.286   0.583
10214SOL    HW231542   0.537   2.234   0.564
10215SOL     OW31543   3.198   2.883   2.277
10215SOL    HW131544   3.151   2.799   2.251
10215SOL    HW231545   3.150   2.962   2.239
10216SOL     OW31546   6.999   6.324   2.764
10216SOL    HW131547   0.053   6.365   2.819
10216SOL    HW231548   6.910   6.349   2.803
10217SOL     OW31549   3.607   1.220   4.221
10217SOL    HW131550   3.507   1.222   4.215
10217SOL    HW231551   3.634   1.196   4.314
10218SOL     OW31552   1.429   2.828   2.565
10218SOL    HW131553   1.444   2.894   2.492
10218SOL    HW231554   1.482   2.745   2.546
10219SOL     OW31555   6.648   0.169   2.891
10219SOL    HW131556   6.679   0.082   2.930
10219SOL    HW231557   6.727   0.226   2.868
10220SOL     OW31558   3.844   2.622   0.901
10220SOL    HW131559   3.765   2.612   0.841
10220SOL    HW231560   3.826   2.693   0.969
10221SOL     OW31561   0.519   5.305   4.003
10221SOL    HW131562   0.571   5.317   3.918
10221SOL    HW231563   0.447   5.374   4.008
10222SOL     OW31564   3.029   3.655   4.356
10222SOL    HW131565   3.127   3.645   4.345
10222SOL    HW231566   2.986   3.565   4.353
10223SOL     OW31567   0.731   6.134   1.615
10223SOL    HW131568   0.761   6.040   1.602
10223SOL    HW231569   0.640   6.145   1.574
10224SOL     OW31570   5.959   4.132   3.096
10224SOL    HW131571   5.951   4.037   3.127
10224SOL    HW231572   5.923   4.192   3.167
10225SOL     OW31573   2.563   3.653   5.967
10225SOL    HW131574   2.481   3.687   6.014
10225SOL    HW231575   2.643   3.706   5.998
10226SOL     OW31576   5.303   2.977   0.070
10226SOL    HW131577   5.271   3.064   0.032
10226SOL    HW231578   5.228   2.934   0.121
10227SOL     OW31579   5.174   3.806   1.419
10227SOL    HW131580   5.201   3.809   1.323
10227SOL    HW231581   5.256   3.809   1.477
10228SOL     OW31582   5.413   0.855   0.862
10228SOL    HW131583   5.442   0.885   0.952
10228SOL    HW231584   5.313   0.854   0.857
10229SOL     OW31585   6.770   3.428   5.116
10229SOL    HW131586   6.746   3.524   5.096
10229SOL    HW231587   6.849   3.402   5.060
10230SOL     OW31588   0.072   6.326   2.271
10230SOL    HW131589   0.055   6.232   2.242
10230SOL    HW231590   0.067   6.332   2.371
10231SOL     OW31591   1.257   5.392   3.224
10231SOL    HW131592   1.313   5.451   3.166
10231SOL    HW231593   1.235   5.441   3.308
10232SOL     OW31594   4.946   4.643   3.897
10232SOL    HW131595   4.855   4.618   3.863
10232SOL    HW231596   4.940   4.663   3.995
10233SOL     OW31597   2.941   3.951   5.942
10233SOL    HW131598   2.970   4.037   5.983
10233SOL    HW231599   2.937   3.962   5.842
10234SOL     OW31600   0.555   1.111   2.388
10234SOL    HW131601   0.502   1.113   2.303
10234SOL    HW231602   0.648   1.140   2.369
10235SOL     OW31603   1.583   0.751   2.843
10235SOL    HW131604   1.518   0.779   2.772
10235SOL    HW231605   1.663   0.810   2.841
10236SOL     OW31606   2.543   6.569   2.518
10236SOL    HW131607   2.514   6.503   2.449
10236SOL    HW231608   2.640   6.555   2.539
10237SOL     OW31609   0.369   3.552   4.987
10237SOL    HW131610   0.382   3.454   5.003
10237SOL    HW231611   0.410   3.603   5.063
10238SOL     OW31612   3.519   6.767   2.065
10238SOL    HW131613   3.563   6.806   1.984
10238SOL    HW231614   3.431   6.813   2.080
10239SOL     OW31615   0.891   2.596   4.001
10239SOL    HW131616   0.797   2.613   4.031
10239SOL    HW231617   0.909   2.498   4.002
10240SOL     OW31618   2.308   6.474   0.583
10240SOL    HW131619   2.317   6.478   0.683
10240SOL    HW231620   2.398   6.483   0.541
10241SOL     OW31621   3.769   2.555   1.497
10241SOL    HW131622   3.826   2.622   1.449
10241SOL    HW231623   3.710   2.508   1.431
10242SOL     OW31624   6.895   2.497   6.546
10242SOL    HW131625   6.798   2.474   6.555
10242SOL    HW231626   6.932   2.523   6.635
10243SOL     OW31627   2.695   5.361   1.552
10243SOL    HW131628   2.727   5.369   1.646
10243SOL    HW231629   2.744   5.287   1.506
10244SOL     OW31630   2.970   4.517   1.438
10244SOL    HW131631   3.058   4.471   1.456
10244SOL    HW231632   2.952   4.582   1.511
10245SOL     OW31633   4.466   4.325   0.930
10245SOL    HW131634   4.547   4.277   0.897
10245SOL    HW231635   4.394   4.259   0.950
10246SOL     OW31636   3.593   2.908   3.964
10246SOL    HW131637   3.498   2.879   3.952
10246SOL    HW231638   3.599   2.971   4.042
10247SOL     OW31639   0.638   2.606   4.090
10247SOL    HW131640   0.631   2.653   4.178
10247SOL    HW231641   0.554   2.621   4.038
10248SOL     OW31642   1.076   0.812   4.112
10248SOL    HW131643   1.159   0.768   4.077
10248SOL    HW231644   0.996   0.764   4.076
10249SOL     OW31645   2.944   5.288   6.044
10249SOL    HW131646   2.890   5.204   6.037
10249SOL    HW231647   2.895   5.355   6.099
10250SOL     OW31648   4.309   2.488   0.986
10250SOL    HW131649   4.379   2.559   0.989
10250SOL    HW231650   4.280   2.474   0.892
10251SOL     OW31651   1.511   0.573   4.432
10251SOL    HW131652   1.435   0.539   4.487
10251SOL    HW231653   1.572   0.497   4.410
10252SOL     OW31654   5.268   4.561   6.292
10252SOL    HW131655   5.260   4.479   6.348
10252SOL    HW231656   5.330   4.542   6.215
10253SOL     OW31657   3.574   6.181   6.115
10253SOL    HW131658   3.655   6.234   6.091
10253SOL    HW231659   3.571   6.168   6.214
10254SOL     OW31660   5.981   1.748   5.919
10254SOL    HW131661   5.899   1.696   5.943
10254SOL    HW231662   6.060   1.688   5.917
10255SOL     OW31663   3.980   4.423   1.422
10255SOL    HW131664   3.900   4.453   1.371
10255SOL    HW231665   4.056   4.410   1.359
10256SOL     OW31666   4.009   1.331   3.748
10256SOL    HW131667   4.081   1.395   3.721
10256SOL    HW231668   4.022   1.244   3.701
10257SOL     OW31669   4.107   5.639   3.265
10257SOL    HW131670   4.193   5.593   3.241
10257SOL    HW231671   4.108   5.733   3.231
10258SOL     OW31672   1.919   1.680   1.817
10258SOL    HW131673   1.824   1.703   1.837
10258SOL    HW231674   1.977   1.760   1.832
10259SOL     OW31675   2.230   4.166   4.112
10259SOL    HW131676   2.192   4.227   4.180
10259SOL    HW231677   2.234   4.073   4.149
10260SOL     OW31678   1.089   0.732   3.416
10260SOL    HW131679   1.057   0.725   3.322
10260SOL    HW231680   1.174   0.681   3.427
10261SOL     OW31681   0.038   3.687   0.804
10261SOL    HW131682   0.079   3.668   0.893
10261SOL    HW231683   6.998   3.610   0.777
10262SOL     OW31684   4.462   1.616   0.592
10262SOL    HW131685   4.473   1.690   0.658
10262SOL    HW231686   4.366   1.587   0.591
10263SOL     OW31687   5.820   1.237   2.269
10263SOL    HW131688   5.876   1.155   2.256
10263SOL    HW231689   5.880   1.317   2.277
10264SOL     OW31690   6.737   6.363   6.566
10264SOL    HW131691   6.669   6.374   6.494
10264SOL    HW231692   6.750   6.266   6.586
10265SOL     OW31693   1.948   2.092   0.783
10265SOL    HW131694   1.860   2.084   0.830
10265SOL    HW231695   2.009   2.018   0.812
10266SOL     OW31696   2.595   3.340   1.735
10266SOL    HW131697   2.511   3.379   1.773
10266SOL    HW231698   2.659   3.320   1.810
10267SOL     OW31699   5.674   0.753   1.313
10267SOL    HW131700   5.661   0.691   1.391
10267SOL    HW231701   5.593   0.749   1.254
10268SOL     OW31702   3.784   6.375   1.642
10268SOL    HW131703   3.850   6.443   1.674
10268SOL    HW231704   3.706   6.420   1.599
10269SOL     OW31705   2.910   2.347   0.742
10269SOL    HW131706   2.914   2.445   0.723
10269SOL    HW231707   2.993   2.318   0.789
10270SOL     OW31708   2.785   0.472   2.805
10270SOL    HW131709   2.722   0.510   2.738
10270SOL    HW231710   2.737   0.408   2.865
10271SOL     OW31711   1.528   1.839   6.397
10271SOL    HW131712   1.594   1.907   6.428
10271SOL    HW231713   1.471   1.878   6.324
10272SOL     OW31714   5.975   0.112   4.503
10272SOL    HW131715   6.034   0.115   4.584
10272SOL    HW231716   5.972   0.018   4.468
10273SOL     OW31717   2.272   5.294   3.566
10273SOL    HW131718   2.225   5.381   3.569
10273SOL    HW231719   2.282   5.258   3.658
10274SOL     OW31720   0.835   4.971   5.468
10274SOL    HW131721   0.793   5.009   5.550
10274SOL    HW231722   0.778   4.898   5.431
10275SOL     OW31723   6.751   0.468   2.368
10275SOL    HW131724   6.829   0.527   2.349
10275SOL    HW231725   6.673   0.524   2.397
10276SOL     OW31726   3.855   5.230   5.298
10276SOL    HW131727   3.800   5.311   5.276
10276SOL    HW231728   3.941   5.233   5.247
10277SOL     OW31729   0.563   5.858   4.035
10277SOL    HW131730   0.633   5.818   3.976
10277SOL    HW231731   0.599   5.941   4.078
10278SOL     OW31732   6.780   0.164   4.794
10278SOL    HW131733   6.769   0.138   4.890
10278SOL    HW231734   6.836   0.247   4.788
10279SOL     OW31735   2.274   6.231   4.148
10279SOL    HW131736   2.183   6.269   4.132
10279SOL    HW231737   2.341   6.305   4.155
10280SOL     OW31738   6.133   4.383   0.384
10280SOL    HW131739   6.065   4.449   0.414
10280SOL    HW231740   6.194   4.360   0.460
10281SOL     OW31741   6.364   1.461   3.563
10281SOL    HW131742   6.385   1.382   3.620
10281SOL    HW231743   6.334   1.537   3.621
10282SOL     OW31744   5.004   3.202   3.637
10282SOL    HW131745   5.077   3.270   3.644
10282SOL    HW231746   5.017   3.147   3.555
10283SOL     OW31747   0.945   2.716   1.131
10283SOL    HW131748   0.905   2.679   1.047
10283SOL    HW231749   0.892   2.683   1.210
10284SOL     OW31750   0.051   3.222   3.929
10284SOL    HW131751   0.083   3.272   4.010
10284SOL    HW231752   6.987   3.265   3.893
10285SOL     OW31753   5.971   5.523   5.335
10285SOL    HW131754   5.902   5.488   5.399
10285SOL    HW231755   5.971   5.468   5.252
10286SOL     OW31756   3.000   1.042   3.004
10286SOL    HW131757   3.002   1.056   3.103
10286SOL    HW231758   3.034   0.950   2.984
10287SOL     OW31759   2.251   5.294   3.129
10287SOL    HW131760   2.295   5.258   3.212
10287SOL    HW231761   2.315   5.351   3.079
10288SOL     OW31762   3.900   6.661   5.255
10288SOL    HW131763   3.852   6.574   5.253
10288SOL    HW231764   3.903   6.700   5.163
10289SOL     OW31765   3.324   5.464   7.002
10289SOL    HW131766   3.419   5.493   6.996
10289SOL    HW231767   3.264   5.545   6.999
10290SOL     OW31768   3.612   2.786   1.911
10290SOL    HW131769   3.688   2.849   1.894
10290SOL    HW231770   3.635   2.695   1.877
10291SOL     OW31771   2.113   1.868   1.900
10291SOL    HW131772   2.136   1.831   1.990
10291SOL    HW231773   2.041   1.936   1.910
10292SOL     OW31774   6.646   6.849   6.064
10292SOL    HW131775   6.602   6.771   6.109
10292SOL    HW231776   6.577   6.919   6.045
10293SOL     OW31777   1.182   4.173   4.860
10293SOL    HW131778   1.104   4.198   4.917
10293SOL    HW231779   1.219   4.085   4.890
10294SOL     OW31780   3.212   1.376   2.303
10294SOL    HW131781   3.211   1.345   2.208
10294SOL    HW231782   3.181   1.471   2.307
10295SOL     OW31783   1.222   2.078   6.503
10295SOL    HW131784   1.138   2.025   6.513
10295SOL    HW231785   1.288   2.025   6.449
10296SOL     OW31786   6.176   1.245   5.499
10296SOL    HW131787   6.253   1.306   5.518
10296SOL    HW231788   6.097   1.299   5.472
10297SOL     OW31789   3.642   0.830   6.882
10297SOL    HW131790   3.709   0.783   6.939
10297SOL    HW231791   3.635   0.926   6.911
10298SOL     OW31792   0.678   2.337   2.096
10298SOL    HW131793   0.673   2.332   2.196
10298SOL    HW231794   0.686   2.432   2.067
10299SOL     OW31795   4.165   6.535   3.038
10299SOL    HW131796   4.131   6.455   2.989
10299SOL    HW231797   4.153   6.521   3.136
10300SOL     OW31798   1.300   4.090   1.751
10300SOL    HW131799   1.338   3.999   1.768
10300SOL    HW231800   1.338   4.126   1.665
10301SOL     OW31801   4.113   0.456   6.495
10301SOL    HW131802   4.062   0.439   6.579
10301SOL    HW231803   4.050   0.479   6.421
10302SOL     OW31804   2.665   6.104   4.879
10302SOL    HW131805   2.618   6.190   4.857
10302SOL    HW231806   2.735   6.122   4.949
10303SOL     OW31807   0.571   5.642   4.861
10303SOL    HW131808   0.526   5.707   4.922
10303SOL    HW231809   0.628   5.580   4.915
10304SOL     OW31810   6.088   6.458   0.636
10304SOL    HW131811   6.156   6.418   0.575
10304SOL    HW231812   6.134   6.514   0.705
10305SOL     OW31813   3.111   4.151   5.724
10305SOL    HW131814   3.134   4.248   5.732
10305SOL    HW231815   3.043   4.138   5.652
10306SOL     OW31816   4.220   0.706   1.270
10306SOL    HW131817   4.317   0.712   1.243
10306SOL    HW231818   4.168   0.665   1.195
10307SOL     OW31819   2.223   0.173   5.446
10307SOL    HW131820   2.207   0.268   5.421
10307SOL    HW231821   2.283   0.169   5.526
10308SOL     OW31822   2.598   5.094   2.711
10308SOL    HW131823   2.637   5.127   2.797
10308SOL    HW231824   2.578   4.996   2.718
10309SOL     OW31825   6.985   1.281   4.785
10309SOL    HW131826   6.887   1.270   4.771
10309SOL    HW231827   0.007   1.328   4.706
10310SOL     OW31828   2.098   4.012   5.707
10310SOL    HW131829   2.183   4.050   5.671
10310SOL    HW231830   2.120   3.946   5.780
10311SOL     OW31831   4.967   5.514   6.252
10311SOL    HW131832   5.001   5.446   6.317
10311SOL    HW231833   4.925   5.590   6.301
10312SOL     OW31834   4.492   0.321   2.103
10312SOL    HW131835   4.405   0.365   2.083
10312SOL    HW231836   4.547   0.317   2.020
10313SOL     OW31837   5.326   6.975   3.232
10313SOL    HW131838   5.342   6.991   3.330
10313SOL    HW231839   5.367   6.887   3.207
10314SOL     OW31840   0.518   0.279   0.880
10314SOL    HW131841   0.504   0.231   0.794
10314SOL    HW231842   0.455   0.243   0.949
10315SOL     OW31843   5.482   5.276   3.517
10315SOL    HW131844   5.480   5.317   3.609
10315SOL    HW231845   5.552   5.205   3.514
10316SOL     OW31846   0.404   1.876   6.461
10316SOL    HW131847   0.488   1.826   6.482
10316SOL    HW231848   0.362   1.909   6.546
10317SOL     OW31849   3.586   5.859   5.046
10317SOL    HW131850   3.664   5.846   5.107
10317SOL    HW231851   3.614   5.843   4.951
10318SOL     OW31852   6.512   6.779   0.369
10318SOL    HW131853   6.598   6.733   0.347
10318SOL    HW231854   6.437   6.735   0.319
10319SOL     OW31855   0.929   4.216   3.891
10319SOL    HW131856   0.886   4.188   3.977
10319SOL    HW231857   1.015   4.263   3.910
10320SOL     OW31858   0.386   6.630   3.856
10320SOL    HW131859   0.398   6.616   3.758
10320SOL    HW231860   0.293   6.603   3.882
10321SOL     OW31861   4.982   2.671   2.107
10321SOL    HW131862   5.046   2.745   2.088
10321SOL    HW231863   5.033   2.586   2.122
10322SOL     OW31864   4.566   4.394   5.017
10322SOL    HW131865   4.537   4.341   5.097
10322SOL    HW231866   4.493   4.457   4.991
10323SOL     OW31867   0.841   4.587   5.619
10323SOL    HW131868   0.932   4.610   5.586
10323SOL    HW231869   0.778   4.578   5.542
10324SOL     OW31870   3.300   3.120   1.980
10324SOL    HW131871   3.393   3.156   1.981
10324SOL    HW231872   3.295   3.043   1.916
10325SOL     OW31873   6.744   5.583   3.455
10325SOL    HW131874   6.778   5.587   3.361
10325SOL    HW231875   6.797   5.515   3.506
10326SOL     OW31876   5.554   3.687   6.665
10326SOL    HW131877   5.457   3.701   6.647
10326SOL    HW231878   5.584   3.601   6.622
10327SOL     OW31879   2.236   4.671   1.118
10327SOL    HW131880   2.161   4.666   1.184
10327SOL    HW231881   2.322   4.650   1.163
10328SOL     OW31882   6.039   2.231   2.058
10328SOL    HW131883   5.971   2.291   2.100
10328SOL    HW231884   5.995   2.172   1.990
10329SOL     OW31885   3.648   1.526   3.213
10329SOL    HW131886   3.551   1.524   3.240
10329SOL    HW231887   3.665   1.606   3.155
10330SOL     OW31888   4.505   1.531   1.580
10330SOL    HW131889   4.549   1.446   1.552
10330SOL    HW231890   4.575   1.601   1.596
10331SOL     OW31891   6.359   5.321   6.561
10331SOL    HW131892   6.300   5.247   6.528
10331SOL    HW231893   6.323   5.356   6.648
10332SOL     OW31894   1.557   0.997   6.933
10332SOL    HW131895   1.611   0.949   6.865
10332SOL    HW231896   1.571   1.096   6.923
10333SOL     OW31897   0.793   4.550   4.540
10333SOL    HW131898   0.837   4.557   4.451
10333SOL    HW231899   0.796   4.455   4.572
10334SOL     OW31900   3.154   0.275   3.627
10334SOL    HW131901   3.158   0.243   3.722
10334SOL    HW231902   3.222   0.346   3.613
10335SOL     OW31903   0.786   2.273   5.701
10335SOL    HW131904   0.743   2.309   5.619
10335SOL    HW231905   0.838   2.190   5.679
10336SOL     OW31906   5.112   6.931   3.639
10336SOL    HW131907   5.078   6.849   3.592
10336SOL    HW231908   5.089   6.926   3.736
10337SOL     OW31909   6.562   5.622   6.412
10337SOL    HW131910   6.648   5.572   6.417
10337SOL    HW231911   6.543   5.647   6.317
10338SOL     OW31912   1.386   6.415   1.810
10338SOL    HW131913   1.289   6.415   1.832
10338SOL    HW231914   1.439   6.448   1.888
10339SOL     OW31915   6.251   2.527   5.268
10339SOL    HW131916   6.183   2.548   5.338
10339SOL    HW231917   6.221   2.447   5.215
10340SOL     OW31918   2.201   3.273   6.522
10340SOL    HW131919   2.183   3.177   6.543
10340SOL    HW231920   2.279   3.280   6.460
10341SOL     OW31921   2.250   2.853   2.925
10341SOL    HW131922   2.334   2.803   2.948
10341SOL    HW231923   2.203   2.807   2.850
10342SOL     OW31924   0.622   1.599   3.764
10342SOL    HW131925   0.589   1.599   3.669
10342SOL    HW231926   0.673   1.515   3.781
10343SOL     OW31927   3.279   5.624   2.177
10343SOL    HW131928   3.338   5.685   2.126
10343SOL    HW231929   3.212   5.678   2.229
10344SOL     OW31930   4.342   5.793   5.764
10344SOL    HW131931   4.333   5.842   5.851
10344SOL    HW231932   4.326   5.857   5.689
10345SOL     OW31933   2.188   3.599   4.231
10345SOL    HW131934   2.144   3.581   4.319
10345SOL    HW231935   2.285   3.618   4.245
10346SOL     OW31936   6.742   6.030   0.612
10346SOL    HW131937   6.702   6.110   0.568
10346SOL    HW231938   6.675   5.955   0.615
10347SOL     OW31939   5.179   1.528   4.131
10347SOL    HW131940   5.171   1.502   4.227
10347SOL    HW231941   5.093   1.570   4.101
10348SOL     OW31942   6.639   4.227   0.818
10348SOL    HW131943   6.696   4.220   0.736
10348SOL    HW231944   6.638   4.140   0.866
10349SOL     OW31945   0.872   6.659   6.682
10349SOL    HW131946   0.852   6.562   6.694
10349SOL    HW231947   0.787   6.711   6.682
10350SOL     OW31948   3.404   6.820   6.101
10350SOL    HW131949   3.412   6.724   6.078
10350SOL    HW231950   3.414   6.832   6.200
10351SOL     OW31951   4.343   5.279   6.879
10351SOL    HW131952   4.412   5.267   6.807
10351SOL    HW231953   4.337   5.196   6.933
10352SOL     OW31954   3.516   3.511   6.154
10352SOL    HW131955   3.583   3.527   6.227
10352SOL    HW231956   3.443   3.578   6.161
10353SOL     OW31957   0.604   2.443   4.675
10353SOL    HW131958   0.684   2.383   4.673
10353SOL    HW231959   0.613   2.513   4.604
10354SOL     OW31960   5.701   1.588   1.528
10354SOL    HW131961   5.622   1.648   1.515
10354SOL    HW231962   5.681   1.499   1.488
10355SOL     OW31963   1.558   4.931   2.270
10355SOL    HW131964   1.638   4.905   2.218
10355SOL    HW231965   1.581   4.939   2.367
10356SOL     OW31966   6.979   2.972   4.355
10356SOL    HW131967   6.944   2.884   4.324
10356SOL    HW231968   0.048   2.992   4.309
10357SOL     OW31969   2.520   2.172   0.508
10357SOL    HW131970   2.583   2.117   0.454
10357SOL    HW231971   2.566   2.200   0.593
10358SOL     OW31972   0.325   1.609   2.223
10358SOL    HW131973   0.307   1.664   2.142
10358SOL    HW231974   0.330   1.669   2.303
10359SOL     OW31975   0.336   1.180   1.406
10359SOL    HW131976   0.339   1.279   1.420
10359SOL    HW231977   0.266   1.157   1.339
10360SOL     OW31978   6.468   6.249   3.577
10360SOL    HW131979   6.460   6.186   3.500
10360SOL    HW231980   6.402   6.323   3.566
10361SOL     OW31981   1.808   4.882   1.376
10361SOL    HW131982   1.735   4.841   1.321
10361SOL    HW231983   1.863   4.942   1.319
10362SOL     OW31984   1.406   4.943   4.252
10362SOL    HW131985   1.360   4.957   4.340
10362SOL    HW231986   1.503   4.965   4.262
10363SOL     OW31987   5.937   0.322   3.603
10363SOL    HW131988   5.871   0.376   3.549
10363SOL    HW231989   6.029   0.355   3.585
10364SOL     OW31990   1.343   4.574   1.069
10364SOL    HW131991   1.345   4.612   1.161
10364SOL    HW231992   1.282   4.494   1.067
10365SOL     OW31993   4.627   6.079   0.248
10365SOL    HW131994   4.594   6.062   0.341
10365SOL    HW231995   4.653   5.993   0.206
10366SOL     OW31996   3.376   0.018   3.749
10366SOL    HW131997   3.344   0.100   3.796
10366SOL    HW231998   3.452   0.042   3.689
10367SOL     OW31999   6.363   2.136   2.992
10367SOL    HW132000   6.386   2.213   3.051
10367SOL    HW232001   6.321   2.063   3.047
10368SOL     OW32002   2.620   0.257   1.177
10368SOL    HW132003   2.545   0.284   1.117
10368SOL    HW232004   2.706   0.292   1.140
10369SOL     OW32005   4.182   3.068   0.402
10369SOL    HW132006   4.132   3.002   0.345
10369SOL    HW232007   4.123   3.100   0.476
10370SOL     OW32008   3.444   0.633   5.259
10370SOL    HW132009   3.499   0.716   5.269
10370SOL    HW232010   3.475   0.565   5.325
10371SOL     OW32011   5.067   6.507   5.572
10371SOL    HW132012   5.119   6.568   5.512
10371SOL    HW232013   5.007   6.449   5.517
10372SOL     OW32014   0.664   0.505   3.101
10372SOL    HW132015   0.691   0.428   3.158
10372SOL    HW232016   0.621   0.576   3.158
10373SOL     OW32017   1.602   5.375   5.046
10373SOL    HW132018   1.518   5.342   5.002
10373SOL    HW232019   1.597   5.475   5.054
10374SOL     OW32020   2.817   2.310   4.537
10374SOL    HW132021   2.810   2.406   4.511
10374SOL    HW232022   2.812   2.301   4.637
10375SOL     OW32023   6.928   2.048   0.468
10375SOL    HW132024   6.978   1.984   0.409
10375SOL    HW232025   6.905   2.130   0.416
10376SOL     OW32026   6.530   1.023   3.440
10376SOL    HW132027   6.430   1.017   3.445
10376SOL    HW232028   6.570   0.934   3.463
10377SOL     OW32029   0.885   6.924   4.661
10377SOL    HW132030   0.809   6.859   4.655
10377SOL    HW232031   0.873   6.995   4.591
10378SOL     OW32032   6.889   6.935   6.149
10378SOL    HW132033   6.792   6.925   6.130
10378SOL    HW232034   6.940   6.861   6.105
10379SOL     OW32035   5.582   1.624   4.698
10379SOL    HW132036   5.538   1.624   4.609
10379SOL    HW232037   5.547   1.547   4.752
10380SOL     OW32038   4.452   0.868   3.098
10380SOL    HW132039   4.488   0.860   3.191
10380SOL    HW232040   4.525   0.845   3.033
10381SOL     OW32041   4.052   5.105   4.853
10381SOL    HW132042   3.975   5.064   4.803
10381SOL    HW232043   4.088   5.039   4.919
10382SOL     OW32044   1.928   5.733   0.440
10382SOL    HW132045   2.013   5.786   0.440
10382SOL    HW232046   1.945   5.642   0.478
10383SOL     OW32047   6.145   2.697   6.830
10383SOL    HW132048   6.126   2.607   6.792
10383SOL    HW232049   6.062   2.732   6.876
10384SOL     OW32050   6.306   0.268   7.000
10384SOL    HW132051   6.364   0.348   0.002
10384SOL    HW232052   6.213   0.285   0.015
10385SOL     OW32053   5.721   2.386   0.007
10385SOL    HW132054   5.745   2.441   0.087
10385SOL    HW232055   5.804   2.351   6.983
10386SOL     OW32056   6.413   2.393   6.430
10386SOL    HW132057   6.351   2.315   6.423
10386SOL    HW232058   6.477   2.392   6.353
10387SOL     OW32059   2.106   3.500   2.670
10387SOL    HW132060   2.083   3.588   2.712
10387SOL    HW232061   2.197   3.505   2.630
10388SOL     OW32062   1.681   4.423   2.507
10388SOL    HW132063   1.683   4.351   2.437
10388SOL    HW232064   1.723   4.506   2.470
10389SOL     OW32065   0.548   5.520   3.084
10389SOL    HW132066   0.506   5.589   3.024
10389SOL    HW232067   0.589   5.448   3.028
10390SOL     OW32068   1.894   3.064   3.034
10390SOL    HW132069   1.928   3.025   2.948
10390SOL    HW232070   1.950   3.030   3.110
10391SOL     OW32071   3.350   6.324   5.142
10391SOL    HW132072   3.322   6.373   5.224
10391SOL    HW232073   3.326   6.377   5.061
10392SOL     OW32074   6.766   4.817   6.777
10392SOL    HW132075   6.780   4.905   6.824
10392SOL    HW232076   6.671   4.788   6.790
10393SOL     OW32077   1.404   1.078   3.926
10393SOL    HW132078   1.308   1.051   3.919
10393SOL    HW232079   1.410   1.178   3.929
10394SOL     OW32080   2.828   6.845   0.166
10394SOL    HW132081   2.883   6.762   0.157
10394SOL    HW232082   2.881   6.924   0.136
10395SOL     OW32083   1.132   1.661   4.856
10395SOL    HW132084   1.188   1.707   4.786
10395SOL    HW232085   1.035   1.674   4.835
10396SOL     OW32086   0.633   0.134   5.074
10396SOL    HW132087   0.646   0.046   5.119
10396SOL    HW232088   0.643   0.124   4.975
10397SOL     OW32089   4.008   2.195   2.630
10397SOL    HW132090   3.940   2.264   2.604
10397SOL    HW232091   3.992   2.166   2.724
10398SOL     OW32092   6.666   3.350   2.680
10398SOL    HW132093   6.727   3.321   2.606
10398SOL    HW232094   6.645   3.447   2.670
10399SOL     OW32095   6.111   2.592   5.483
10399SOL    HW132096   6.147   2.530   5.553
10399SOL    HW232097   6.049   2.657   5.525
10400SOL     OW32098   1.911   4.673   1.538
10400SOL    HW132099   1.847   4.745   1.511
10400SOL    HW232100   1.920   4.671   1.637
10401SOL     OW32101   0.769   6.005   1.282
10401SOL    HW132102   0.838   6.057   1.333
10401SOL    HW232103   0.786   5.907   1.294
10402SOL     OW32104   0.662   2.290   4.099
10402SOL    HW132105   0.613   2.313   4.183
10402SOL    HW232106   0.760   2.303   4.113
10403SOL     OW32107   4.249   1.391   2.187
10403SOL    HW132108   4.343   1.373   2.216
10403SOL    HW232109   4.242   1.377   2.088
10404SOL     OW32110   0.101   0.010   3.756
10404SOL    HW132111   0.184   0.066   3.752
10404SOL    HW232112   0.078   7.010   3.851
10405SOL     OW32113   2.171   6.475   6.689
10405SOL    HW132114   2.174   6.400   6.623
10405SOL    HW232115   2.188   6.562   6.641
10406SOL     OW32116   1.989   5.531   5.647
10406SOL    HW132117   2.028   5.443   5.675
10406SOL    HW232118   1.978   5.533   5.548
10407SOL     OW32119   1.968   1.567   5.730
10407SOL    HW132120   1.877   1.524   5.731
10407SOL    HW232121   2.037   1.499   5.706
10408SOL     OW32122   4.010   6.310   2.980
10408SOL    HW132123   3.944   6.345   2.913
10408SOL    HW232124   3.999   6.211   2.988
10409SOL     OW32125   6.572   4.609   2.273
10409SOL    HW132126   6.639   4.624   2.345
10409SOL    HW232127   6.510   4.688   2.269
10410SOL     OW32128   5.659   6.442   0.570
10410SOL    HW132129   5.645   6.389   0.653
10410SOL    HW232130   5.722   6.518   0.590
10411SOL     OW32131   1.741   4.170   2.722
10411SOL    HW132132   1.729   4.256   2.672
10411SOL    HW232133   1.816   4.179   2.787
10412SOL     OW32134   0.076   2.146   6.478
10412SOL    HW132135   0.095   2.234   6.434
10412SOL    HW232136   7.004   2.114   6.450
10413SOL     OW32137   0.145   2.214   5.755
10413SOL    HW132138   0.107   2.255   5.838
10413SOL    HW232139   0.201   2.135   5.780
10414SOL     OW32140   5.743   6.652   4.875
10414SOL    HW132141   5.788   6.671   4.962
10414SOL    HW232142   5.775   6.717   4.806
10415SOL     OW32143   0.423   5.244   3.070
10415SOL    HW132144   0.415   5.146   3.086
10415SOL    HW232145   0.494   5.282   3.130
10416SOL     OW32146   5.116   6.926   0.095
10416SOL    HW132147   5.212   6.897   0.089
10416SOL    HW232148   5.091   6.938   0.191
10417SOL     OW32149   4.042   4.803   4.043
10417SOL    HW132150   4.034   4.777   4.139
10417SOL    HW232151   4.114   4.750   3.999
10418SOL     OW32152   6.692   3.601   0.007
10418SOL    HW132153   6.602   3.605   6.982
10418SOL    HW232154   6.682   3.565   0.100
10419SOL     OW32155   2.115   0.895   4.262
10419SOL    HW132156   2.072   0.986   4.263
10419SOL    HW232157   2.047   0.827   4.289
10420SOL     OW32158   5.619   2.892   4.313
10420SOL    HW132159   5.602   2.857   4.221
10420SOL    HW232160   5.692   2.960   4.309
10421SOL     OW32161   1.383   4.387   3.817
10421SOL    HW132162   1.368   4.485   3.807
10421SOL    HW232163   1.462   4.370   3.876
10422SOL     OW32164   5.631   3.095   5.377
10422SOL    HW132165   5.597   3.187   5.397
10422SOL    HW232166   5.730   3.098   5.364
10423SOL     OW32167   2.477   5.436   3.738
10423SOL    HW132168   2.490   5.452   3.640
10423SOL    HW232169   2.410   5.363   3.751
10424SOL     OW32170   3.759   1.408   1.117
10424SOL    HW132171   3.694   1.351   1.168
10424SOL    HW232172   3.724   1.501   1.111
10425SOL     OW32173   1.766   3.857   0.563
10425SOL    HW132174   1.771   3.841   0.662
10425SOL    HW232175   1.756   3.769   0.516
10426SOL     OW32176   6.026   2.210   6.018
10426SOL    HW132177   6.027   2.304   5.983
10426SOL    HW232178   5.957   2.157   5.969
10427SOL     OW32179   5.368   1.073   3.337
10427SOL    HW132180   5.466   1.063   3.356
10427SOL    HW232181   5.319   0.994   3.373
10428SOL     OW32182   1.988   6.112   5.070
10428SOL    HW132183   2.067   6.072   5.022
10428SOL    HW232184   1.933   6.165   5.004
10429SOL     OW32185   1.505   3.708   1.621
10429SOL    HW132186   1.542   3.801   1.628
10429SOL    HW232187   1.551   3.649   1.687
10430SOL     OW32188   3.093   0.524   4.193
10430SOL    HW132189   3.073   0.439   4.241
10430SOL    HW232190   3.020   0.590   4.212
10431SOL     OW32191   4.316   1.385   4.345
10431SOL    HW132192   4.270   1.401   4.432
10431SOL    HW232193   4.414   1.376   4.359
10432SOL     OW32194   1.135   5.399   0.545
10432SOL    HW132195   1.072   5.321   0.553
10432SOL    HW232196   1.216   5.371   0.494
10433SOL     OW32197   3.757   6.466   3.817
10433SOL    HW132198   3.805   6.403   3.757
10433SOL    HW232199   3.680   6.420   3.860
10434SOL     OW32200   4.160   1.184   6.332
10434SOL    HW132201   4.163   1.118   6.257
10434SOL    HW232202   4.252   1.220   6.348
10435SOL     OW32203   2.802   1.679   1.238
10435SOL    HW132204   2.893   1.677   1.197
10435SOL    HW232205   2.780   1.588   1.274
10436SOL     OW32206   1.403   3.338   4.852
10436SOL    HW132207   1.388   3.246   4.816
10436SOL    HW232208   1.448   3.332   4.940
10437SOL     OW32209   6.797   6.542   5.161
10437SOL    HW132210   6.741   6.533   5.078
10437SOL    HW232211   6.891   6.513   5.141
10438SOL     OW32212   6.782   5.849   6.940
10438SOL    HW132213   6.741   5.917   6.879
10438SOL    HW232214   6.727   5.844   0.006
10439SOL     OW32215   6.365   5.318   4.785
10439SOL    HW132216   6.379   5.230   4.831
10439SOL    HW232217   6.373   5.392   4.852
10440SOL     OW32218   5.961   2.232   1.297
10440SOL    HW132219   5.915   2.222   1.386
10440SOL    HW232220   5.938   2.320   1.257
10441SOL     OW32221   4.351   2.011   6.705
10441SOL    HW132222   4.275   2.018   6.641
10441SOL    HW232223   4.350   1.921   6.749
10442SOL     OW32224   2.400   1.501   5.041
10442SOL    HW132225   2.435   1.524   5.132
10442SOL    HW232226   2.304   1.474   5.048
10443SOL     OW32227   1.260   0.654   0.660
10443SOL    HW132228   1.168   0.653   0.621
10443SOL    HW232229   1.271   0.575   0.721
10444SOL     OW32230   4.517   4.847   3.724
10444SOL    HW132231   4.447   4.853   3.795
10444SOL    HW232232   4.577   4.769   3.742
10445SOL     OW32233   1.240   3.057   3.972
10445SOL    HW132234   1.214   3.055   4.069
10445SOL    HW232235   1.223   3.148   3.935
10446SOL     OW32236   2.402   4.725   5.680
10446SOL    HW132237   2.380   4.810   5.632
10446SOL    HW232238   2.448   4.663   5.618
10447SOL     OW32239   0.858   1.998   2.762
10447SOL    HW132240   0.819   1.979   2.672
10447SOL    HW232241   0.805   1.952   2.832
10448SOL     OW32242   1.681   5.834   2.420
10448SOL    HW132243   1.583   5.840   2.437
10448SOL    HW232244   1.715   5.921   2.385
10449SOL     OW32245   4.074   5.093   4.029
10449SOL    HW132246   3.988   5.130   3.994
10449SOL    HW232247   4.068   4.993   4.032
10450SOL     OW32248   0.196   1.165   4.174
10450SOL    HW132249   0.184   1.110   4.257
10450SOL    HW232250   0.144   1.123   4.099
10451SOL     OW32251   3.430   1.929   4.310
10451SOL    HW132252   3.452   1.844   4.359
10451SOL    HW232253   3.513   1.966   4.269
10452SOL     OW32254   6.563   2.570   4.550
10452SOL    HW132255   6.620   2.638   4.504
10452SOL    HW232256   6.607   2.542   4.635
10453SOL     OW32257   4.044   6.105   4.205
10453SOL    HW132258   3.984   6.185   4.210
10453SOL    HW232259   3.992   6.024   4.232
10454SOL     OW32260   6.449   0.861   6.315
10454SOL    HW132261   6.417   0.837   6.407
10454SOL    HW232262   6.498   0.783   6.276
10455SOL     OW32263   0.221   5.707   3.024
10455SOL    HW132264   0.221   5.648   2.943
10455SOL    HW232265   0.315   5.727   3.050
10456SOL     OW32266   0.979   5.634   6.719
10456SOL    HW132267   0.986   5.534   6.727
10456SOL    HW232268   1.069   5.673   6.702
10457SOL     OW32269   3.881   1.640   6.579
10457SOL    HW132270   3.827   1.606   6.656
10457SOL    HW232271   3.978   1.626   6.597
10458SOL     OW32272   1.335   6.359   6.370
10458SOL    HW132273   1.421   6.369   6.321
10458SOL    HW232274   1.303   6.264   6.363
10459SOL     OW32275   5.999   5.486   1.012
10459SOL    HW132276   6.063   5.560   0.988
10459SOL    HW232277   5.934   5.473   0.938
10460SOL     OW32278   6.034   0.660   0.462
10460SOL    HW132279   6.005   0.754   0.482
10460SOL    HW232280   6.088   0.659   0.378
10461SOL     OW32281   6.978   4.467   6.362
10461SOL    HW132282   6.988   4.559   6.326
10461SOL    HW232283   7.000   4.467   6.459
10462SOL     OW32284   3.107   3.960   6.240
10462SOL    HW132285   3.154   3.892   6.184
10462SOL    HW232286   3.053   4.020   6.182
10463SOL     OW32287   4.962   2.757   6.697
10463SOL    HW132288   4.901   2.755   6.776
10463SOL    HW232289   5.057   2.766   6.728
10464SOL     OW32290   6.531   4.652   1.792
10464SOL    HW132291   6.562   4.683   1.882
10464SOL    HW232292   6.493   4.730   1.741
10465SOL     OW32293   5.852   4.851   1.258
10465SOL    HW132294   5.823   4.788   1.329
10465SOL    HW232295   5.817   4.943   1.279
10466SOL     OW32296   5.795   4.039   5.903
10466SOL    HW132297   5.859   3.985   5.848
10466SOL    HW232298   5.764   4.118   5.850
10467SOL     OW32299   0.190   2.427   6.772
10467SOL    HW132300   0.161   2.494   6.841
10467SOL    HW232301   0.115   2.362   6.755
10468SOL     OW32302   1.571   4.578   4.563
10468SOL    HW132303   1.660   4.575   4.608
10468SOL    HW232304   1.540   4.484   4.546
10469SOL     OW32305   0.911   1.527   3.599
10469SOL    HW132306   0.917   1.626   3.598
10469SOL    HW232307   0.887   1.496   3.691
10470SOL     OW32308   1.959   3.668   2.369
10470SOL    HW132309   2.011   3.741   2.415
10470SOL    HW232310   1.878   3.645   2.424
10471SOL     OW32311   2.208   5.951   6.380
10471SOL    HW132312   2.109   5.947   6.396
10471SOL    HW232313   2.254   5.886   6.441
10472SOL     OW32314   3.931   5.257   6.449
10472SOL    HW132315   3.857   5.324   6.443
10472SOL    HW232316   3.892   5.166   6.464
10473SOL     OW32317   6.362   4.706   0.679
10473SOL    HW132318   6.446   4.672   0.636
10473SOL    HW232319   6.301   4.743   0.609
10474SOL     OW32320   6.322   6.814   5.186
10474SOL    HW132321   6.393   6.853   5.129
10474SOL    HW232322   6.251   6.882   5.203
10475SOL     OW32323   0.926   5.360   1.519
10475SOL    HW132324   0.922   5.271   1.474
10475SOL    HW232325   0.947   5.431   1.451
10476SOL     OW32326   5.109   6.624   1.215
10476SOL    HW132327   5.038   6.669   1.161
10476SOL    HW232328   5.130   6.535   1.174
10477SOL     OW32329   6.705   5.790   3.609
10477SOL    HW132330   6.772   5.776   3.682
10477SOL    HW232331   6.713   5.716   3.542
10478SOL     OW32332   0.078   0.853   6.486
10478SOL    HW132333   0.015   0.793   6.437
10478SOL    HW232334   0.115   0.805   6.565
10479SOL     OW32335   0.546   2.912   2.316
10479SOL    HW132336   0.637   2.871   2.307
10479SOL    HW232337   0.502   2.877   2.399
10480SOL     OW32338   2.714   1.116   3.569
10480SOL    HW132339   2.719   1.191   3.502
10480SOL    HW232340   2.626   1.071   3.562
10481SOL     OW32341   6.583   1.471   1.007
10481SOL    HW132342   6.547   1.563   0.996
10481SOL    HW232343   6.606   1.455   1.103
10482SOL     OW32344   5.663   2.917   3.697
10482SOL    HW132345   5.737   2.850   3.710
10482SOL    HW232346   5.703   3.006   3.674
10483SOL     OW32347   6.262   6.434   0.403
10483SOL    HW132348   6.248   6.405   0.308
10483SOL    HW232349   6.244   6.532   0.412
10484SOL     OW32350   6.648   0.924   2.286
10484SOL    HW132351   6.554   0.903   2.315
10484SOL    HW232352   6.689   0.842   2.245
10485SOL     OW32353   5.102   3.230   4.993
10485SOL    HW132354   5.167   3.196   5.061
10485SOL    HW232355   5.136   3.207   4.901
10486SOL     OW32356   5.121   2.924   2.818
10486SOL    HW132357   5.060   2.922   2.897
10486SOL    HW232358   5.216   2.922   2.849
10487SOL     OW32359   5.341   6.838   2.151
10487SOL    HW132360   5.416   6.894   2.114
10487SOL    HW232361   5.368   6.802   2.240
10488SOL     OW32362   3.361   3.924   6.772
10488SOL    HW132363   3.381   3.840   6.822
10488SOL    HW232364   3.311   3.902   6.688
10489SOL     OW32365   1.365   5.627   5.252
10489SOL    HW132366   1.366   5.543   5.197
10489SOL    HW232367   1.415   5.612   5.337
10490SOL     OW32368   6.696   0.321   4.416
10490SOL    HW132369   6.598   0.339   4.404
10490SOL    HW232370   6.708   0.237   4.468
10491SOL     OW32371   0.169   5.289   5.474
10491SOL    HW132372   0.175   5.215   5.541
10491SOL    HW232373   0.095   5.351   5.499
10492SOL     OW32374   4.000   4.435   6.129
10492SOL    HW132375   3.935   4.506   6.102
10492SOL    HW232376   3.972   4.348   6.088
10493SOL     OW32377   3.687   1.323   0.800
10493SOL    HW132378   3.704   1.270   0.884
10493SOL    HW232379   3.603   1.290   0.757
10494SOL     OW32380   5.629   1.863   4.908
10494SOL    HW132381   5.644   1.804   4.829
10494SOL    HW232382   5.540   1.907   4.899
10495SOL     OW32383   1.663   6.592   0.568
10495SOL    HW132384   1.565   6.574   0.570
10495SOL    HW232385   1.680   6.687   0.593
10496SOL     OW32386   6.294   0.410   5.493
10496SOL    HW132387   6.330   0.468   5.566
10496SOL    HW232388   6.255   0.467   5.420
10497SOL     OW32389   1.044   1.677   6.605
10497SOL    HW132390   0.993   1.744   6.551
10497SOL    HW232391   1.003   1.586   6.593
10498SOL     OW32392   3.103   4.847   6.138
10498SOL    HW132393   3.160   4.840   6.056
10498SOL    HW232394   3.012   4.811   6.118
10499SOL     OW32395   2.646   5.231   3.527
10499SOL    HW132396   2.664   5.232   3.429
10499SOL    HW232397   2.700   5.303   3.572
10500SOL     OW32398   2.127   2.367   6.871
10500SOL    HW132399   2.072   2.303   6.925
10500SOL    HW232400   2.109   2.352   6.774
10501SOL     OW32401   1.419   2.282   3.416
10501SOL    HW132402   1.346   2.302   3.351
10501SOL    HW232403   1.507   2.283   3.369
10502SOL     OW32404   2.995   5.958   4.970
10502SOL    HW132405   2.907   5.947   5.016
10502SOL    HW232406   3.069   5.949   5.036
10503SOL     OW32407   2.708   3.408   5.385
10503SOL    HW132408   2.761   3.325   5.366
10503SOL    HW232409   2.614   3.384   5.408
10504SOL     OW32410   2.380   3.527   1.143
10504SOL    HW132411   2.379   3.528   1.243
10504SOL    HW232412   2.440   3.601   1.110
10505SOL     OW32413   0.213   0.082   0.870
10505SOL    HW132414   0.125   0.035   0.881
10505SOL    HW232415   0.253   0.099   0.960
10506SOL     OW32416   0.037   3.722   5.335
10506SOL    HW132417   0.073   3.805   5.291
10506SOL    HW232418   0.110   3.654   5.343
10507SOL     OW32419   1.158   0.208   4.070
10507SOL    HW132420   1.139   0.167   4.159
10507SOL    HW232421   1.229   0.157   4.023
10508SOL     OW32422   5.365   3.486   2.462
10508SOL    HW132423   5.305   3.451   2.534
10508SOL    HW232424   5.365   3.586   2.464
10509SOL     OW32425   1.543   0.545   6.017
10509SOL    HW132426   1.620   0.484   5.997
10509SOL    HW232427   1.571   0.640   6.001
10510SOL     OW32428   6.174   6.715   6.978
10510SOL    HW132429   6.224   6.781   6.922
10510SOL    HW232430   6.158   6.632   6.924
10511SOL     OW32431   0.256   1.825   0.937
10511SOL    HW132432   0.355   1.838   0.933
10511SOL    HW232433   0.212   1.885   0.870
10512SOL     OW32434   3.333   6.286   6.342
10512SOL    HW132435   3.402   6.259   6.409
10512SOL    HW232436   3.256   6.329   6.389
10513SOL     OW32437   0.012   1.958   0.779
10513SOL    HW132438   6.978   1.896   0.839
10513SOL    HW232439   6.970   2.030   0.745
10514SOL     OW32440   6.669   3.620   1.308
10514SOL    HW132441   6.732   3.594   1.381
10514SOL    HW232442   6.578   3.636   1.346
10515SOL     OW32443   6.075   2.418   4.374
10515SOL    HW132444   6.172   2.444   4.382
10515SOL    HW232445   6.018   2.493   4.407
10516SOL     OW32446   3.475   0.361   0.274
10516SOL    HW132447   3.408   0.403   0.335
10516SOL    HW232448   3.553   0.423   0.262
10517SOL     OW32449   7.016   2.675   2.858
10517SOL    HW132450   6.995   2.596   2.915
10517SOL    HW232451   0.097   2.686   2.851
10518SOL     OW32452   0.769   6.845   2.644
10518SOL    HW132453   0.851   6.902   2.633
10518SOL    HW232454   0.795   6.749   2.648
10519SOL     OW32455   3.215   3.526   5.289
10519SOL    HW132456   3.151   3.499   5.217
10519SOL    HW232457   3.264   3.445   5.321
10520SOL     OW32458   3.669   4.365   6.268
10520SOL    HW132459   3.714   4.306   6.201
10520SOL    HW232460   3.580   4.395   6.233
10521SOL     OW32461   6.514   5.286   2.133
10521SOL    HW132462   6.515   5.188   2.154
10521SOL    HW232463   6.604   5.312   2.096
10522SOL     OW32464   6.230   0.245   1.911
10522SOL    HW132465   6.249   0.313   1.982
10522SOL    HW232466   6.265   0.277   1.823
10523SOL     OW32467   0.194   5.552   6.850
10523SOL    HW132468   0.126   5.547   6.924
10523SOL    HW232469   0.228   5.646   6.843
10524SOL     OW32470   4.483   0.600   4.601
10524SOL    HW132471   4.454   0.668   4.532
10524SOL    HW232472   4.582   0.590   4.597
10525SOL     OW32473   2.865   6.198   5.074
10525SOL    HW132474   2.915   6.260   5.134
10525SOL    HW232475   2.919   6.115   5.060
10526SOL     OW32476   5.582   6.961   2.035
10526SOL    HW132477   5.544   0.027   2.073
10526SOL    HW232478   5.623   6.980   1.946
10527SOL     OW32479   1.685   2.594   4.425
10527SOL    HW132480   1.652   2.547   4.344
10527SOL    HW232481   1.780   2.568   4.442
10528SOL     OW32482   6.194   4.722   5.598
10528SOL    HW132483   6.204   4.777   5.515
10528SOL    HW232484   6.127   4.765   5.659
10529SOL     OW32485   6.728   6.274   4.227
10529SOL    HW132486   6.664   6.264   4.303
10529SOL    HW232487   6.733   6.188   4.176
10530SOL     OW32488   2.418   1.786   5.693
10530SOL    HW132489   2.373   1.815   5.777
10530SOL    HW232490   2.381   1.698   5.663
10531SOL     OW32491   1.828   2.105   6.142
10531SOL    HW132492   1.854   2.009   6.146
10531SOL    HW232493   1.859   2.152   6.225
10532SOL     OW32494   3.544   3.120   5.482
10532SOL    HW132495   3.462   3.094   5.533
10532SOL    HW232496   3.549   3.065   5.398
10533SOL     OW32497   2.751   0.971   5.979
10533SOL    HW132498   2.832   0.917   6.003
10533SOL    HW232499   2.776   1.068   5.973
10534SOL     OW32500   5.821   5.820   0.764
10534SOL    HW132501   5.752   5.803   0.834
10534SOL    HW232502   5.888   5.745   0.765
10535SOL     OW32503   0.949   1.193   2.478
10535SOL    HW132504   0.897   1.204   2.393
10535SOL    HW232505   0.886   1.186   2.555
10536SOL     OW32506   5.355   6.434   4.152
10536SOL    HW132507   5.377   6.470   4.242
10536SOL    HW232508   5.257   6.442   4.135
10537SOL     OW32509   0.210   5.438   1.811
10537SOL    HW132510   0.112   5.458   1.801
10537SOL    HW232511   0.255   5.516   1.856
10538SOL     OW32512   4.588   4.370   6.562
10538SOL    HW132513   4.529   4.292   6.583
10538SOL    HW232514   4.662   4.374   6.629
10539SOL     OW32515   0.878   3.425   5.703
10539SOL    HW132516   0.958   3.365   5.699
10539SOL    HW232517   0.821   3.409   5.622
10540SOL     OW32518   3.024   0.929   0.222
10540SOL    HW132519   3.017   0.874   0.139
10540SOL    HW232520   3.007   0.871   0.302
10541SOL     OW32521   4.953   2.286   0.490
10541SOL    HW132522   4.881   2.306   0.423
10541SOL    HW232523   4.918   2.224   0.560
10542SOL     OW32524   1.526   2.535   0.438
10542SOL    HW132525   1.500   2.453   0.387
10542SOL    HW232526   1.571   2.508   0.523
10543SOL     OW32527   2.487   1.317   5.279
10543SOL    HW132528   2.575   1.356   5.308
10543SOL    HW232529   2.495   1.286   5.184
10544SOL     OW32530   0.062   2.618   1.587
10544SOL    HW132531   0.036   2.572   1.672
10544SOL    HW232532   0.092   2.711   1.608
10545SOL     OW32533   5.104   0.565   3.388
10545SOL    HW132534   5.181   0.587   3.448
10545SOL    HW232535   5.044   0.499   3.433
10546SOL     OW32536   4.032   1.022   4.965
10546SOL    HW132537   3.992   1.113   4.958
10546SOL    HW232538   3.982   0.959   4.907
10547SOL     OW32539   3.901   0.465   1.259
10547SOL    HW132540   3.907   0.455   1.159
10547SOL    HW232541   3.958   0.396   1.303
10548SOL     OW32542   4.732   4.627   5.036
10548SOL    HW132543   4.677   4.548   5.062
10548SOL    HW232544   4.746   4.627   4.937
10549SOL     OW32545   1.379   1.201   1.676
10549SOL    HW132546   1.410   1.272   1.612
10549SOL    HW232547   1.406   1.111   1.641
10550SOL     OW32548   5.531   0.029   4.891
10550SOL    HW132549   5.488   7.004   4.971
10550SOL    HW232550   5.475   0.010   4.810
10551SOL     OW32551   1.301   2.639   6.065
10551SOL    HW132552   1.282   2.541   6.062
10551SOL    HW232553   1.241   2.682   6.132
10552SOL     OW32554   3.388   2.110   5.072
10552SOL    HW132555   3.306   2.161   5.045
10552SOL    HW232556   3.414   2.048   4.998
10553SOL     OW32557   3.062   4.944   5.837
10553SOL    HW132558   3.114   5.020   5.799
10553SOL    HW232559   2.970   4.975   5.860
10554SOL     OW32560   6.239   4.298   5.781
10554SOL    HW132561   6.330   4.334   5.800
10554SOL    HW232562   6.190   4.361   5.722
10555SOL     OW32563   3.640   2.492   1.173
10555SOL    HW132564   3.595   2.480   1.085
10555SOL    HW232565   3.738   2.474   1.163
10556SOL     OW32566   2.090   3.331   4.395
10556SOL    HW132567   2.116   3.259   4.460
10556SOL    HW232568   2.119   3.420   4.430
10557SOL     OW32569   5.868   1.592   3.484
10557SOL    HW132570   5.799   1.566   3.417
10557SOL    HW232571   5.875   1.520   3.553
10558SOL     OW32572   5.592   6.030   4.677
10558SOL    HW132573   5.523   6.063   4.613
10558SOL    HW232574   5.559   6.042   4.771
10559SOL     OW32575   4.550   2.561   0.723
10559SOL    HW132576   4.551   2.574   0.822
10559SOL    HW232577   4.639   2.586   0.685
10560SOL     OW32578   0.157   3.036   4.169
10560SOL    HW132579   0.115   3.066   4.084
10560SOL    HW232580   0.213   3.111   4.206
10561SOL     OW32581   3.000   4.442   5.926
10561SOL    HW132582   2.988   4.516   5.992
10561SOL    HW232583   2.915   4.428   5.875
10562SOL     OW32584   3.586   1.432   0.497
10562SOL    HW132585   3.559   1.336   0.492
10562SOL    HW232586   3.525   1.486   0.439
10563SOL     OW32587   1.361   1.898   3.668
10563SOL    HW132588   1.445   1.951   3.655
10563SOL    HW232589   1.376   1.827   3.736
10564SOL     OW32590   0.154   2.330   2.069
10564SOL    HW132591   0.127   2.255   2.009
10564SOL    HW232592   0.248   2.356   2.050
10565SOL     OW32593   5.405   1.643   5.193
10565SOL    HW132594   5.453   1.555   5.195
10565SOL    HW232595   5.336   1.642   5.121
10566SOL     OW32596   4.150   5.412   0.121
10566SOL    HW132597   4.191   5.334   0.074
10566SOL    HW232598   4.186   5.419   0.214
10567SOL     OW32599   1.955   4.784   4.134
10567SOL    HW132600   2.044   4.739   4.135
10567SOL    HW232601   1.931   4.807   4.039
10568SOL     OW32602   3.916   1.938   2.806
10568SOL    HW132603   3.819   1.916   2.791
10568SOL    HW232604   3.924   2.027   2.850
10569SOL     OW32605   5.998   2.946   3.509
10569SOL    HW132606   6.056   2.889   3.567
10569SOL    HW232607   5.984   2.901   3.421
10570SOL     OW32608   1.058   4.416   1.606
10570SOL    HW132609   1.026   4.509   1.587
10570SOL    HW232610   1.037   4.357   1.528
10571SOL     OW32611   6.294   6.587   5.070
10571SOL    HW132612   6.211   6.592   5.014
10571SOL    HW232613   6.310   6.675   5.115
10572SOL     OW32614   6.839   3.399   1.656
10572SOL    HW132615   6.900   3.397   1.577
10572SOL    HW232616   6.778   3.319   1.653
10573SOL     OW32617   6.057   4.286   6.316
10573SOL    HW132618   6.010   4.325   6.237
10573SOL    HW232619   6.139   4.238   6.285
10574SOL     OW32620   0.784   1.941   3.336
10574SOL    HW132621   0.873   1.896   3.326
10574SOL    HW232622   0.724   1.884   3.391
10575SOL     OW32623   0.712   6.701   6.014
10575SOL    HW132624   0.803   6.716   6.051
10575SOL    HW232625   0.645   6.704   6.088
10576SOL     OW32626   1.268   4.956   3.188
10576SOL    HW132627   1.336   5.001   3.246
10576SOL    HW232628   1.307   4.875   3.145
10577SOL     OW32629   0.544   3.215   5.841
10577SOL    HW132630   0.624   3.186   5.893
10577SOL    HW232631   0.505   3.297   5.884
10578SOL     OW32632   5.271   1.169   5.618
10578SOL    HW132633   5.245   1.263   5.595
10578SOL    HW232634   5.229   1.144   5.706
10579SOL     OW32635   4.926   0.233   0.907
10579SOL    HW132636   4.909   0.137   0.928
10579SOL    HW232637   5.010   0.262   0.953
10580SOL     OW32638   6.569   6.303   0.768
10580SOL    HW132639   6.497   6.304   0.698
10580SOL    HW232640   6.647   6.357   0.736
10581SOL     OW32641   4.759   1.854   3.750
10581SOL    HW132642   4.850   1.813   3.738
10581SOL    HW232643   4.769   1.952   3.767
10582SOL     OW32644   3.492   4.935   0.300
10582SOL    HW132645   3.476   4.864   0.369
10582SOL    HW232646   3.412   4.995   0.295
10583SOL     OW32647   4.146   1.074   1.225
10583SOL    HW132648   4.218   1.015   1.263
10583SOL    HW232649   4.170   1.169   1.242
10584SOL     OW32650   6.609   0.121   1.301
10584SOL    HW132651   6.522   0.146   1.259
10584SOL    HW232652   6.609   0.024   1.323
10585SOL     OW32653   2.153   4.088   6.499
10585SOL    HW132654   2.231   4.146   6.523
10585SOL    HW232655   2.184   4.014   6.439
10586SOL     OW32656   5.063   1.683   0.216
10586SOL    HW132657   5.084   1.621   0.292
10586SOL    HW232658   5.140   1.687   0.153
10587SOL     OW32659   5.864   3.508   0.691
10587SOL    HW132660   5.849   3.418   0.730
10587SOL    HW232661   5.844   3.506   0.593
10588SOL     OW32662   1.482   4.806   3.352
10588SOL    HW132663   1.490   4.801   3.452
10588SOL    HW232664   1.405   4.748   3.323
10589SOL     OW32665   5.988   1.072   4.495
10589SOL    HW132666   6.050   1.123   4.436
10589SOL    HW232667   5.895   1.108   4.485
10590SOL     OW32668   1.574   0.556   4.938
10590SOL    HW132669   1.645   0.586   5.001
10590SOL    HW232670   1.543   0.633   4.883
10591SOL     OW32671   1.307   2.347   0.743
10591SOL    HW132672   1.351   2.257   0.747
10591SOL    HW232673   1.302   2.386   0.835
10592SOL     OW32674   6.210   1.339   6.929
10592SOL    HW132675   6.111   1.335   6.938
10592SOL    HW232676   6.245   1.419   6.978
10593SOL     OW32677   1.495   4.752   1.876
10593SOL    HW132678   1.414   4.697   1.897
10593SOL    HW232679   1.508   4.821   1.947
10594SOL     OW32680   0.727   1.655   4.364
10594SOL    HW132681   0.762   1.605   4.443
10594SOL    HW232682   0.685   1.592   4.299
10595SOL     OW32683   2.432   5.531   4.936
10595SOL    HW132684   2.503   5.583   4.889
10595SOL    HW232685   2.356   5.513   4.874
10596SOL     OW32686   3.194   0.734   2.202
10596SOL    HW132687   3.100   0.734   2.167
10596SOL    HW232688   3.251   0.677   2.144
10597SOL     OW32689   1.981   0.726   3.667
10597SOL    HW132690   1.974   0.652   3.599
10597SOL    HW232691   1.985   0.814   3.620
10598SOL     OW32692   2.164   1.620   7.017
10598SOL    HW132693   2.261   1.598   0.007
10598SOL    HW232694   2.116   1.595   0.083
10599SOL     OW32695   5.041   0.233   6.585
10599SOL    HW132696   4.961   0.286   6.613
10599SOL    HW232697   5.123   0.270   6.628
10600SOL     OW32698   1.416   2.187   5.175
10600SOL    HW132699   1.470   2.206   5.093
10600SOL    HW232700   1.460   2.230   5.254
10601SOL     OW32701   3.393   5.773   5.327
10601SOL    HW132702   3.377   5.758   5.425
10601SOL    HW232703   3.484   5.811   5.313
10602SOL     OW32704   4.546   1.264   1.563
10602SOL    HW132705   4.614   1.190   1.561
10602SOL    HW232706   4.454   1.225   1.558
10603SOL     OW32707   1.024   5.063   4.536
10603SOL    HW132708   0.944   5.082   4.479
10603SOL    HW232709   1.024   5.124   4.615
10604SOL     OW32710   6.814   4.252   5.378
10604SOL    HW132711   6.914   4.254   5.374
10604SOL    HW232712   6.777   4.319   5.313
10605SOL     OW32713   1.837   5.101   5.814
10605SOL    HW132714   1.749   5.055   5.826
10605SOL    HW232715   1.821   5.199   5.806
10606SOL     OW32716   0.462   0.913   2.932
10606SOL    HW132717   0.543   0.956   2.894
10606SOL    HW232718   0.381   0.965   2.905
10607SOL     OW32719   5.883   4.965   6.696
10607SOL    HW132720   5.926   4.924   6.615
10607SOL    HW232721   5.819   5.036   6.666
10608SOL     OW32722   5.519   0.579   2.483
10608SOL    HW132723   5.572   0.496   2.502
10608SOL    HW232724   5.574   0.660   2.506
10609SOL     OW32725   3.971   6.715   1.960
10609SOL    HW132726   3.979   6.807   1.921
10609SOL    HW232727   3.936   6.721   2.053
10610SOL     OW32728   1.755   4.000   4.420
10610SOL    HW132729   1.783   4.080   4.367
10610SOL    HW232730   1.808   3.921   4.392
10611SOL     OW32731   5.062   2.235   6.403
10611SOL    HW132732   5.115   2.207   6.484
10611SOL    HW232733   5.097   2.322   6.369
10612SOL     OW32734   1.447   6.648   1.044
10612SOL    HW132735   1.387   6.683   1.116
10612SOL    HW232736   1.497   6.723   1.003
10613SOL     OW32737   0.584   6.260   6.567
10613SOL    HW132738   0.490   6.228   6.556
10613SOL    HW232739   0.633   6.252   6.480
10614SOL     OW32740   6.814   1.077   4.271
10614SOL    HW132741   6.755   1.052   4.194
10614SOL    HW232742   6.836   0.994   4.323
10615SOL     OW32743   0.021   6.001   5.321
10615SOL    HW132744   0.005   5.906   5.294
10615SOL    HW232745   6.979   6.061   5.269
10616SOL     OW32746   2.601   5.880   0.486
10616SOL    HW132747   2.655   5.963   0.498
10616SOL    HW232748   2.514   5.903   0.441
10617SOL     OW32749   0.094   1.855   6.820
10617SOL    HW132750   0.137   1.772   6.854
10617SOL    HW232751   0.163   1.915   6.781
10618SOL     OW32752   6.204   3.830   1.416
10618SOL    HW132753   6.162   3.855   1.503
10618SOL    HW232754   6.136   3.788   1.356
10619SOL     OW32755   0.423   4.226   3.407
10619SOL    HW132756   0.420   4.273   3.494
10619SOL    HW232757   0.489   4.270   3.347
10620SOL     OW32758   1.068   5.322   4.396
10620SOL    HW132759   0.980   5.369   4.405
10620SOL    HW232760   1.052   5.223   4.395
10621SOL     OW32761   2.619   6.296   0.572
10621SOL    HW132762   2.595   6.290   0.669
10621SOL    HW232763   2.597   6.387   0.538
10622SOL     OW32764   4.488   1.975   1.232
10622SOL    HW132765   4.535   1.994   1.319
10622SOL    HW232766   4.554   1.942   1.165
10623SOL     OW32767   6.900   0.856   4.419
10623SOL    HW132768   6.904   0.860   4.519
10623SOL    HW232769   6.918   0.763   4.388
10624SOL     OW32770   2.922   1.498   4.391
10624SOL    HW132771   2.873   1.452   4.317
10624SOL    HW232772   2.857   1.553   4.444
10625SOL     OW32773   0.358   3.306   6.969
10625SOL    HW132774   0.423   3.370   7.009
10625SOL    HW232775   0.287   3.357   6.920
10626SOL     OW32776   5.968   2.142   1.782
10626SOL    HW132777   5.949   2.044   1.793
10626SOL    HW232778   5.881   2.193   1.785
10627SOL     OW32779   6.189   5.761   4.803
10627SOL    HW132780   6.170   5.766   4.705
10627SOL    HW232781   6.106   5.733   4.852
10628SOL     OW32782   0.120   5.691   6.073
10628SOL    HW132783   0.060   5.750   6.127
10628SOL    HW232784   0.085   5.685   5.979
10629SOL     OW32785   2.886   5.073   6.365
10629SOL    HW132786   2.829   4.992   6.370
10629SOL    HW232787   2.963   5.056   6.304
10630SOL     OW32788   6.607   0.692   2.490
10630SOL    HW132789   6.587   0.669   2.586
10630SOL    HW232790   6.685   0.754   2.486
10631SOL     OW32791   0.859   6.736   4.941
10631SOL    HW132792   0.836   6.823   4.984
10631SOL    HW232793   0.876   6.667   5.011
10632SOL     OW32794   0.486   3.256   5.563
10632SOL    HW132795   0.399   3.306   5.562
10632SOL    HW232796   0.508   3.229   5.657
10633SOL     OW32797   1.293   5.172   1.058
10633SOL    HW132798   1.234   5.092   1.043
10633SOL    HW232799   1.304   5.222   0.972
10634SOL     OW32800   4.250   6.598   1.606
10634SOL    HW132801   4.300   6.553   1.681
10634SOL    HW232802   4.209   6.528   1.547
10635SOL     OW32803   1.478   0.982   1.583
10635SOL    HW132804   1.503   0.972   1.487
10635SOL    HW232805   1.480   0.892   1.628
10636SOL     OW32806   6.366   1.394   0.540
10636SOL    HW132807   6.334   1.489   0.552
10636SOL    HW232808   6.435   1.374   0.609
10637SOL     OW32809   3.867   4.454   5.762
10637SOL    HW132810   3.942   4.403   5.720
10637SOL    HW232811   3.796   4.390   5.790
10638SOL     OW32812   6.747   0.499   5.801
10638SOL    HW132813   6.756   0.400   5.791
10638SOL    HW232814   6.810   0.545   5.739
10639SOL     OW32815   3.140   1.501   5.486
10639SOL    HW132816   3.086   1.495   5.570
10639SOL    HW232817   3.168   1.596   5.472
10640SOL     OW32818   4.248   6.322   0.991
10640SOL    HW132819   4.160   6.276   0.998
10640SOL    HW232820   4.235   6.421   0.990
10641SOL     OW32821   4.391   0.942   6.459
10641SOL    HW132822   4.413   1.037   6.438
10641SOL    HW232823   4.302   0.938   6.505
10642SOL     OW32824   6.786   4.229   0.592
10642SOL    HW132825   6.881   4.231   0.624
10642SOL    HW232826   6.779   4.280   0.506
10643SOL     OW32827   3.966   3.327   5.385
10643SOL    HW132828   4.040   3.329   5.451
10643SOL    HW232829   3.949   3.233   5.356
10644SOL     OW32830   3.727   1.535   5.042
10644SOL    HW132831   3.681   1.453   5.076
10644SOL    HW232832   3.664   1.612   5.043
10645SOL     OW32833   2.093   6.673   5.253
10645SOL    HW132834   2.013   6.711   5.207
10645SOL    HW232835   2.144   6.615   5.189
10646SOL     OW32836   1.178   4.459   6.464
10646SOL    HW132837   1.126   4.409   6.532
10646SOL    HW232838   1.233   4.530   6.508
10647SOL     OW32839   0.796   5.471   0.834
10647SOL    HW132840   0.835   5.558   0.863
10647SOL    HW232841   0.727   5.442   0.901
10648SOL     OW32842   4.564   5.065   6.550
10648SOL    HW132843   4.516   4.999   6.492
10648SOL    HW232844   4.510   5.149   6.557
10649SOL     OW32845   0.048   4.581   6.021
10649SOL    HW132846   0.037   4.637   6.103
10649SOL    HW232847   0.089   4.493   6.045
10650SOL     OW32848   3.315   0.829   4.867
10650SOL    HW132849   3.413   0.823   4.881
10650SOL    HW232850   3.273   0.878   4.943
10651SOL     OW32851   2.803   0.050   5.481
10651SOL    HW132852   2.797   0.003   5.569
10651SOL    HW232853   2.854   0.135   5.492
10652SOL     OW32854   4.272   1.240   0.501
10652SOL    HW132855   4.358   1.233   0.451
10652SOL    HW232856   4.201   1.188   0.453
10653SOL     OW32857   5.835   2.597   4.260
10653SOL    HW132858   5.873   2.589   4.352
10653SOL    HW232859   5.847   2.691   4.227
10654SOL     OW32860   4.496   0.942   1.413
10654SOL    HW132861   4.513   0.848   1.441
10654SOL    HW232862   4.564   1.002   1.455
10655SOL     OW32863   3.089   5.421   1.375
10655SOL    HW132864   3.150   5.366   1.319
10655SOL    HW232865   2.995   5.411   1.341
10656SOL     OW32866   6.355   2.889   6.606
10656SOL    HW132867   6.382   2.810   6.550
10656SOL    HW232868   6.257   2.885   6.623
10657SOL     OW32869   6.053   0.072   1.672
10657SOL    HW132870   6.138   0.116   1.643
10657SOL    HW232871   6.005   0.132   1.736
10658SOL     OW32872   0.422   6.869   4.898
10658SOL    HW132873   0.496   6.936   4.890
10658SOL    HW232874   0.461   6.777   4.895
10659SOL     OW32875   5.171   0.965   0.581
10659SOL    HW132876   5.129   1.047   0.542
10659SOL    HW232877   5.267   0.984   0.603
10660SOL     OW32878   5.351   5.418   5.734
10660SOL    HW132879   5.343   5.511   5.770
10660SOL    HW232880   5.272   5.398   5.675
10661SOL     OW32881   0.740   0.378   2.222
10661SOL    HW132882   0.679   0.397   2.145
10661SOL    HW232883   0.765   0.464   2.267
10662SOL     OW32884   5.690   1.605   0.696
10662SOL    HW132885   5.647   1.688   0.660
10662SOL    HW232886   5.620   1.548   0.740
10663SOL     OW32887   0.533   1.087   0.565
10663SOL    HW132888   0.568   1.016   0.504
10663SOL    HW232889   0.600   1.106   0.637
10664SOL     OW32890   2.059   5.272   5.965
10664SOL    HW132891   2.022   5.328   6.039
10664SOL    HW232892   1.989   5.209   5.932
10665SOL     OW32893   5.580   1.052   6.784
10665SOL    HW132894   5.572   1.027   6.880
10665SOL    HW232895   5.503   1.015   6.733
10666SOL     OW32896   0.558   0.225   0.536
10666SOL    HW132897   0.464   0.245   0.565
10666SOL    HW232898   0.561   0.219   0.437
10667SOL     OW32899   3.409   2.230   5.855
10667SOL    HW132900   3.341   2.157   5.844
10667SOL    HW232901   3.383   2.308   5.798
10668SOL     OW32902   2.362   0.756   6.466
10668SOL    HW132903   2.371   0.851   6.437
10668SOL    HW232904   2.447   0.707   6.447
10669SOL     OW32905   1.117   6.450   6.827
10669SOL    HW132906   1.107   6.424   6.731
10669SOL    HW232907   1.172   6.533   6.833
10670SOL     OW32908   6.715   4.722   5.128
10670SOL    HW132909   6.671   4.780   5.059
10670SOL    HW232910   6.806   4.695   5.097
10671SOL     OW32911   1.997   2.192   3.360
10671SOL    HW132912   1.913   2.138   3.357
10671SOL    HW232913   2.059   2.154   3.429
10672SOL     OW32914   0.025   2.499   1.209
10672SOL    HW132915   0.078   2.577   1.176
10672SOL    HW232916   0.086   2.421   1.224
10673SOL     OW32917   3.467   3.637   4.574
10673SOL    HW132918   3.483   3.582   4.491
10673SOL    HW232919   3.369   3.635   4.595
10674SOL     OW32920   3.805   1.471   2.784
10674SOL    HW132921   3.711   1.448   2.811
10674SOL    HW232922   3.804   1.513   2.693
10675SOL     OW32923   0.835   1.067   6.058
10675SOL    HW132924   0.844   1.148   6.000
10675SOL    HW232925   0.877   1.085   6.147
10676SOL     OW32926   6.885   0.171   6.835
10676SOL    HW132927   6.877   0.129   6.926
10676SOL    HW232928   6.939   0.112   6.776
10677SOL     OW32929   6.124   1.206   0.543
10677SOL    HW132930   6.155   1.116   0.573
10677SOL    HW232931   6.200   1.271   0.547
10678SOL     OW32932   1.665   5.383   3.720
10678SOL    HW132933   1.684   5.475   3.755
10678SOL    HW232934   1.703   5.374   3.628
10679SOL     OW32935   5.231   5.143   3.557
10679SOL    HW132936   5.307   5.112   3.500
10679SOL    HW232937   5.187   5.222   3.513
10680SOL     OW32938   1.191   2.532   3.808
10680SOL    HW132939   1.202   2.631   3.798
10680SOL    HW232940   1.194   2.489   3.718
10681SOL     OW32941   0.596   2.127   6.275
10681SOL    HW132942   0.555   2.164   6.358
10681SOL    HW232943   0.524   2.096   6.213
10682SOL     OW32944   6.322   1.724   2.584
10682SOL    HW132945   6.260   1.679   2.648
10682SOL    HW232946   6.269   1.767   2.511
10683SOL     OW32947   1.766   0.386   4.327
10683SOL    HW132948   1.774   0.333   4.411
10683SOL    HW232949   1.840   0.453   4.322
10684SOL     OW32950   5.495   6.003   0.430
10684SOL    HW132951   5.539   5.986   0.518
10684SOL    HW232952   5.531   5.939   0.362
10685SOL     OW32953   6.086   2.834   2.329
10685SOL    HW132954   6.167   2.850   2.272
10685SOL    HW232955   6.006   2.821   2.270
10686SOL     OW32956   4.557   4.354   0.317
10686SOL    HW132957   4.512   4.325   0.402
10686SOL    HW232958   4.488   4.365   0.246
10687SOL     OW32959   6.635   5.449   0.854
10687SOL    HW132960   6.590   5.362   0.870
10687SOL    HW232961   6.630   5.505   0.937
10688SOL     OW32962   6.970   5.484   1.110
10688SOL    HW132963   7.014   5.570   1.083
10688SOL    HW232964   6.984   5.415   1.039
10689SOL     OW32965   0.907   0.385   1.322
10689SOL    HW132966   0.883   0.473   1.279
10689SOL    HW232967   0.905   0.313   1.253
10690SOL     OW32968   4.721   6.052   2.718
10690SOL    HW132969   4.730   6.004   2.805
10690SOL    HW232970   4.809   6.089   2.691
10691SOL     OW32971   6.223   1.642   1.743
10691SOL    HW132972   6.126   1.633   1.722
10691SOL    HW232973   6.265   1.551   1.746
10692SOL     OW32974   5.779   6.421   4.038
10692SOL    HW132975   5.817   6.477   4.112
10692SOL    HW232976   5.721   6.350   4.076
10693SOL     OW32977   5.165   2.845   3.587
10693SOL    HW132978   5.140   2.859   3.683
10693SOL    HW232979   5.259   2.812   3.581
10694SOL     OW32980   2.941   6.484   0.772
10694SOL    HW132981   2.955   6.441   0.861
10694SOL    HW232982   2.923   6.581   0.784
10695SOL     OW32983   5.565   2.835   5.515
10695SOL    HW132984   5.608   2.852   5.604
10695SOL    HW232985   5.570   2.917   5.459
10696SOL     OW32986   6.421   6.887   1.874
10696SOL    HW132987   6.443   6.791   1.856
10696SOL    HW232988   6.322   6.899   1.877
10697SOL     OW32989   2.030   6.490   2.992
10697SOL    HW132990   2.020   6.457   3.085
10697SOL    HW232991   1.994   6.583   2.986
10698SOL     OW32992   3.110   1.017   4.105
10698SOL    HW132993   3.124   0.943   4.171
10698SOL    HW232994   3.196   1.036   4.058
10699SOL     OW32995   2.230   2.416   3.422
10699SOL    HW132996   2.162   2.427   3.494
10699SOL    HW232997   2.236   2.499   3.368
10700SOL     OW32998   0.849   1.782   2.171
10700SOL    HW132999   0.801   1.853   2.119
10700SOL    HW233000   0.785   1.737   2.234
10701SOL     OW33001   3.207   0.181   1.420
10701SOL    HW133002   3.291   0.162   1.369
10701SOL    HW233003   3.132   0.198   1.356
10702SOL     OW33004   5.189   2.408   0.557
10702SOL    HW133005   5.110   2.354   0.527
10702SOL    HW233006   5.273   2.366   0.524
10703SOL     OW33007   3.997   3.081   3.992
10703SOL    HW133008   4.093   3.065   3.969
10703SOL    HW233009   3.991   3.109   4.088
10704SOL     OW33010   6.021   6.182   1.904
10704SOL    HW133011   5.994   6.230   1.820
10704SOL    HW233012   5.982   6.090   1.903
10705SOL     OW33013   1.424   3.342   6.079
10705SOL    HW133014   1.518   3.312   6.098
10705SOL    HW233015   1.363   3.304   6.148
10706SOL     OW33016   3.645   2.957   1.289
10706SOL    HW133017   3.709   2.976   1.363
10706SOL    HW233018   3.594   2.873   1.310
10707SOL     OW33019   6.405   6.731   6.404
10707SOL    HW133020   6.461   6.806   6.441
10707SOL    HW233021   6.336   6.768   6.343
10708SOL     OW33022   4.936   1.413   1.264
10708SOL    HW133023   4.856   1.473   1.270
10708SOL    HW233024   4.979   1.406   1.354
10709SOL     OW33025   0.693   0.147   6.117
10709SOL    HW133026   0.745   0.210   6.176
10709SOL    HW233027   0.621   0.197   6.071
10710SOL     OW33028   6.951   6.241   3.764
10710SOL    HW133029   6.998   6.171   3.709
10710SOL    HW233030   6.853   6.222   3.764
10711SOL     OW33031   2.314   5.168   5.156
10711SOL    HW133032   2.379   5.110   5.107
10711SOL    HW233033   2.238   5.192   5.096
10712SOL     OW33034   3.700   1.307   6.141
10712SOL    HW133035   3.708   1.306   6.041
10712SOL    HW233036   3.786   1.336   6.181
10713SOL     OW33037   2.240   6.216   0.809
10713SOL    HW133038   2.259   6.162   0.891
10713SOL    HW233039   2.141   6.233   0.803
10714SOL     OW33040   6.455   5.665   4.872
10714SOL    HW133041   6.466   5.658   4.971
10714SOL    HW233042   6.358   5.676   4.849
10715SOL     OW33043   5.748   1.088   3.051
10715SOL    HW133044   5.808   1.119   3.124
10715SOL    HW233045   5.655   1.074   3.086
10716SOL     OW33046   0.339   1.136   2.203
10716SOL    HW133047   0.246   1.172   2.207
10716SOL    HW233048   0.337   1.038   2.182
10717SOL     OW33049   6.827   6.805   2.039
10717SOL    HW133050   6.901   6.855   2.083
10717SOL    HW233051   6.822   6.713   2.076
10718SOL     OW33052   0.841   4.108   5.307
10718SOL    HW133053   0.771   4.037   5.313
10718SOL    HW233054   0.797   4.196   5.290
10719SOL     OW33055   3.689   6.309   2.111
10719SOL    HW133056   3.626   6.378   2.075
10719SOL    HW233057   3.742   6.269   2.036
10720SOL     OW33058   0.231   3.504   6.371
10720SOL    HW133059   0.155   3.550   6.325
10720SOL    HW233060   0.218   3.511   6.470
10721SOL     OW33061   5.488   2.290   4.790
10721SOL    HW133062   5.403   2.308   4.840
10721SOL    HW233063   5.521   2.374   4.749
10722SOL     OW33064   0.050   4.828   0.212
10722SOL    HW133065   0.136   4.824   0.263
10722SOL    HW233066   0.047   4.914   0.160
10723SOL     OW33067   6.116   4.146   6.853
10723SOL    HW133068   6.046   4.214   6.830
10723SOL    HW233069   6.174   4.129   6.774
10724SOL     OW33070   3.255   6.929   5.652
10724SOL    HW133071   3.306   7.009   5.685
10724SOL    HW233072   3.185   6.959   5.587
10725SOL     OW33073   6.848   0.410   5.337
10725SOL    HW133074   6.772   0.473   5.348
10725SOL    HW233075   6.827   0.323   5.381
10726SOL     OW33076   6.400   0.670   3.584
10726SOL    HW133077   6.432   0.653   3.677
10726SOL    HW233078   6.476   0.662   3.520
10727SOL     OW33079   4.145   6.838   6.283
10727SOL    HW133080   4.081   6.771   6.244
10727SOL    HW233081   4.112   6.867   6.373
10728SOL     OW33082   6.022   5.072   3.770
10728SOL    HW133083   6.116   5.105   3.779
10728SOL    HW233084   5.959   5.142   3.804
10729SOL     OW33085   6.004   3.326   3.744
10729SOL    HW133086   5.929   3.311   3.808
10729SOL    HW233087   6.061   3.244   3.740
10730SOL     OW33088   1.125   6.096   4.176
10730SOL    HW133089   1.197   6.162   4.199
10730SOL    HW233090   1.061   6.138   4.112
10731SOL     OW33091   5.053   5.694   5.932
10731SOL    HW133092   5.139   5.674   5.980
10731SOL    HW233093   4.979   5.642   5.973
10732SOL     OW33094   6.716   5.903   2.373
10732SOL    HW133095   6.688   5.807   2.377
10732SOL    HW233096   6.663   5.949   2.301
10733SOL     OW33097   0.646   1.586   5.821
10733SOL    HW133098   0.714   1.586   5.748
10733SOL    HW233099   0.571   1.648   5.797
10734SOL     OW33100   0.886   0.561   4.353
10734SOL    HW133101   0.983   0.574   4.375
10734SOL    HW233102   0.846   0.648   4.327
10735SOL     OW33103   0.202   0.565   2.113
10735SOL    HW133104   0.211   0.481   2.061
10735SOL    HW233105   0.265   0.563   2.191
10736SOL     OW33106   6.013   5.667   3.884
10736SOL    HW133107   6.077   5.729   3.838
10736SOL    HW233108   5.967   5.610   3.816
10737SOL     OW33109   6.490   0.672   1.563
10737SOL    HW133110   6.589   0.675   1.575
10737SOL    HW233111   6.462   0.746   1.502
10738SOL     OW33112   2.546   0.158   1.412
10738SOL    HW133113   2.627   0.121   1.459
10738SOL    HW233114   2.576   0.213   1.334
10739SOL     OW33115   4.807   2.984   4.407
10739SOL    HW133116   4.765   2.910   4.354
10739SOL    HW233117   4.895   3.008   4.366
10740SOL     OW33118   2.907   0.515   6.124
10740SOL    HW133119   2.895   0.613   6.105
10740SOL    HW233120   2.998   0.499   6.163
10741SOL     OW33121   1.475   2.520   3.696
10741SOL    HW133122   1.389   2.489   3.655
10741SOL    HW233123   1.482   2.619   3.687
10742SOL     OW33124   6.509   0.441   1.817
10742SOL    HW133125   6.509   0.432   1.718
10742SOL    HW233126   6.428   0.493   1.846
10743SOL     OW33127   3.765   1.865   6.075
10743SOL    HW133128   3.759   1.782   6.020
10743SOL    HW233129   3.697   1.931   6.043
10744SOL     OW33130   2.768   2.052   1.403
10744SOL    HW133131   2.840   2.117   1.424
10744SOL    HW233132   2.776   1.973   1.464
10745SOL     OW33133   2.489   4.955   1.456
10745SOL    HW133134   2.561   4.887   1.470
10745SOL    HW233135   2.468   4.999   1.543
10746SOL     OW33136   2.343   5.287   6.021
10746SOL    HW133137   2.246   5.275   5.999
10746SOL    HW233138   2.357   5.274   6.119
10747SOL     OW33139   0.075   1.019   4.827
10747SOL    HW133140   0.084   1.011   4.926
10747SOL    HW233141   0.066   1.115   4.802
10748SOL     OW33142   2.672   6.290   2.560
10748SOL    HW133143   2.587   6.265   2.513
10748SOL    HW233144   2.662   6.270   2.658
10749SOL     OW33145   5.970   4.317   2.020
10749SOL    HW133146   5.932   4.266   2.097
10749SOL    HW233147   5.956   4.415   2.035
10750SOL     OW33148   4.113   2.142   4.457
10750SOL    HW133149   4.068   2.106   4.376
10750SOL    HW233150   4.178   2.214   4.431
10751SOL     OW33151   6.366   6.112   4.517
10751SOL    HW133152   6.424   6.031   4.513
10751SOL    HW233153   6.270   6.084   4.515
10752SOL     OW33154   6.675   6.453   6.865
10752SOL    HW133155   6.729   6.464   6.781
10752SOL    HW233156   6.639   6.360   6.869
10753SOL     OW33157   5.392   6.655   5.129
10753SOL    HW133158   5.347   6.733   5.086
10753SOL    HW233159   5.421   6.680   5.221
10754SOL     OW33160   0.797   5.111   2.116
10754SOL    HW133161   0.717   5.095   2.058
10754SOL    HW233162   0.876   5.131   2.059
10755SOL     OW33163   0.457   2.164   1.762
10755SOL    HW133164   0.415   2.170   1.671
10755SOL    HW233165   0.434   2.076   1.803
10756SOL     OW33166   1.256   7.011   6.822
10756SOL    HW133167   1.216   6.934   6.772
10756SOL    HW233168   1.219   7.013   6.915
10757SOL     OW33169   6.964   2.902   2.206
10757SOL    HW133170   6.948   2.823   2.266
10757SOL    HW233171   6.887   2.965   2.213
10758SOL     OW33172   1.116   0.639   0.126
10758SOL    HW133173   1.216   0.640   0.137
10758SOL    HW233174   1.080   0.552   0.159
10759SOL     OW33175   3.210   2.925   4.890
10759SOL    HW133176   3.130   2.874   4.923
10759SOL    HW233177   3.182   3.017   4.863
10760SOL     OW33178   0.582   4.872   0.192
10760SOL    HW133179   0.538   4.959   0.214
10760SOL    HW233180   0.679   4.877   0.216
10761SOL     OW33181   1.724   1.475   6.059
10761SOL    HW133182   1.798   1.477   6.127
10761SOL    HW233183   1.678   1.564   6.056
10762SOL     OW33184   1.747   6.212   0.336
10762SOL    HW133185   1.824   6.162   0.376
10762SOL    HW233186   1.700   6.153   0.270
10763SOL     OW33187   4.834   0.660   3.349
10763SOL    HW133188   4.832   0.749   3.303
10763SOL    HW233189   4.929   0.630   3.359
10764SOL     OW33190   5.113   5.876   4.717
10764SOL    HW133191   5.016   5.860   4.731
10764SOL    HW233192   5.133   5.877   4.619
10765SOL     OW33193   0.749   2.007   1.037
10765SOL    HW133194   0.776   2.043   0.948
10765SOL    HW233195   0.810   2.041   1.108
10766SOL     OW33196   2.683   5.214   6.465
10766SOL    HW133197   2.756   5.152   6.435
10766SOL    HW233198   2.721   5.305   6.482
10767SOL     OW33199   1.533   4.835   6.815
10767SOL    HW133200   1.511   4.737   6.806
10767SOL    HW233201   1.632   4.845   6.823
10768SOL     OW33202   5.217   6.470   6.903
10768SOL    HW133203   5.295   6.493   6.845
10768SOL    HW233204   5.132   6.491   6.854
10769SOL     OW33205   2.985   3.236   4.595
10769SOL    HW133206   2.929   3.213   4.515
10769SOL    HW233207   2.983   3.335   4.609
10770SOL     OW33208   5.501   0.187   2.932
10770SOL    HW133209   5.566   0.262   2.942
10770SOL    HW233210   5.417   0.209   2.982
10771SOL     OW33211   4.629   6.359   5.552
10771SOL    HW133212   4.645   6.386   5.648
10771SOL    HW233213   4.541   6.394   5.523
10772SOL     OW33214   5.442   4.479   2.385
10772SOL    HW133215   5.382   4.550   2.423
10772SOL    HW233216   5.461   4.410   2.456
10773SOL     OW33217   0.930   3.752   0.153
10773SOL    HW133218   0.978   3.674   0.192
10773SOL    HW233219   0.945   3.832   0.211
10774SOL     OW33220   0.578   3.275   0.766
10774SOL    HW133221   0.492   3.277   0.716
10774SOL    HW233222   0.570   3.211   0.843
10775SOL     OW33223   2.007   3.858   0.441
10775SOL    HW133224   1.927   3.887   0.495
10775SOL    HW233225   2.054   3.784   0.488
10776SOL     OW33226   1.110   3.149   3.481
10776SOL    HW133227   1.195   3.171   3.433
10776SOL    HW233228   1.043   3.222   3.465
10777SOL     OW33229   1.585   0.119   1.075
10777SOL    HW133230   1.542   0.071   1.152
10777SOL    HW233231   1.684   0.120   1.087
10778SOL     OW33232   4.553   0.099   3.046
10778SOL    HW133233   4.481   0.046   3.001
10778SOL    HW233234   4.556   0.190   3.006
10779SOL     OW33235   5.527   2.747   6.122
10779SOL    HW133236   5.505   2.842   6.103
10779SOL    HW233237   5.619   2.740   6.160
10780SOL     OW33238   1.527   4.992   4.949
10780SOL    HW133239   1.483   4.909   4.915
10780SOL    HW233240   1.583   4.970   5.029
10781SOL     OW33241   5.340   1.826   5.913
10781SOL    HW133242   5.401   1.767   5.966
10781SOL    HW233243   5.278   1.769   5.859
10782SOL     OW33244   1.269   2.614   5.362
10782SOL    HW133245   1.248   2.523   5.325
10782SOL    HW233246   1.364   2.637   5.340
10783SOL     OW33247   1.664   3.477   3.150
10783SOL    HW133248   1.683   3.440   3.060
10783SOL    HW233249   1.611   3.411   3.203
10784SOL     OW33250   4.884   5.521   3.726
10784SOL    HW133251   4.926   5.545   3.813
10784SOL    HW233252   4.887   5.421   3.714
10785SOL     OW33253   2.177   5.160   1.853
10785SOL    HW133254   2.093   5.118   1.820
10785SOL    HW233255   2.166   5.190   1.948
10786SOL     OW33256   4.584   1.870   2.416
10786SOL    HW133257   4.499   1.859   2.468
10786SOL    HW233258   4.566   1.922   2.332
10787SOL     OW33259   4.224   2.001   3.683
10787SOL    HW133260   4.233   1.912   3.639
10787SOL    HW233261   4.287   2.007   3.760
10788SOL     OW33262   1.648   3.297   0.185
10788SOL    HW133263   1.722   3.356   0.217
10788SOL    HW233264   1.564   3.350   0.178
10789SOL     OW33265   6.881   1.633   2.176
10789SOL    HW133266   6.927   1.698   2.237
10789SOL    HW233267   6.925   1.635   2.086
10790SOL     OW33268   0.096   2.134   5.482
10790SOL    HW133269   0.042   2.193   5.422
10790SOL    HW233270   0.113   2.181   5.569
10791SOL     OW33271   1.685   2.509   3.475
10791SOL    HW133272   1.588   2.525   3.494
10791SOL    HW233273   1.739   2.538   3.554
10792SOL     OW33274   3.486   1.580   2.442
10792SOL    HW133275   3.465   1.483   2.454
10792SOL    HW233276   3.429   1.619   2.370
10793SOL     OW33277   3.551   2.082   4.627
10793SOL    HW133278   3.457   2.116   4.631
10793SOL    HW233279   3.550   1.983   4.610
10794SOL     OW33280   4.804   2.455   6.895
10794SOL    HW133281   4.738   2.528   6.882
10794SOL    HW233282   4.883   2.489   6.946
10795SOL     OW33283   6.694   3.421   3.163
10795SOL    HW133284   6.731   3.486   3.229
10795SOL    HW233285   6.629   3.467   3.103
10796SOL     OW33286   0.323   1.546   5.939
10796SOL    HW133287   0.335   1.499   6.026
10796SOL    HW233288   0.368   1.494   5.866
10797SOL     OW33289   5.124   4.648   0.306
10797SOL    HW133290   5.048   4.712   0.309
10797SOL    HW233291   5.123   4.591   0.389
10798SOL     OW33292   2.027   6.087   0.544
10798SOL    HW133293   2.001   6.055   0.635
10798SOL    HW233294   2.029   6.187   0.543
10799SOL     OW33295   3.627   0.124   2.305
10799SOL    HW133296   3.699   0.135   2.236
10799SOL    HW233297   3.542   0.164   2.270
10800SOL     OW33298   1.947   6.656   5.525
10800SOL    HW133299   1.988   6.741   5.492
10800SOL    HW233300   1.996   6.578   5.487
10801SOL     OW33301   2.899   6.221   6.829
10801SOL    HW133302   2.825   6.288   6.835
10801SOL    HW233303   2.860   6.129   6.839
10802SOL     OW33304   0.763   4.780   4.222
10802SOL    HW133305   0.749   4.836   4.140
10802SOL    HW233306   0.694   4.803   4.290
10803SOL     OW33307   0.124   4.254   4.564
10803SOL    HW133308   0.209   4.301   4.538
10803SOL    HW233309   0.141   4.155   4.566
10804SOL     OW33310   4.073   4.317   0.858
10804SOL    HW133311   4.048   4.398   0.911
10804SOL    HW233312   4.050   4.235   0.910
10805SOL     OW33313   3.778   6.077   0.888
10805SOL    HW133314   3.701   6.135   0.859
10805SOL    HW233315   3.745   5.984   0.904
10806SOL     OW33316   5.648   3.664   6.242
10806SOL    HW133317   5.704   3.601   6.296
10806SOL    HW233318   5.708   3.727   6.191
10807SOL     OW33319   4.891   2.367   4.357
10807SOL    HW133320   4.952   2.290   4.375
10807SOL    HW233321   4.846   2.354   4.268
10808SOL     OW33322   0.776   1.977   6.931
10808SOL    HW133323   0.732   2.059   6.896
10808SOL    HW233324   0.874   1.979   6.908
10809SOL     OW33325   1.946   1.141   2.428
10809SOL    HW133326   1.916   1.114   2.337
10809SOL    HW233327   1.923   1.238   2.443
10810SOL     OW33328   2.064   1.192   6.403
10810SOL    HW133329   2.114   1.174   6.318
10810SOL    HW233330   1.984   1.133   6.408
10811SOL     OW33331   4.587   5.457   6.508
10811SOL    HW133332   4.684   5.441   6.529
10811SOL    HW233333   4.530   5.397   6.563
10812SOL     OW33334   6.740   2.437   2.382
10812SOL    HW133335   6.797   2.519   2.385
10812SOL    HW233336   6.783   2.369   2.323
10813SOL     OW33337   3.479   5.988   2.432
10813SOL    HW133338   3.537   6.043   2.372
10813SOL    HW233339   3.524   5.901   2.451
10814SOL     OW33340   1.954   6.403   4.182
10814SOL    HW133341   1.940   6.360   4.271
10814SOL    HW233342   1.875   6.461   4.160
10815SOL     OW33343   4.941   1.611   4.851
10815SOL    HW133344   4.883   1.678   4.804
10815SOL    HW233345   4.898   1.586   4.938
10816SOL     OW33346   2.327   2.116   1.486
10816SOL    HW133347   2.295   2.056   1.560
10816SOL    HW233348   2.385   2.187   1.524
10817SOL     OW33349   4.056   1.432   1.611
10817SOL    HW133350   4.007   1.369   1.671
10817SOL    HW233351   4.132   1.474   1.660
10818SOL     OW33352   4.174   3.403   6.767
10818SOL    HW133353   4.163   3.481   6.704
10818SOL    HW233354   4.272   3.389   6.785
10819SOL     OW33355   1.254   3.606   5.458
10819SOL    HW133356   1.306   3.522   5.452
10819SOL    HW233357   1.170   3.590   5.510
10820SOL     OW33358   0.154   6.586   4.542
10820SOL    HW133359   0.210   6.579   4.624
10820SOL    HW233360   0.213   6.583   4.461
10821SOL     OW33361   0.483   0.871   6.860
10821SOL    HW133362   0.415   0.860   6.932
10821SOL    HW233363   0.536   0.787   6.851
10822SOL     OW33364   0.555   4.227   6.803
10822SOL    HW133365   0.480   4.202   6.863
10822SOL    HW233366   0.548   4.324   6.779
10823SOL     OW33367   1.884   2.601   1.185
10823SOL    HW133368   1.956   2.592   1.255
10823SOL    HW233369   1.921   2.573   1.096
10824SOL     OW33370   5.397   1.046   3.684
10824SOL    HW133371   5.373   1.004   3.772
10824SOL    HW233372   5.356   0.993   3.610
10825SOL     OW33373   2.973   1.107   2.705
10825SOL    HW133374   2.976   1.207   2.700
10825SOL    HW233375   3.025   1.076   2.784
10826SOL     OW33376   0.157   3.124   1.443
10826SOL    HW133377   0.249   3.142   1.480
10826SOL    HW233378   0.088   3.153   1.509
10827SOL     OW33379   0.281   2.797   4.130
10827SOL    HW133380   0.228   2.875   4.164
10827SOL    HW233381   0.366   2.830   4.090
10828SOL     OW33382   2.581   5.274   0.438
10828SOL    HW133383   2.597   5.253   0.535
10828SOL    HW233384   2.588   5.191   0.384
10829SOL     OW33385   2.103   4.075   1.705
10829SOL    HW133386   2.130   4.025   1.787
10829SOL    HW233387   2.017   4.124   1.723
10830SOL     OW33388   5.894   0.716   3.586
10830SOL    HW133389   5.907   0.671   3.498
10830SOL    HW233390   5.865   0.811   3.571
10831SOL     OW33391   5.579   2.795   1.803
10831SOL    HW133392   5.582   2.894   1.787
10831SOL    HW233393   5.503   2.773   1.864
10832SOL     OW33394   0.753   3.697   2.798
10832SOL    HW133395   0.784   3.604   2.816
10832SOL    HW233396   0.829   3.761   2.813
10833SOL     OW33397   2.997   6.725   4.036
10833SOL    HW133398   2.954   6.643   3.998
10833SOL    HW233399   3.026   6.785   3.961
10834SOL     OW33400   6.635   1.154   6.030
10834SOL    HW133401   6.595   1.136   6.120
10834SOL    HW233402   6.698   1.080   6.006
10835SOL     OW33403   0.425   2.121   1.141
10835SOL    HW133404   0.436   2.044   1.203
10835SOL    HW233405   0.403   2.087   1.049
10836SOL     OW33406   1.122   2.972   1.169
10836SOL    HW133407   1.065   2.891   1.153
10836SOL    HW233408   1.182   2.986   1.091
10837SOL     OW33409   0.947   6.146   1.448
10837SOL    HW133410   1.002   6.064   1.466
10837SOL    HW233411   0.892   6.167   1.528
10838SOL     OW33412   6.274   6.586   0.826
10838SOL    HW133413   6.308   6.524   0.897
10838SOL    HW233414   6.346   6.602   0.758
10839SOL     OW33415   1.543   1.559   7.009
10839SOL    HW133416   1.496   1.473   0.011
10839SOL    HW233417   1.487   1.614   6.947
10840SOL     OW33418   2.714   0.060   3.025
10840SOL    HW133419   2.798   0.088   3.070
10840SOL    HW233420   2.728   6.992   2.977
10841SOL     OW33421   4.447   3.577   0.570
10841SOL    HW133422   4.444   3.552   0.667
10841SOL    HW233423   4.537   3.617   0.549
10842SOL     OW33424   5.915   2.647   1.818
10842SOL    HW133425   5.991   2.594   1.782
10842SOL    HW233426   5.838   2.642   1.755
10843SOL     OW33427   0.780   1.520   1.924
10843SOL    HW133428   0.875   1.550   1.934
10843SOL    HW233429   0.774   1.448   1.856
10844SOL     OW33430   4.638   0.611   3.516
10844SOL    HW133431   4.680   0.563   3.593
10844SOL    HW233432   4.709   0.642   3.453
10845SOL     OW33433   2.249   3.123   0.871
10845SOL    HW133434   2.309   3.106   0.793
10845SOL    HW233435   2.162   3.076   0.856
10846SOL     OW33436   3.357   2.325   1.469
10846SOL    HW133437   3.452   2.302   1.445
10846SOL    HW233438   3.351   2.346   1.566
10847SOL     OW33439   4.666   2.174   5.314
10847SOL    HW133440   4.693   2.218   5.400
10847SOL    HW233441   4.606   2.235   5.263
10848SOL     OW33442   1.352   0.870   6.533
10848SOL    HW133443   1.428   0.852   6.595
10848SOL    HW233444   1.370   0.955   6.482
10849SOL     OW33445   1.624   5.040   4.022
10849SOL    HW133446   1.545   5.015   4.079
10849SOL    HW233447   1.668   4.957   3.989
10850SOL     OW33448   5.201   0.927   2.089
10850SOL    HW133449   5.143   1.008   2.081
10850SOL    HW233450   5.287   0.943   2.040
10851SOL     OW33451   4.078   2.507   0.318
10851SOL    HW133452   4.029   2.548   0.395
10851SOL    HW233453   4.050   2.552   0.233
10852SOL     OW33454   6.293   0.295   6.230
10852SOL    HW133455   6.311   0.387   6.196
10852SOL    HW233456   6.238   0.245   6.164
10853SOL     OW33457   3.121   0.840   4.604
10853SOL    HW133458   3.174   0.809   4.683
10853SOL    HW233459   3.040   0.783   4.594
10854SOL     OW33460   6.883   0.292   1.279
10854SOL    HW133461   6.823   0.212   1.282
10854SOL    HW233462   6.921   0.310   1.370
10855SOL     OW33463   0.205   5.993   1.643
10855SOL    HW133464   0.194   5.898   1.613
10855SOL    HW233465   0.114   6.032   1.661
10856SOL     OW33466   5.314   6.976   6.312
10856SOL    HW133467   5.387   6.985   6.381
10856SOL    HW233468   5.309   0.042   6.258
10857SOL     OW33469   6.159   7.011   4.720
10857SOL    HW133470   6.147   6.942   4.649
10857SOL    HW233471   6.245   6.995   4.769
10858SOL     OW33472   2.333   1.972   0.164
10858SOL    HW133473   2.327   2.071   0.171
10858SOL    HW233474   2.254   1.930   0.209
10859SOL     OW33475   1.681   5.168   2.495
10859SOL    HW133476   1.661   5.072   2.478
10859SOL    HW233477   1.720   5.179   2.587
10860SOL     OW33478   5.809   2.552   1.448
10860SOL    HW133479   5.798   2.641   1.492
10860SOL    HW233480   5.803   2.479   1.516
10861SOL     OW33481   1.767   4.310   1.696
10861SOL    HW133482   1.673   4.297   1.663
10861SOL    HW233483   1.831   4.288   1.622
10862SOL     OW33484   3.737   4.267   5.379
10862SOL    HW133485   3.762   4.202   5.451
10862SOL    HW233486   3.784   4.243   5.295
10863SOL     OW33487   1.944   6.651   3.253
10863SOL    HW133488   1.955   6.680   3.348
10863SOL    HW233489   1.996   6.712   3.193
10864SOL     OW33490   2.796   3.340   1.916
10864SOL    HW133491   2.792   3.318   2.014
10864SOL    HW233492   2.890   3.366   1.892
10865SOL     OW33493   3.652   1.789   3.078
10865SOL    HW133494   3.672   1.845   3.158
10865SOL    HW233495   3.736   1.777   3.025
10866SOL     OW33496   0.944   3.634   4.382
10866SOL    HW133497   1.010   3.709   4.374
10866SOL    HW233498   0.988   3.548   4.359
10867SOL     OW33499   4.511   3.627   0.091
10867SOL    HW133500   4.606   3.614   0.121
10867SOL    HW233501   4.457   3.546   0.117
10868SOL     OW33502   1.133   6.684   5.146
10868SOL    HW133503   1.139   6.605   5.086
10868SOL    HW233504   1.225   6.708   5.178
10869NA      NA33505   0.116   0.995   6.293
10870NA      NA33506   4.753   4.710   5.257
10871NA      NA33507   0.944   4.906   2.879
10872NA      NA33508   6.002   3.452   3.350
10873NA      NA33509   3.755   2.676   5.466
10874NA      NA33510   2.351   4.387   6.940
10875NA      NA33511   1.702   5.469   0.062
10876NA      NA33512   4.166   4.879   1.833
10877NA      NA33513   4.869   4.252   1.004
10878NA      NA33514   3.790   1.464   0.648
10879NA      NA33515   5.337   6.881   1.417
10880NA      NA33516   2.304   6.780   5.363
10881NA      NA33517   4.400   5.068   3.105
10882NA      NA33518   4.100   4.348   6.488
   7.01820   7.01820   7.01820
