Generated by trjconv : CNT in water t= 551.00000
33518
    1C        C    1   2.850   2.776   4.748
    1C        C    2   2.905   2.724   4.867
    1C        C    3   2.846   2.772   4.985
    1C        C    4   2.849   2.775   4.262
    1C        C    5   2.903   2.727   4.383
    1C        C    6   2.847   2.771   4.506
    1C        C    7   3.015   2.640   4.624
    1C        C    8   2.900   2.722   4.627
    1C        C    9   3.079   2.607   4.745
    1C        C   10   3.016   2.637   4.867
    1C        C   11   3.185   2.498   4.975
    1C        C   12   3.060   2.561   4.976
    1C        C   13   2.851   2.774   3.772
    1C        C   14   2.902   2.722   3.893
    1C        C   15   2.851   2.774   4.014
    1C        C   16   3.017   2.648   4.138
    1C        C   17   2.903   2.732   4.139
    1C        C   18   3.080   2.609   4.259
    1C        C   19   3.019   2.646   4.381
    1C        C   20   3.209   2.551   4.501
    1C        C   21   3.080   2.607   4.502
    1C        C   22   3.278   2.530   4.623
    1C        C   23   3.208   2.547   4.745
    1C        C   24   3.416   2.485   4.867
    1C        C   25   3.274   2.502   4.863
    1C        C   26   3.490   2.477   4.986
    1C        C   27   2.852   2.769   3.283
    1C        C   28   2.907   2.727   3.406
    1C        C   29   2.856   2.775   3.529
    1C        C   30   3.020   2.643   3.649
    1C        C   31   2.905   2.724   3.652
    1C        C   32   3.076   2.601   3.772
    1C        C   33   3.016   2.639   3.894
    1C        C   34   3.208   2.553   4.016
    1C        C   35   3.078   2.609   4.017
    1C        C   36   3.277   2.531   4.137
    1C        C   37   3.208   2.552   4.258
    1C        C   38   3.417   2.504   4.379
    1C        C   39   3.279   2.534   4.380
    1C        C   40   3.487   2.502   4.502
    1C        C   41   3.416   2.501   4.624
    1C        C   42   3.629   2.487   4.747
    1C        C   43   3.487   2.480   4.744
    1C        C   44   3.707   2.483   4.864
    1C        C   45   3.629   2.475   4.981
    1C        C   46   2.841   2.757   2.795
    1C        C   47   2.902   2.720   2.917
    1C        C   48   2.846   2.763   3.040
    1C        C   49   3.021   2.641   3.159
    1C        C   50   2.903   2.719   3.161
    1C        C   51   3.082   2.609   3.282
    1C        C   52   3.018   2.640   3.405
    1C        C   53   3.207   2.544   3.528
    1C        C   54   3.081   2.607   3.527
    1C        C   55   3.275   2.521   3.650
    1C        C   56   3.207   2.546   3.772
    1C        C   57   3.415   2.507   3.893
    1C        C   58   3.276   2.529   3.894
    1C        C   59   3.488   2.499   4.014
    1C        C   60   3.416   2.506   4.136
    1C        C   61   3.629   2.500   4.259
    1C        C   62   3.488   2.499   4.257
    1C        C   63   3.700   2.504   4.381
    1C        C   64   3.628   2.494   4.502
    1C        C   65   3.834   2.538   4.622
    1C        C   66   3.697   2.503   4.625
    1C        C   67   3.907   2.551   4.742
    1C        C   68   3.844   2.519   4.864
    1C        C   69   4.056   2.581   4.976
    1C        C   70   3.931   2.519   4.974
    1C        C   71   2.822   2.733   2.310
    1C        C   72   2.882   2.690   2.430
    1C        C   73   2.832   2.745   2.550
    1C        C   74   3.007   2.626   2.670
    1C        C   75   2.891   2.707   2.672
    1C        C   76   3.073   2.597   2.792
    1C        C   77   3.017   2.638   2.915
    1C        C   78   3.208   2.545   3.038
    1C        C   79   3.079   2.601   3.037
    1C        C   80   3.276   2.525   3.160
    1C        C   81   3.211   2.551   3.283
    1C        C   82   3.414   2.495   3.403
    1C        C   83   3.276   2.525   3.406
    1C        C   84   3.483   2.489   3.526
    1C        C   85   3.414   2.496   3.649
    1C        C   86   3.626   2.501   3.770
    1C        C   87   3.485   2.493   3.771
    1C        C   88   3.697   2.510   3.892
    1C        C   89   3.629   2.500   4.015
    1C        C   90   3.837   2.542   4.136
    1C        C   91   3.701   2.504   4.137
    1C        C   92   3.904   2.566   4.258
    1C        C   93   3.836   2.541   4.379
    1C        C   94   4.027   2.632   4.500
    1C        C   95   3.902   2.566   4.501
    1C        C   96   4.091   2.667   4.621
    1C        C   97   4.030   2.621   4.740
    1C        C   98   4.194   2.760   4.864
    1C        C   99   4.099   2.654   4.860
    1C        C  100   4.204   2.844   4.976
    1C        C  101   2.819   2.728   2.072
    1C        C  102   2.988   2.591   2.190
    1C        C  103   2.874   2.677   2.190
    1C        C  104   3.061   2.569   2.310
    1C        C  105   3.001   2.614   2.430
    1C        C  106   3.201   2.533   2.549
    1C        C  107   3.070   2.587   2.550
    1C        C  108   3.267   2.511   2.671
    1C        C  109   3.201   2.539   2.793
    1C        C  110   3.408   2.486   2.915
    1C        C  111   3.270   2.517   2.914
    1C        C  112   3.481   2.481   3.036
    1C        C  113   3.414   2.495   3.159
    1C        C  114   3.626   2.487   3.280
    1C        C  115   3.484   2.486   3.281
    1C        C  116   3.694   2.504   3.402
    1C        C  117   3.625   2.496   3.525
    1C        C  118   3.833   2.540   3.647
    1C        C  119   3.695   2.506   3.647
    1C        C  120   3.900   2.568   3.768
    1C        C  121   3.835   2.540   3.890
    1C        C  122   4.023   2.639   4.011
    1C        C  123   3.901   2.567   4.012
    1C        C  124   4.083   2.677   4.133
    1C        C  125   4.028   2.633   4.255
    1C        C  126   4.191   2.764   4.375
    1C        C  127   4.088   2.668   4.378
    1C        C  128   4.240   2.819   4.496
    1C        C  129   4.193   2.765   4.619
    1C        C  130   4.320   2.932   4.741
    1C        C  131   4.243   2.813   4.742
    1C        C  132   4.351   3.002   4.859
    1C        C  133   4.280   2.960   4.972
    1C        C  134   3.168   2.467   2.079
    1C        C  135   3.034   2.509   2.082
    1C        C  136   3.256   2.476   2.188
    1C        C  137   3.193   2.517   2.308
    1C        C  138   3.405   2.477   2.426
    1C        C  139   3.266   2.501   2.428
    1C        C  140   3.476   2.476   2.548
    1C        C  141   3.406   2.483   2.670
    1C        C  142   3.619   2.487   2.791
    1C        C  143   3.478   2.482   2.792
    1C        C  144   3.690   2.496   2.913
    1C        C  145   3.622   2.488   3.036
    1C        C  146   3.830   2.537   3.155
    1C        C  147   3.695   2.497   3.157
    1C        C  148   3.896   2.567   3.277
    1C        C  149   3.829   2.543   3.400
    1C        C  150   4.022   2.628   3.522
    1C        C  151   3.896   2.564   3.523
    1C        C  152   4.082   2.671   3.642
    1C        C  153   4.023   2.637   3.766
    1C        C  154   4.191   2.768   3.888
    1C        C  155   4.080   2.680   3.888
    1C        C  156   4.243   2.817   4.010
    1C        C  157   4.193   2.766   4.132
    1C        C  158   4.335   2.923   4.256
    1C        C  159   4.243   2.816   4.254
    1C        C  160   4.368   2.989   4.376
    1C        C  161   4.325   2.931   4.498
    1C        C  162   4.426   3.118   4.618
    1C        C  163   4.362   2.992   4.620
    1C        C  164   4.456   3.188   4.737
    1C        C  165   4.422   3.124   4.859
    1C        C  166   4.515   3.322   4.971
    1C        C  167   4.474   3.189   4.972
    1C        C  168   3.475   2.434   2.075
    1C        C  169   3.395   2.451   2.189
    1C        C  170   3.617   2.465   2.308
    1C        C  171   3.475   2.456   2.305
    1C        C  172   3.691   2.488   2.426
    1C        C  173   3.617   2.487   2.546
    1C        C  174   3.824   2.534   2.668
    1C        C  175   3.688   2.495   2.668
    1C        C  176   3.895   2.554   2.788
    1C        C  177   3.825   2.536   2.910
    1C        C  178   4.020   2.624   3.030
    1C        C  179   3.894   2.561   3.031
    1C        C  180   4.081   2.664   3.151
    1C        C  181   4.021   2.631   3.274
    1C        C  182   4.189   2.755   3.397
    1C        C  183   4.081   2.663   3.398
    1C        C  184   4.239   2.808   3.518
    1C        C  185   4.190   2.762   3.642
    1C        C  186   4.334   2.919   3.762
    1C        C  187   4.241   2.812   3.764
    1C        C  188   4.372   2.979   3.884
    1C        C  189   4.328   2.930   4.009
    1C        C  190   4.444   3.103   4.128
    1C        C  191   4.371   2.982   4.133
    1C        C  192   4.470   3.170   4.250
    1C        C  193   4.436   3.113   4.374
    1C        C  194   4.504   3.314   4.491
    1C        C  195   4.464   3.179   4.496
    1C        C  196   4.522   3.389   4.610
    1C        C  197   4.508   3.320   4.732
    1C        C  198   4.558   3.533   4.849
    1C        C  199   4.537   3.391   4.852
    1C        C  200   4.581   3.616   4.963
    1C        C  201   3.615   2.422   2.071
    1C        C  202   3.825   2.510   2.183
    1C        C  203   3.690   2.462   2.186
    1C        C  204   3.897   2.537   2.302
    1C        C  205   3.829   2.516   2.424
    1C        C  206   4.015   2.622   2.543
    1C        C  207   3.893   2.551   2.545
    1C        C  208   4.078   2.660   2.664
    1C        C  209   4.018   2.623   2.786
    1C        C  210   4.189   2.752   2.907
    1C        C  211   4.079   2.664   2.907
    1C        C  212   4.243   2.799   3.029
    1C        C  213   4.192   2.751   3.152
    1C        C  214   4.327   2.914   3.271
    1C        C  215   4.241   2.802   3.274
    1C        C  216   4.365   2.975   3.393
    1C        C  217   4.325   2.920   3.517
    1C        C  218   4.433   3.103   3.636
    1C        C  219   4.369   2.978   3.638
    1C        C  220   4.458   3.170   3.758
    1C        C  221   4.435   3.106   3.882
    1C        C  222   4.498   3.305   4.003
    1C        C  223   4.467   3.167   4.005
    1C        C  224   4.513   3.377   4.124
    1C        C  225   4.505   3.307   4.246
    1C        C  226   4.520   3.521   4.365
    1C        C  227   4.517   3.380   4.367
    1C        C  228   4.521   3.597   4.483
    1C        C  229   4.526   3.530   4.607
    1C        C  230   4.498   3.741   4.726
    1C        C  231   4.536   3.604   4.727
    1C        C  232   4.497   3.818   4.844
    1C        C  233   4.548   3.751   4.956
    1C        C  234   4.015   2.609   2.062
    1C        C  235   3.894   2.540   2.065
    1C        C  236   4.081   2.651   2.179
    1C        C  237   4.019   2.611   2.299
    1C        C  238   4.190   2.740   2.421
    1C        C  239   4.076   2.656   2.420
    1C        C  240   4.250   2.784   2.541
    1C        C  241   4.192   2.744   2.663
    1C        C  242   4.331   2.907   2.782
    1C        C  243   4.242   2.797   2.784
    1C        C  244   4.372   2.965   2.904
    1C        C  245   4.336   2.906   3.027
    1C        C  246   4.437   3.093   3.148
    1C        C  247   4.369   2.969   3.149
    1C        C  248   4.465   3.160   3.269
    1C        C  249   4.430   3.100   3.392
    1C        C  250   4.496   3.304   3.512
    1C        C  251   4.453   3.170   3.513
    1C        C  252   4.507   3.374   3.635
    1C        C  253   4.494   3.307   3.759
    1C        C  254   4.525   3.516   3.876
    1C        C  255   4.510   3.376   3.881
    1C        C  256   4.521   3.588   3.998
    1C        C  257   4.521   3.518   4.120
    1C        C  258   4.497   3.731   4.241
    1C        C  259   4.514   3.590   4.242
    1C        C  260   4.478   3.803   4.360
    1C        C  261   4.498   3.737   4.483
    1C        C  262   4.435   3.943   4.604
    1C        C  263   4.481   3.809   4.603
    1C        C  264   4.405   4.012   4.723
    1C        C  265   4.439   3.947   4.844
    1C        C  266   4.314   4.126   4.957
    1C        C  267   4.394   4.012   4.959
    1C        C  268   4.258   2.777   2.062
    1C        C  269   4.192   2.738   2.179
    1C        C  270   4.346   2.889   2.299
    1C        C  271   4.247   2.787   2.300
    1C        C  272   4.382   2.953   2.420
    1C        C  273   4.342   2.891   2.540
    1C        C  274   4.444   3.083   2.659
    1C        C  275   4.374   2.960   2.659
    1C        C  276   4.469   3.152   2.779
    1C        C  277   4.439   3.090   2.902
    1C        C  278   4.502   3.292   3.023
    1C        C  279   4.465   3.156   3.024
    1C        C  280   4.513   3.364   3.145
    1C        C  281   4.501   3.296   3.268
    1C        C  282   4.520   3.510   3.389
    1C        C  283   4.517   3.369   3.388
    1C        C  284   4.517   3.582   3.510
    1C        C  285   4.520   3.514   3.634
    1C        C  286   4.497   3.726   3.752
    1C        C  287   4.525   3.588   3.755
    1C        C  288   4.480   3.795   3.874
    1C        C  289   4.499   3.728   3.997
    1C        C  290   4.434   3.932   4.115
    1C        C  291   4.480   3.799   4.118
    1C        C  292   4.399   3.996   4.236
    1C        C  293   4.425   3.934   4.360
    1C        C  294   4.322   4.121   4.481
    1C        C  295   4.400   4.003   4.481
    1C        C  296   4.281   4.185   4.600
    1C        C  297   4.330   4.132   4.722
    1C        C  298   4.200   4.313   4.837
    1C        C  299   4.286   4.198   4.840
    1C        C  300   4.171   4.402   4.946
    1C        C  301   4.345   2.885   2.060
    1C        C  302   4.473   3.064   2.175
    1C        C  303   4.395   2.944   2.178
    1C        C  304   4.478   3.141   2.294
    1C        C  305   4.444   3.080   2.416
    1C        C  306   4.503   3.287   2.537
    1C        C  307   4.469   3.150   2.537
    1C        C  308   4.517   3.360   2.657
    1C        C  309   4.500   3.290   2.779
    1C        C  310   4.529   3.501   2.900
    1C        C  311   4.520   3.360   2.900
    1C        C  312   4.520   3.575   3.020
    1C        C  313   4.524   3.505   3.143
    1C        C  314   4.497   3.716   3.263
    1C        C  315   4.515   3.576   3.264
    1C        C  316   4.482   3.789   3.384
    1C        C  317   4.498   3.722   3.507
    1C        C  318   4.428   3.924   3.626
    1C        C  319   4.480   3.793   3.629
    1C        C  320   4.392   3.988   3.747
    1C        C  321   4.425   3.925   3.869
    1C        C  322   4.324   4.112   3.990
    1C        C  323   4.399   3.992   3.991
    1C        C  324   4.279   4.167   4.112
    1C        C  325   4.322   4.114   4.235
    1C        C  326   4.187   4.279   4.355
    1C        C  327   4.282   4.175   4.356
    1C        C  328   4.136   4.338   4.474
    1C        C  329   4.189   4.292   4.596
    1C        C  330   4.019   4.428   4.714
    1C        C  331   4.135   4.345   4.715
    1C        C  332   3.968   4.487   4.831
    1C        C  333   4.053   4.478   4.942
    1C        C  334   4.554   3.267   2.063
    1C        C  335   4.539   3.128   2.065
    1C        C  336   4.539   3.350   2.174
    1C        C  337   4.508   3.280   2.293
    1C        C  338   4.525   3.495   2.410
    1C        C  339   4.518   3.354   2.413
    1C        C  340   4.522   3.568   2.531
    1C        C  341   4.525   3.501   2.656
    1C        C  342   4.497   3.710   2.773
    1C        C  343   4.525   3.572   2.778
    1C        C  344   4.477   3.779   2.895
    1C        C  345   4.494   3.713   3.019
    1C        C  346   4.433   3.918   3.137
    1C        C  347   4.478   3.784   3.141
    1C        C  348   4.399   3.983   3.258
    1C        C  349   4.433   3.921   3.380
    1C        C  350   4.323   4.103   3.501
    1C        C  351   4.402   3.986   3.502
    1C        C  352   4.280   4.164   3.621
    1C        C  353   4.321   4.110   3.745
    1C        C  354   4.172   4.258   3.866
    1C        C  355   4.276   4.164   3.868
    1C        C  356   4.121   4.308   3.988
    1C        C  357   4.176   4.264   4.111
    1C        C  358   4.009   4.394   4.230
    1C        C  359   4.127   4.316   4.233
    1C        C  360   3.948   4.437   4.350
    1C        C  361   4.018   4.415   4.471
    1C        C  362   3.828   4.517   4.588
    1C        C  363   3.956   4.455   4.591
    1C        C  364   3.760   4.546   4.708
    1C        C  365   3.835   4.534   4.828
    1C        C  366   3.626   4.582   4.948
    1C        C  367   3.765   4.571   4.943
    1C        C  368   4.509   3.563   2.050
    1C        C  369   4.527   3.491   2.169
    1C        C  370   4.503   3.706   2.285
    1C        C  371   4.524   3.566   2.288
    1C        C  372   4.482   3.776   2.406
    1C        C  373   4.504   3.708   2.528
    1C        C  374   4.428   3.907   2.647
    1C        C  375   4.482   3.776   2.649
    1C        C  376   4.398   3.972   2.769
    1C        C  377   4.425   3.911   2.893
    1C        C  378   4.321   4.097   3.008
    1C        C  379   4.399   3.979   3.014
    1C        C  380   4.275   4.151   3.130
    1C        C  381   4.319   4.099   3.254
    1C        C  382   4.181   4.258   3.376
    1C        C  383   4.279   4.155   3.377
    1C        C  384   4.122   4.302   3.496
    1C        C  385   4.174   4.257   3.619
    1C        C  386   4.003   4.381   3.740
    1C        C  387   4.119   4.301   3.741
    1C        C  388   3.942   4.417   3.862
    1C        C  389   4.003   4.386   3.986
    1C        C  390   3.814   4.478   4.105
    1C        C  391   3.944   4.423   4.109
    1C        C  392   3.748   4.511   4.226
    1C        C  393   3.818   4.492   4.347
    1C        C  394   3.615   4.550   4.472
    1C        C  395   3.754   4.527   4.468
    1C        C  396   3.545   4.563   4.594
    1C        C  397   3.621   4.568   4.713
    1C        C  398   3.410   4.547   4.837
    1C        C  399   3.547   4.581   4.832
    1C        C  400   3.338   4.515   4.953
    1C        C  401   4.504   3.702   2.050
    1C        C  402   4.452   3.914   2.164
    1C        C  403   4.496   3.780   2.166
    1C        C  404   4.411   3.977   2.284
    1C        C  405   4.440   3.911   2.405
    1C        C  406   4.326   4.092   2.523
    1C        C  407   4.406   3.976   2.525
    1C        C  408   4.280   4.149   2.644
    1C        C  409   4.324   4.092   2.765
    1C        C  410   4.178   4.252   2.885
    1C        C  411   4.277   4.151   2.885
    1C        C  412   4.124   4.295   3.008
    1C        C  413   4.177   4.252   3.132
    1C        C  414   4.000   4.371   3.251
    1C        C  415   4.121   4.298   3.254
    1C        C  416   3.939   4.410   3.372
    1C        C  417   4.001   4.376   3.495
    1C        C  418   3.812   4.470   3.616
    1C        C  419   3.941   4.413   3.617
    1C        C  420   3.745   4.494   3.738
    1C        C  421   3.813   4.475   3.860
    1C        C  422   3.610   4.534   3.983
    1C        C  423   3.747   4.500   3.982
    1C        C  424   3.541   4.546   4.105
    1C        C  425   3.610   4.539   4.228
    1C        C  426   3.400   4.549   4.354
    1C        C  427   3.541   4.549   4.351
    1C        C  428   3.330   4.543   4.476
    1C        C  429   3.404   4.554   4.596
    1C        C  430   3.194   4.521   4.722
    1C        C  431   3.334   4.545   4.719
    1C        C  432   3.120   4.502   4.842
    1C        C  433   3.200   4.499   4.957
    1C        C  434   4.381   4.119   2.045
    1C        C  435   4.443   3.993   2.048
    1C        C  436   4.304   4.163   2.157
    1C        C  437   4.335   4.097   2.280
    1C        C  438   4.177   4.243   2.400
    1C        C  439   4.281   4.147   2.401
    1C        C  440   4.120   4.289   2.521
    1C        C  441   4.181   4.249   2.642
    1C        C  442   4.003   4.370   2.764
    1C        C  443   4.124   4.296   2.762
    1C        C  444   3.940   4.402   2.886
    1C        C  445   4.004   4.369   3.008
    1C        C  446   3.809   4.459   3.129
    1C        C  447   3.940   4.406   3.128
    1C        C  448   3.743   4.485   3.251
    1C        C  449   3.810   4.468   3.374
    1C        C  450   3.605   4.526   3.493
    1C        C  451   3.742   4.491   3.495
    1C        C  452   3.537   4.540   3.617
    1C        C  453   3.609   4.532   3.738
    1C        C  454   3.398   4.543   3.865
    1C        C  455   3.539   4.540   3.861
    1C        C  456   3.327   4.538   3.987
    1C        C  457   3.400   4.543   4.109
    1C        C  458   3.193   4.506   4.237
    1C        C  459   3.330   4.539   4.231
    1C        C  460   3.125   4.488   4.360
    1C        C  461   3.192   4.513   4.481
    1C        C  462   2.995   4.432   4.603
    1C        C  463   3.123   4.493   4.603
    1C        C  464   2.928   4.402   4.723
    1C        C  465   2.986   4.451   4.843
    1C        C  466   2.804   4.338   4.955
    1C        C  467   2.905   4.434   4.960
    1C        C  468   4.119   4.279   2.038
    1C        C  469   4.189   4.249   2.156
    1C        C  470   4.008   4.367   2.276
    1C        C  471   4.130   4.294   2.277
    1C        C  472   3.942   4.396   2.397
    1C        C  473   4.003   4.368   2.521
    1C        C  474   3.811   4.462   2.641
    1C        C  475   3.940   4.404   2.643
    1C        C  476   3.745   4.487   2.763
    1C        C  477   3.811   4.460   2.885
    1C        C  478   3.604   4.512   3.008
    1C        C  479   3.742   4.480   3.006
    1C        C  480   3.533   4.524   3.130
    1C        C  481   3.605   4.517   3.251
    1C        C  482   3.393   4.532   3.375
    1C        C  483   3.534   4.534   3.372
    1C        C  484   3.326   4.526   3.499
    1C        C  485   3.396   4.539   3.621
    1C        C  486   3.189   4.506   3.744
    1C        C  487   3.326   4.540   3.744
    1C        C  488   3.126   4.481   3.869
    1C        C  489   3.189   4.508   3.992
    1C        C  490   3.001   4.416   4.115
    1C        C  491   3.125   4.483   4.115
    1C        C  492   2.938   4.385   4.238
    1C        C  493   2.998   4.426   4.359
    1C        C  494   2.828   4.300   4.481
    1C        C  495   2.936   4.392   4.481
    1C        C  496   2.774   4.253   4.602
    1C        C  497   2.815   4.316   4.722
    1C        C  498   2.663   4.165   4.844
    1C        C  499   2.750   4.276   4.841
    1C        C  500   2.599   4.116   4.959
    1C        C  501   4.001   4.352   2.037
    1C        C  502   3.816   4.461   2.156
    1C        C  503   3.943   4.399   2.155
    1C        C  504   3.745   4.480   2.276
    1C        C  505   3.812   4.451   2.397
    1C        C  506   3.605   4.503   2.520
    1C        C  507   3.744   4.481   2.518
    1C        C  508   3.534   4.507   2.642
    1C        C  509   3.606   4.510   2.764
    1C        C  510   3.394   4.527   2.884
    1C        C  511   3.535   4.525   2.885
    1C        C  512   3.321   4.526   3.005
    1C        C  513   3.392   4.536   3.127
    1C        C  514   3.188   4.494   3.255
    1C        C  515   3.325   4.530   3.251
    1C        C  516   3.121   4.473   3.378
    1C        C  517   3.187   4.501   3.500
    1C        C  518   2.997   4.411   3.625
    1C        C  519   3.121   4.479   3.623
    1C        C  520   2.939   4.374   3.748
    1C        C  521   3.003   4.411   3.869
    1C        C  522   2.839   4.281   3.995
    1C        C  523   2.945   4.374   3.992
    1C        C  524   2.790   4.232   4.119
    1C        C  525   2.831   4.293   4.239
    1C        C  526   2.700   4.127   4.364
    1C        C  527   2.777   4.245   4.361
    1C        C  528   2.657   4.074   4.487
    1C        C  529   2.688   4.141   4.608
    1C        C  530   2.577   3.960   4.730
    1C        C  531   2.634   4.090   4.728
    1C        C  532   2.540   3.901   4.855
    1C        C  533   2.531   3.994   4.963
    1C        C  534   3.617   4.550   2.036
    1C        C  535   3.752   4.512   2.042
    1C        C  536   3.538   4.534   2.154
    1C        C  537   3.605   4.505   2.276
    1C        C  538   3.393   4.518   2.401
    1C        C  539   3.534   4.512   2.398
    1C        C  540   3.320   4.516   2.522
    1C        C  541   3.393   4.520   2.642
    1C        C  542   3.183   4.488   2.765
    1C        C  543   3.321   4.519   2.763
    1C        C  544   3.119   4.469   2.889
    1C        C  545   3.184   4.495   3.011
    1C        C  546   2.997   4.398   3.132
    1C        C  547   3.119   4.470   3.135
    1C        C  548   2.941   4.362   3.257
    1C        C  549   2.997   4.405   3.379
    1C        C  550   2.832   4.278   3.504
    1C        C  551   2.939   4.371   3.503
    1C        C  552   2.781   4.232   3.627
    1C        C  553   2.832   4.282   3.749
    1C        C  554   2.700   4.120   3.872
    1C        C  555   2.790   4.229   3.873
    1C        C  556   2.664   4.061   3.995
    1C        C  557   2.704   4.120   4.117
    1C        C  558   2.597   3.942   4.243
    1C        C  559   2.664   4.066   4.241
    1C        C  560   2.570   3.878   4.366
    1C        C  561   2.592   3.949   4.486
    1C        C  562   2.524   3.752   4.616
    1C        C  563   2.558   3.889   4.610
    1C        C  564   2.517   3.681   4.738
    1C        C  565   2.515   3.760   4.855
    1C        C  566   2.526   3.549   4.979
    1C        C  567   2.514   3.688   4.975
    1C        C  568   3.329   4.469   2.041
    1C        C  569   3.397   4.509   2.157
    1C        C  570   3.186   4.473   2.278
    1C        C  571   3.323   4.512   2.278
    1C        C  572   3.115   4.458   2.399
    1C        C  573   3.182   4.484   2.520
    1C        C  574   2.988   4.404   2.648
    1C        C  575   3.116   4.464   2.643
    1C        C  576   2.927   4.365   2.770
    1C        C  577   2.996   4.399   2.888
    1C        C  578   2.827   4.270   3.014
    1C        C  579   2.938   4.358   3.011
    1C        C  580   2.778   4.222   3.137
    1C        C  581   2.832   4.272   3.258
    1C        C  582   2.703   4.109   3.387
    1C        C  583   2.784   4.225   3.382
    1C        C  584   2.663   4.052   3.510
    1C        C  585   2.696   4.119   3.630
    1C        C  586   2.590   3.935   3.754
    1C        C  587   2.659   4.057   3.752
    1C        C  588   2.565   3.872   3.878
    1C        C  589   2.601   3.935   4.000
    1C        C  590   2.533   3.737   4.127
    1C        C  591   2.568   3.873   4.123
    1C        C  592   2.522   3.671   4.252
    1C        C  593   2.536   3.741   4.374
    1C        C  594   2.509   3.535   4.499
    1C        C  595   2.517   3.676   4.497
    1C        C  596   2.512   3.464   4.621
    1C        C  597   2.514   3.539   4.742
    1C        C  598   2.536   3.328   4.862
    1C        C  599   2.523   3.469   4.864
    1C        C  600   2.534   3.251   4.979
    1C        C  601   3.196   4.434   2.039
    1C        C  602   2.983   4.395   2.156
    1C        C  603   3.121   4.434   2.157
    1C        C  604   2.928   4.360   2.282
    1C        C  605   2.989   4.394   2.405
    1C        C  606   2.821   4.269   2.529
    1C        C  607   2.928   4.361   2.528
    1C        C  608   2.768   4.222   2.651
    1C        C  609   2.821   4.271   2.772
    1C        C  610   2.688   4.106   2.897
    1C        C  611   2.773   4.219   2.894
    1C        C  612   2.650   4.049   3.020
    1C        C  613   2.690   4.111   3.141
    1C        C  614   2.593   3.928   3.266
    1C        C  615   2.660   4.052   3.265
    1C        C  616   2.564   3.865   3.390
    1C        C  617   2.596   3.928   3.512
    1C        C  618   2.526   3.729   3.636
    1C        C  619   2.563   3.865   3.634
    1C        C  620   2.516   3.665   3.762
    1C        C  621   2.524   3.737   3.883
    1C        C  622   2.506   3.526   4.009
    1C        C  623   2.518   3.667   4.005
    1C        C  624   2.507   3.456   4.132
    1C        C  625   2.513   3.530   4.253
    1C        C  626   2.534   3.323   4.380
    1C        C  627   2.515   3.463   4.377
    1C        C  628   2.553   3.253   4.501
    1C        C  629   2.536   3.325   4.621
    1C        C  630   2.598   3.121   4.742
    1C        C  631   2.553   3.256   4.743
    1C        C  632   2.619   3.049   4.863
    1C        C  633   2.562   3.114   4.978
    1C        C  634   2.779   4.306   2.058
    1C        C  635   2.887   4.395   2.050
    1C        C  636   2.749   4.229   2.171
    1C        C  637   2.816   4.272   2.287
    1C        C  638   2.678   4.109   2.413
    1C        C  639   2.765   4.220   2.408
    1C        C  640   2.644   4.047   2.535
    1C        C  641   2.685   4.108   2.656
    1C        C  642   2.582   3.919   2.778
    1C        C  643   2.651   4.043   2.776
    1C        C  644   2.554   3.855   2.901
    1C        C  645   2.587   3.922   3.020
    1C        C  646   2.529   3.724   3.150
    1C        C  647   2.567   3.860   3.145
    1C        C  648   2.514   3.654   3.272
    1C        C  649   2.526   3.729   3.392
    1C        C  650   2.505   3.519   3.518
    1C        C  651   2.510   3.660   3.514
    1C        C  652   2.511   3.452   3.642
    1C        C  653   2.506   3.524   3.764
    1C        C  654   2.536   3.317   3.890
    1C        C  655   2.508   3.455   3.887
    1C        C  656   2.553   3.251   4.014
    1C        C  657   2.532   3.317   4.137
    1C        C  658   2.599   3.118   4.259
    1C        C  659   2.551   3.251   4.260
    1C        C  660   2.634   3.054   4.380
    1C        C  661   2.602   3.120   4.500
    1C        C  662   2.707   2.936   4.623
    1C        C  663   2.626   3.052   4.622
    1C        C  664   2.760   2.887   4.744
    1C        C  665   2.701   2.933   4.865
    1C        C  666   2.751   2.874   4.982
    1C        C  667   2.687   4.024   2.056
    1C        C  668   2.686   4.102   2.172
    1C        C  669   2.586   3.913   2.293
    1C        C  670   2.644   4.043   2.293
    1C        C  671   2.562   3.846   2.415
    1C        C  672   2.587   3.917   2.534
    1C        C  673   2.520   3.716   2.659
    1C        C  674   2.558   3.852   2.656
    1C        C  675   2.503   3.648   2.782
    1C        C  676   2.516   3.719   2.904
    1C        C  677   2.505   3.512   3.028
    1C        C  678   2.514   3.653   3.029
    1C        C  679   2.507   3.442   3.151
    1C        C  680   2.505   3.513   3.273
    1C        C  681   2.528   3.307   3.402
    1C        C  682   2.501   3.446   3.397
    1C        C  683   2.553   3.241   3.525
    1C        C  684   2.536   3.313   3.646
    1C        C  685   2.607   3.116   3.770
    1C        C  686   2.554   3.247   3.769
    1C        C  687   2.637   3.055   3.895
    1C        C  688   2.603   3.119   4.016
    1C        C  689   2.711   2.935   4.137
    1C        C  690   2.632   3.053   4.138
    1C        C  691   2.757   2.882   4.260
    1C        C  692   2.713   2.937   4.383
    1C        C  693   2.752   2.875   4.504
    1C        C  694   2.636   3.894   2.061
    1C        C  695   2.523   3.706   2.176
    1C        C  696   2.575   3.838   2.174
    1C        C  697   2.499   3.639   2.297
    1C        C  698   2.517   3.712   2.417
    1C        C  699   2.486   3.503   2.541
    1C        C  700   2.505   3.643   2.539
    1C        C  701   2.493   3.434   2.664
    1C        C  702   2.502   3.507   2.784
    1C        C  703   2.521   3.298   2.912
    1C        C  704   2.507   3.438   2.907
    1C        C  705   2.544   3.231   3.034
    1C        C  706   2.533   3.304   3.155
    1C        C  707   2.602   3.109   3.278
    1C        C  708   2.548   3.239   3.280
    1C        C  709   2.635   3.046   3.401
    1C        C  710   2.603   3.109   3.523
    1C        C  711   2.712   2.933   3.649
    1C        C  712   2.635   3.051   3.648
    1C        C  713   2.756   2.879   3.772
    1C        C  714   2.713   2.936   3.894
    1C        C  715   2.757   2.880   4.016
    1C        C  716   2.447   3.500   2.060
    1C        C  717   2.483   3.635   2.062
    1C        C  718   2.462   3.425   2.181
    1C        C  719   2.482   3.498   2.301
    1C        C  720   2.516   3.288   2.424
    1C        C  721   2.487   3.426   2.423
    1C        C  722   2.537   3.223   2.547
    1C        C  723   2.517   3.294   2.667
    1C        C  724   2.589   3.098   2.790
    1C        C  725   2.534   3.228   2.790
    1C        C  726   2.625   3.035   2.912
    1C        C  727   2.594   3.099   3.034
    1C        C  728   2.709   2.924   3.159
    1C        C  729   2.628   3.040   3.158
    1C        C  730   2.753   2.871   3.282
    1C        C  731   2.712   2.928   3.404
    1C        C  732   2.759   2.877   3.527
    1C        C  733   2.489   3.200   2.072
    1C        C  734   2.489   3.284   2.184
    1C        C  735   2.577   3.082   2.305
    1C        C  736   2.527   3.215   2.303
    1C        C  737   2.611   3.019   2.426
    1C        C  738   2.587   3.091   2.546
    1C        C  739   2.697   2.913   2.671
    1C        C  740   2.621   3.031   2.670
    1C        C  741   2.744   2.859   2.793
    1C        C  742   2.699   2.915   2.914
    1C        C  743   2.748   2.865   3.037
    1C        C  744   2.542   3.072   2.074
    1C        C  745   2.683   2.896   2.187
    1C        C  746   2.606   3.014   2.185
    1C        C  747   2.724   2.836   2.308
    1C        C  748   2.683   2.898   2.429
    1C        C  749   2.736   2.849   2.550
    1C        C  750   2.732   2.837   2.070
    1C        C  751   3.662   2.309   1.988
    1C        O  752   3.645   2.192   2.033
    1C        O  753   3.651   2.315   1.848
    1C        C  754   4.617   3.069   1.954
    1C        O  755   4.562   3.046   1.843
    1C        O  756   4.718   2.980   1.992
    1C        C  757   4.434   4.214   1.945
    1C        O  758   4.547   4.269   1.961
    1C        O  759   4.395   4.210   1.811
    1C        C  760   3.572   4.604   1.905
    1C        O  761   3.560   4.728   1.892
    1C        O  762   3.599   4.560   1.775
    1C        C  763   2.872   4.515   1.965
    1C        O  764   2.913   4.505   1.846
    1C        O  765   2.853   4.650   1.997
    1C        C  766   2.364   3.456   1.946
    1C        O  767   2.380   3.480   1.823
    1C        O  768   2.240   3.391   1.955
    1C        C  769   4.701   3.588   5.045
    1C        O  770   4.689   3.595   5.171
    1C        O  771   4.833   3.593   4.999
    1C        C  772   4.275   4.441   5.043
    1C        O  773   4.267   4.402   5.163
    1C        O  774   4.327   4.571   5.034
    1C        C  775   4.155   2.514   5.063
    1C        O  776   4.201   2.401   5.032
    1C        O  777   4.150   2.518   5.203
    1C        C  778   2.866   4.545   5.049
    1C        O  779   2.838   4.654   4.991
    1C        O  780   2.915   4.564   5.179
    1C        C  781   2.514   3.039   5.096
    1C        O  782   2.392   3.009   5.099
    1C        O  783   2.580   3.072   5.214
    1C        C  784   2.419   3.997   5.060
    1C        O  785   2.304   4.045   5.038
    1C        O  786   2.443   3.986   5.197
    1C        C  787   2.944   2.428   1.996
    1C        O  788   2.926   2.448   1.873
    1C        O  789   2.864   2.336   2.063
    1C        C  790   3.176   2.369   5.047
    1C        O  791   3.122   2.265   5.002
    1C        O  792   3.154   2.364   5.186
    1C        H  793   4.294   3.013   5.065
    1C        H  794   4.139   2.831   5.060
    1C        H  795   4.502   3.129   5.056
    1C        H  796   4.544   3.358   5.068
    1C        H  797   4.577   3.820   5.033
    1C        H  798   4.416   3.972   5.056
    1C        H  799   4.254   4.147   5.043
    1C        H  800   4.032   4.541   5.025
    1C        H  801   3.818   4.603   5.031
    1C        H  802   3.592   4.638   5.033
    1C        H  803   3.386   4.512   5.049
    1C        H  804   3.158   4.511   5.055
    1C        H  805   3.892   2.506   5.073
    1C        H  806   3.682   2.443   5.068
    1C        H  807   3.017   2.572   5.074
    1C        H  808   3.442   2.492   5.080
    1C        H  809   2.848   2.712   5.074
    1C        H  810   2.705   2.891   5.076
    1C        H  811   2.517   3.295   5.076
    1C        H  812   2.586   3.520   5.063
    1C        H  813   2.523   3.743   5.066
    1C        H  814   2.640   4.151   5.051
    1C        H  815   2.774   4.302   5.051
    1C        H  816   2.718   2.889   1.977
    1C        H  817   2.878   2.708   1.985
    1C        H  818   3.209   2.466   1.980
    1C        H  819   3.426   2.399   1.987
    1C        H  820   3.852   2.503   1.974
    1C        H  821   4.070   2.592   1.972
    1C        H  822   4.282   2.695   1.997
    1C        H  823   4.388   2.910   1.965
    1C        H  824   4.531   3.313   1.969
    1C        H  825   4.448   3.518   1.974
    1C        H  826   4.522   3.745   1.954
    1C        H  827   3.814   4.538   1.959
    1C        H  828   3.968   4.378   1.938
    1C        H  829   4.138   4.213   1.956
    1C        H  830   4.521   3.975   1.978
    1C        H  831   2.633   3.846   1.965
    1C        H  832   2.722   4.065   1.963
    1C        H  833   2.736   4.276   1.964
    1C        H  834   3.378   4.462   1.946
    1C        H  835   3.170   4.376   1.952
    1C        H  836   2.545   3.016   1.982
    1C        H  837   2.409   3.215   2.002
    1C        H  838   2.442   3.699   1.986
    2V3OU   H29  839   2.799   3.551   5.989
    2V3OU   C27  840   2.776   3.502   6.087
    2V3OU   H27  841   2.716   3.570   6.153
    2V3OU   H28  842   2.740   3.399   6.061
    2V3OU   O11  843   2.900   3.480   6.154
    2V3OU   C15  844   2.920   3.391   6.257
    2V3OU   C13  845   3.049   3.374   6.311
    2V3OU   C14  846   3.072   3.264   6.395
    2V3OU   C16  847   2.967   3.186   6.441
    2V3OU    H6  848   2.992   3.102   6.507
    2V3OU   C12  849   3.210   3.229   6.434
    2V3OU    O2  850   3.241   3.124   6.495
    2V3OU   C10  851   3.324   3.300   6.374
    2V3OU    C8  852   3.455   3.264   6.403
    2V3OU   O10  853   3.487   3.155   6.477
    2V3OU   H26  854   3.402   3.115   6.501
    2V3OU    C6  855   3.563   3.349   6.362
    2V3OU    C5  856   3.537   3.470   6.299
    2V3OU    C4  857   3.698   3.287   6.353
    2V3OU    H4  858   3.722   3.223   6.443
    2V3OU    H5  859   3.708   3.227   6.257
    2V3OU    C2  860   3.809   3.391   6.352
    2V3OU    O6  861   3.808   3.472   6.470
    2V3OU   H21  862   3.769   3.553   6.433
    2V3OU    C3  863   3.780   3.494   6.242
    2V3OU    H2  864   3.860   3.571   6.250
    2V3OU    H3  865   3.779   3.440   6.144
    2V3OU   C25  866   3.945   3.322   6.341
    2V3OU    O7  867   3.995   3.299   6.231
    2V3OU   C26  868   4.029   3.285   6.463
    2V3OU   H22  869   4.070   3.378   6.510
    2V3OU   H23  870   4.115   3.223   6.428
    2V3OU    O8  871   3.968   3.201   6.559
    2V3OU   H24  872   3.921   3.263   6.617
    2V3OU    C1  873   3.646   3.565   6.259
    2V3OU    H1  874   3.625   3.619   6.161
    2V3OU    O3  875   3.658   3.653   6.371
    2V3OU   C19  876   3.616   3.788   6.356
    2V3OU    H9  877   3.522   3.797   6.295
    2V3OU    O4  878   3.714   3.848   6.274
    2V3OU   C20  879   3.843   3.877   6.329
    2V3OU   H10  880   3.888   3.775   6.347
    2V3OU   C24  881   3.612   3.851   6.495
    2V3OU   H16  882   3.550   3.787   6.563
    2V3OU   H17  883   3.564   3.952   6.484
    2V3OU   C23  884   3.748   3.874   6.561
    2V3OU   H15  885   3.792   3.772   6.589
    2V3OU    N1  886   3.737   3.958   6.678
    2V3OU   H19  887   3.817   3.924   6.727
    2V3OU   H20  888   3.653   3.939   6.729
    2V3OU   C21  889   3.847   3.947   6.465
    2V3OU   H11  890   3.949   3.932   6.510
    2V3OU    O5  891   3.825   4.088   6.470
    2V3OU   H18  892   3.780   4.105   6.554
    2V3OU   C22  893   3.915   3.952   6.218
    2V3OU   H12  894   3.858   4.045   6.197
    2V3OU   H13  895   3.907   3.894   6.123
    2V3OU   H14  896   4.023   3.960   6.245
    2V3OU   C11  897   3.160   3.467   6.286
    2V3OU    O1  898   3.137   3.586   6.254
    2V3OU    C9  899   3.299   3.419   6.300
    2V3OU    C7  900   3.402   3.507   6.267
    2V3OU    O9  901   3.380   3.613   6.183
    2V3OU   H25  902   3.284   3.628   6.177
    2V3OU   C17  903   2.815   3.311   6.308
    2V3OU    H7  904   2.712   3.345   6.299
    2V3OU   C18  905   2.836   3.209   6.400
    2V3OU    H8  906   2.760   3.141   6.440
    3SOL     OW  907   3.276   3.046   4.189
    3SOL    HW1  908   3.285   3.084   4.281
    3SOL    HW2  909   3.219   3.107   4.134
    4SOL     OW  910   0.748   6.432   0.789
    4SOL    HW1  911   0.758   6.388   0.879
    4SOL    HW2  912   0.673   6.497   0.793
    5SOL     OW  913   3.968   2.396   0.770
    5SOL    HW1  914   3.939   2.312   0.816
    5SOL    HW2  915   3.888   2.445   0.736
    6SOL     OW  916   3.756   1.842   2.508
    6SOL    HW1  917   3.682   1.909   2.501
    6SOL    HW2  918   3.791   1.823   2.416
    7SOL     OW  919   2.206   2.939   4.725
    7SOL    HW1  920   2.266   2.974   4.653
    7SOL    HW2  921   2.126   2.895   4.684
    8SOL     OW  922   1.102   2.516   6.024
    8SOL    HW1  923   1.087   2.598   6.078
    8SOL    HW2  924   1.197   2.513   5.994
    9SOL     OW  925   1.307   2.406   6.250
    9SOL    HW1  926   1.259   2.455   6.177
    9SOL    HW2  927   1.312   2.463   6.332
   10SOL     OW  928   5.525   5.027   1.684
   10SOL    HW1  929   5.581   5.101   1.723
   10SOL    HW2  930   5.468   5.064   1.610
   11SOL     OW  931   3.115   1.722   0.467
   11SOL    HW1  932   3.121   1.648   0.534
   11SOL    HW2  933   3.019   1.747   0.454
   12SOL     OW  934   5.133   5.572   1.750
   12SOL    HW1  935   5.114   5.488   1.699
   12SOL    HW2  936   5.199   5.553   1.823
   13SOL     OW  937   5.533   5.766   1.912
   13SOL    HW1  938   5.433   5.758   1.915
   13SOL    HW2  939   5.558   5.861   1.895
   14SOL     OW  940   3.844   6.190   0.660
   14SOL    HW1  941   3.797   6.208   0.573
   14SOL    HW2  942   3.921   6.129   0.644
   15SOL     OW  943   0.478   6.706   6.893
   15SOL    HW1  944   0.548   6.694   6.964
   15SOL    HW2  945   0.503   6.784   6.836
   16SOL     OW  946   1.838   5.644   4.826
   16SOL    HW1  947   1.914   5.707   4.810
   16SOL    HW2  948   1.752   5.695   4.829
   17SOL     OW  949   0.061   1.886   3.849
   17SOL    HW1  950   0.135   1.851   3.793
   17SOL    HW2  951   0.042   1.822   3.923
   18SOL     OW  952   2.760   1.773   5.630
   18SOL    HW1  953   2.832   1.745   5.694
   18SOL    HW2  954   2.802   1.805   5.545
   19SOL     OW  955   2.934   5.568   2.813
   19SOL    HW1  956   2.859   5.629   2.840
   19SOL    HW2  957   3.013   5.584   2.872
   20SOL     OW  958   6.944   1.741   5.618
   20SOL    HW1  959   0.012   1.710   5.586
   20SOL    HW2  960   6.956   1.810   5.689
   21SOL     OW  961   1.557   4.028   1.788
   21SOL    HW1  962   1.538   4.073   1.701
   21SOL    HW2  963   1.654   4.034   1.808
   22SOL     OW  964   0.748   1.305   0.079
   22SOL    HW1  965   0.672   1.246   0.108
   22SOL    HW2  966   0.712   1.385   0.030
   23SOL     OW  967   6.827   5.398   6.787
   23SOL    HW1  968   6.761   5.422   6.858
   23SOL    HW2  969   6.805   5.309   6.749
   24SOL     OW  970   5.143   0.976   6.702
   24SOL    HW1  971   5.205   1.049   6.675
   24SOL    HW2  972   5.144   0.904   6.633
   25SOL     OW  973   1.179   0.741   4.728
   25SOL    HW1  974   1.085   0.767   4.703
   25SOL    HW2  975   1.223   0.696   4.651
   26SOL     OW  976   2.138   0.145   5.824
   26SOL    HW1  977   2.194   0.178   5.900
   26SOL    HW2  978   2.045   0.128   5.856
   27SOL     OW  979   0.214   0.043   2.158
   27SOL    HW1  980   0.153   0.074   2.085
   27SOL    HW2  981   0.261   6.981   2.129
   28SOL     OW  982   1.654   0.861   5.933
   28SOL    HW1  983   1.586   0.845   5.862
   28SOL    HW2  984   1.614   0.917   6.006
   29SOL     OW  985   5.509   0.901   1.153
   29SOL    HW1  986   5.414   0.931   1.144
   29SOL    HW2  987   5.548   0.940   1.237
   30SOL     OW  988   5.038   0.231   4.929
   30SOL    HW1  989   5.024   0.175   4.848
   30SOL    HW2  990   5.087   0.315   4.905
   31SOL     OW  991   6.602   4.800   4.636
   31SOL    HW1  992   6.643   4.873   4.691
   31SOL    HW2  993   6.512   4.829   4.603
   32SOL     OW  994   3.212   1.293   1.098
   32SOL    HW1  995   3.259   1.265   1.182
   32SOL    HW2  996   3.257   1.250   1.019
   33SOL     OW  997   1.940   5.091   5.236
   33SOL    HW1  998   1.896   5.181   5.242
   33SOL    HW2  999   1.903   5.031   5.307
   34SOL     OW 1000   2.153   6.414   5.399
   34SOL    HW1 1001   2.194   6.324   5.412
   34SOL    HW2 1002   2.216   6.485   5.429
   35SOL     OW 1003   1.068   2.968   4.152
   35SOL    HW1 1004   1.164   2.946   4.166
   35SOL    HW2 1005   1.037   3.031   4.223
   36SOL     OW 1006   5.771   1.157   4.131
   36SOL    HW1 1007   5.718   1.072   4.133
   36SOL    HW2 1008   5.832   1.159   4.210
   37SOL     OW 1009   1.591   6.611   4.763
   37SOL    HW1 1010   1.609   6.513   4.767
   37SOL    HW2 1011   1.594   6.650   4.855
   38SOL     OW 1012   0.835   3.260   1.126
   38SOL    HW1 1013   0.844   3.295   1.219
   38SOL    HW2 1014   0.763   3.190   1.123
   39SOL     OW 1015   6.633   5.137   0.915
   39SOL    HW1 1016   6.717   5.084   0.906
   39SOL    HW2 1017   6.582   5.106   0.995
   40SOL     OW 1018   3.957   0.842   0.022
   40SOL    HW1 1019   4.028   0.873   0.085
   40SOL    HW2 1020   3.975   0.877   6.952
   41SOL     OW 1021   5.634   4.022   1.816
   41SOL    HW1 1022   5.607   4.001   1.722
   41SOL    HW2 1023   5.629   3.940   1.872
   42SOL     OW 1024   2.236   3.508   6.891
   42SOL    HW1 1025   2.146   3.466   6.877
   42SOL    HW2 1026   2.230   3.606   6.869
   43SOL     OW 1027   4.875   6.919   4.804
   43SOL    HW1 1028   4.928   6.985   4.751
   43SOL    HW2 1029   4.813   6.870   4.743
   44SOL     OW 1030   0.007   0.672   6.537
   44SOL    HW1 1031   6.980   0.757   6.561
   44SOL    HW2 1032   0.024   0.620   6.621
   45SOL     OW 1033   2.986   3.901   5.819
   45SOL    HW1 1034   2.952   3.834   5.886
   45SOL    HW2 1035   2.979   3.993   5.858
   46SOL     OW 1036   0.938   4.626   4.497
   46SOL    HW1 1037   0.920   4.685   4.576
   46SOL    HW2 1038   0.853   4.614   4.445
   47SOL     OW 1039   6.204   4.123   6.958
   47SOL    HW1 1040   6.115   4.088   6.988
   47SOL    HW2 1041   6.216   4.104   6.860
   48SOL     OW 1042   0.264   4.128   0.020
   48SOL    HW1 1043   0.198   4.141   0.094
   48SOL    HW2 1044   0.355   4.111   0.058
   49SOL     OW 1045   3.258   1.817   6.702
   49SOL    HW1 1046   3.262   1.827   6.802
   49SOL    HW2 1047   3.163   1.807   6.673
   50SOL     OW 1048   4.894   2.228   6.667
   50SOL    HW1 1049   4.859   2.305   6.721
   50SOL    HW2 1050   4.953   2.171   6.724
   51SOL     OW 1051   1.200   6.342   2.350
   51SOL    HW1 1052   1.237   6.391   2.271
   51SOL    HW2 1053   1.274   6.326   2.416
   52SOL     OW 1054   5.917   1.968   2.379
   52SOL    HW1 1055   5.965   2.051   2.408
   52SOL    HW2 1056   5.832   1.992   2.333
   53SOL     OW 1057   4.561   0.513   0.634
   53SOL    HW1 1058   4.493   0.586   0.629
   53SOL    HW2 1059   4.558   0.470   0.724
   54SOL     OW 1060   6.808   0.731   6.740
   54SOL    HW1 1061   6.748   0.792   6.688
   54SOL    HW2 1062   6.792   0.743   6.837
   55SOL     OW 1063   1.782   3.481   5.574
   55SOL    HW1 1064   1.869   3.432   5.583
   55SOL    HW2 1065   1.710   3.430   5.622
   56SOL     OW 1066   0.724   2.796   6.827
   56SOL    HW1 1067   0.677   2.710   6.806
   56SOL    HW2 1068   0.664   2.873   6.807
   57SOL     OW 1069   3.909   5.511   1.430
   57SOL    HW1 1070   3.938   5.557   1.346
   57SOL    HW2 1071   3.853   5.432   1.406
   58SOL     OW 1072   0.702   1.018   6.793
   58SOL    HW1 1073   0.606   1.040   6.775
   58SOL    HW2 1074   0.751   1.101   6.821
   59SOL     OW 1075   3.757   2.882   6.912
   59SOL    HW1 1076   3.711   2.801   6.877
   59SOL    HW2 1077   3.744   2.959   6.849
   60SOL     OW 1078   6.854   3.069   2.907
   60SOL    HW1 1079   6.793   3.141   2.875
   60SOL    HW2 1080   6.804   2.982   2.908
   61SOL     OW 1081   1.255   5.943   2.906
   61SOL    HW1 1082   1.158   5.966   2.892
   61SOL    HW2 1083   1.293   5.907   2.821
   62SOL     OW 1084   5.072   2.911   2.948
   62SOL    HW1 1085   5.078   2.961   3.034
   62SOL    HW2 1086   5.044   2.973   2.875
   63SOL     OW 1087   4.254   6.944   6.652
   63SOL    HW1 1088   4.283   6.972   6.744
   63SOL    HW2 1089   4.173   6.996   6.625
   64SOL     OW 1090   1.880   2.395   6.794
   64SOL    HW1 1091   1.785   2.368   6.775
   64SOL    HW2 1092   1.899   2.382   6.891
   65SOL     OW 1093   0.754   4.943   5.415
   65SOL    HW1 1094   0.779   4.846   5.415
   65SOL    HW2 1095   0.800   4.990   5.490
   66SOL     OW 1096   4.623   1.092   1.494
   66SOL    HW1 1097   4.601   1.171   1.551
   66SOL    HW2 1098   4.688   1.033   1.543
   67SOL     OW 1099   0.077   3.418   1.121
   67SOL    HW1 1100   0.133   3.451   1.197
   67SOL    HW2 1101   0.068   3.319   1.127
   68SOL     OW 1102   0.276   1.135   6.208
   68SOL    HW1 1103   0.230   1.220   6.182
   68SOL    HW2 1104   0.330   1.151   6.291
   69SOL     OW 1105   1.771   6.991   6.297
   69SOL    HW1 1106   1.741   6.967   6.389
   69SOL    HW2 1107   1.773   0.069   6.288
   70SOL     OW 1108   4.672   4.886   3.501
   70SOL    HW1 1109   4.679   4.945   3.421
   70SOL    HW2 1110   4.575   4.864   3.517
   71SOL     OW 1111   5.034   2.094   5.168
   71SOL    HW1 1112   5.094   2.071   5.091
   71SOL    HW2 1113   5.088   2.117   5.248
   72SOL     OW 1114   6.595   1.020   2.167
   72SOL    HW1 1115   6.624   1.073   2.247
   72SOL    HW2 1116   6.575   0.926   2.195
   73SOL     OW 1117   2.965   1.139   1.085
   73SOL    HW1 1118   3.022   1.219   1.099
   73SOL    HW2 1119   3.017   1.056   1.107
   74SOL     OW 1120   2.337   1.083   0.064
   74SOL    HW1 1121   2.331   1.073   6.987
   74SOL    HW2 1122   2.394   1.163   0.086
   75SOL     OW 1123   2.620   2.820   1.406
   75SOL    HW1 1124   2.665   2.773   1.330
   75SOL    HW2 1125   2.554   2.886   1.371
   76SOL     OW 1126   3.960   5.066   6.408
   76SOL    HW1 1127   4.043   5.115   6.435
   76SOL    HW2 1128   3.969   5.035   6.314
   77SOL     OW 1129   6.846   5.025   4.528
   77SOL    HW1 1130   6.924   4.962   4.529
   77SOL    HW2 1131   6.804   5.028   4.619
   78SOL     OW 1132   5.454   1.144   1.345
   78SOL    HW1 1133   5.376   1.096   1.385
   78SOL    HW2 1134   5.422   1.226   1.298
   79SOL     OW 1135   1.647   4.665   4.072
   79SOL    HW1 1136   1.699   4.728   4.129
   79SOL    HW2 1137   1.559   4.706   4.048
   80SOL     OW 1138   3.699   2.189   5.311
   80SOL    HW1 1139   3.651   2.261   5.361
   80SOL    HW2 1140   3.798   2.198   5.327
   81SOL     OW 1141   2.905   4.957   3.383
   81SOL    HW1 1142   2.891   5.047   3.342
   81SOL    HW2 1143   2.817   4.912   3.395
   82SOL     OW 1144   3.465   0.460   1.906
   82SOL    HW1 1145   3.471   0.432   2.002
   82SOL    HW2 1146   3.419   0.548   1.900
   83SOL     OW 1147   5.708   1.473   3.567
   83SOL    HW1 1148   5.719   1.471   3.667
   83SOL    HW2 1149   5.612   1.462   3.543
   84SOL     OW 1150   5.438   2.516   2.723
   84SOL    HW1 1151   5.390   2.602   2.705
   84SOL    HW2 1152   5.372   2.442   2.735
   85SOL     OW 1153   2.350   5.534   3.470
   85SOL    HW1 1154   2.395   5.504   3.554
   85SOL    HW2 1155   2.396   5.616   3.435
   86SOL     OW 1156   4.968   1.300   0.911
   86SOL    HW1 1157   4.913   1.282   0.992
   86SOL    HW2 1158   5.055   1.251   0.919
   87SOL     OW 1159   2.769   3.158   6.749
   87SOL    HW1 1160   2.765   3.251   6.713
   87SOL    HW2 1161   2.862   3.136   6.777
   88SOL     OW 1162   1.595   2.105   1.066
   88SOL    HW1 1163   1.512   2.057   1.035
   88SOL    HW2 1164   1.613   2.082   1.161
   89SOL     OW 1165   3.717   4.016   4.720
   89SOL    HW1 1166   3.793   4.011   4.785
   89SOL    HW2 1167   3.642   4.069   4.760
   90SOL     OW 1168   6.684   3.596   2.260
   90SOL    HW1 1169   6.603   3.550   2.296
   90SOL    HW2 1170   6.655   3.664   2.192
   91SOL     OW 1171   4.616   5.355   0.754
   91SOL    HW1 1172   4.596   5.452   0.771
   91SOL    HW2 1173   4.711   5.337   0.776
   92SOL     OW 1174   5.749   5.588   6.937
   92SOL    HW1 1175   5.788   5.516   6.880
   92SOL    HW2 1176   5.819   5.657   6.956
   93SOL     OW 1177   3.120   3.671   1.801
   93SOL    HW1 1178   3.111   3.656   1.899
   93SOL    HW2 1179   3.192   3.611   1.765
   94SOL     OW 1180   2.977   1.623   4.367
   94SOL    HW1 1181   2.997   1.529   4.397
   94SOL    HW2 1182   2.901   1.621   4.302
   95SOL     OW 1183   1.257   6.131   4.094
   95SOL    HW1 1184   1.307   6.060   4.143
   95SOL    HW2 1185   1.201   6.088   4.023
   96SOL     OW 1186   6.988   6.570   6.857
   96SOL    HW1 1187   6.987   6.666   6.828
   96SOL    HW2 1188   6.908   6.551   6.913
   97SOL     OW 1189   3.802   4.958   5.266
   97SOL    HW1 1190   3.744   4.975   5.186
   97SOL    HW2 1191   3.776   5.020   5.340
   98SOL     OW 1192   1.062   2.886   4.671
   98SOL    HW1 1193   1.136   2.935   4.717
   98SOL    HW2 1194   1.099   2.805   4.625
   99SOL     OW 1195   4.485   4.658   4.825
   99SOL    HW1 1196   4.424   4.614   4.892
   99SOL    HW2 1197   4.432   4.714   4.763
  100SOL     OW 1198   1.562   1.153   5.221
  100SOL    HW1 1199   1.586   1.069   5.269
  100SOL    HW2 1200   1.543   1.131   5.125
  101SOL     OW 1201   5.638   2.897   2.805
  101SOL    HW1 1202   5.637   2.880   2.707
  101SOL    HW2 1203   5.586   2.981   2.825
  102SOL     OW 1204   3.701   6.893   0.384
  102SOL    HW1 1205   3.647   6.932   0.310
  102SOL    HW2 1206   3.704   6.956   0.461
  103SOL     OW 1207   1.899   1.999   1.616
  103SOL    HW1 1208   1.921   1.997   1.519
  103SOL    HW2 1209   1.953   2.070   1.661
  104SOL     OW 1210   0.638   4.311   1.385
  104SOL    HW1 1211   0.589   4.379   1.441
  104SOL    HW2 1212   0.690   4.250   1.445
  105SOL     OW 1213   6.452   1.475   5.122
  105SOL    HW1 1214   6.518   1.423   5.068
  105SOL    HW2 1215   6.406   1.413   5.186
  106SOL     OW 1216   4.585   3.073   1.568
  106SOL    HW1 1217   4.508   3.069   1.504
  106SOL    HW2 1218   4.553   3.049   1.660
  107SOL     OW 1219   4.451   6.495   2.570
  107SOL    HW1 1220   4.421   6.589   2.587
  107SOL    HW2 1221   4.455   6.479   2.471
  108SOL     OW 1222   3.454   1.354   4.553
  108SOL    HW1 1223   3.410   1.268   4.579
  108SOL    HW2 1224   3.416   1.387   4.466
  109SOL     OW 1225   1.961   1.825   5.345
  109SOL    HW1 1226   1.907   1.813   5.262
  109SOL    HW2 1227   2.003   1.916   5.344
  110SOL     OW 1228   4.305   4.667   5.273
  110SOL    HW1 1229   4.318   4.645   5.176
  110SOL    HW2 1230   4.222   4.622   5.306
  111SOL     OW 1231   6.162   3.166   1.433
  111SOL    HW1 1232   6.076   3.216   1.448
  111SOL    HW2 1233   6.239   3.229   1.446
  112SOL     OW 1234   4.727   6.529   5.249
  112SOL    HW1 1235   4.715   6.554   5.346
  112SOL    HW2 1236   4.821   6.500   5.234
  113SOL     OW 1237   1.008   5.119   2.017
  113SOL    HW1 1238   1.080   5.139   1.951
  113SOL    HW2 1239   1.044   5.062   2.090
  114SOL     OW 1240   6.717   1.839   2.183
  114SOL    HW1 1241   6.726   1.767   2.252
  114SOL    HW2 1242   6.767   1.920   2.213
  115SOL     OW 1243   4.501   1.173   3.189
  115SOL    HW1 1244   4.443   1.099   3.154
  115SOL    HW2 1245   4.452   1.259   3.183
  116SOL     OW 1246   6.197   5.510   0.525
  116SOL    HW1 1247   6.122   5.575   0.510
  116SOL    HW2 1248   6.195   5.479   0.619
  117SOL     OW 1249   2.615   1.557   0.515
  117SOL    HW1 1250   2.539   1.569   0.452
  117SOL    HW2 1251   2.684   1.498   0.473
  118SOL     OW 1252   7.004   2.371   2.162
  118SOL    HW1 1253   6.915   2.365   2.205
  118SOL    HW2 1254   6.996   2.416   2.073
  119SOL     OW 1255   6.128   5.422   5.028
  119SOL    HW1 1256   6.076   5.454   5.107
  119SOL    HW2 1257   6.067   5.406   4.951
  120SOL     OW 1258   4.507   1.654   4.622
  120SOL    HW1 1259   4.566   1.574   4.617
  120SOL    HW2 1260   4.556   1.729   4.665
  121SOL     OW 1261   0.052   5.427   5.945
  121SOL    HW1 1262   0.057   5.388   5.854
  121SOL    HW2 1263   0.121   5.499   5.954
  122SOL     OW 1264   0.331   4.878   5.665
  122SOL    HW1 1265   0.359   4.872   5.569
  122SOL    HW2 1266   0.231   4.880   5.671
  123SOL     OW 1267   0.994   2.517   1.217
  123SOL    HW1 1268   0.982   2.538   1.120
  123SOL    HW2 1269   1.074   2.567   1.252
  124SOL     OW 1270   1.934   4.028   6.379
  124SOL    HW1 1271   1.985   3.967   6.318
  124SOL    HW2 1272   1.837   4.006   6.374
  125SOL     OW 1273   4.338   2.323   0.430
  125SOL    HW1 1274   4.265   2.366   0.484
  125SOL    HW2 1275   4.343   2.226   0.454
  126SOL     OW 1276   3.764   3.399   4.880
  126SOL    HW1 1277   3.839   3.335   4.866
  126SOL    HW2 1278   3.677   3.349   4.886
  127SOL     OW 1279   0.063   5.104   5.876
  127SOL    HW1 1280   0.064   5.127   5.779
  127SOL    HW2 1281   0.009   5.171   5.926
  128SOL     OW 1282   4.631   4.058   6.229
  128SOL    HW1 1283   4.620   4.075   6.327
  128SOL    HW2 1284   4.689   4.129   6.189
  129SOL     OW 1285   0.508   5.040   1.201
  129SOL    HW1 1286   0.556   4.990   1.273
  129SOL    HW2 1287   0.553   5.023   1.113
  130SOL     OW 1288   6.210   3.950   4.716
  130SOL    HW1 1289   6.125   3.896   4.713
  130SOL    HW2 1290   6.201   4.022   4.785
  131SOL     OW 1291   0.633   3.653   2.414
  131SOL    HW1 1292   0.616   3.736   2.361
  131SOL    HW2 1293   0.582   3.577   2.375
  132SOL     OW 1294   3.900   2.755   1.512
  132SOL    HW1 1295   3.849   2.687   1.458
  132SOL    HW2 1296   3.987   2.715   1.541
  133SOL     OW 1297   4.428   4.651   5.691
  133SOL    HW1 1298   4.514   4.627   5.645
  133SOL    HW2 1299   4.449   4.693   5.779
  134SOL     OW 1300   6.363   2.014   6.620
  134SOL    HW1 1301   6.381   2.018   6.522
  134SOL    HW2 1302   6.362   1.919   6.651
  135SOL     OW 1303   4.516   4.469   3.782
  135SOL    HW1 1304   4.432   4.508   3.744
  135SOL    HW2 1305   4.499   4.441   3.877
  136SOL     OW 1306   3.757   6.565   6.198
  136SOL    HW1 1307   3.805   6.518   6.273
  136SOL    HW2 1308   3.823   6.592   6.128
  137SOL     OW 1309   1.511   4.182   0.162
  137SOL    HW1 1310   1.455   4.231   0.230
  137SOL    HW2 1311   1.552   4.102   0.205
  138SOL     OW 1312   1.129   5.537   0.457
  138SOL    HW1 1313   1.173   5.487   0.531
  138SOL    HW2 1314   1.111   5.474   0.381
  139SOL     OW 1315   0.706   1.004   1.225
  139SOL    HW1 1316   0.619   1.048   1.245
  139SOL    HW2 1317   0.780   1.051   1.275
  140SOL     OW 1318   3.557   7.010   2.298
  140SOL    HW1 1319   3.607   6.994   2.213
  140SOL    HW2 1320   3.573   6.936   2.362
  141SOL     OW 1321   1.221   1.917   0.114
  141SOL    HW1 1322   1.179   1.884   0.029
  141SOL    HW2 1323   1.271   1.843   0.158
  142SOL     OW 1324   2.203   4.139   6.936
  142SOL    HW1 1325   2.252   4.128   0.001
  142SOL    HW2 1326   2.254   4.093   6.863
  143SOL     OW 1327   5.778   5.623   1.778
  143SOL    HW1 1328   5.750   5.570   1.698
  143SOL    HW2 1329   5.697   5.659   1.824
  144SOL     OW 1330   2.517   5.171   3.252
  144SOL    HW1 1331   2.597   5.198   3.197
  144SOL    HW2 1332   2.547   5.152   3.346
  145SOL     OW 1333   0.353   5.847   3.254
  145SOL    HW1 1334   0.354   5.765   3.197
  145SOL    HW2 1335   0.312   5.923   3.203
  146SOL     OW 1336   0.474   0.636   5.765
  146SOL    HW1 1337   0.538   0.677   5.831
  146SOL    HW2 1338   0.469   0.538   5.781
  147SOL     OW 1339   5.817   0.494   4.682
  147SOL    HW1 1340   5.911   0.501   4.648
  147SOL    HW2 1341   5.770   0.419   4.637
  148SOL     OW 1342   1.611   6.852   2.402
  148SOL    HW1 1343   1.672   6.793   2.455
  148SOL    HW2 1344   1.662   6.929   2.365
  149SOL     OW 1345   1.789   2.853   4.991
  149SOL    HW1 1346   1.850   2.922   4.951
  149SOL    HW2 1347   1.734   2.896   5.063
  150SOL     OW 1348   5.174   3.543   5.485
  150SOL    HW1 1349   5.084   3.539   5.442
  150SOL    HW2 1350   5.181   3.625   5.541
  151SOL     OW 1351   6.467   2.801   1.985
  151SOL    HW1 1352   6.460   2.874   1.916
  151SOL    HW2 1353   6.493   2.842   2.072
  152SOL     OW 1354   6.901   2.810   0.115
  152SOL    HW1 1355   6.830   2.747   0.147
  152SOL    HW2 1356   6.859   2.888   0.070
  153SOL     OW 1357   1.731   1.838   3.893
  153SOL    HW1 1358   1.666   1.903   3.933
  153SOL    HW2 1359   1.815   1.886   3.869
  154SOL     OW 1360   0.206   1.362   3.990
  154SOL    HW1 1361   0.287   1.332   4.041
  154SOL    HW2 1362   0.129   1.302   4.011
  155SOL     OW 1363   5.720   4.708   3.026
  155SOL    HW1 1364   5.632   4.666   3.002
  155SOL    HW2 1365   5.710   4.808   3.026
  156SOL     OW 1366   4.403   6.901   1.261
  156SOL    HW1 1367   4.345   6.924   1.183
  156SOL    HW2 1368   4.355   6.838   1.321
  157SOL     OW 1369   5.570   7.012   1.084
  157SOL    HW1 1370   5.512   0.066   1.114
  157SOL    HW2 1371   5.642   0.025   1.024
  158SOL     OW 1372   0.900   3.390   4.526
  158SOL    HW1 1373   0.950   3.475   4.516
  158SOL    HW2 1374   0.815   3.407   4.576
  159SOL     OW 1375   6.471   5.318   6.879
  159SOL    HW1 1376   6.474   5.403   6.931
  159SOL    HW2 1377   6.521   5.247   6.930
  160SOL     OW 1378   3.883   0.254   1.327
  160SOL    HW1 1379   3.968   0.296   1.358
  160SOL    HW2 1380   3.856   0.182   1.391
  161SOL     OW 1381   6.923   0.348   0.380
  161SOL    HW1 1382   6.967   0.287   0.446
  161SOL    HW2 1383   6.891   0.430   0.427
  162SOL     OW 1384   4.174   0.035   5.346
  162SOL    HW1 1385   4.260   0.027   5.295
  162SOL    HW2 1386   4.144   0.130   5.346
  163SOL     OW 1387   1.036   3.890   2.706
  163SOL    HW1 1388   1.049   3.807   2.653
  163SOL    HW2 1389   0.960   3.877   2.771
  164SOL     OW 1390   2.232   2.211   2.857
  164SOL    HW1 1391   2.286   2.200   2.774
  164SOL    HW2 1392   2.211   2.120   2.895
  165SOL     OW 1393   0.055   6.296   3.996
  165SOL    HW1 1394   0.155   6.287   3.998
  165SOL    HW2 1395   0.016   6.256   4.079
  166SOL     OW 1396   0.460   4.956   3.642
  166SOL    HW1 1397   0.394   4.932   3.571
  166SOL    HW2 1398   0.417   4.949   3.732
  167SOL     OW 1399   0.840   1.283   2.909
  167SOL    HW1 1400   0.779   1.360   2.923
  167SOL    HW2 1401   0.803   1.223   2.837
  168SOL     OW 1402   3.120   3.514   3.107
  168SOL    HW1 1403   3.060   3.437   3.086
  168SOL    HW2 1404   3.066   3.596   3.124
  169SOL     OW 1405   5.146   2.691   6.686
  169SOL    HW1 1406   5.235   2.650   6.669
  169SOL    HW2 1407   5.074   2.629   6.654
  170SOL     OW 1408   0.231   5.166   2.013
  170SOL    HW1 1409   0.137   5.194   2.030
  170SOL    HW2 1410   0.232   5.073   1.975
  171SOL     OW 1411   2.873   2.533   0.730
  171SOL    HW1 1412   2.872   2.469   0.807
  171SOL    HW2 1413   2.961   2.581   0.729
  172SOL     OW 1414   1.757   1.052   0.153
  172SOL    HW1 1415   1.728   1.065   0.248
  172SOL    HW2 1416   1.854   1.078   0.144
  173SOL     OW 1417   5.986   0.419   5.119
  173SOL    HW1 1418   5.891   0.448   5.108
  173SOL    HW2 1419   6.032   0.481   5.183
  174SOL     OW 1420   6.515   3.776   5.345
  174SOL    HW1 1421   6.460   3.705   5.301
  174SOL    HW2 1422   6.547   3.841   5.277
  175SOL     OW 1423   0.983   6.012   2.873
  175SOL    HW1 1424   0.927   6.014   2.956
  175SOL    HW2 1425   0.974   5.923   2.829
  176SOL     OW 1426   6.532   3.804   0.893
  176SOL    HW1 1427   6.605   3.746   0.857
  176SOL    HW2 1428   6.559   3.901   0.885
  177SOL     OW 1429   6.664   2.622   3.974
  177SOL    HW1 1430   6.649   2.604   3.877
  177SOL    HW2 1431   6.580   2.605   4.025
  178SOL     OW 1432   1.601   5.767   4.825
  178SOL    HW1 1433   1.510   5.728   4.837
  178SOL    HW2 1434   1.615   5.839   4.894
  179SOL     OW 1435   3.626   4.082   1.963
  179SOL    HW1 1436   3.601   4.000   1.912
  179SOL    HW2 1437   3.577   4.083   2.050
  180SOL     OW 1438   4.835   1.157   6.210
  180SOL    HW1 1439   4.883   1.226   6.263
  180SOL    HW2 1440   4.739   1.184   6.199
  181SOL     OW 1441   3.827   0.653   5.398
  181SOL    HW1 1442   3.754   0.721   5.388
  181SOL    HW2 1443   3.799   0.582   5.462
  182SOL     OW 1444   3.316   3.109   5.681
  182SOL    HW1 1445   3.263   3.177   5.732
  182SOL    HW2 1446   3.268   3.022   5.682
  183SOL     OW 1447   3.400   1.347   3.777
  183SOL    HW1 1448   3.382   1.407   3.699
  183SOL    HW2 1449   3.400   1.252   3.747
  184SOL     OW 1450   4.735   5.981   3.388
  184SOL    HW1 1451   4.638   6.001   3.376
  184SOL    HW2 1452   4.763   5.911   3.323
  185SOL     OW 1453   0.261   6.804   4.989
  185SOL    HW1 1454   0.192   6.734   5.005
  185SOL    HW2 1455   0.306   6.828   5.075
  186SOL     OW 1456   2.580   5.885   6.119
  186SOL    HW1 1457   2.537   5.798   6.144
  186SOL    HW2 1458   2.659   5.868   6.060
  187SOL     OW 1459   3.746   5.368   0.599
  187SOL    HW1 1460   3.731   5.456   0.645
  187SOL    HW2 1461   3.829   5.373   0.544
  188SOL     OW 1462   1.626   4.169   3.573
  188SOL    HW1 1463   1.613   4.071   3.553
  188SOL    HW2 1464   1.636   4.182   3.671
  189SOL     OW 1465   5.728   4.542   6.036
  189SOL    HW1 1466   5.813   4.577   5.997
  189SOL    HW2 1467   5.749   4.475   6.108
  190SOL     OW 1468   5.787   6.423   0.607
  190SOL    HW1 1469   5.794   6.368   0.524
  190SOL    HW2 1470   5.851   6.390   0.675
  191SOL     OW 1471   2.325   3.345   5.652
  191SOL    HW1 1472   2.381   3.376   5.729
  191SOL    HW2 1473   2.322   3.416   5.582
  192SOL     OW 1474   6.990   0.092   1.075
  192SOL    HW1 1475   6.934   0.009   1.077
  192SOL    HW2 1476   6.935   0.170   1.104
  193SOL     OW 1477   3.175   0.283   1.529
  193SOL    HW1 1478   3.116   0.203   1.517
  193SOL    HW2 1479   3.229   0.273   1.612
  194SOL     OW 1480   4.052   5.730   3.384
  194SOL    HW1 1481   4.079   5.758   3.292
  194SOL    HW2 1482   4.112   5.657   3.416
  195SOL     OW 1483   2.776   0.783   0.816
  195SOL    HW1 1484   2.833   0.844   0.762
  195SOL    HW2 1485   2.827   0.699   0.836
  196SOL     OW 1486   4.104   2.864   0.937
  196SOL    HW1 1487   4.200   2.867   0.965
  196SOL    HW2 1488   4.061   2.782   0.975
  197SOL     OW 1489   1.652   6.215   0.605
  197SOL    HW1 1490   1.554   6.223   0.623
  197SOL    HW2 1491   1.676   6.119   0.588
  198SOL     OW 1492   5.606   0.066   6.163
  198SOL    HW1 1493   5.603   7.006   6.105
  198SOL    HW2 1494   5.673   0.130   6.126
  199SOL     OW 1495   2.195   1.074   3.490
  199SOL    HW1 1496   2.269   1.027   3.538
  199SOL    HW2 1497   2.163   1.017   3.414
  200SOL     OW 1498   1.430   4.067   4.301
  200SOL    HW1 1499   1.381   4.149   4.330
  200SOL    HW2 1500   1.427   3.999   4.374
  201SOL     OW 1501   4.798   1.323   0.404
  201SOL    HW1 1502   4.868   1.376   0.452
  201SOL    HW2 1503   4.716   1.378   0.392
  202SOL     OW 1504   4.384   0.224   3.142
  202SOL    HW1 1505   4.400   0.292   3.215
  202SOL    HW2 1506   4.394   0.268   3.053
  203SOL     OW 1507   5.852   2.541   0.348
  203SOL    HW1 1508   5.919   2.522   0.276
  203SOL    HW2 1509   5.809   2.630   0.331
  204SOL     OW 1510   1.891   6.200   1.248
  204SOL    HW1 1511   1.861   6.178   1.155
  204SOL    HW2 1512   1.872   6.296   1.268
  205SOL     OW 1513   5.165   0.467   1.385
  205SOL    HW1 1514   5.221   0.539   1.425
  205SOL    HW2 1515   5.156   0.484   1.286
  206SOL     OW 1516   0.244   6.344   1.076
  206SOL    HW1 1517   0.214   6.252   1.051
  206SOL    HW2 1518   0.200   6.372   1.161
  207SOL     OW 1519   6.695   2.349   5.560
  207SOL    HW1 1520   6.630   2.289   5.513
  207SOL    HW2 1521   6.662   2.443   5.556
  208SOL     OW 1522   4.004   3.855   6.754
  208SOL    HW1 1523   4.064   3.913   6.809
  208SOL    HW2 1524   4.060   3.803   6.689
  209SOL     OW 1525   6.991   6.831   3.836
  209SOL    HW1 1526   6.941   6.918   3.840
  209SOL    HW2 1527   0.015   6.815   3.923
  210SOL     OW 1528   4.150   1.878   0.791
  210SOL    HW1 1529   4.183   1.951   0.851
  210SOL    HW2 1530   4.146   1.792   0.842
  211SOL     OW 1531   0.848   3.259   1.919
  211SOL    HW1 1532   0.883   3.167   1.936
  211SOL    HW2 1533   0.783   3.284   1.991
  212SOL     OW 1534   0.916   5.294   5.536
  212SOL    HW1 1535   0.890   5.286   5.440
  212SOL    HW2 1536   0.893   5.209   5.584
  213SOL     OW 1537   3.318   2.564   0.848
  213SOL    HW1 1538   3.260   2.578   0.767
  213SOL    HW2 1539   3.268   2.595   0.929
  214SOL     OW 1540   1.149   6.157   3.630
  214SOL    HW1 1541   1.178   6.107   3.712
  214SOL    HW2 1542   1.203   6.240   3.621
  215SOL     OW 1543   3.542   3.996   3.289
  215SOL    HW1 1544   3.602   4.019   3.212
  215SOL    HW2 1545   3.593   4.002   3.374
  216SOL     OW 1546   3.291   0.634   5.363
  216SOL    HW1 1547   3.290   0.563   5.434
  216SOL    HW2 1548   3.268   0.722   5.404
  217SOL     OW 1549   0.177   1.807   5.153
  217SOL    HW1 1550   0.151   1.728   5.208
  217SOL    HW2 1551   0.182   1.888   5.211
  218SOL     OW 1552   3.030   4.256   5.751
  218SOL    HW1 1553   2.972   4.243   5.831
  218SOL    HW2 1554   3.119   4.291   5.780
  219SOL     OW 1555   2.511   5.657   6.456
  219SOL    HW1 1556   2.590   5.634   6.399
  219SOL    HW2 1557   2.542   5.681   6.548
  220SOL     OW 1558   1.341   5.207   0.003
  220SOL    HW1 1559   1.437   5.202   6.998
  220SOL    HW2 1560   1.310   5.117   0.032
  221SOL     OW 1561   5.918   2.877   4.840
  221SOL    HW1 1562   5.897   2.931   4.759
  221SOL    HW2 1563   5.964   2.792   4.813
  222SOL     OW 1564   2.141   6.774   4.466
  222SOL    HW1 1565   2.106   6.698   4.521
  222SOL    HW2 1566   2.234   6.796   4.494
  223SOL     OW 1567   5.833   4.962   2.729
  223SOL    HW1 1568   5.886   4.884   2.761
  223SOL    HW2 1569   5.737   4.951   2.757
  224SOL     OW 1570   5.039   2.557   2.716
  224SOL    HW1 1571   5.047   2.582   2.619
  224SOL    HW2 1572   5.090   2.623   2.772
  225SOL     OW 1573   5.191   6.153   1.528
  225SOL    HW1 1574   5.181   6.139   1.429
  225SOL    HW2 1575   5.113   6.111   1.575
  226SOL     OW 1576   0.592   5.968   2.159
  226SOL    HW1 1577   0.684   6.006   2.150
  226SOL    HW2 1578   0.535   5.998   2.083
  227SOL     OW 1579   1.206   3.612   3.293
  227SOL    HW1 1580   1.182   3.642   3.201
  227SOL    HW2 1581   1.161   3.526   3.313
  228SOL     OW 1582   4.116   6.127   3.019
  228SOL    HW1 1583   4.080   6.034   3.020
  228SOL    HW2 1584   4.215   6.125   3.005
  229SOL     OW 1585   6.558   5.970   3.161
  229SOL    HW1 1586   6.551   5.881   3.205
  229SOL    HW2 1587   6.468   6.013   3.157
  230SOL     OW 1588   0.881   4.532   5.849
  230SOL    HW1 1589   0.826   4.501   5.772
  230SOL    HW2 1590   0.836   4.508   5.935
  231SOL     OW 1591   0.380   2.307   6.531
  231SOL    HW1 1592   0.351   2.215   6.559
  231SOL    HW2 1593   0.470   2.302   6.488
  232SOL     OW 1594   1.500   4.075   5.860
  232SOL    HW1 1595   1.560   4.111   5.932
  232SOL    HW2 1596   1.419   4.034   5.901
  233SOL     OW 1597   3.283   0.146   6.819
  233SOL    HW1 1598   3.235   0.067   6.857
  233SOL    HW2 1599   3.369   0.159   6.868
  234SOL     OW 1600   2.502   5.217   6.783
  234SOL    HW1 1601   2.488   5.118   6.786
  234SOL    HW2 1602   2.555   5.246   6.863
  235SOL     OW 1603   3.725   3.382   5.891
  235SOL    HW1 1604   3.722   3.323   5.810
  235SOL    HW2 1605   3.650   3.448   5.886
  236SOL     OW 1606   6.891   1.241   6.041
  236SOL    HW1 1607   6.856   1.214   5.952
  236SOL    HW2 1608   6.984   1.278   6.031
  237SOL     OW 1609   6.974   6.565   2.249
  237SOL    HW1 1610   6.955   6.509   2.168
  237SOL    HW2 1611   6.890   6.576   2.302
  238SOL     OW 1612   7.009   2.395   2.571
  238SOL    HW1 1613   0.059   2.356   2.629
  238SOL    HW2 1614   6.977   2.325   2.506
  239SOL     OW 1615   5.940   4.963   0.725
  239SOL    HW1 1616   5.869   5.009   0.778
  239SOL    HW2 1617   5.924   4.865   0.724
  240SOL     OW 1618   6.939   2.020   4.926
  240SOL    HW1 1619   0.017   2.023   4.929
  240SOL    HW2 1620   6.910   1.930   4.893
  241SOL     OW 1621   5.634   1.928   5.037
  241SOL    HW1 1622   5.562   1.973   4.984
  241SOL    HW2 1623   5.600   1.905   5.128
  242SOL     OW 1624   2.739   2.288   4.445
  242SOL    HW1 1625   2.755   2.230   4.365
  242SOL    HW2 1626   2.825   2.328   4.475
  243SOL     OW 1627   5.274   1.025   6.998
  243SOL    HW1 1628   5.207   1.065   0.039
  243SOL    HW2 1629   5.291   1.089   6.923
  244SOL     OW 1630   0.417   1.879   5.974
  244SOL    HW1 1631   0.512   1.851   5.958
  244SOL    HW2 1632   0.396   1.959   5.919
  245SOL     OW 1633   5.149   2.464   4.184
  245SOL    HW1 1634   5.220   2.515   4.233
  245SOL    HW2 1635   5.144   2.371   4.219
  246SOL     OW 1636   5.275   3.060   4.494
  246SOL    HW1 1637   5.284   3.157   4.469
  246SOL    HW2 1638   5.298   3.003   4.415
  247SOL     OW 1639   3.130   0.459   2.936
  247SOL    HW1 1640   3.153   0.370   2.898
  247SOL    HW2 1641   3.209   0.520   2.930
  248SOL     OW 1642   0.378   2.465   2.756
  248SOL    HW1 1643   0.452   2.488   2.818
  248SOL    HW2 1644   0.410   2.467   2.661
  249SOL     OW 1645   2.071   5.600   5.525
  249SOL    HW1 1646   1.976   5.612   5.554
  249SOL    HW2 1647   2.123   5.556   5.598
  250SOL     OW 1648   5.180   2.273   0.270
  250SOL    HW1 1649   5.216   2.366   0.263
  250SOL    HW2 1650   5.082   2.277   0.288
  251SOL     OW 1651   2.123   1.114   1.196
  251SOL    HW1 1652   2.076   1.063   1.268
  251SOL    HW2 1653   2.060   1.135   1.122
  252SOL     OW 1654   0.306   2.388   0.160
  252SOL    HW1 1655   0.396   2.404   0.199
  252SOL    HW2 1656   0.244   2.461   0.187
  253SOL     OW 1657   2.365   4.721   6.283
  253SOL    HW1 1658   2.459   4.732   6.314
  253SOL    HW2 1659   2.314   4.806   6.300
  254SOL     OW 1660   5.074   3.538   6.198
  254SOL    HW1 1661   5.066   3.635   6.171
  254SOL    HW2 1662   4.990   3.490   6.174
  255SOL     OW 1663   4.511   2.054   2.239
  255SOL    HW1 1664   4.523   2.119   2.165
  255SOL    HW2 1665   4.485   1.965   2.201
  256SOL     OW 1666   6.869   6.136   1.395
  256SOL    HW1 1667   6.812   6.198   1.342
  256SOL    HW2 1668   6.963   6.138   1.359
  257SOL     OW 1669   2.774   6.131   5.561
  257SOL    HW1 1670   2.857   6.074   5.563
  257SOL    HW2 1671   2.718   6.110   5.642
  258SOL     OW 1672   3.994   5.359   4.318
  258SOL    HW1 1673   3.915   5.316   4.362
  258SOL    HW2 1674   4.028   5.433   4.377
  259SOL     OW 1675   0.676   1.677   2.655
  259SOL    HW1 1676   0.680   1.596   2.596
  259SOL    HW2 1677   0.769   1.709   2.673
  260SOL     OW 1678   6.623   6.727   5.342
  260SOL    HW1 1679   6.541   6.764   5.297
  260SOL    HW2 1680   6.643   6.636   5.305
  261SOL     OW 1681   0.471   0.710   4.586
  261SOL    HW1 1682   0.450   0.750   4.496
  261SOL    HW2 1683   0.570   0.705   4.598
  262SOL     OW 1684   1.667   5.583   1.438
  262SOL    HW1 1685   1.672   5.667   1.384
  262SOL    HW2 1686   1.576   5.543   1.430
  263SOL     OW 1687   0.255   4.170   4.419
  263SOL    HW1 1688   0.347   4.137   4.442
  263SOL    HW2 1689   0.204   4.189   4.503
  264SOL     OW 1690   2.807   4.551   0.729
  264SOL    HW1 1691   2.866   4.620   0.687
  264SOL    HW2 1692   2.815   4.465   0.679
  265SOL     OW 1693   4.227   5.030   3.795
  265SOL    HW1 1694   4.153   4.989   3.741
  265SOL    HW2 1695   4.199   5.040   3.890
  266SOL     OW 1696   4.136   3.442   6.792
  266SOL    HW1 1697   4.225   3.488   6.795
  266SOL    HW2 1698   4.149   3.344   6.776
  267SOL     OW 1699   2.443   2.962   5.850
  267SOL    HW1 1700   2.515   2.918   5.903
  267SOL    HW2 1701   2.400   2.896   5.788
  268SOL     OW 1702   1.894   4.261   3.727
  268SOL    HW1 1703   1.929   4.345   3.768
  268SOL    HW2 1704   1.796   4.251   3.747
  269SOL     OW 1705   3.175   1.788   5.911
  269SOL    HW1 1706   3.238   1.729   5.861
  269SOL    HW2 1707   3.209   1.882   5.910
  270SOL     OW 1708   5.303   6.421   4.822
  270SOL    HW1 1709   5.298   6.449   4.918
  270SOL    HW2 1710   5.307   6.502   4.764
  271SOL     OW 1711   2.131   1.933   0.188
  271SOL    HW1 1712   2.179   1.951   0.274
  271SOL    HW2 1713   2.066   1.857   0.201
  272SOL     OW 1714   4.556   5.119   0.230
  272SOL    HW1 1715   4.613   5.197   0.203
  272SOL    HW2 1716   4.551   5.053   0.155
  273SOL     OW 1717   1.405   6.110   3.833
  273SOL    HW1 1718   1.433   6.171   3.907
  273SOL    HW2 1719   1.351   6.035   3.870
  274SOL     OW 1720   5.489   2.398   2.313
  274SOL    HW1 1721   5.490   2.330   2.387
  274SOL    HW2 1722   5.504   2.351   2.226
  275SOL     OW 1723   6.103   5.789   5.766
  275SOL    HW1 1724   6.078   5.834   5.851
  275SOL    HW2 1725   6.150   5.703   5.786
  276SOL     OW 1726   0.750   0.393   4.822
  276SOL    HW1 1727   0.821   0.409   4.754
  276SOL    HW2 1728   0.684   0.327   4.786
  277SOL     OW 1729   3.631   2.842   5.256
  277SOL    HW1 1730   3.573   2.780   5.309
  277SOL    HW2 1731   3.621   2.823   5.159
  278SOL     OW 1732   5.578   4.901   2.763
  278SOL    HW1 1733   5.502   4.837   2.759
  278SOL    HW2 1734   5.594   4.940   2.672
  279SOL     OW 1735   0.471   4.208   3.501
  279SOL    HW1 1736   0.506   4.183   3.592
  279SOL    HW2 1737   0.389   4.155   3.481
  280SOL     OW 1738   4.348   1.769   3.700
  280SOL    HW1 1739   4.290   1.787   3.620
  280SOL    HW2 1740   4.294   1.782   3.783
  281SOL     OW 1741   5.097   5.548   5.142
  281SOL    HW1 1742   5.171   5.484   5.162
  281SOL    HW2 1743   5.065   5.589   5.227
  282SOL     OW 1744   0.548   2.547   0.104
  282SOL    HW1 1745   0.569   2.624   0.164
  282SOL    HW2 1746   0.479   2.574   0.037
  283SOL     OW 1747   5.935   3.983   2.885
  283SOL    HW1 1748   5.895   3.895   2.911
  283SOL    HW2 1749   5.869   4.056   2.904
  284SOL     OW 1750   6.002   6.664   2.962
  284SOL    HW1 1751   5.984   6.634   2.869
  284SOL    HW2 1752   6.000   6.764   2.965
  285SOL     OW 1753   4.015   6.005   6.017
  285SOL    HW1 1754   3.986   6.050   5.932
  285SOL    HW2 1755   4.057   6.073   6.077
  286SOL     OW 1756   3.383   5.025   5.621
  286SOL    HW1 1757   3.367   4.968   5.701
  286SOL    HW2 1758   3.324   4.995   5.546
  287SOL     OW 1759   3.258   5.940   0.544
  287SOL    HW1 1760   3.220   5.856   0.507
  287SOL    HW2 1761   3.221   6.018   0.494
  288SOL     OW 1762   4.639   1.026   0.332
  288SOL    HW1 1763   4.699   0.946   0.328
  288SOL    HW2 1764   4.681   1.097   0.389
  289SOL     OW 1765   4.957   5.032   4.501
  289SOL    HW1 1766   4.924   4.971   4.574
  289SOL    HW2 1767   4.938   5.126   4.526
  290SOL     OW 1768   3.840   0.640   4.852
  290SOL    HW1 1769   3.923   0.696   4.857
  290SOL    HW2 1770   3.832   0.587   4.936
  291SOL     OW 1771   5.859   0.630   4.942
  291SOL    HW1 1772   5.859   0.597   4.847
  291SOL    HW2 1773   5.796   0.576   4.997
  292SOL     OW 1774   3.351   0.740   3.566
  292SOL    HW1 1775   3.265   0.747   3.515
  292SOL    HW2 1776   3.332   0.747   3.664
  293SOL     OW 1777   5.411   0.765   2.725
  293SOL    HW1 1778   5.448   0.795   2.636
  293SOL    HW2 1779   5.368   0.843   2.770
  294SOL     OW 1780   6.726   1.464   6.700
  294SOL    HW1 1781   6.804   1.523   6.680
  294SOL    HW2 1782   6.737   1.377   6.651
  295SOL     OW 1783   0.559   0.162   5.341
  295SOL    HW1 1784   0.462   0.166   5.366
  295SOL    HW2 1785   0.574   0.211   5.255
  296SOL     OW 1786   0.688   1.914   1.539
  296SOL    HW1 1787   0.763   1.900   1.603
  296SOL    HW2 1788   0.656   2.009   1.545
  297SOL     OW 1789   5.427   3.284   3.471
  297SOL    HW1 1790   5.481   3.288   3.387
  297SOL    HW2 1791   5.451   3.201   3.522
  298SOL     OW 1792   4.490   0.164   5.215
  298SOL    HW1 1793   4.489   0.194   5.310
  298SOL    HW2 1794   4.468   0.241   5.155
  299SOL     OW 1795   0.542   1.245   6.025
  299SOL    HW1 1796   0.610   1.224   6.095
  299SOL    HW2 1797   0.461   1.286   6.068
  300SOL     OW 1798   4.392   6.128   4.114
  300SOL    HW1 1799   4.370   6.069   4.036
  300SOL    HW2 1800   4.348   6.217   4.102
  301SOL     OW 1801   0.071   6.285   5.397
  301SOL    HW1 1802   0.074   6.289   5.497
  301SOL    HW2 1803   0.163   6.299   5.361
  302SOL     OW 1804   0.329   6.594   1.970
  302SOL    HW1 1805   0.259   6.536   1.929
  302SOL    HW2 1806   0.352   6.559   2.061
  303SOL     OW 1807   5.330   5.608   2.585
  303SOL    HW1 1808   5.370   5.698   2.599
  303SOL    HW2 1809   5.326   5.559   2.672
  304SOL     OW 1810   1.278   0.196   3.877
  304SOL    HW1 1811   1.250   0.140   3.799
  304SOL    HW2 1812   1.374   0.180   3.898
  305SOL     OW 1813   1.938   2.114   1.368
  305SOL    HW1 1814   1.992   2.088   1.288
  305SOL    HW2 1815   1.980   2.193   1.413
  306SOL     OW 1816   0.646   0.238   2.234
  306SOL    HW1 1817   0.672   0.157   2.183
  306SOL    HW2 1818   0.546   0.242   2.241
  307SOL     OW 1819   3.455   4.013   3.960
  307SOL    HW1 1820   3.407   4.044   4.041
  307SOL    HW2 1821   3.489   3.920   3.975
  308SOL     OW 1822   6.314   1.640   2.061
  308SOL    HW1 1823   6.381   1.567   2.071
  308SOL    HW2 1824   6.355   1.728   2.087
  309SOL     OW 1825   1.552   4.864   6.987
  309SOL    HW1 1826   1.489   4.787   6.989
  309SOL    HW2 1827   1.581   4.886   0.058
  310SOL     OW 1828   4.679   6.621   5.515
  310SOL    HW1 1829   4.580   6.623   5.529
  310SOL    HW2 1830   4.718   6.709   5.542
  311SOL     OW 1831   1.498   6.629   2.028
  311SOL    HW1 1832   1.584   6.668   1.993
  311SOL    HW2 1833   1.465   6.685   2.104
  312SOL     OW 1834   3.287   0.542   4.088
  312SOL    HW1 1835   3.288   0.518   3.991
  312SOL    HW2 1836   3.336   0.629   4.100
  313SOL     OW 1837   3.085   3.122   2.998
  313SOL    HW1 1838   3.152   3.196   3.000
  313SOL    HW2 1839   3.114   3.050   3.062
  314SOL     OW 1840   2.777   4.979   6.247
  314SOL    HW1 1841   2.836   5.060   6.245
  314SOL    HW2 1842   2.797   4.926   6.329
  315SOL     OW 1843   6.162   0.473   4.899
  315SOL    HW1 1844   6.141   0.516   4.812
  315SOL    HW2 1845   6.087   0.489   4.963
  316SOL     OW 1846   4.035   1.213   5.925
  316SOL    HW1 1847   4.051   1.305   5.889
  316SOL    HW2 1848   4.099   1.193   5.999
  317SOL     OW 1849   0.833   2.319   1.316
  317SOL    HW1 1850   0.798   2.342   1.407
  317SOL    HW2 1851   0.903   2.386   1.290
  318SOL     OW 1852   1.081   0.631   2.978
  318SOL    HW1 1853   1.142   0.709   2.962
  318SOL    HW2 1854   1.106   0.587   3.064
  319SOL     OW 1855   1.138   0.813   2.547
  319SOL    HW1 1856   1.041   0.785   2.546
  319SOL    HW2 1857   1.183   0.772   2.626
  320SOL     OW 1858   5.108   1.113   0.177
  320SOL    HW1 1859   5.024   1.165   0.164
  320SOL    HW2 1860   5.104   1.063   0.264
  321SOL     OW 1861   4.434   3.179   1.045
  321SOL    HW1 1862   4.396   3.231   1.122
  321SOL    HW2 1863   4.489   3.103   1.080
  322SOL     OW 1864   3.056   2.182   6.953
  322SOL    HW1 1865   3.037   2.127   6.872
  322SOL    HW2 1866   3.122   2.135   7.011
  323SOL     OW 1867   1.373   3.595   2.327
  323SOL    HW1 1868   1.361   3.508   2.376
  323SOL    HW2 1869   1.403   3.665   2.391
  324SOL     OW 1870   6.896   0.556   3.650
  324SOL    HW1 1871   6.964   0.572   3.578
  324SOL    HW2 1872   6.866   0.460   3.647
  325SOL     OW 1873   6.125   3.335   1.137
  325SOL    HW1 1874   6.191   3.318   1.211
  325SOL    HW2 1875   6.032   3.318   1.170
  326SOL     OW 1876   6.998   5.620   0.038
  326SOL    HW1 1877   6.920   5.613   6.998
  326SOL    HW2 1878   6.981   5.565   0.120
  327SOL     OW 1879   4.234   6.042   6.226
  327SOL    HW1 1880   4.165   6.004   6.288
  327SOL    HW2 1881   4.262   6.132   6.259
  328SOL     OW 1882   1.352   5.150   3.497
  328SOL    HW1 1883   1.310   5.059   3.501
  328SOL    HW2 1884   1.282   5.219   3.520
  329SOL     OW 1885   3.380   2.805   2.189
  329SOL    HW1 1886   3.416   2.721   2.229
  329SOL    HW2 1887   3.382   2.798   2.089
  330SOL     OW 1888   2.589   3.469   6.462
  330SOL    HW1 1889   2.505   3.417   6.468
  330SOL    HW2 1890   2.573   3.563   6.494
  331SOL     OW 1891   5.061   5.189   4.191
  331SOL    HW1 1892   4.964   5.164   4.193
  331SOL    HW2 1893   5.093   5.202   4.285
  332SOL     OW 1894   5.905   1.650   2.629
  332SOL    HW1 1895   5.836   1.582   2.655
  332SOL    HW2 1896   5.870   1.742   2.647
  333SOL     OW 1897   4.020   6.542   3.675
  333SOL    HW1 1898   3.953   6.543   3.750
  333SOL    HW2 1899   3.990   6.476   3.605
  334SOL     OW 1900   3.442   3.432   4.204
  334SOL    HW1 1901   3.462   3.511   4.262
  334SOL    HW2 1902   3.456   3.348   4.258
  335SOL     OW 1903   3.863   1.076   0.740
  335SOL    HW1 1904   3.812   1.153   0.703
  335SOL    HW2 1905   3.852   0.997   0.681
  336SOL     OW 1906   3.881   2.024   4.856
  336SOL    HW1 1907   3.816   1.978   4.796
  336SOL    HW2 1908   3.845   2.025   4.950
  337SOL     OW 1909   0.014   1.143   5.370
  337SOL    HW1 1910   0.067   1.118   5.289
  337SOL    HW2 1911   0.028   1.074   5.441
  338SOL     OW 1912   4.871   0.968   1.882
  338SOL    HW1 1913   4.944   0.913   1.922
  338SOL    HW2 1914   4.857   1.050   1.937
  339SOL     OW 1915   4.220   4.813   6.164
  339SOL    HW1 1916   4.251   4.785   6.255
  339SOL    HW2 1917   4.140   4.873   6.173
  340SOL     OW 1918   5.076   3.242   5.096
  340SOL    HW1 1919   5.091   3.169   5.029
  340SOL    HW2 1920   5.157   3.299   5.102
  341SOL     OW 1921   0.092   0.274   2.008
  341SOL    HW1 1922   0.001   0.240   1.984
  341SOL    HW2 1923   0.152   0.269   1.929
  342SOL     OW 1924   4.459   1.319   2.008
  342SOL    HW1 1925   4.417   1.238   1.967
  342SOL    HW2 1926   4.415   1.401   1.972
  343SOL     OW 1927   5.616   6.879   1.482
  343SOL    HW1 1928   5.662   6.906   1.567
  343SOL    HW2 1929   5.684   6.866   1.410
  344SOL     OW 1930   6.725   2.857   1.584
  344SOL    HW1 1931   6.776   2.776   1.557
  344SOL    HW2 1932   6.627   2.839   1.577
  345SOL     OW 1933   6.823   2.265   4.578
  345SOL    HW1 1934   6.800   2.346   4.632
  345SOL    HW2 1935   6.787   2.275   4.486
  346SOL     OW 1936   1.856   5.746   2.861
  346SOL    HW1 1937   1.906   5.713   2.781
  346SOL    HW2 1938   1.867   5.682   2.936
  347SOL     OW 1939   2.487   4.852   1.296
  347SOL    HW1 1940   2.422   4.805   1.235
  347SOL    HW2 1941   2.489   4.806   1.385
  348SOL     OW 1942   5.441   4.764   1.620
  348SOL    HW1 1943   5.358   4.795   1.573
  348SOL    HW2 1944   5.492   4.843   1.653
  349SOL     OW 1945   5.795   4.584   0.926
  349SOL    HW1 1946   5.746   4.498   0.907
  349SOL    HW2 1947   5.735   4.646   0.975
  350SOL     OW 1948   2.445   1.684   1.034
  350SOL    HW1 1949   2.493   1.636   0.961
  350SOL    HW2 1950   2.378   1.747   0.995
  351SOL     OW 1951   3.712   4.465   1.362
  351SOL    HW1 1952   3.617   4.446   1.384
  351SOL    HW2 1953   3.721   4.481   1.264
  352SOL     OW 1954   4.203   6.589   2.270
  352SOL    HW1 1955   4.175   6.544   2.354
  352SOL    HW2 1956   4.251   6.523   2.211
  353SOL     OW 1957   1.764   6.740   0.127
  353SOL    HW1 1958   1.855   6.742   0.167
  353SOL    HW2 1959   1.765   6.786   0.038
  354SOL     OW 1960   1.497   2.028   0.612
  354SOL    HW1 1961   1.529   1.950   0.666
  354SOL    HW2 1962   1.500   2.111   0.668
  355SOL     OW 1963   0.485   2.946   3.343
  355SOL    HW1 1964   0.446   2.870   3.291
  355SOL    HW2 1965   0.446   2.947   3.435
  356SOL     OW 1966   2.533   0.593   5.648
  356SOL    HW1 1967   2.576   0.677   5.617
  356SOL    HW2 1968   2.602   0.522   5.659
  357SOL     OW 1969   5.579   6.153   4.029
  357SOL    HW1 1970   5.594   6.242   4.071
  357SOL    HW2 1971   5.506   6.105   4.077
  358SOL     OW 1972   3.080   6.252   0.179
  358SOL    HW1 1973   3.048   6.167   0.138
  358SOL    HW2 1974   3.166   6.280   0.135
  359SOL     OW 1975   1.693   1.985   2.041
  359SOL    HW1 1976   1.632   1.913   2.074
  359SOL    HW2 1977   1.746   1.952   1.964
  360SOL     OW 1978   2.177   3.716   3.166
  360SOL    HW1 1979   2.191   3.783   3.239
  360SOL    HW2 1980   2.123   3.639   3.202
  361SOL     OW 1981   0.179   2.349   2.892
  361SOL    HW1 1982   0.227   2.263   2.909
  361SOL    HW2 1983   0.240   2.412   2.843
  362SOL     OW 1984   4.112   3.433   2.303
  362SOL    HW1 1985   4.124   3.404   2.208
  362SOL    HW2 1986   4.136   3.530   2.312
  363SOL     OW 1987   4.681   4.912   0.396
  363SOL    HW1 1988   4.620   4.983   0.359
  363SOL    HW2 1989   4.759   4.900   0.334
  364SOL     OW 1990   1.162   0.172   0.449
  364SOL    HW1 1991   1.116   0.199   0.534
  364SOL    HW2 1992   1.235   0.107   0.470
  365SOL     OW 1993   5.848   0.595   3.890
  365SOL    HW1 1994   5.870   0.596   3.792
  365SOL    HW2 1995   5.916   0.648   3.940
  366SOL     OW 1996   5.155   1.398   0.000
  366SOL    HW1 1997   5.229   1.416   6.957
  366SOL    HW2 1998   5.154   1.301   0.023
  367SOL     OW 1999   5.654   1.050   0.109
  367SOL    HW1 2000   5.601   1.052   0.194
  367SOL    HW2 2001   5.608   1.108   0.041
  368SOL     OW 2002   2.440   1.887   6.321
  368SOL    HW1 2003   2.512   1.833   6.279
  368SOL    HW2 2004   2.357   1.881   6.266
  369SOL     OW 2005   5.316   4.807   0.278
  369SOL    HW1 2006   5.322   4.788   0.376
  369SOL    HW2 2007   5.238   4.758   0.240
  370SOL     OW 2008   2.028   2.831   3.215
  370SOL    HW1 2009   2.125   2.850   3.222
  370SOL    HW2 2010   2.010   2.737   3.242
  371SOL     OW 2011   2.069   5.917   6.911
  371SOL    HW1 2012   2.120   5.875   6.835
  371SOL    HW2 2013   1.991   5.859   6.935
  372SOL     OW 2014   2.196   5.995   6.266
  372SOL    HW1 2015   2.268   5.971   6.330
  372SOL    HW2 2016   2.171   6.091   6.277
  373SOL     OW 2017   6.363   4.391   3.194
  373SOL    HW1 2018   6.264   4.403   3.195
  373SOL    HW2 2019   6.402   4.440   3.116
  374SOL     OW 2020   2.761   2.356   2.343
  374SOL    HW1 2021   2.861   2.350   2.338
  374SOL    HW2 2022   2.727   2.404   2.262
  375SOL     OW 2023   0.591   6.025   4.106
  375SOL    HW1 2024   0.579   6.040   4.204
  375SOL    HW2 2025   0.525   6.081   4.056
  376SOL     OW 2026   4.486   0.384   3.341
  376SOL    HW1 2027   4.457   0.339   3.426
  376SOL    HW2 2028   4.527   0.473   3.363
  377SOL     OW 2029   2.733   2.445   6.254
  377SOL    HW1 2030   2.637   2.435   6.227
  377SOL    HW2 2031   2.780   2.358   6.240
  378SOL     OW 2032   4.119   1.263   1.948
  378SOL    HW1 2033   4.186   1.337   1.950
  378SOL    HW2 2034   4.049   1.279   2.018
  379SOL     OW 2035   3.891   2.927   6.599
  379SOL    HW1 2036   3.908   3.026   6.601
  379SOL    HW2 2037   3.924   2.889   6.513
  380SOL     OW 2038   4.753   1.941   0.784
  380SOL    HW1 2039   4.707   1.971   0.701
  380SOL    HW2 2040   4.694   1.877   0.834
  381SOL     OW 2041   1.695   4.241   2.800
  381SOL    HW1 2042   1.691   4.225   2.702
  381SOL    HW2 2043   1.759   4.176   2.842
  382SOL     OW 2044   6.082   6.933   0.557
  382SOL    HW1 2045   6.050   7.002   0.492
  382SOL    HW2 2046   6.028   6.939   0.641
  383SOL     OW 2047   4.827   3.502   0.673
  383SOL    HW1 2048   4.849   3.413   0.713
  383SOL    HW2 2049   4.728   3.513   0.669
  384SOL     OW 2050   0.676   2.880   5.181
  384SOL    HW1 2051   0.738   2.900   5.106
  384SOL    HW2 2052   0.729   2.858   5.263
  385SOL     OW 2053   4.653   1.759   6.777
  385SOL    HW1 2054   4.577   1.774   6.840
  385SOL    HW2 2055   4.634   1.678   6.722
  386SOL     OW 2056   4.313   6.672   4.973
  386SOL    HW1 2057   4.322   6.621   5.058
  386SOL    HW2 2058   4.302   6.608   4.896
  387SOL     OW 2059   2.737   5.917   3.878
  387SOL    HW1 2060   2.834   5.931   3.854
  387SOL    HW2 2061   2.728   5.835   3.935
  388SOL     OW 2062   1.928   5.085   5.880
  388SOL    HW1 2063   1.831   5.097   5.858
  388SOL    HW2 2064   1.941   4.996   5.924
  389SOL     OW 2065   2.723   3.719   1.042
  389SOL    HW1 2066   2.704   3.636   0.990
  389SOL    HW2 2067   2.665   3.723   1.123
  390SOL     OW 2068   2.503   1.154   4.636
  390SOL    HW1 2069   2.478   1.217   4.563
  390SOL    HW2 2070   2.513   1.204   4.722
  391SOL     OW 2071   1.148   2.318   6.980
  391SOL    HW1 2072   1.238   2.363   6.982
  391SOL    HW2 2073   1.078   2.387   6.962
  392SOL     OW 2074   3.072   5.744   4.957
  392SOL    HW1 2075   3.142   5.725   4.889
  392SOL    HW2 2076   3.102   5.818   5.017
  393SOL     OW 2077   6.213   4.203   5.776
  393SOL    HW1 2078   6.126   4.237   5.740
  393SOL    HW2 2079   6.232   4.248   5.863
  394SOL     OW 2080   1.914   1.475   6.305
  394SOL    HW1 2081   1.931   1.400   6.241
  394SOL    HW2 2082   1.999   1.501   6.350
  395SOL     OW 2083   6.990   2.985   0.810
  395SOL    HW1 2084   6.964   2.945   0.898
  395SOL    HW2 2085   6.979   2.917   0.738
  396SOL     OW 2086   3.480   2.921   5.530
  396SOL    HW1 2087   3.567   2.965   5.551
  396SOL    HW2 2088   3.490   2.822   5.541
  397SOL     OW 2089   4.136   1.222   6.546
  397SOL    HW1 2090   4.178   1.221   6.636
  397SOL    HW2 2091   4.055   1.281   6.547
  398SOL     OW 2092   0.500   4.472   2.357
  398SOL    HW1 2093   0.588   4.484   2.310
  398SOL    HW2 2094   0.513   4.481   2.455
  399SOL     OW 2095   4.800   5.274   2.007
  399SOL    HW1 2096   4.761   5.334   2.077
  399SOL    HW2 2097   4.731   5.206   1.980
  400SOL     OW 2098   2.112   4.696   4.722
  400SOL    HW1 2099   2.191   4.660   4.771
  400SOL    HW2 2100   2.028   4.670   4.770
  401SOL     OW 2101   5.723   1.643   0.758
  401SOL    HW1 2102   5.776   1.724   0.782
  401SOL    HW2 2103   5.705   1.589   0.840
  402SOL     OW 2104   0.124   4.548   0.757
  402SOL    HW1 2105   0.062   4.626   0.751
  402SOL    HW2 2106   0.178   4.541   0.673
  403SOL     OW 2107   4.819   4.890   0.650
  403SOL    HW1 2108   4.829   4.791   0.644
  403SOL    HW2 2109   4.773   4.924   0.569
  404SOL     OW 2110   6.934   6.051   4.599
  404SOL    HW1 2111   6.954   6.043   4.697
  404SOL    HW2 2112   6.993   6.121   4.559
  405SOL     OW 2113   1.052   2.145   1.307
  405SOL    HW1 2114   1.117   2.218   1.324
  405SOL    HW2 2115   0.967   2.183   1.271
  406SOL     OW 2116   1.173   2.580   3.547
  406SOL    HW1 2117   1.222   2.610   3.465
  406SOL    HW2 2118   1.137   2.488   3.533
  407SOL     OW 2119   3.612   2.088   4.385
  407SOL    HW1 2120   3.595   2.089   4.483
  407SOL    HW2 2121   3.710   2.074   4.368
  408SOL     OW 2122   2.472   0.507   3.780
  408SOL    HW1 2123   2.373   0.525   3.785
  408SOL    HW2 2124   2.487   0.422   3.730
  409SOL     OW 2125   6.946   3.927   4.009
  409SOL    HW1 2126   6.996   3.841   4.015
  409SOL    HW2 2127   6.904   3.948   4.097
  410SOL     OW 2128   3.138   6.728   6.096
  410SOL    HW1 2129   3.201   6.749   6.171
  410SOL    HW2 2130   3.175   6.764   6.010
  411SOL     OW 2131   0.498   3.681   4.679
  411SOL    HW1 2132   0.403   3.685   4.648
  411SOL    HW2 2133   0.501   3.664   4.777
  412SOL     OW 2134   4.389   0.006   2.690
  412SOL    HW1 2135   4.481   0.004   2.728
  412SOL    HW2 2136   4.340   0.085   2.726
  413SOL     OW 2137   2.311   0.965   2.577
  413SOL    HW1 2138   2.255   0.958   2.659
  413SOL    HW2 2139   2.408   0.969   2.602
  414SOL     OW 2140   4.895   4.700   0.865
  414SOL    HW1 2141   4.980   4.723   0.913
  414SOL    HW2 2142   4.853   4.783   0.829
  415SOL     OW 2143   4.028   6.824   2.239
  415SOL    HW1 2144   4.104   6.759   2.244
  415SOL    HW2 2145   4.005   6.841   2.143
  416SOL     OW 2146   3.735   5.661   7.014
  416SOL    HW1 2147   3.725   5.578   0.046
  416SOL    HW2 2148   3.815   5.712   0.024
  417SOL     OW 2149   4.993   5.012   1.570
  417SOL    HW1 2150   4.898   5.045   1.567
  417SOL    HW2 2151   5.021   5.001   1.665
  418SOL     OW 2152   6.157   5.071   6.532
  418SOL    HW1 2153   6.097   5.129   6.478
  418SOL    HW2 2154   6.241   5.121   6.555
  419SOL     OW 2155   5.543   5.820   0.244
  419SOL    HW1 2156   5.525   5.752   0.315
  419SOL    HW2 2157   5.640   5.845   0.246
  420SOL     OW 2158   5.011   3.697   0.007
  420SOL    HW1 2159   4.940   3.646   6.980
  420SOL    HW2 2160   5.003   3.795   7.007
  421SOL     OW 2161   1.795   6.564   6.490
  421SOL    HW1 2162   1.798   6.620   6.407
  421SOL    HW2 2163   1.781   6.469   6.465
  422SOL     OW 2164   5.841   3.892   6.855
  422SOL    HW1 2165   5.916   3.841   6.899
  422SOL    HW2 2166   5.766   3.829   6.835
  423SOL     OW 2167   1.013   3.477   5.943
  423SOL    HW1 2168   1.094   3.467   6.000
  423SOL    HW2 2169   1.019   3.417   5.864
  424SOL     OW 2170   2.177   4.210   0.189
  424SOL    HW1 2171   2.080   4.192   0.174
  424SOL    HW2 2172   2.212   4.264   0.113
  425SOL     OW 2173   3.176   0.019   0.048
  425SOL    HW1 2174   3.247   0.037   0.117
  425SOL    HW2 2175   3.106   6.982   0.087
  426SOL     OW 2176   6.838   4.139   6.082
  426SOL    HW1 2177   6.742   4.109   6.076
  426SOL    HW2 2178   6.887   4.109   6.000
  427SOL     OW 2179   4.534   3.172   0.608
  427SOL    HW1 2180   4.502   3.085   0.645
  427SOL    HW2 2181   4.620   3.198   0.651
  428SOL     OW 2182   3.718   1.593   5.803
  428SOL    HW1 2183   3.808   1.608   5.762
  428SOL    HW2 2184   3.653   1.661   5.770
  429SOL     OW 2185   2.760   6.739   0.659
  429SOL    HW1 2186   2.692   6.748   0.586
  429SOL    HW2 2187   2.717   6.702   0.741
  430SOL     OW 2188   2.779   0.010   4.247
  430SOL    HW1 2189   2.850   6.984   4.299
  430SOL    HW2 2190   2.702   6.970   4.232
  431SOL     OW 2191   3.363   1.341   6.816
  431SOL    HW1 2192   3.346   1.433   6.779
  431SOL    HW2 2193   3.369   1.276   6.741
  432SOL     OW 2194   6.844   1.181   1.131
  432SOL    HW1 2195   6.828   1.083   1.139
  432SOL    HW2 2196   6.941   1.201   1.147
  433SOL     OW 2197   2.968   5.926   4.773
  433SOL    HW1 2198   3.035   5.995   4.745
  433SOL    HW2 2199   3.009   5.863   4.838
  434SOL     OW 2200   6.101   3.546   1.563
  434SOL    HW1 2201   6.086   3.591   1.475
  434SOL    HW2 2202   6.074   3.607   1.638
  435SOL     OW 2203   3.739   3.487   0.980
  435SOL    HW1 2204   3.748   3.389   0.964
  435SOL    HW2 2205   3.657   3.520   0.933
  436SOL     OW 2206   2.954   0.895   0.386
  436SOL    HW1 2207   2.967   0.831   0.310
  436SOL    HW2 2208   2.869   0.872   0.434
  437SOL     OW 2209   6.333   0.202   5.643
  437SOL    HW1 2210   6.433   0.194   5.653
  437SOL    HW2 2211   6.289   0.119   5.675
  438SOL     OW 2212   1.730   3.454   1.364
  438SOL    HW1 2213   1.718   3.366   1.319
  438SOL    HW2 2214   1.812   3.499   1.329
  439SOL     OW 2215   6.283   4.263   2.174
  439SOL    HW1 2216   6.191   4.228   2.156
  439SOL    HW2 2217   6.315   4.315   2.094
  440SOL     OW 2218   1.603   3.146   3.141
  440SOL    HW1 2219   1.641   3.238   3.133
  440SOL    HW2 2220   1.541   3.129   3.064
  441SOL     OW 2221   0.541   0.908   3.385
  441SOL    HW1 2222   0.512   0.975   3.454
  441SOL    HW2 2223   0.460   0.865   3.344
  442SOL     OW 2224   0.037   4.885   6.530
  442SOL    HW1 2225   0.101   4.882   6.453
  442SOL    HW2 2226   0.054   4.968   6.584
  443SOL     OW 2227   0.604   4.009   5.323
  443SOL    HW1 2228   0.549   4.002   5.406
  443SOL    HW2 2229   0.631   4.105   5.309
  444SOL     OW 2230   4.725   2.714   6.683
  444SOL    HW1 2231   4.744   2.791   6.745
  444SOL    HW2 2232   4.671   2.747   6.606
  445SOL     OW 2233   1.641   4.076   3.265
  445SOL    HW1 2234   1.655   4.175   3.272
  445SOL    HW2 2235   1.552   4.058   3.224
  446SOL     OW 2236   3.030   4.932   4.388
  446SOL    HW1 2237   2.961   4.881   4.440
  446SOL    HW2 2238   3.121   4.909   4.421
  447SOL     OW 2239   6.850   6.167   0.456
  447SOL    HW1 2240   6.945   6.192   0.471
  447SOL    HW2 2241   6.840   6.126   0.365
  448SOL     OW 2242   4.541   0.536   6.034
  448SOL    HW1 2243   4.591   0.498   6.111
  448SOL    HW2 2244   4.548   0.636   6.035
  449SOL     OW 2245   5.241   0.046   4.001
  449SOL    HW1 2246   5.332   0.075   3.972
  449SOL    HW2 2247   5.175   0.066   3.929
  450SOL     OW 2248   6.407   6.463   3.306
  450SOL    HW1 2249   6.321   6.453   3.357
  450SOL    HW2 2250   6.437   6.373   3.274
  451SOL     OW 2251   6.206   2.907   3.718
  451SOL    HW1 2252   6.261   2.977   3.673
  451SOL    HW2 2253   6.109   2.930   3.709
  452SOL     OW 2254   6.746   5.146   5.903
  452SOL    HW1 2255   6.656   5.109   5.927
  452SOL    HW2 2256   6.781   5.200   5.979
  453SOL     OW 2257   2.926   1.697   5.843
  453SOL    HW1 2258   2.931   1.599   5.825
  453SOL    HW2 2259   3.018   1.737   5.836
  454SOL     OW 2260   0.968   6.498   0.648
  454SOL    HW1 2261   1.042   6.537   0.702
  454SOL    HW2 2262   0.885   6.493   0.703
  455SOL     OW 2263   5.275   0.476   4.665
  455SOL    HW1 2264   5.187   0.484   4.712
  455SOL    HW2 2265   5.349   0.501   4.728
  456SOL     OW 2266   4.282   5.571   6.885
  456SOL    HW1 2267   4.345   5.648   6.878
  456SOL    HW2 2268   4.329   5.493   6.926
  457SOL     OW 2269   0.751   4.678   1.491
  457SOL    HW1 2270   0.834   4.621   1.491
  457SOL    HW2 2271   0.756   4.745   1.564
  458SOL     OW 2272   0.082   6.568   5.487
  458SOL    HW1 2273   0.068   6.478   5.447
  458SOL    HW2 2274   0.053   6.566   5.583
  459SOL     OW 2275   1.749   0.589   3.578
  459SOL    HW1 2276   1.670   0.608   3.635
  459SOL    HW2 2277   1.751   0.653   3.501
  460SOL     OW 2278   6.350   2.195   3.987
  460SOL    HW1 2279   6.343   2.168   3.892
  460SOL    HW2 2280   6.259   2.200   4.028
  461SOL     OW 2281   5.457   5.689   5.679
  461SOL    HW1 2282   5.553   5.716   5.668
  461SOL    HW2 2283   5.437   5.678   5.776
  462SOL     OW 2284   2.811   2.141   0.081
  462SOL    HW1 2285   2.885   2.194   0.039
  462SOL    HW2 2286   2.762   2.089   0.011
  463SOL     OW 2287   6.971   6.102   1.846
  463SOL    HW1 2288   6.948   6.091   1.943
  463SOL    HW2 2289   6.900   6.156   1.801
  464SOL     OW 2290   1.713   1.553   5.865
  464SOL    HW1 2291   1.703   1.639   5.815
  464SOL    HW2 2292   1.777   1.567   5.941
  465SOL     OW 2293   0.254   3.045   5.853
  465SOL    HW1 2294   0.170   2.999   5.826
  465SOL    HW2 2295   0.329   3.014   5.795
  466SOL     OW 2296   2.846   0.530   3.124
  466SOL    HW1 2297   2.751   0.556   3.106
  466SOL    HW2 2298   2.887   0.499   3.038
  467SOL     OW 2299   1.815   1.773   5.128
  467SOL    HW1 2300   1.747   1.823   5.183
  467SOL    HW2 2301   1.780   1.682   5.107
  468SOL     OW 2302   3.075   3.592   2.067
  468SOL    HW1 2303   2.987   3.544   2.061
  468SOL    HW2 2304   3.074   3.652   2.147
  469SOL     OW 2305   2.970   5.590   0.465
  469SOL    HW1 2306   2.945   5.509   0.412
  469SOL    HW2 2307   2.887   5.637   0.495
  470SOL     OW 2308   4.390   0.279   2.824
  470SOL    HW1 2309   4.381   0.379   2.828
  470SOL    HW2 2310   4.483   0.254   2.853
  471SOL     OW 2311   2.904   1.923   4.845
  471SOL    HW1 2312   2.918   2.021   4.838
  471SOL    HW2 2313   2.925   1.880   4.757
  472SOL     OW 2314   4.103   4.203   5.254
  472SOL    HW1 2315   4.027   4.181   5.193
  472SOL    HW2 2316   4.160   4.274   5.212
  473SOL     OW 2317   1.253   4.290   3.929
  473SOL    HW1 2318   1.186   4.298   4.003
  473SOL    HW2 2319   1.332   4.237   3.961
  474SOL     OW 2320   4.833   4.615   4.995
  474SOL    HW1 2321   4.769   4.690   5.013
  474SOL    HW2 2322   4.810   4.572   4.908
  475SOL     OW 2323   1.326   6.598   6.577
  475SOL    HW1 2324   1.421   6.591   6.606
  475SOL    HW2 2325   1.270   6.632   6.652
  476SOL     OW 2326   0.824   5.394   1.538
  476SOL    HW1 2327   0.827   5.438   1.628
  476SOL    HW2 2328   0.912   5.349   1.521
  477SOL     OW 2329   1.808   5.339   3.771
  477SOL    HW1 2330   1.709   5.328   3.779
  477SOL    HW2 2331   1.839   5.297   3.686
  478SOL     OW 2332   1.607   5.553   3.047
  478SOL    HW1 2333   1.600   5.524   3.142
  478SOL    HW2 2334   1.558   5.639   3.035
  479SOL     OW 2335   3.703   1.620   1.557
  479SOL    HW1 2336   3.607   1.642   1.571
  479SOL    HW2 2337   3.747   1.603   1.645
  480SOL     OW 2338   1.803   6.364   2.420
  480SOL    HW1 2339   1.891   6.412   2.421
  480SOL    HW2 2340   1.739   6.411   2.481
  481SOL     OW 2341   2.957   6.677   1.761
  481SOL    HW1 2342   2.901   6.625   1.697
  481SOL    HW2 2343   3.053   6.649   1.752
  482SOL     OW 2344   5.534   5.407   0.959
  482SOL    HW1 2345   5.501   5.437   0.869
  482SOL    HW2 2346   5.582   5.320   0.949
  483SOL     OW 2347   5.809   1.811   1.516
  483SOL    HW1 2348   5.736   1.864   1.559
  483SOL    HW2 2349   5.771   1.759   1.439
  484SOL     OW 2350   6.748   2.680   5.043
  484SOL    HW1 2351   6.695   2.696   4.959
  484SOL    HW2 2352   6.844   2.703   5.027
  485SOL     OW 2353   3.749   6.072   2.051
  485SOL    HW1 2354   3.685   5.996   2.045
  485SOL    HW2 2355   3.791   6.089   1.962
  486SOL     OW 2356   0.494   0.273   6.344
  486SOL    HW1 2357   0.407   0.223   6.341
  486SOL    HW2 2358   0.477   0.369   6.366
  487SOL     OW 2359   6.193   2.772   6.411
  487SOL    HW1 2360   6.236   2.853   6.450
  487SOL    HW2 2361   6.187   2.700   6.480
  488SOL     OW 2362   0.723   3.323   2.139
  488SOL    HW1 2363   0.644   3.294   2.193
  488SOL    HW2 2364   0.781   3.382   2.194
  489SOL     OW 2365   3.406   6.026   5.993
  489SOL    HW1 2366   3.418   6.112   6.042
  489SOL    HW2 2367   3.342   5.967   6.042
  490SOL     OW 2368   5.445   6.205   4.416
  490SOL    HW1 2369   5.450   6.128   4.479
  490SOL    HW2 2370   5.358   6.253   4.429
  491SOL     OW 2371   0.176   1.983   3.479
  491SOL    HW1 2372   0.243   1.947   3.545
  491SOL    HW2 2373   0.100   2.025   3.529
  492SOL     OW 2374   1.972   1.088   4.619
  492SOL    HW1 2375   2.044   1.122   4.559
  492SOL    HW2 2376   1.972   0.988   4.618
  493SOL     OW 2377   6.078   4.332   4.271
  493SOL    HW1 2378   6.174   4.344   4.246
  493SOL    HW2 2379   6.067   4.246   4.321
  494SOL     OW 2380   6.252   1.723   6.564
  494SOL    HW1 2381   6.187   1.705   6.491
  494SOL    HW2 2382   6.232   1.664   6.642
  495SOL     OW 2383   4.217   4.340   0.650
  495SOL    HW1 2384   4.233   4.247   0.683
  495SOL    HW2 2385   4.300   4.376   0.608
  496SOL     OW 2386   6.123   2.881   2.892
  496SOL    HW1 2387   6.046   2.818   2.887
  496SOL    HW2 2388   6.137   2.926   2.804
  497SOL     OW 2389   3.680   6.997   4.368
  497SOL    HW1 2390   3.585   0.003   4.383
  497SOL    HW2 2391   3.723   0.038   4.303
  498SOL     OW 2392   1.227   2.990   2.405
  498SOL    HW1 2393   1.224   2.915   2.339
  498SOL    HW2 2394   1.312   2.984   2.458
  499SOL     OW 2395   3.134   1.136   4.953
  499SOL    HW1 2396   3.087   1.223   4.935
  499SOL    HW2 2397   3.144   1.086   4.867
  500SOL     OW 2398   1.313   4.264   2.221
  500SOL    HW1 2399   1.346   4.169   2.228
  500SOL    HW2 2400   1.231   4.267   2.164
  501SOL     OW 2401   1.605   5.119   6.959
  501SOL    HW1 2402   1.701   5.146   6.962
  501SOL    HW2 2403   1.598   5.020   6.970
  502SOL     OW 2404   3.693   4.939   6.428
  502SOL    HW1 2405   3.726   4.850   6.396
  502SOL    HW2 2406   3.767   5.005   6.424
  503SOL     OW 2407   5.955   5.669   5.266
  503SOL    HW1 2408   6.030   5.671   5.332
  503SOL    HW2 2409   5.958   5.751   5.210
  504SOL     OW 2410   1.955   5.757   4.399
  504SOL    HW1 2411   2.030   5.713   4.350
  504SOL    HW2 2412   1.881   5.691   4.414
  505SOL     OW 2413   4.045   6.515   5.062
  505SOL    HW1 2414   4.070   6.510   5.158
  505SOL    HW2 2415   4.070   6.605   5.025
  506SOL     OW 2416   2.123   3.623   0.173
  506SOL    HW1 2417   2.075   3.652   0.090
  506SOL    HW2 2418   2.207   3.676   0.184
  507SOL     OW 2419   3.864   2.176   4.174
  507SOL    HW1 2420   3.931   2.115   4.217
  507SOL    HW2 2421   3.860   2.262   4.226
  508SOL     OW 2422   6.159   4.299   3.589
  508SOL    HW1 2423   6.235   4.234   3.585
  508SOL    HW2 2424   6.073   4.250   3.598
  509SOL     OW 2425   4.547   2.486   1.097
  509SOL    HW1 2426   4.618   2.440   1.151
  509SOL    HW2 2427   4.461   2.485   1.147
  510SOL     OW 2428   0.959   3.674   4.536
  510SOL    HW1 2429   0.991   3.752   4.589
  510SOL    HW2 2430   1.005   3.673   4.447
  511SOL     OW 2431   0.486   6.894   1.273
  511SOL    HW1 2432   0.457   6.875   1.179
  511SOL    HW2 2433   0.585   6.887   1.280
  512SOL     OW 2434   0.881   3.927   6.487
  512SOL    HW1 2435   0.806   3.864   6.510
  512SOL    HW2 2436   0.905   3.917   6.391
  513SOL     OW 2437   0.756   5.452   4.499
  513SOL    HW1 2438   0.727   5.380   4.436
  513SOL    HW2 2439   0.821   5.414   4.565
  514SOL     OW 2440   6.271   1.998   3.287
  514SOL    HW1 2441   6.246   1.909   3.325
  514SOL    HW2 2442   6.344   2.038   3.343
  515SOL     OW 2443   1.711   5.462   6.967
  515SOL    HW1 2444   1.690   5.457   6.869
  515SOL    HW2 2445   1.630   5.491   7.017
  516SOL     OW 2446   1.262   5.134   2.481
  516SOL    HW1 2447   1.295   5.158   2.573
  516SOL    HW2 2448   1.174   5.088   2.489
  517SOL     OW 2449   5.081   0.775   6.545
  517SOL    HW1 2450   4.994   0.820   6.523
  517SOL    HW2 2451   5.126   0.747   6.460
  518SOL     OW 2452   2.895   1.703   0.939
  518SOL    HW1 2453   2.920   1.777   1.001
  518SOL    HW2 2454   2.835   1.739   0.868
  519SOL     OW 2455   1.086   0.249   0.736
  519SOL    HW1 2456   1.103   0.325   0.799
  519SOL    HW2 2457   1.003   0.201   0.764
  520SOL     OW 2458   6.716   4.239   4.407
  520SOL    HW1 2459   6.710   4.146   4.443
  520SOL    HW2 2460   6.709   4.237   4.308
  521SOL     OW 2461   5.987   0.560   0.677
  521SOL    HW1 2462   6.064   0.499   0.693
  521SOL    HW2 2463   5.944   0.537   0.590
  522SOL     OW 2464   3.566   3.663   5.425
  522SOL    HW1 2465   3.658   3.651   5.462
  522SOL    HW2 2466   3.499   3.653   5.499
  523SOL     OW 2467   6.753   6.882   4.601
  523SOL    HW1 2468   6.724   6.927   4.516
  523SOL    HW2 2469   6.715   6.932   4.679
  524SOL     OW 2470   4.367   1.455   6.006
  524SOL    HW1 2471   4.456   1.429   6.044
  524SOL    HW2 2472   4.294   1.429   6.070
  525SOL     OW 2473   2.616   2.657   6.698
  525SOL    HW1 2474   2.668   2.701   6.771
  525SOL    HW2 2475   2.526   2.700   6.690
  526SOL     OW 2476   4.282   5.588   4.853
  526SOL    HW1 2477   4.356   5.557   4.793
  526SOL    HW2 2478   4.307   5.573   4.948
  527SOL     OW 2479   0.848   1.930   0.156
  527SOL    HW1 2480   0.800   2.009   0.193
  527SOL    HW2 2481   0.874   1.947   0.061
  528SOL     OW 2482   2.300   1.052   5.446
  528SOL    HW1 2483   2.275   0.967   5.492
  528SOL    HW2 2484   2.399   1.065   5.452
  529SOL     OW 2485   6.871   4.725   3.840
  529SOL    HW1 2486   6.783   4.707   3.884
  529SOL    HW2 2487   6.939   4.659   3.874
  530SOL     OW 2488   1.073   2.103   5.106
  530SOL    HW1 2489   1.086   2.199   5.083
  530SOL    HW2 2490   1.131   2.046   5.047
  531SOL     OW 2491   0.013   0.755   0.418
  531SOL    HW1 2492   0.049   0.676   0.368
  531SOL    HW2 2493   0.059   0.763   0.506
  532SOL     OW 2494   1.872   0.331   5.911
  532SOL    HW1 2495   1.839   0.410   5.860
  532SOL    HW2 2496   1.911   0.361   5.998
  533SOL     OW 2497   5.329   0.165   4.599
  533SOL    HW1 2498   5.305   0.136   4.506
  533SOL    HW2 2499   5.331   0.264   4.603
  534SOL     OW 2500   3.091   5.271   3.068
  534SOL    HW1 2501   3.141   5.186   3.083
  534SOL    HW2 2502   3.064   5.277   2.972
  535SOL     OW 2503   6.279   4.231   2.455
  535SOL    HW1 2504   6.188   4.270   2.470
  535SOL    HW2 2505   6.294   4.218   2.357
  536SOL     OW 2506   0.685   6.137   0.716
  536SOL    HW1 2507   0.726   6.227   0.701
  536SOL    HW2 2508   0.745   6.082   0.774
  537SOL     OW 2509   2.431   0.281   3.255
  537SOL    HW1 2510   2.454   0.211   3.187
  537SOL    HW2 2511   2.420   0.369   3.210
  538SOL     OW 2512   1.349   4.728   4.006
  538SOL    HW1 2513   1.327   4.825   3.998
  538SOL    HW2 2514   1.360   4.688   3.915
  539SOL     OW 2515   1.331   5.764   1.355
  539SOL    HW1 2516   1.426   5.787   1.333
  539SOL    HW2 2517   1.269   5.815   1.294
  540SOL     OW 2518   1.421   2.788   1.488
  540SOL    HW1 2519   1.347   2.824   1.544
  540SOL    HW2 2520   1.489   2.859   1.472
  541SOL     OW 2521   3.726   5.247   5.301
  541SOL    HW1 2522   3.724   5.347   5.307
  541SOL    HW2 2523   3.735   5.219   5.206
  542SOL     OW 2524   5.868   6.238   6.341
  542SOL    HW1 2525   5.936   6.172   6.374
  542SOL    HW2 2526   5.893   6.330   6.371
  543SOL     OW 2527   6.475   5.967   0.757
  543SOL    HW1 2528   6.418   5.885   0.763
  543SOL    HW2 2529   6.438   6.038   0.817
  544SOL     OW 2530   1.213   5.999   0.346
  544SOL    HW1 2531   1.312   6.011   0.352
  544SOL    HW2 2532   1.171   6.024   0.433
  545SOL     OW 2533   3.659   1.804   4.016
  545SOL    HW1 2534   3.654   1.714   4.059
  545SOL    HW2 2535   3.590   1.864   4.056
  546SOL     OW 2536   1.657   2.941   0.610
  546SOL    HW1 2537   1.643   2.898   0.521
  546SOL    HW2 2538   1.587   2.909   0.674
  547SOL     OW 2539   2.934   1.903   0.202
  547SOL    HW1 2540   2.970   1.843   0.130
  547SOL    HW2 2541   2.870   1.969   0.161
  548SOL     OW 2542   3.309   3.021   5.338
  548SOL    HW1 2543   3.378   3.001   5.408
  548SOL    HW2 2544   3.299   3.120   5.329
  549SOL     OW 2545   1.006   3.948   1.396
  549SOL    HW1 2546   0.999   4.010   1.318
  549SOL    HW2 2547   0.976   3.857   1.369
  550SOL     OW 2548   6.787   3.470   1.116
  550SOL    HW1 2549   6.746   3.381   1.133
  550SOL    HW2 2550   6.879   3.473   1.157
  551SOL     OW 2551   0.348   1.512   0.264
  551SOL    HW1 2552   0.255   1.495   0.232
  551SOL    HW2 2553   0.384   1.593   0.218
  552SOL     OW 2554   4.887   4.795   0.235
  552SOL    HW1 2555   4.927   4.812   0.145
  552SOL    HW2 2556   4.873   4.696   0.247
  553SOL     OW 2557   1.270   2.393   1.017
  553SOL    HW1 2558   1.243   2.372   0.923
  553SOL    HW2 2559   1.189   2.415   1.071
  554SOL     OW 2560   4.860   5.127   5.043
  554SOL    HW1 2561   4.863   5.222   5.013
  554SOL    HW2 2562   4.765   5.096   5.048
  555SOL     OW 2563   1.326   4.351   4.918
  555SOL    HW1 2564   1.298   4.443   4.947
  555SOL    HW2 2565   1.247   4.291   4.915
  556SOL     OW 2566   5.929   3.341   2.866
  556SOL    HW1 2567   6.015   3.318   2.821
  556SOL    HW2 2568   5.875   3.400   2.806
  557SOL     OW 2569   0.220   5.500   6.337
  557SOL    HW1 2570   0.175   5.421   6.293
  557SOL    HW2 2571   0.164   5.531   6.413
  558SOL     OW 2572   4.501   3.599   5.538
  558SOL    HW1 2573   4.488   3.687   5.493
  558SOL    HW2 2574   4.473   3.525   5.477
  559SOL     OW 2575   6.066   5.711   6.215
  559SOL    HW1 2576   6.145   5.759   6.175
  559SOL    HW2 2577   5.999   5.777   6.245
  560SOL     OW 2578   4.318   6.591   0.180
  560SOL    HW1 2579   4.224   6.583   0.147
  560SOL    HW2 2580   4.369   6.652   0.119
  561SOL     OW 2581   5.541   6.538   1.998
  561SOL    HW1 2582   5.486   6.475   2.053
  561SOL    HW2 2583   5.596   6.486   1.933
  562SOL     OW 2584   6.292   0.748   0.016
  562SOL    HW1 2585   6.195   0.763   0.034
  562SOL    HW2 2586   6.346   0.789   0.090
  563SOL     OW 2587   2.944   0.749   4.764
  563SOL    HW1 2588   2.988   0.744   4.674
  563SOL    HW2 2589   2.854   0.706   4.759
  564SOL     OW 2590   0.653   2.046   6.241
  564SOL    HW1 2591   0.632   2.032   6.144
  564SOL    HW2 2592   0.717   1.976   6.272
  565SOL     OW 2593   4.376   4.146   5.575
  565SOL    HW1 2594   4.365   4.099   5.663
  565SOL    HW2 2595   4.327   4.096   5.504
  566SOL     OW 2596   6.040   4.788   2.363
  566SOL    HW1 2597   5.972   4.800   2.436
  566SOL    HW2 2598   6.059   4.877   2.320
  567SOL     OW 2599   3.976   3.980   4.854
  567SOL    HW1 2600   4.074   3.993   4.871
  567SOL    HW2 2601   3.962   3.892   4.809
  568SOL     OW 2602   1.763   1.138   5.772
  568SOL    HW1 2603   1.826   1.062   5.783
  568SOL    HW2 2604   1.754   1.187   5.858
  569SOL     OW 2605   2.215   3.796   6.740
  569SOL    HW1 2606   2.282   3.761   6.805
  569SOL    HW2 2607   2.193   3.726   6.672
  570SOL     OW 2608   0.088   6.288   0.727
  570SOL    HW1 2609   0.093   6.267   0.629
  570SOL    HW2 2610   0.144   6.222   0.777
  571SOL     OW 2611   3.991   5.351   3.185
  571SOL    HW1 2612   4.058   5.411   3.228
  571SOL    HW2 2613   3.961   5.282   3.250
  572SOL     OW 2614   1.517   4.382   4.714
  572SOL    HW1 2615   1.507   4.474   4.677
  572SOL    HW2 2616   1.451   4.367   4.788
  573SOL     OW 2617   3.101   2.593   0.085
  573SOL    HW1 2618   3.109   2.506   0.135
  573SOL    HW2 2619   3.163   2.660   0.125
  574SOL     OW 2620   2.635   1.942   4.062
  574SOL    HW1 2621   2.550   1.995   4.056
  574SOL    HW2 2622   2.704   1.984   4.003
  575SOL     OW 2623   5.440   2.277   6.330
  575SOL    HW1 2624   5.431   2.187   6.372
  575SOL    HW2 2625   5.363   2.334   6.357
  576SOL     OW 2626   1.032   2.848   2.615
  576SOL    HW1 2627   1.064   2.920   2.552
  576SOL    HW2 2628   0.939   2.821   2.590
  577SOL     OW 2629   3.874   2.093   4.446
  577SOL    HW1 2630   3.879   1.996   4.467
  577SOL    HW2 2631   3.967   2.132   4.447
  578SOL     OW 2632   6.965   3.614   4.308
  578SOL    HW1 2633   6.962   3.521   4.271
  578SOL    HW2 2634   6.893   3.669   4.266
  579SOL     OW 2635   3.976   3.621   0.941
  579SOL    HW1 2636   3.971   3.636   0.842
  579SOL    HW2 2637   3.896   3.570   0.971
  580SOL     OW 2638   0.797   6.598   0.402
  580SOL    HW1 2639   0.771   6.610   0.498
  580SOL    HW2 2640   0.895   6.583   0.395
  581SOL     OW 2641   3.833   3.116   2.542
  581SOL    HW1 2642   3.924   3.120   2.584
  581SOL    HW2 2643   3.818   3.199   2.488
  582SOL     OW 2644   6.955   4.378   1.353
  582SOL    HW1 2645   0.005   4.447   1.355
  582SOL    HW2 2646   6.976   4.310   1.283
  583SOL     OW 2647   2.934   5.941   6.782
  583SOL    HW1 2648   2.847   5.903   6.815
  583SOL    HW2 2649   3.005   5.925   6.850
  584SOL     OW 2650   0.663   4.869   4.970
  584SOL    HW1 2651   0.632   4.923   4.892
  584SOL    HW2 2652   0.659   4.772   4.946
  585SOL     OW 2653   5.960   0.580   5.495
  585SOL    HW1 2654   5.877   0.618   5.452
  585SOL    HW2 2655   6.029   0.562   5.424
  586SOL     OW 2656   2.647   5.904   1.368
  586SOL    HW1 2657   2.727   5.893   1.309
  586SOL    HW2 2658   2.676   5.922   1.462
  587SOL     OW 2659   1.680   3.596   5.934
  587SOL    HW1 2660   1.769   3.639   5.924
  587SOL    HW2 2661   1.608   3.662   5.910
  588SOL     OW 2662   2.168   0.361   1.614
  588SOL    HW1 2663   2.220   0.413   1.682
  588SOL    HW2 2664   2.113   0.424   1.559
  589SOL     OW 2665   4.367   5.132   2.082
  589SOL    HW1 2666   4.333   5.172   2.168
  589SOL    HW2 2667   4.290   5.116   2.020
  590SOL     OW 2668   6.276   2.629   1.963
  590SOL    HW1 2669   6.317   2.565   1.898
  590SOL    HW2 2670   6.326   2.716   1.961
  591SOL     OW 2671   2.691   6.774   2.791
  591SOL    HW1 2672   2.772   6.812   2.748
  591SOL    HW2 2673   2.635   6.727   2.723
  592SOL     OW 2674   5.077   6.985   5.856
  592SOL    HW1 2675   5.111   6.906   5.907
  592SOL    HW2 2676   5.128   6.996   5.771
  593SOL     OW 2677   6.286   1.160   4.935
  593SOL    HW1 2678   6.270   1.243   4.881
  593SOL    HW2 2679   6.384   1.141   4.938
  594SOL     OW 2680   5.456   2.455   1.528
  594SOL    HW1 2681   5.489   2.415   1.613
  594SOL    HW2 2682   5.356   2.445   1.522
  595SOL     OW 2683   4.469   6.921   3.895
  595SOL    HW1 2684   4.448   6.828   3.863
  595SOL    HW2 2685   4.420   6.939   3.980
  596SOL     OW 2686   0.503   3.834   1.465
  596SOL    HW1 2687   0.505   3.897   1.543
  596SOL    HW2 2688   0.435   3.865   1.399
  597SOL     OW 2689   4.087   2.406   6.198
  597SOL    HW1 2690   4.022   2.405   6.274
  597SOL    HW2 2691   4.174   2.445   6.230
  598SOL     OW 2692   2.779   3.964   1.435
  598SOL    HW1 2693   2.695   3.951   1.383
  598SOL    HW2 2694   2.857   3.967   1.373
  599SOL     OW 2695   6.367   6.011   3.445
  599SOL    HW1 2696   6.332   5.959   3.368
  599SOL    HW2 2697   6.292   6.063   3.487
  600SOL     OW 2698   3.046   1.397   1.527
  600SOL    HW1 2699   3.036   1.426   1.431
  600SOL    HW2 2700   2.956   1.377   1.565
  601SOL     OW 2701   2.028   5.316   3.537
  601SOL    HW1 2702   2.120   5.308   3.501
  601SOL    HW2 2703   1.962   5.288   3.467
  602SOL     OW 2704   6.717   0.380   1.980
  602SOL    HW1 2705   6.760   0.468   1.999
  602SOL    HW2 2706   6.642   0.392   1.915
  603SOL     OW 2707   3.927   1.913   3.398
  603SOL    HW1 2708   3.936   1.881   3.493
  603SOL    HW2 2709   3.901   2.009   3.397
  604SOL     OW 2710   0.831   3.681   5.981
  604SOL    HW1 2711   0.902   3.616   5.952
  604SOL    HW2 2712   0.742   3.649   5.951
  605SOL     OW 2713   5.696   0.250   4.567
  605SOL    HW1 2714   5.666   0.215   4.479
  605SOL    HW2 2715   5.643   0.207   4.640
  606SOL     OW 2716   3.399   7.019   2.738
  606SOL    HW1 2717   3.339   6.968   2.675
  606SOL    HW2 2718   3.429   6.958   2.812
  607SOL     OW 2719   4.276   0.679   4.329
  607SOL    HW1 2720   4.242   0.771   4.348
  607SOL    HW2 2721   4.205   0.611   4.349
  608SOL     OW 2722   5.549   2.798   1.598
  608SOL    HW1 2723   5.630   2.840   1.558
  608SOL    HW2 2724   5.499   2.747   1.528
  609SOL     OW 2725   3.013   3.920   4.787
  609SOL    HW1 2726   3.014   3.944   4.885
  609SOL    HW2 2727   2.972   3.830   4.775
  610SOL     OW 2728   6.081   1.661   4.584
  610SOL    HW1 2729   5.985   1.638   4.599
  610SOL    HW2 2730   6.090   1.709   4.497
  611SOL     OW 2731   5.585   6.827   0.160
  611SOL    HW1 2732   5.522   6.826   0.237
  611SOL    HW2 2733   5.544   6.877   0.083
  612SOL     OW 2734   2.229   5.590   5.781
  612SOL    HW1 2735   2.222   5.568   5.878
  612SOL    HW2 2736   2.186   5.679   5.764
  613SOL     OW 2737   3.855   1.200   6.703
  613SOL    HW1 2738   3.836   1.131   6.633
  613SOL    HW2 2739   3.870   1.289   6.659
  614SOL     OW 2740   5.138   2.801   1.094
  614SOL    HW1 2741   5.158   2.883   1.040
  614SOL    HW2 2742   5.118   2.725   1.032
  615SOL     OW 2743   5.044   6.420   0.707
  615SOL    HW1 2744   5.078   6.445   0.616
  615SOL    HW2 2745   4.965   6.476   0.730
  616SOL     OW 2746   5.134   0.473   4.413
  616SOL    HW1 2747   5.126   0.571   4.395
  616SOL    HW2 2748   5.173   0.458   4.504
  617SOL     OW 2749   6.634   6.334   4.938
  617SOL    HW1 2750   6.551   6.282   4.917
  617SOL    HW2 2751   6.685   6.352   4.854
  618SOL     OW 2752   5.407   4.595   0.789
  618SOL    HW1 2753   5.320   4.580   0.836
  618SOL    HW2 2754   5.458   4.667   0.835
  619SOL     OW 2755   2.315   6.553   6.334
  619SOL    HW1 2756   2.357   6.513   6.253
  619SOL    HW2 2757   2.377   6.544   6.412
  620SOL     OW 2758   4.612   1.732   2.328
  620SOL    HW1 2759   4.577   1.762   2.239
  620SOL    HW2 2760   4.537   1.691   2.381
  621SOL     OW 2761   3.392   0.686   6.784
  621SOL    HW1 2762   3.338   0.747   6.727
  621SOL    HW2 2763   3.332   0.618   6.827
  622SOL     OW 2764   0.503   3.653   6.043
  622SOL    HW1 2765   0.491   3.747   6.074
  622SOL    HW2 2766   0.414   3.612   6.025
  623SOL     OW 2767   6.639   0.726   2.855
  623SOL    HW1 2768   6.724   0.778   2.849
  623SOL    HW2 2769   6.645   0.660   2.930
  624SOL     OW 2770   6.033   1.341   6.265
  624SOL    HW1 2771   5.939   1.366   6.292
  624SOL    HW2 2772   6.084   1.424   6.244
  625SOL     OW 2773   3.510   1.275   1.562
  625SOL    HW1 2774   3.515   1.316   1.653
  625SOL    HW2 2775   3.602   1.269   1.522
  626SOL     OW 2776   0.710   6.370   3.470
  626SOL    HW1 2777   0.789   6.391   3.528
  626SOL    HW2 2778   0.641   6.322   3.524
  627SOL     OW 2779   6.355   5.265   6.626
  627SOL    HW1 2780   6.284   5.336   6.631
  627SOL    HW2 2781   6.424   5.283   6.696
  628SOL     OW 2782   3.800   4.708   6.336
  628SOL    HW1 2783   3.762   4.618   6.357
  628SOL    HW2 2784   3.900   4.703   6.340
  629SOL     OW 2785   0.858   0.046   7.009
  629SOL    HW1 2786   0.819   0.011   0.072
  629SOL    HW2 2787   0.812   0.132   6.984
  630SOL     OW 2788   6.786   1.856   1.536
  630SOL    HW1 2789   6.787   1.956   1.528
  630SOL    HW2 2790   6.776   1.816   1.445
  631SOL     OW 2791   2.246   3.004   2.986
  631SOL    HW1 2792   2.240   2.968   2.892
  631SOL    HW2 2793   2.223   3.102   2.985
  632SOL     OW 2794   3.028   4.186   0.993
  632SOL    HW1 2795   3.071   4.097   0.974
  632SOL    HW2 2796   3.097   4.249   1.026
  633SOL     OW 2797   1.469   6.052   0.408
  633SOL    HW1 2798   1.533   5.976   0.423
  633SOL    HW2 2799   1.449   6.096   0.495
  634SOL     OW 2800   3.235   3.410   5.265
  634SOL    HW1 2801   3.293   3.489   5.243
  634SOL    HW2 2802   3.255   3.380   5.358
  635SOL     OW 2803   5.998   6.813   6.660
  635SOL    HW1 2804   6.001   6.739   6.728
  635SOL    HW2 2805   5.931   6.881   6.687
  636SOL     OW 2806   2.359   1.341   4.468
  636SOL    HW1 2807   2.270   1.345   4.514
  636SOL    HW2 2808   2.394   1.434   4.455
  637SOL     OW 2809   0.270   1.532   2.327
  637SOL    HW1 2810   0.228   1.552   2.416
  637SOL    HW2 2811   0.199   1.522   2.258
  638SOL     OW 2812   0.034   3.322   4.881
  638SOL    HW1 2813   0.091   3.356   4.956
  638SOL    HW2 2814   0.021   3.223   4.890
  639SOL     OW 2815   5.860   3.350   1.748
  639SOL    HW1 2816   5.798   3.377   1.674
  639SOL    HW2 2817   5.870   3.251   1.749
  640SOL     OW 2818   6.941   3.363   2.539
  640SOL    HW1 2819   6.967   3.450   2.496
  640SOL    HW2 2820   6.846   3.369   2.571
  641SOL     OW 2821   2.178   5.485   4.409
  641SOL    HW1 2822   2.206   5.574   4.446
  641SOL    HW2 2823   2.182   5.416   4.481
  642SOL     OW 2824   0.652   5.194   5.029
  642SOL    HW1 2825   0.624   5.104   5.063
  642SOL    HW2 2826   0.607   5.211   4.941
  643SOL     OW 2827   4.109   5.444   0.239
  643SOL    HW1 2828   4.133   5.363   0.184
  643SOL    HW2 2829   4.058   5.415   0.320
  644SOL     OW 2830   6.363   6.854   4.614
  644SOL    HW1 2831   6.404   6.783   4.670
  644SOL    HW2 2832   6.294   6.904   4.668
  645SOL     OW 2833   4.181   6.043   2.245
  645SOL    HW1 2834   4.173   6.128   2.193
  645SOL    HW2 2835   4.152   5.966   2.189
  646SOL     OW 2836   3.453   1.852   5.372
  646SOL    HW1 2837   3.539   1.881   5.413
  646SOL    HW2 2838   3.376   1.898   5.418
  647SOL     OW 2839   3.097   2.379   0.280
  647SOL    HW1 2840   3.113   2.283   0.300
  647SOL    HW2 2841   3.016   2.411   0.328
  648SOL     OW 2842   5.944   1.359   4.189
  648SOL    HW1 2843   5.975   1.437   4.134
  648SOL    HW2 2844   5.858   1.323   4.151
  649SOL     OW 2845   2.569   5.806   0.372
  649SOL    HW1 2846   2.588   5.709   0.383
  649SOL    HW2 2847   2.630   5.844   0.303
  650SOL     OW 2848   1.401   2.965   0.756
  650SOL    HW1 2849   1.374   2.878   0.714
  650SOL    HW2 2850   1.463   2.947   0.833
  651SOL     OW 2851   0.170   1.100   3.636
  651SOL    HW1 2852   0.163   1.194   3.602
  651SOL    HW2 2853   0.084   1.074   3.681
  652SOL     OW 2854   3.863   5.651   0.414
  652SOL    HW1 2855   3.777   5.653   0.362
  652SOL    HW2 2856   3.910   5.564   0.397
  653SOL     OW 2857   1.414   0.197   2.485
  653SOL    HW1 2858   1.512   0.189   2.466
  653SOL    HW2 2859   1.379   0.282   2.446
  654SOL     OW 2860   0.977   6.699   5.932
  654SOL    HW1 2861   0.886   6.742   5.928
  654SOL    HW2 2862   0.983   6.630   5.860
  655SOL     OW 2863   0.777   3.441   0.926
  655SOL    HW1 2864   0.847   3.510   0.911
  655SOL    HW2 2865   0.812   3.371   0.989
  656SOL     OW 2866   2.477   0.229   6.498
  656SOL    HW1 2867   2.506   0.287   6.575
  656SOL    HW2 2868   2.555   0.173   6.468
  657SOL     OW 2869   3.834   3.549   4.060
  657SOL    HW1 2870   3.924   3.508   4.046
  657SOL    HW2 2871   3.764   3.489   4.021
  658SOL     OW 2872   1.633   0.636   4.137
  658SOL    HW1 2873   1.696   0.641   4.214
  658SOL    HW2 2874   1.668   0.690   4.061
  659SOL     OW 2875   1.485   5.488   6.318
  659SOL    HW1 2876   1.495   5.570   6.374
  659SOL    HW2 2877   1.544   5.495   6.238
  660SOL     OW 2878   5.543   3.856   2.702
  660SOL    HW1 2879   5.447   3.868   2.676
  660SOL    HW2 2880   5.549   3.800   2.785
  661SOL     OW 2881   4.562   5.199   3.953
  661SOL    HW1 2882   4.552   5.101   3.968
  661SOL    HW2 2883   4.646   5.217   3.902
  662SOL     OW 2884   5.483   3.718   0.200
  662SOL    HW1 2885   5.533   3.680   0.122
  662SOL    HW2 2886   5.385   3.719   0.179
  663SOL     OW 2887   0.720   4.750   6.563
  663SOL    HW1 2888   0.792   4.696   6.606
  663SOL    HW2 2889   0.639   4.693   6.550
  664SOL     OW 2890   1.729   6.932   6.040
  664SOL    HW1 2891   1.667   6.857   6.017
  664SOL    HW2 2892   1.720   6.953   6.137
  665SOL     OW 2893   2.275   4.454   3.171
  665SOL    HW1 2894   2.232   4.539   3.143
  665SOL    HW2 2895   2.369   4.452   3.138
  666SOL     OW 2896   3.403   1.075   6.705
  666SOL    HW1 2897   3.318   1.072   6.758
  666SOL    HW2 2898   3.381   1.076   6.608
  667SOL     OW 2899   1.332   3.312   2.113
  667SOL    HW1 2900   1.320   3.270   2.023
  667SOL    HW2 2901   1.254   3.373   2.132
  668SOL     OW 2902   5.176   0.209   0.908
  668SOL    HW1 2903   5.260   0.156   0.896
  668SOL    HW2 2904   5.181   0.291   0.850
  669SOL     OW 2905   0.304   5.577   2.864
  669SOL    HW1 2906   0.207   5.554   2.855
  669SOL    HW2 2907   0.320   5.669   2.828
  670SOL     OW 2908   4.088   3.690   2.599
  670SOL    HW1 2909   4.064   3.730   2.687
  670SOL    HW2 2910   4.046   3.742   2.525
  671SOL     OW 2911   2.205   0.455   6.235
  671SOL    HW1 2912   2.217   0.368   6.283
  671SOL    HW2 2913   2.273   0.521   6.268
  672SOL     OW 2914   1.469   2.330   2.766
  672SOL    HW1 2915   1.530   2.384   2.825
  672SOL    HW2 2916   1.522   2.284   2.696
  673SOL     OW 2917   4.923   0.265   0.010
  673SOL    HW1 2918   4.934   0.343   0.071
  673SOL    HW2 2919   4.973   0.186   0.047
  674SOL     OW 2920   0.204   2.447   4.507
  674SOL    HW1 2921   0.130   2.495   4.555
  674SOL    HW2 2922   0.168   2.408   4.422
  675SOL     OW 2923   6.461   6.160   3.796
  675SOL    HW1 2924   6.382   6.184   3.739
  675SOL    HW2 2925   6.495   6.242   3.841
  676SOL     OW 2926   2.689   5.159   4.571
  676SOL    HW1 2927   2.644   5.248   4.570
  676SOL    HW2 2928   2.742   5.147   4.486
  677SOL     OW 2929   4.124   6.330   0.394
  677SOL    HW1 2930   4.213   6.359   0.430
  677SOL    HW2 2931   4.110   6.233   0.415
  678SOL     OW 2932   2.122   1.252   5.689
  678SOL    HW1 2933   2.086   1.183   5.625
  678SOL    HW2 2934   2.222   1.253   5.684
  679SOL     OW 2935   6.319   0.079   1.847
  679SOL    HW1 2936   6.387   0.102   1.917
  679SOL    HW2 2937   6.260   0.159   1.830
  680SOL     OW 2938   5.473   4.001   4.740
  680SOL    HW1 2939   5.453   3.903   4.742
  680SOL    HW2 2940   5.518   4.024   4.654
  681SOL     OW 2941   1.135   6.911   2.072
  681SOL    HW1 2942   1.145   6.852   2.152
  681SOL    HW2 2943   1.175   6.866   1.993
  682SOL     OW 2944   0.081   6.974   6.120
  682SOL    HW1 2945   0.044   0.031   6.168
  682SOL    HW2 2946   0.008   6.925   6.073
  683SOL     OW 2947   5.058   1.330   1.557
  683SOL    HW1 2948   5.145   1.376   1.574
  683SOL    HW2 2949   5.024   1.355   1.467
  684SOL     OW 2950   0.077   5.934   6.661
  684SOL    HW1 2951   0.132   5.871   6.715
  684SOL    HW2 2952   0.047   6.010   6.719
  685SOL     OW 2953   6.519   0.788   6.644
  685SOL    HW1 2954   6.569   0.874   6.637
  685SOL    HW2 2955   6.428   0.805   6.681
  686SOL     OW 2956   5.440   5.203   2.566
  686SOL    HW1 2957   5.474   5.120   2.521
  686SOL    HW2 2958   5.501   5.280   2.545
  687SOL     OW 2959   5.591   2.028   5.720
  687SOL    HW1 2960   5.519   1.959   5.708
  687SOL    HW2 2961   5.663   2.013   5.652
  688SOL     OW 2962   6.107   3.217   5.101
  688SOL    HW1 2963   6.164   3.135   5.092
  688SOL    HW2 2964   6.017   3.199   5.060
  689SOL     OW 2965   5.590   4.507   4.277
  689SOL    HW1 2966   5.534   4.569   4.332
  689SOL    HW2 2967   5.686   4.535   4.283
  690SOL     OW 2968   0.216   3.132   4.305
  690SOL    HW1 2969   0.244   3.124   4.401
  690SOL    HW2 2970   0.292   3.109   4.245
  691SOL     OW 2971   6.989   3.127   6.573
  691SOL    HW1 2972   7.011   3.032   6.597
  691SOL    HW2 2973   6.921   3.128   6.500
  692SOL     OW 2974   2.714   7.017   3.402
  692SOL    HW1 2975   2.756   0.066   3.458
  692SOL    HW2 2976   2.683   6.942   3.461
  693SOL     OW 2977   6.729   1.675   2.813
  693SOL    HW1 2978   6.649   1.735   2.825
  693SOL    HW2 2979   6.810   1.719   2.853
  694SOL     OW 2980   1.571   0.661   2.148
  694SOL    HW1 2981   1.620   0.664   2.061
  694SOL    HW2 2982   1.557   0.754   2.182
  695SOL     OW 2983   4.624   5.571   6.631
  695SOL    HW1 2984   4.605   5.669   6.620
  695SOL    HW2 2985   4.720   5.558   6.652
  696SOL     OW 2986   5.096   6.293   2.208
  696SOL    HW1 2987   5.094   6.385   2.171
  696SOL    HW2 2988   5.062   6.228   2.140
  697SOL     OW 2989   1.617   3.918   4.106
  697SOL    HW1 2990   1.552   3.976   4.155
  697SOL    HW2 2991   1.707   3.962   4.105
  698SOL     OW 2992   5.096   5.852   4.216
  698SOL    HW1 2993   5.044   5.828   4.134
  698SOL    HW2 2994   5.036   5.899   4.281
  699SOL     OW 2995   1.280   4.508   6.364
  699SOL    HW1 2996   1.288   4.560   6.449
  699SOL    HW2 2997   1.371   4.480   6.334
  700SOL     OW 2998   1.826   1.626   4.758
  700SOL    HW1 2999   1.750   1.596   4.700
  700SOL    HW2 3000   1.864   1.711   4.721
  701SOL     OW 3001   0.799   4.634   5.057
  701SOL    HW1 3002   0.854   4.566   5.007
  701SOL    HW2 3003   0.856   4.676   5.128
  702SOL     OW 3004   5.583   5.865   5.297
  702SOL    HW1 3005   5.531   5.780   5.285
  702SOL    HW2 3006   5.609   5.875   5.393
  703SOL     OW 3007   4.742   4.431   6.309
  703SOL    HW1 3008   4.671   4.409   6.376
  703SOL    HW2 3009   4.815   4.363   6.315
  704SOL     OW 3010   2.608   6.804   2.126
  704SOL    HW1 3011   2.551   6.799   2.044
  704SOL    HW2 3012   2.668   6.724   2.130
  705SOL     OW 3013   0.318   1.882   3.691
  705SOL    HW1 3014   0.358   1.791   3.680
  705SOL    HW2 3015   0.379   1.939   3.747
  706SOL     OW 3016   4.801   2.968   4.166
  706SOL    HW1 3017   4.877   2.941   4.223
  706SOL    HW2 3018   4.720   2.914   4.189
  707SOL     OW 3019   5.006   2.290   2.728
  707SOL    HW1 3020   5.033   2.269   2.822
  707SOL    HW2 3021   5.010   2.389   2.714
  708SOL     OW 3022   4.321   0.826   2.426
  708SOL    HW1 3023   4.334   0.824   2.526
  708SOL    HW2 3024   4.386   0.890   2.386
  709SOL     OW 3025   0.966   5.439   6.833
  709SOL    HW1 3026   1.010   5.349   6.819
  709SOL    HW2 3027   0.892   5.430   6.899
  710SOL     OW 3028   3.510   3.746   2.934
  710SOL    HW1 3029   3.480   3.758   3.028
  710SOL    HW2 3030   3.431   3.724   2.876
  711SOL     OW 3031   0.401   0.908   5.049
  711SOL    HW1 3032   0.419   0.965   4.969
  711SOL    HW2 3033   0.486   0.896   5.100
  712SOL     OW 3034   0.485   3.850   2.694
  712SOL    HW1 3035   0.481   3.815   2.787
  712SOL    HW2 3036   0.578   3.878   2.673
  713SOL     OW 3037   3.196   3.701   4.399
  713SOL    HW1 3038   3.122   3.648   4.440
  713SOL    HW2 3039   3.182   3.799   4.417
  714SOL     OW 3040   4.987   4.404   5.080
  714SOL    HW1 3041   4.932   4.483   5.051
  714SOL    HW2 3042   4.944   4.363   5.161
  715SOL     OW 3043   6.286   0.116   6.249
  715SOL    HW1 3044   6.241   0.206   6.249
  715SOL    HW2 3045   6.337   0.105   6.164
  716SOL     OW 3046   6.373   5.061   1.142
  716SOL    HW1 3047   6.395   5.112   1.225
  716SOL    HW2 3048   6.339   5.123   1.072
  717SOL     OW 3049   6.165   3.371   6.160
  717SOL    HW1 3050   6.145   3.273   6.164
  717SOL    HW2 3051   6.263   3.385   6.173
  718SOL     OW 3052   2.557   3.026   6.645
  718SOL    HW1 3053   2.650   3.047   6.678
  718SOL    HW2 3054   2.563   2.962   6.568
  719SOL     OW 3055   5.237   5.000   0.099
  719SOL    HW1 3056   5.289   4.972   0.179
  719SOL    HW2 3057   5.166   5.066   0.126
  720SOL     OW 3058   3.565   1.126   6.039
  720SOL    HW1 3059   3.645   1.155   6.091
  720SOL    HW2 3060   3.510   1.063   6.094
  721SOL     OW 3061   1.141   6.727   5.572
  721SOL    HW1 3062   1.168   6.784   5.650
  721SOL    HW2 3063   1.223   6.701   5.521
  722SOL     OW 3064   4.390   6.906   5.228
  722SOL    HW1 3065   4.399   6.807   5.229
  722SOL    HW2 3066   4.439   6.945   5.306
  723SOL     OW 3067   1.590   3.274   1.894
  723SOL    HW1 3068   1.584   3.176   1.874
  723SOL    HW2 3069   1.522   3.324   1.841
  724SOL     OW 3070   0.207   1.316   5.034
  724SOL    HW1 3071   0.216   1.256   5.114
  724SOL    HW2 3072   0.123   1.295   4.986
  725SOL     OW 3073   2.610   5.252   1.844
  725SOL    HW1 3074   2.609   5.350   1.863
  725SOL    HW2 3075   2.627   5.201   1.929
  726SOL     OW 3076   5.043   6.156   5.670
  726SOL    HW1 3077   5.078   6.063   5.657
  726SOL    HW2 3078   4.948   6.153   5.700
  727SOL     OW 3079   2.046   4.449   4.165
  727SOL    HW1 3080   2.047   4.535   4.216
  727SOL    HW2 3081   2.116   4.388   4.201
  728SOL     OW 3082   0.035   3.238   5.724
  728SOL    HW1 3083   6.977   3.224   5.664
  728SOL    HW2 3084   0.090   3.154   5.724
  729SOL     OW 3085   3.640   1.298   0.881
  729SOL    HW1 3086   3.603   1.382   0.921
  729SOL    HW2 3087   3.657   1.312   0.783
  730SOL     OW 3088   5.953   1.095   4.686
  730SOL    HW1 3089   5.923   1.012   4.732
  730SOL    HW2 3090   5.893   1.114   4.608
  731SOL     OW 3091   6.884   2.576   4.416
  731SOL    HW1 3092   6.819   2.503   4.397
  731SOL    HW2 3093   6.893   2.635   4.336
  732SOL     OW 3094   0.512   3.361   3.669
  732SOL    HW1 3095   0.472   3.438   3.718
  732SOL    HW2 3096   0.549   3.295   3.735
  733SOL     OW 3097   4.299   5.091   4.680
  733SOL    HW1 3098   4.300   5.144   4.765
  733SOL    HW2 3099   4.291   5.152   4.602
  734SOL     OW 3100   0.733   5.919   6.919
  734SOL    HW1 3101   0.744   6.001   6.974
  734SOL    HW2 3102   0.823   5.880   6.897
  735SOL     OW 3103   3.195   4.627   6.946
  735SOL    HW1 3104   3.120   4.648   7.008
  735SOL    HW2 3105   3.161   4.622   6.852
  736SOL     OW 3106   5.663   0.657   2.854
  736SOL    HW1 3107   5.723   0.626   2.780
  736SOL    HW2 3108   5.568   0.643   2.827
  737SOL     OW 3109   5.521   4.023   0.335
  737SOL    HW1 3110   5.477   3.935   0.314
  737SOL    HW2 3111   5.485   4.094   0.275
  738SOL     OW 3112   0.766   4.809   3.047
  738SOL    HW1 3113   0.726   4.898   3.070
  738SOL    HW2 3114   0.857   4.823   3.007
  739SOL     OW 3115   4.531   6.663   6.435
  739SOL    HW1 3116   4.608   6.726   6.450
  739SOL    HW2 3117   4.559   6.591   6.372
  740SOL     OW 3118   5.570   0.100   0.122
  740SOL    HW1 3119   5.664   0.066   0.123
  740SOL    HW2 3120   5.516   0.047   0.056
  741SOL     OW 3121   3.001   0.429   3.929
  741SOL    HW1 3122   2.954   0.427   3.841
  741SOL    HW2 3123   2.960   0.499   3.988
  742SOL     OW 3124   1.316   6.611   2.673
  742SOL    HW1 3125   1.281   6.649   2.587
  742SOL    HW2 3126   1.246   6.557   2.718
  743SOL     OW 3127   1.685   3.188   3.905
  743SOL    HW1 3128   1.776   3.182   3.864
  743SOL    HW2 3129   1.621   3.134   3.851
  744SOL     OW 3130   6.536   5.131   0.629
  744SOL    HW1 3131   6.601   5.189   0.579
  744SOL    HW2 3132   6.549   5.144   0.727
  745SOL     OW 3133   1.500   5.957   3.300
  745SOL    HW1 3134   1.548   6.045   3.304
  745SOL    HW2 3135   1.408   5.967   3.337
  746SOL     OW 3136   3.452   0.267   3.459
  746SOL    HW1 3137   3.547   0.272   3.493
  746SOL    HW2 3138   3.389   0.271   3.537
  747SOL     OW 3139   6.346   3.349   0.886
  747SOL    HW1 3140   6.340   3.282   0.960
  747SOL    HW2 3141   6.307   3.436   0.917
  748SOL     OW 3142   3.717   2.889   2.794
  748SOL    HW1 3143   3.752   2.851   2.708
  748SOL    HW2 3144   3.628   2.848   2.815
  749SOL     OW 3145   6.163   2.617   5.207
  749SOL    HW1 3146   6.144   2.645   5.112
  749SOL    HW2 3147   6.090   2.651   5.266
  750SOL     OW 3148   3.174   3.255   1.719
  750SOL    HW1 3149   3.213   3.288   1.633
  750SOL    HW2 3150   3.148   3.159   1.709
  751SOL     OW 3151   5.353   1.268   0.617
  751SOL    HW1 3152   5.393   1.326   0.546
  751SOL    HW2 3153   5.405   1.183   0.623
  752SOL     OW 3154   4.564   0.663   1.574
  752SOL    HW1 3155   4.597   0.616   1.493
  752SOL    HW2 3156   4.509   0.600   1.629
  753SOL     OW 3157   3.772   1.176   3.019
  753SOL    HW1 3158   3.683   1.164   3.062
  753SOL    HW2 3159   3.793   1.096   2.963
  754SOL     OW 3160   5.451   5.653   0.450
  754SOL    HW1 3161   5.395   5.570   0.450
  754SOL    HW2 3162   5.442   5.700   0.538
  755SOL     OW 3163   6.442   5.925   2.802
  755SOL    HW1 3164   6.504   6.001   2.823
  755SOL    HW2 3165   6.496   5.843   2.786
  756SOL     OW 3166   3.334   6.493   3.902
  756SOL    HW1 3167   3.245   6.534   3.922
  756SOL    HW2 3168   3.338   6.401   3.940
  757SOL     OW 3169   6.616   1.287   3.622
  757SOL    HW1 3170   6.532   1.233   3.637
  757SOL    HW2 3171   6.593   1.384   3.627
  758SOL     OW 3172   4.564   2.157   1.118
  758SOL    HW1 3173   4.539   2.078   1.062
  758SOL    HW2 3174   4.633   2.130   1.185
  759SOL     OW 3175   1.926   0.934   0.940
  759SOL    HW1 3176   1.966   1.026   0.935
  759SOL    HW2 3177   1.834   0.936   0.900
  760SOL     OW 3178   4.634   2.059   5.599
  760SOL    HW1 3179   4.663   2.038   5.506
  760SOL    HW2 3180   4.714   2.077   5.656
  761SOL     OW 3181   5.290   1.204   6.645
  761SOL    HW1 3182   5.290   1.294   6.688
  761SOL    HW2 3183   5.270   1.213   6.548
  762SOL     OW 3184   2.138   4.929   4.442
  762SOL    HW1 3185   2.044   4.954   4.466
  762SOL    HW2 3186   2.200   4.958   4.514
  763SOL     OW 3187   6.275   5.022   0.059
  763SOL    HW1 3188   6.238   5.025   6.988
  763SOL    HW2 3189   6.277   5.115   0.096
  764SOL     OW 3190   5.301   1.001   2.827
  764SOL    HW1 3191   5.285   1.035   2.735
  764SOL    HW2 3192   5.214   0.972   2.867
  765SOL     OW 3193   6.837   6.551   3.148
  765SOL    HW1 3194   6.759   6.604   3.181
  765SOL    HW2 3195   6.917   6.611   3.143
  766SOL     OW 3196   6.797   6.529   0.028
  766SOL    HW1 3197   6.707   6.562   0.056
  766SOL    HW2 3198   6.841   6.483   0.106
  767SOL     OW 3199   5.967   5.907   1.397
  767SOL    HW1 3200   6.040   5.843   1.422
  767SOL    HW2 3201   5.960   5.913   1.297
  768SOL     OW 3202   3.124   6.656   3.925
  768SOL    HW1 3203   3.182   6.721   3.877
  768SOL    HW2 3204   3.041   6.638   3.872
  769SOL     OW 3205   3.496   0.820   0.108
  769SOL    HW1 3206   3.487   0.742   0.046
  769SOL    HW2 3207   3.550   0.891   0.064
  770SOL     OW 3208   3.175   4.872   4.025
  770SOL    HW1 3209   3.265   4.857   3.983
  770SOL    HW2 3210   3.178   4.955   4.081
  771SOL     OW 3211   0.644   5.699   4.592
  771SOL    HW1 3212   0.663   5.605   4.562
  771SOL    HW2 3213   0.713   5.727   4.658
  772SOL     OW 3214   6.966   4.569   5.489
  772SOL    HW1 3215   0.035   4.530   5.506
  772SOL    HW2 3216   6.972   4.669   5.487
  773SOL     OW 3217   0.209   3.479   2.228
  773SOL    HW1 3218   0.271   3.414   2.273
  773SOL    HW2 3219   0.133   3.499   2.289
  774SOL     OW 3220   1.229   0.993   1.381
  774SOL    HW1 3221   1.145   1.042   1.405
  774SOL    HW2 3222   1.218   0.896   1.403
  775SOL     OW 3223   1.382   2.628   4.391
  775SOL    HW1 3224   1.457   2.668   4.444
  775SOL    HW2 3225   1.371   2.678   4.305
  776SOL     OW 3226   2.266   0.147   5.116
  776SOL    HW1 3227   2.302   0.108   5.031
  776SOL    HW2 3228   2.254   0.246   5.105
  777SOL     OW 3229   4.508   0.111   0.076
  777SOL    HW1 3230   4.499   0.210   0.083
  777SOL    HW2 3231   4.595   0.082   0.117
  778SOL     OW 3232   4.257   5.613   5.183
  778SOL    HW1 3233   4.273   5.670   5.264
  778SOL    HW2 3234   4.180   5.551   5.200
  779SOL     OW 3235   0.853   0.615   2.805
  779SOL    HW1 3236   0.935   0.592   2.856
  779SOL    HW2 3237   0.800   0.532   2.787
  780SOL     OW 3238   5.216   2.866   5.136
  780SOL    HW1 3239   5.291   2.931   5.144
  780SOL    HW2 3240   5.162   2.887   5.054
  781SOL     OW 3241   0.801   2.548   6.602
  781SOL    HW1 3242   0.721   2.552   6.663
  781SOL    HW2 3243   0.826   2.452   6.587
  782SOL     OW 3244   0.296   4.388   0.352
  782SOL    HW1 3245   0.357   4.309   0.341
  782SOL    HW2 3246   0.228   4.387   0.279
  783SOL     OW 3247   2.134   4.757   0.046
  783SOL    HW1 3248   2.141   4.718   6.976
  783SOL    HW2 3249   2.211   4.727   0.102
  784SOL     OW 3250   4.951   5.134   3.545
  784SOL    HW1 3251   5.026   5.199   3.531
  784SOL    HW2 3252   4.945   5.111   3.642
  785SOL     OW 3253   6.055   2.187   4.007
  785SOL    HW1 3254   6.026   2.166   4.100
  785SOL    HW2 3255   5.996   2.138   3.942
  786SOL     OW 3256   5.970   6.684   0.519
  786SOL    HW1 3257   5.962   6.641   0.608
  786SOL    HW2 3258   6.004   6.777   0.530
  787SOL     OW 3259   4.557   1.084   0.054
  787SOL    HW1 3260   4.575   1.068   0.151
  787SOL    HW2 3261   4.642   1.074   0.002
  788SOL     OW 3262   0.954   4.887   3.261
  788SOL    HW1 3263   0.864   4.879   3.218
  788SOL    HW2 3264   0.944   4.919   3.355
  789SOL     OW 3265   5.685   2.917   1.259
  789SOL    HW1 3266   5.594   2.926   1.220
  789SOL    HW2 3267   5.751   2.903   1.185
  790SOL     OW 3268   3.248   0.487   3.830
  790SOL    HW1 3269   3.156   0.473   3.865
  790SOL    HW2 3270   3.264   0.426   3.752
  791SOL     OW 3271   3.793   1.680   5.128
  791SOL    HW1 3272   3.829   1.587   5.133
  791SOL    HW2 3273   3.746   1.693   5.041
  792SOL     OW 3274   5.081   0.504   3.731
  792SOL    HW1 3275   4.997   0.495   3.679
  792SOL    HW2 3276   5.151   0.549   3.675
  793SOL     OW 3277   0.264   0.259   6.700
  793SOL    HW1 3278   0.314   0.203   6.634
  793SOL    HW2 3279   0.290   0.231   6.793
  794SOL     OW 3280   3.553   4.955   5.125
  794SOL    HW1 3281   3.485   5.022   5.155
  794SOL    HW2 3282   3.519   4.903   5.047
  795SOL     OW 3283   5.039   5.280   0.083
  795SOL    HW1 3284   5.106   5.288   0.008
  795SOL    HW2 3285   4.979   5.202   0.066
  796SOL     OW 3286   0.328   1.627   5.939
  796SOL    HW1 3287   0.352   1.722   5.963
  796SOL    HW2 3288   0.370   1.603   5.852
  797SOL     OW 3289   6.322   2.844   5.436
  797SOL    HW1 3290   6.309   2.746   5.420
  797SOL    HW2 3291   6.235   2.886   5.461
  798SOL     OW 3292   6.554   0.427   5.126
  798SOL    HW1 3293   6.481   0.363   5.149
  798SOL    HW2 3294   6.527   0.482   5.047
  799SOL     OW 3295   6.488   3.488   3.734
  799SOL    HW1 3296   6.427   3.410   3.753
  799SOL    HW2 3297   6.520   3.483   3.640
  800SOL     OW 3298   6.706   1.827   1.896
  800SOL    HW1 3299   6.789   1.785   1.859
  800SOL    HW2 3300   6.706   1.818   1.996
  801SOL     OW 3301   0.299   2.501   3.711
  801SOL    HW1 3302   0.284   2.547   3.624
  801SOL    HW2 3303   0.386   2.531   3.751
  802SOL     OW 3304   6.025   1.638   1.583
  802SOL    HW1 3305   5.947   1.699   1.565
  802SOL    HW2 3306   6.061   1.657   1.674
  803SOL     OW 3307   1.276   0.098   4.766
  803SOL    HW1 3308   1.306   0.110   4.672
  803SOL    HW2 3309   1.352   0.065   4.822
  804SOL     OW 3310   6.566   6.661   0.628
  804SOL    HW1 3311   6.598   6.711   0.708
  804SOL    HW2 3312   6.565   6.722   0.548
  805SOL     OW 3313   1.687   2.939   5.537
  805SOL    HW1 3314   1.701   2.918   5.440
  805SOL    HW2 3315   1.629   3.020   5.545
  806SOL     OW 3316   5.221   0.492   0.404
  806SOL    HW1 3317   5.227   0.532   0.312
  806SOL    HW2 3318   5.229   0.564   0.473
  807SOL     OW 3319   1.264   6.857   2.929
  807SOL    HW1 3320   1.325   6.916   2.876
  807SOL    HW2 3321   1.208   6.914   2.989
  808SOL     OW 3322   5.975   3.656   5.259
  808SOL    HW1 3323   5.913   3.733   5.243
  808SOL    HW2 3324   5.937   3.573   5.219
  809SOL     OW 3325   0.812   5.616   6.251
  809SOL    HW1 3326   0.863   5.543   6.206
  809SOL    HW2 3327   0.724   5.628   6.206
  810SOL     OW 3328   6.416   5.236   6.339
  810SOL    HW1 3329   6.340   5.204   6.282
  810SOL    HW2 3330   6.381   5.261   6.430
  811SOL     OW 3331   3.742   5.342   3.412
  811SOL    HW1 3332   3.811   5.292   3.464
  811SOL    HW2 3333   3.652   5.300   3.427
  812SOL     OW 3334   0.383   0.269   2.124
  812SOL    HW1 3335   0.420   0.206   2.055
  812SOL    HW2 3336   0.285   0.251   2.135
  813SOL     OW 3337   5.777   5.410   2.091
  813SOL    HW1 3338   5.756   5.505   2.114
  813SOL    HW2 3339   5.869   5.404   2.051
  814SOL     OW 3340   5.203   5.448   1.314
  814SOL    HW1 3341   5.289   5.398   1.317
  814SOL    HW2 3342   5.127   5.382   1.307
  815SOL     OW 3343   0.727   1.055   0.429
  815SOL    HW1 3344   0.663   1.093   0.497
  815SOL    HW2 3345   0.776   1.130   0.384
  816SOL     OW 3346   5.778   0.691   1.304
  816SOL    HW1 3347   5.779   0.656   1.210
  816SOL    HW2 3348   5.834   0.632   1.362
  817SOL     OW 3349   0.316   2.283   1.787
  817SOL    HW1 3350   0.403   2.310   1.826
  817SOL    HW2 3351   0.325   2.193   1.743
  818SOL     OW 3352   5.862   1.558   2.183
  818SOL    HW1 3353   5.923   1.492   2.228
  818SOL    HW2 3354   5.799   1.509   2.123
  819SOL     OW 3355   0.417   5.369   2.034
  819SOL    HW1 3356   0.482   5.332   2.101
  819SOL    HW2 3357   0.356   5.296   2.003
  820SOL     OW 3358   1.458   2.740   4.829
  820SOL    HW1 3359   1.459   2.676   4.752
  820SOL    HW2 3360   1.377   2.721   4.886
  821SOL     OW 3361   1.000   4.136   0.188
  821SOL    HW1 3362   0.939   4.213   0.209
  821SOL    HW2 3363   0.946   4.052   0.182
  822SOL     OW 3364   1.522   3.469   4.721
  822SOL    HW1 3365   1.575   3.519   4.653
  822SOL    HW2 3366   1.470   3.397   4.675
  823SOL     OW 3367   3.520   3.519   1.380
  823SOL    HW1 3368   3.485   3.591   1.441
  823SOL    HW2 3369   3.590   3.558   1.320
  824SOL     OW 3370   6.359   2.457   6.026
  824SOL    HW1 3371   6.276   2.512   6.016
  824SOL    HW2 3372   6.336   2.360   6.022
  825SOL     OW 3373   1.154   3.916   1.871
  825SOL    HW1 3374   1.164   3.935   1.773
  825SOL    HW2 3375   1.058   3.898   1.892
  826SOL     OW 3376   1.282   4.002   5.602
  826SOL    HW1 3377   1.323   4.093   5.614
  826SOL    HW2 3378   1.184   4.007   5.620
  827SOL     OW 3379   3.545   5.017   0.670
  827SOL    HW1 3380   3.517   4.952   0.741
  827SOL    HW2 3381   3.549   4.970   0.581
  828SOL     OW 3382   6.649   0.334   6.077
  828SOL    HW1 3383   6.739   0.355   6.115
  828SOL    HW2 3384   6.579   0.379   6.131
  829SOL     OW 3385   3.294   3.238   5.050
  829SOL    HW1 3386   3.216   3.189   5.012
  829SOL    HW2 3387   3.267   3.286   5.134
  830SOL     OW 3388   4.193   3.765   6.159
  830SOL    HW1 3389   4.200   3.865   6.162
  830SOL    HW2 3390   4.280   3.726   6.130
  831SOL     OW 3391   6.002   0.303   4.257
  831SOL    HW1 3392   6.002   0.210   4.295
  831SOL    HW2 3393   6.076   0.311   4.190
  832SOL     OW 3394   2.079   1.504   5.750
  832SOL    HW1 3395   2.026   1.544   5.676
  832SOL    HW2 3396   2.096   1.407   5.731
  833SOL     OW 3397   0.859   0.519   5.713
  833SOL    HW1 3398   0.764   0.503   5.685
  833SOL    HW2 3399   0.921   0.486   5.642
  834SOL     OW 3400   3.564   4.590   5.973
  834SOL    HW1 3401   3.549   4.608   6.070
  834SOL    HW2 3402   3.604   4.499   5.962
  835SOL     OW 3403   4.767   1.143   3.312
  835SOL    HW1 3404   4.674   1.170   3.289
  835SOL    HW2 3405   4.768   1.096   3.400
  836SOL     OW 3406   2.356   1.043   6.653
  836SOL    HW1 3407   2.441   1.020   6.606
  836SOL    HW2 3408   2.285   1.063   6.585
  837SOL     OW 3409   4.230   1.677   4.625
  837SOL    HW1 3410   4.201   1.649   4.716
  837SOL    HW2 3411   4.330   1.685   4.622
  838SOL     OW 3412   0.913   5.889   1.999
  838SOL    HW1 3413   0.997   5.908   1.948
  838SOL    HW2 3414   0.876   5.800   1.971
  839SOL     OW 3415   3.422   1.425   1.842
  839SOL    HW1 3416   3.359   1.474   1.782
  839SOL    HW2 3417   3.371   1.386   1.919
  840SOL     OW 3418   0.429   1.385   5.715
  840SOL    HW1 3419   0.463   1.297   5.749
  840SOL    HW2 3420   0.336   1.400   5.748
  841SOL     OW 3421   0.224   3.303   0.917
  841SOL    HW1 3422   0.197   3.380   0.974
  841SOL    HW2 3423   0.318   3.315   0.885
  842SOL     OW 3424   3.397   5.185   3.923
  842SOL    HW1 3425   3.326   5.202   3.855
  842SOL    HW2 3426   3.390   5.253   3.996
  843SOL     OW 3427   6.898   3.992   1.757
  843SOL    HW1 3428   6.970   3.988   1.826
  843SOL    HW2 3429   6.885   3.901   1.717
  844SOL     OW 3430   5.738   4.887   6.723
  844SOL    HW1 3431   5.836   4.872   6.710
  844SOL    HW2 3432   5.715   4.874   6.819
  845SOL     OW 3433   1.573   5.248   5.450
  845SOL    HW1 3434   1.516   5.324   5.480
  845SOL    HW2 3435   1.669   5.275   5.451
  846SOL     OW 3436   4.427   2.680   6.956
  846SOL    HW1 3437   4.378   2.751   6.906
  846SOL    HW2 3438   4.438   2.599   6.897
  847SOL     OW 3439   5.301   4.003   2.209
  847SOL    HW1 3440   5.289   4.019   2.111
  847SOL    HW2 3441   5.386   3.951   2.224
  848SOL     OW 3442   6.308   0.042   5.192
  848SOL    HW1 3443   6.319   0.127   5.140
  848SOL    HW2 3444   6.215   0.038   5.229
  849SOL     OW 3445   1.035   5.813   4.076
  849SOL    HW1 3446   1.116   5.816   4.134
  849SOL    HW2 3447   0.972   5.886   4.103
  850SOL     OW 3448   4.194   0.653   3.334
  850SOL    HW1 3449   4.143   0.662   3.420
  850SOL    HW2 3450   4.288   0.685   3.348
  851SOL     OW 3451   6.905   0.705   5.740
  851SOL    HW1 3452   6.815   0.733   5.708
  851SOL    HW2 3453   6.939   0.771   5.807
  852SOL     OW 3454   3.005   4.454   5.567
  852SOL    HW1 3455   2.968   4.385   5.629
  852SOL    HW2 3456   3.062   4.518   5.619
  853SOL     OW 3457   0.731   3.906   0.523
  853SOL    HW1 3458   0.676   3.824   0.539
  853SOL    HW2 3459   0.710   3.943   0.433
  854SOL     OW 3460   6.445   4.871   1.481
  854SOL    HW1 3461   6.511   4.921   1.425
  854SOL    HW2 3462   6.435   4.778   1.445
  855SOL     OW 3463   5.390   0.360   0.552
  855SOL    HW1 3464   5.477   0.410   0.559
  855SOL    HW2 3465   5.327   0.412   0.495
  856SOL     OW 3466   1.190   0.447   4.760
  856SOL    HW1 3467   1.210   0.396   4.844
  856SOL    HW2 3468   1.203   0.544   4.775
  857SOL     OW 3469   5.674   3.362   1.545
  857SOL    HW1 3470   5.646   3.439   1.488
  857SOL    HW2 3471   5.594   3.306   1.567
  858SOL     OW 3472   3.649   3.465   1.787
  858SOL    HW1 3473   3.611   3.419   1.867
  858SOL    HW2 3474   3.746   3.441   1.777
  859SOL     OW 3475   6.750   4.263   0.945
  859SOL    HW1 3476   6.701   4.328   1.004
  859SOL    HW2 3477   6.818   4.312   0.891
  860SOL     OW 3478   1.808   4.547   6.887
  860SOL    HW1 3479   1.869   4.514   6.815
  860SOL    HW2 3480   1.854   4.542   6.976
  861SOL     OW 3481   3.420   4.658   5.747
  861SOL    HW1 3482   3.483   4.625   5.818
  861SOL    HW2 3483   3.472   4.681   5.664
  862SOL     OW 3484   4.697   4.226   3.016
  862SOL    HW1 3485   4.670   4.308   2.966
  862SOL    HW2 3486   4.724   4.250   3.109
  863SOL     OW 3487   5.861   2.174   1.166
  863SOL    HW1 3488   5.813   2.193   1.252
  863SOL    HW2 3489   5.808   2.211   1.089
  864SOL     OW 3490   6.920   4.978   3.363
  864SOL    HW1 3491   6.853   4.989   3.437
  864SOL    HW2 3492   6.872   4.950   3.279
  865SOL     OW 3493   2.065   0.709   3.719
  865SOL    HW1 3494   2.131   0.734   3.790
  865SOL    HW2 3495   1.983   0.671   3.761
  866SOL     OW 3496   4.870   1.176   1.147
  866SOL    HW1 3497   4.777   1.175   1.184
  866SOL    HW2 3498   4.886   1.091   1.096
  867SOL     OW 3499   2.411   1.599   6.524
  867SOL    HW1 3500   2.507   1.629   6.519
  867SOL    HW2 3501   2.371   1.629   6.610
  868SOL     OW 3502   5.537   1.934   3.369
  868SOL    HW1 3503   5.492   1.869   3.430
  868SOL    HW2 3504   5.616   1.891   3.326
  869SOL     OW 3505   6.519   3.878   1.370
  869SOL    HW1 3506   6.457   3.948   1.333
  869SOL    HW2 3507   6.518   3.798   1.310
  870SOL     OW 3508   6.629   2.337   0.128
  870SOL    HW1 3509   6.716   2.371   0.164
  870SOL    HW2 3510   6.553   2.381   0.176
  871SOL     OW 3511   5.805   4.297   0.672
  871SOL    HW1 3512   5.755   4.247   0.602
  871SOL    HW2 3513   5.741   4.350   0.727
  872SOL     OW 3514   0.073   2.074   1.802
  872SOL    HW1 3515   0.123   2.094   1.886
  872SOL    HW2 3516   6.998   2.097   1.815
  873SOL     OW 3517   3.296   6.730   4.709
  873SOL    HW1 3518   3.298   6.771   4.617
  873SOL    HW2 3519   3.283   6.632   4.702
  874SOL     OW 3520   0.258   4.172   6.704
  874SOL    HW1 3521   0.284   4.250   6.647
  874SOL    HW2 3522   0.208   4.204   6.784
  875SOL     OW 3523   6.044   5.406   6.171
  875SOL    HW1 3524   5.959   5.400   6.118
  875SOL    HW2 3525   6.029   5.466   6.250
  876SOL     OW 3526   1.642   2.006   1.317
  876SOL    HW1 3527   1.730   1.959   1.326
  876SOL    HW2 3528   1.627   2.064   1.398
  877SOL     OW 3529   5.100   5.536   0.195
  877SOL    HW1 3530   5.055   5.454   0.159
  877SOL    HW2 3531   5.063   5.617   0.149
  878SOL     OW 3532   3.765   2.727   0.906
  878SOL    HW1 3533   3.786   2.740   0.809
  878SOL    HW2 3534   3.672   2.759   0.924
  879SOL     OW 3535   4.705   2.752   2.952
  879SOL    HW1 3536   4.633   2.748   3.022
  879SOL    HW2 3537   4.752   2.665   2.947
  880SOL     OW 3538   4.331   5.563   1.698
  880SOL    HW1 3539   4.415   5.614   1.719
  880SOL    HW2 3540   4.282   5.610   1.625
  881SOL     OW 3541   5.177   4.952   3.439
  881SOL    HW1 3542   5.183   4.908   3.350
  881SOL    HW2 3543   5.081   4.962   3.466
  882SOL     OW 3544   0.579   2.179   4.465
  882SOL    HW1 3545   0.557   2.110   4.396
  882SOL    HW2 3546   0.633   2.138   4.538
  883SOL     OW 3547   3.078   4.786   0.302
  883SOL    HW1 3548   3.177   4.779   0.297
  883SOL    HW2 3549   3.052   4.879   0.327
  884SOL     OW 3550   4.047   4.073   1.599
  884SOL    HW1 3551   3.985   4.049   1.673
  884SOL    HW2 3552   4.024   4.164   1.563
  885SOL     OW 3553   4.903   5.814   5.306
  885SOL    HW1 3554   4.945   5.901   5.279
  885SOL    HW2 3555   4.839   5.785   5.236
  886SOL     OW 3556   4.115   2.130   6.454
  886SOL    HW1 3557   4.068   2.136   6.366
  886SOL    HW2 3558   4.189   2.063   6.447
  887SOL     OW 3559   5.874   5.696   4.952
  887SOL    HW1 3560   5.899   5.786   4.986
  887SOL    HW2 3561   5.793   5.663   5.001
  888SOL     OW 3562   6.174   6.930   3.592
  888SOL    HW1 3563   6.210   6.978   3.672
  888SOL    HW2 3564   6.243   6.865   3.559
  889SOL     OW 3565   0.514   0.261   4.762
  889SOL    HW1 3566   0.461   0.342   4.737
  889SOL    HW2 3567   0.462   0.179   4.738
  890SOL     OW 3568   1.523   4.062   2.167
  890SOL    HW1 3569   1.617   4.095   2.156
  890SOL    HW2 3570   1.467   4.097   2.092
  891SOL     OW 3571   5.661   3.794   6.497
  891SOL    HW1 3572   5.681   3.698   6.515
  891SOL    HW2 3573   5.620   3.804   6.406
  892SOL     OW 3574   2.164   5.701   1.979
  892SOL    HW1 3575   2.233   5.698   1.906
  892SOL    HW2 3576   2.128   5.793   1.986
  893SOL     OW 3577   2.228   0.244   2.069
  893SOL    HW1 3578   2.226   0.213   2.164
  893SOL    HW2 3579   2.298   0.193   2.018
  894SOL     OW 3580   1.279   5.620   4.555
  894SOL    HW1 3581   1.360   5.565   4.572
  894SOL    HW2 3582   1.242   5.597   4.465
  895SOL     OW 3583   2.459   0.684   4.541
  895SOL    HW1 3584   2.416   0.596   4.518
  895SOL    HW2 3585   2.548   0.690   4.495
  896SOL     OW 3586   5.209   6.676   3.740
  896SOL    HW1 3587   5.205   6.681   3.840
  896SOL    HW2 3588   5.269   6.601   3.713
  897SOL     OW 3589   5.206   1.481   6.158
  897SOL    HW1 3590   5.157   1.535   6.090
  897SOL    HW2 3591   5.289   1.443   6.117
  898SOL     OW 3592   5.537   6.616   3.536
  898SOL    HW1 3593   5.540   6.589   3.440
  898SOL    HW2 3594   5.557   6.714   3.544
  899SOL     OW 3595   1.592   4.434   0.109
  899SOL    HW1 3596   1.674   4.432   0.052
  899SOL    HW2 3597   1.563   4.341   0.129
  900SOL     OW 3598   0.314   5.379   3.395
  900SOL    HW1 3599   0.306   5.424   3.306
  900SOL    HW2 3600   0.223   5.348   3.425
  901SOL     OW 3601   5.583   1.869   4.000
  901SOL    HW1 3602   5.564   1.816   3.917
  901SOL    HW2 3603   5.502   1.869   4.059
  902SOL     OW 3604   1.078   6.613   0.346
  902SOL    HW1 3605   1.161   6.584   0.394
  902SOL    HW2 3606   1.101   6.685   0.280
  903SOL     OW 3607   0.707   5.016   6.454
  903SOL    HW1 3608   0.722   4.920   6.477
  903SOL    HW2 3609   0.688   5.025   6.356
  904SOL     OW 3610   2.140   1.256   4.278
  904SOL    HW1 3611   2.149   1.290   4.184
  904SOL    HW2 3612   2.162   1.330   4.342
  905SOL     OW 3613   6.326   2.879   4.108
  905SOL    HW1 3614   6.323   2.792   4.058
  905SOL    HW2 3615   6.247   2.934   4.083
  906SOL     OW 3616   6.365   4.015   5.634
  906SOL    HW1 3617   6.385   4.055   5.545
  906SOL    HW2 3618   6.294   4.069   5.680
  907SOL     OW 3619   0.420   3.314   2.325
  907SOL    HW1 3620   0.424   3.223   2.284
  907SOL    HW2 3621   0.400   3.307   2.423
  908SOL     OW 3622   2.875   1.275   3.935
  908SOL    HW1 3623   2.832   1.207   3.875
  908SOL    HW2 3624   2.971   1.286   3.908
  909SOL     OW 3625   3.940   6.476   1.339
  909SOL    HW1 3626   4.015   6.421   1.303
  909SOL    HW2 3627   3.884   6.510   1.263
  910SOL     OW 3628   1.967   1.367   1.757
  910SOL    HW1 3629   1.983   1.397   1.851
  910SOL    HW2 3630   1.878   1.401   1.726
  911SOL     OW 3631   0.503   3.243   0.901
  911SOL    HW1 3632   0.539   3.203   0.986
  911SOL    HW2 3633   0.576   3.247   0.833
  912SOL     OW 3634   1.510   0.737   6.706
  912SOL    HW1 3635   1.494   0.734   6.804
  912SOL    HW2 3636   1.435   0.692   6.658
  913SOL     OW 3637   2.215   1.440   2.628
  913SOL    HW1 3638   2.134   1.478   2.583
  913SOL    HW2 3639   2.258   1.511   2.684
  914SOL     OW 3640   2.824   5.824   2.000
  914SOL    HW1 3641   2.858   5.800   1.910
  914SOL    HW2 3642   2.724   5.832   1.997
  915SOL     OW 3643   1.955   2.207   0.716
  915SOL    HW1 3644   1.924   2.258   0.795
  915SOL    HW2 3645   1.978   2.113   0.743
  916SOL     OW 3646   1.016   3.147   2.445
  916SOL    HW1 3647   1.092   3.089   2.417
  916SOL    HW2 3648   1.027   3.171   2.542
  917SOL     OW 3649   4.052   0.816   6.528
  917SOL    HW1 3650   4.113   0.857   6.596
  917SOL    HW2 3651   4.104   0.796   6.444
  918SOL     OW 3652   0.200   2.001   4.928
  918SOL    HW1 3653   0.191   1.911   4.971
  918SOL    HW2 3654   0.275   2.051   4.972
  919SOL     OW 3655   1.637   0.432   0.970
  919SOL    HW1 3656   1.720   0.442   1.025
  919SOL    HW2 3657   1.602   0.339   0.978
  920SOL     OW 3658   2.055   1.196   3.008
  920SOL    HW1 3659   2.099   1.198   2.918
  920SOL    HW2 3660   1.968   1.245   3.003
  921SOL     OW 3661   3.633   4.216   0.632
  921SOL    HW1 3662   3.549   4.178   0.592
  921SOL    HW2 3663   3.660   4.161   0.711
  922SOL     OW 3664   2.659   5.943   6.884
  922SOL    HW1 3665   2.621   5.904   6.968
  922SOL    HW2 3666   2.715   6.022   6.906
  923SOL     OW 3667   4.072   1.249   0.017
  923SOL    HW1 3668   3.983   1.238   0.062
  923SOL    HW2 3669   4.140   1.279   0.084
  924SOL     OW 3670   6.358   5.037   2.539
  924SOL    HW1 3671   6.306   5.112   2.578
  924SOL    HW2 3672   6.436   5.015   2.598
  925SOL     OW 3673   0.007   1.772   2.410
  925SOL    HW1 3674   0.088   1.807   2.363
  925SOL    HW2 3675   6.949   1.827   2.384
  926SOL     OW 3676   3.607   5.680   1.187
  926SOL    HW1 3677   3.560   5.596   1.213
  926SOL    HW2 3678   3.615   5.740   1.266
  927SOL     OW 3679   4.668   5.655   4.789
  927SOL    HW1 3680   4.766   5.645   4.772
  927SOL    HW2 3681   4.654   5.691   4.881
  928SOL     OW 3682   0.392   1.416   1.561
  928SOL    HW1 3683   0.427   1.483   1.627
  928SOL    HW2 3684   0.374   1.330   1.607
  929SOL     OW 3685   6.829   2.251   2.413
  929SOL    HW1 3686   6.789   2.246   2.504
  929SOL    HW2 3687   6.779   2.319   2.359
  930SOL     OW 3688   5.991   5.180   2.093
  930SOL    HW1 3689   6.021   5.112   2.160
  930SOL    HW2 3690   6.055   5.257   2.093
  931SOL     OW 3691   1.074   3.003   1.653
  931SOL    HW1 3692   0.991   2.992   1.707
  931SOL    HW2 3693   1.117   2.914   1.638
  932SOL     OW 3694   4.824   5.822   1.499
  932SOL    HW1 3695   4.816   5.836   1.400
  932SOL    HW2 3696   4.852   5.907   1.542
  933SOL     OW 3697   1.087   6.526   3.083
  933SOL    HW1 3698   1.106   6.517   2.985
  933SOL    HW2 3699   1.078   6.435   3.124
  934SOL     OW 3700   3.189   1.086   5.609
  934SOL    HW1 3701   3.105   1.135   5.584
  934SOL    HW2 3702   3.257   1.099   5.537
  935SOL     OW 3703   1.573   4.181   4.544
  935SOL    HW1 3704   1.548   4.261   4.600
  935SOL    HW2 3705   1.614   4.111   4.603
  936SOL     OW 3706   1.278   1.552   1.746
  936SOL    HW1 3707   1.309   1.471   1.695
  936SOL    HW2 3708   1.308   1.634   1.698
  937SOL     OW 3709   5.342   2.132   3.314
  937SOL    HW1 3710   5.382   2.042   3.333
  937SOL    HW2 3711   5.381   2.200   3.376
  938SOL     OW 3712   0.765   1.395   6.500
  938SOL    HW1 3713   0.808   1.348   6.423
  938SOL    HW2 3714   0.669   1.415   6.478
  939SOL     OW 3715   6.102   0.976   5.182
  939SOL    HW1 3716   6.165   0.929   5.120
  939SOL    HW2 3717   6.012   0.934   5.176
  940SOL     OW 3718   0.077   0.415   4.106
  940SOL    HW1 3719   0.076   0.355   4.026
  940SOL    HW2 3720   0.053   0.363   4.187
  941SOL     OW 3721   5.976   2.634   5.397
  941SOL    HW1 3722   5.922   2.589   5.326
  941SOL    HW2 3723   5.937   2.612   5.487
  942SOL     OW 3724   4.711   0.112   5.049
  942SOL    HW1 3725   4.636   0.128   5.113
  942SOL    HW2 3726   4.788   0.171   5.072
  943SOL     OW 3727   5.259   2.081   0.461
  943SOL    HW1 3728   5.273   2.155   0.395
  943SOL    HW2 3729   5.161   2.074   0.483
  944SOL     OW 3730   5.026   4.067   4.321
  944SOL    HW1 3731   5.019   4.117   4.407
  944SOL    HW2 3732   5.022   4.131   4.244
  945SOL     OW 3733   5.684   3.539   6.559
  945SOL    HW1 3734   5.609   3.472   6.561
  945SOL    HW2 3735   5.771   3.492   6.550
  946SOL     OW 3736   5.627   3.703   6.791
  946SOL    HW1 3737   5.530   3.729   6.786
  946SOL    HW2 3738   5.643   3.624   6.732
  947SOL     OW 3739   0.849   2.570   5.501
  947SOL    HW1 3740   0.948   2.554   5.500
  947SOL    HW2 3741   0.802   2.489   5.468
  948SOL     OW 3742   3.874   1.430   0.907
  948SOL    HW1 3743   3.808   1.359   0.931
  948SOL    HW2 3744   3.839   1.484   0.830
  949SOL     OW 3745   5.460   6.438   6.379
  949SOL    HW1 3746   5.491   6.389   6.298
  949SOL    HW2 3747   5.453   6.374   6.456
  950SOL     OW 3748   3.587   5.608   0.752
  950SOL    HW1 3749   3.509   5.599   0.814
  950SOL    HW2 3750   3.561   5.666   0.675
  951SOL     OW 3751   1.222   3.027   3.519
  951SOL    HW1 3752   1.263   3.106   3.564
  951SOL    HW2 3753   1.266   2.943   3.551
  952SOL     OW 3754   4.968   1.379   1.297
  952SOL    HW1 3755   4.997   1.474   1.281
  952SOL    HW2 3756   4.899   1.354   1.229
  953SOL     OW 3757   3.941   6.626   6.018
  953SOL    HW1 3758   4.015   6.559   6.011
  953SOL    HW2 3759   3.871   6.606   5.949
  954SOL     OW 3760   6.428   0.479   1.000
  954SOL    HW1 3761   6.524   0.503   1.015
  954SOL    HW2 3762   6.381   0.556   0.956
  955SOL     OW 3763   0.848   5.885   2.475
  955SOL    HW1 3764   0.863   5.973   2.430
  955SOL    HW2 3765   0.762   5.886   2.525
  956SOL     OW 3766   1.746   2.607   0.625
  956SOL    HW1 3767   1.787   2.520   0.596
  956SOL    HW2 3768   1.679   2.590   0.697
  957SOL     OW 3769   1.807   6.482   5.048
  957SOL    HW1 3770   1.834   6.386   5.057
  957SOL    HW2 3771   1.837   6.533   5.129
  958SOL     OW 3772   4.671   2.740   0.080
  958SOL    HW1 3773   4.588   2.716   0.030
  958SOL    HW2 3774   4.744   2.675   0.058
  959SOL     OW 3775   1.410   3.534   1.188
  959SOL    HW1 3776   1.474   3.495   1.121
  959SOL    HW2 3777   1.430   3.631   1.201
  960SOL     OW 3778   1.789   4.972   5.447
  960SOL    HW1 3779   1.746   4.905   5.507
  960SOL    HW2 3780   1.823   5.049   5.503
  961SOL     OW 3781   3.659   6.833   6.750
  961SOL    HW1 3782   3.565   6.848   6.719
  961SOL    HW2 3783   3.721   6.838   6.672
  962SOL     OW 3784   1.342   6.847   3.233
  962SOL    HW1 3785   1.354   6.945   3.213
  962SOL    HW2 3786   1.384   6.793   3.160
  963SOL     OW 3787   5.466   0.253   1.613
  963SOL    HW1 3788   5.492   0.157   1.601
  963SOL    HW2 3789   5.367   0.260   1.618
  964SOL     OW 3790   6.041   3.730   1.781
  964SOL    HW1 3791   6.021   3.730   1.879
  964SOL    HW2 3792   5.979   3.793   1.734
  965SOL     OW 3793   1.766   1.440   0.384
  965SOL    HW1 3794   1.852   1.394   0.404
  965SOL    HW2 3795   1.689   1.379   0.403
  966SOL     OW 3796   6.714   2.667   2.410
  966SOL    HW1 3797   6.784   2.720   2.361
  966SOL    HW2 3798   6.754   2.629   2.493
  967SOL     OW 3799   1.393   5.691   2.061
  967SOL    HW1 3800   1.294   5.691   2.044
  967SOL    HW2 3801   1.410   5.658   2.154
  968SOL     OW 3802   6.929   4.237   0.508
  968SOL    HW1 3803   7.021   4.198   0.514
  968SOL    HW2 3804   6.928   4.309   0.439
  969SOL     OW 3805   3.956   6.488   6.356
  969SOL    HW1 3806   4.030   6.555   6.349
  969SOL    HW2 3807   3.956   6.448   6.448
  970SOL     OW 3808   5.138   3.241   5.661
  970SOL    HW1 3809   5.178   3.282   5.579
  970SOL    HW2 3810   5.212   3.209   5.721
  971SOL     OW 3811   0.401   2.897   6.827
  971SOL    HW1 3812   0.345   2.878   6.746
  971SOL    HW2 3813   0.463   2.972   6.807
  972SOL     OW 3814   4.805   6.527   0.741
  972SOL    HW1 3815   4.730   6.532   0.807
  972SOL    HW2 3816   4.787   6.589   0.665
  973SOL     OW 3817   6.020   3.549   6.320
  973SOL    HW1 3818   6.072   3.480   6.269
  973SOL    HW2 3819   5.976   3.505   6.399
  974SOL     OW 3820   2.122   0.355   4.376
  974SOL    HW1 3821   2.054   0.428   4.384
  974SOL    HW2 3822   2.082   0.269   4.408
  975SOL     OW 3823   2.823   0.190   5.001
  975SOL    HW1 3824   2.835   0.169   5.099
  975SOL    HW2 3825   2.737   0.239   4.988
  976SOL     OW 3826   0.522   4.520   3.555
  976SOL    HW1 3827   0.522   4.458   3.634
  976SOL    HW2 3828   0.430   4.523   3.515
  977SOL     OW 3829   0.824   2.118   2.391
  977SOL    HW1 3830   0.776   2.079   2.469
  977SOL    HW2 3831   0.809   2.060   2.311
  978SOL     OW 3832   5.508   2.917   4.847
  978SOL    HW1 3833   5.416   2.940   4.815
  978SOL    HW2 3834   5.574   2.978   4.803
  979SOL     OW 3835   5.756   1.454   3.233
  979SOL    HW1 3836   5.854   1.439   3.244
  979SOL    HW2 3837   5.727   1.530   3.292
  980SOL     OW 3838   0.222   0.081   5.214
  980SOL    HW1 3839   0.235   0.120   5.305
  980SOL    HW2 3840   0.238   7.004   5.217
  981SOL     OW 3841   6.396   3.083   6.089
  981SOL    HW1 3842   6.386   3.124   6.180
  981SOL    HW2 3843   6.422   3.155   6.023
  982SOL     OW 3844   1.115   4.191   0.944
  982SOL    HW1 3845   1.164   4.170   0.859
  982SOL    HW2 3846   1.017   4.179   0.930
  983SOL     OW 3847   5.452   1.412   3.514
  983SOL    HW1 3848   5.460   1.370   3.424
  983SOL    HW2 3849   5.357   1.408   3.545
  984SOL     OW 3850   5.058   2.666   5.488
  984SOL    HW1 3851   5.111   2.724   5.426
  984SOL    HW2 3852   4.987   2.618   5.436
  985SOL     OW 3853   1.795   4.681   0.467
  985SOL    HW1 3854   1.707   4.703   0.426
  985SOL    HW2 3855   1.790   4.589   0.506
  986SOL     OW 3856   4.682   4.139   6.499
  986SOL    HW1 3857   4.758   4.186   6.454
  986SOL    HW2 3858   4.604   4.200   6.506
  987SOL     OW 3859   4.091   6.895   2.544
  987SOL    HW1 3860   4.067   6.980   2.592
  987SOL    HW2 3861   4.010   6.838   2.534
  988SOL     OW 3862   3.337   2.856   1.435
  988SOL    HW1 3863   3.284   2.915   1.496
  988SOL    HW2 3864   3.320   2.760   1.458
  989SOL     OW 3865   0.593   0.578   4.918
  989SOL    HW1 3866   0.660   0.505   4.907
  989SOL    HW2 3867   0.505   0.539   4.942
  990SOL     OW 3868   5.323   6.370   1.896
  990SOL    HW1 3869   5.343   6.306   1.822
  990SOL    HW2 3870   5.332   6.323   1.984
  991SOL     OW 3871   5.666   1.892   5.307
  991SOL    HW1 3872   5.713   1.813   5.269
  991SOL    HW2 3873   5.714   1.922   5.390
  992SOL     OW 3874   6.844   3.137   1.425
  992SOL    HW1 3875   6.814   3.080   1.502
  992SOL    HW2 3876   6.927   3.186   1.451
  993SOL     OW 3877   3.734   6.638   4.940
  993SOL    HW1 3878   3.700   6.563   4.883
  993SOL    HW2 3879   3.788   6.601   5.016
  994SOL     OW 3880   3.073   3.346   2.598
  994SOL    HW1 3881   3.053   3.259   2.644
  994SOL    HW2 3882   3.036   3.344   2.505
  995SOL     OW 3883   0.425   1.575   4.727
  995SOL    HW1 3884   0.357   1.581   4.800
  995SOL    HW2 3885   0.449   1.667   4.697
  996SOL     OW 3886   0.948   3.600   0.194
  996SOL    HW1 3887   1.014   3.585   0.267
  996SOL    HW2 3888   0.977   3.552   0.111
  997SOL     OW 3889   0.059   1.814   0.877
  997SOL    HW1 3890   0.045   1.829   0.975
  997SOL    HW2 3891   0.156   1.796   0.860
  998SOL     OW 3892   5.437   6.984   3.320
  998SOL    HW1 3893   5.406   6.897   3.282
  998SOL    HW2 3894   5.361   0.027   3.321
  999SOL     OW 3895   5.852   5.367   1.379
  999SOL    HW1 3896   5.906   5.287   1.354
  999SOL    HW2 3897   5.900   5.450   1.352
 1000SOL     OW 3898   4.759   2.137   4.825
 1000SOL    HW1 3899   4.741   2.191   4.908
 1000SOL    HW2 3900   4.759   2.197   4.745
 1001SOL     OW 3901   4.589   1.281   5.340
 1001SOL    HW1 3902   4.656   1.211   5.315
 1001SOL    HW2 3903   4.556   1.264   5.433
 1002SOL     OW 3904   0.433   1.681   0.473
 1002SOL    HW1 3905   0.390   1.626   0.402
 1002SOL    HW2 3906   0.386   1.667   0.560
 1003SOL     OW 3907   4.353   5.173   2.832
 1003SOL    HW1 3908   4.261   5.173   2.870
 1003SOL    HW2 3909   4.353   5.216   2.742
 1004SOL     OW 3910   5.834   5.864   0.246
 1004SOL    HW1 3911   5.838   5.944   0.186
 1004SOL    HW2 3912   5.893   5.792   0.210
 1005SOL     OW 3913   6.636   5.731   3.551
 1005SOL    HW1 3914   6.681   5.642   3.563
 1005SOL    HW2 3915   6.698   5.803   3.583
 1006SOL     OW 3916   2.136   4.621   6.843
 1006SOL    HW1 3917   2.216   4.608   6.785
 1006SOL    HW2 3918   2.090   4.533   6.856
 1007SOL     OW 3919   0.764   0.967   3.241
 1007SOL    HW1 3920   0.680   0.952   3.293
 1007SOL    HW2 3921   0.776   0.892   3.176
 1008SOL     OW 3922   2.858   2.246   5.110
 1008SOL    HW1 3923   2.837   2.159   5.154
 1008SOL    HW2 3924   2.956   2.251   5.091
 1009SOL     OW 3925   2.934   6.090   5.887
 1009SOL    HW1 3926   2.891   6.004   5.914
 1009SOL    HW2 3927   2.962   6.141   5.969
 1010SOL     OW 3928   5.265   7.007   5.340
 1010SOL    HW1 3929   5.219   7.018   5.252
 1010SOL    HW2 3930   5.349   0.039   5.341
 1011SOL     OW 3931   3.275   5.871   4.002
 1011SOL    HW1 3932   3.272   5.773   3.988
 1011SOL    HW2 3933   3.280   5.891   4.100
 1012SOL     OW 3934   3.504   5.819   0.602
 1012SOL    HW1 3935   3.410   5.853   0.593
 1012SOL    HW2 3936   3.555   5.879   0.663
 1013SOL     OW 3937   0.727   0.846   0.238
 1013SOL    HW1 3938   0.758   0.910   0.309
 1013SOL    HW2 3939   0.738   0.752   0.270
 1014SOL     OW 3940   5.994   6.827   5.901
 1014SOL    HW1 3941   6.087   6.857   5.923
 1014SOL    HW2 3942   5.998   6.738   5.856
 1015SOL     OW 3943   2.964   0.443   4.847
 1015SOL    HW1 3944   2.893   0.513   4.841
 1015SOL    HW2 3945   3.040   0.467   4.786
 1016SOL     OW 3946   4.416   2.574   1.758
 1016SOL    HW1 3947   4.448   2.668   1.771
 1016SOL    HW2 3948   4.379   2.539   1.844
 1017SOL     OW 3949   5.162   0.715   6.308
 1017SOL    HW1 3950   5.257   0.683   6.307
 1017SOL    HW2 3951   5.139   0.753   6.218
 1018SOL     OW 3952   1.484   2.527   1.445
 1018SOL    HW1 3953   1.562   2.504   1.504
 1018SOL    HW2 3954   1.470   2.626   1.445
 1019SOL     OW 3955   6.216   1.779   0.866
 1019SOL    HW1 3956   6.230   1.698   0.809
 1019SOL    HW2 3957   6.298   1.836   0.863
 1020SOL     OW 3958   3.474   2.114   1.730
 1020SOL    HW1 3959   3.542   2.185   1.749
 1020SOL    HW2 3960   3.435   2.082   1.817
 1021SOL     OW 3961   6.448   1.367   1.085
 1021SOL    HW1 3962   6.538   1.337   1.052
 1021SOL    HW2 3963   6.460   1.445   1.146
 1022SOL     OW 3964   3.027   2.734   6.856
 1022SOL    HW1 3965   3.033   2.676   6.775
 1022SOL    HW2 3966   3.018   2.676   6.937
 1023SOL     OW 3967   6.810   0.760   4.353
 1023SOL    HW1 3968   6.909   0.763   4.361
 1023SOL    HW2 3969   6.772   0.702   4.425
 1024SOL     OW 3970   6.427   2.226   4.253
 1024SOL    HW1 3971   6.405   2.233   4.155
 1024SOL    HW2 3972   6.405   2.134   4.286
 1025SOL     OW 3973   2.977   4.574   1.465
 1025SOL    HW1 3974   3.030   4.596   1.547
 1025SOL    HW2 3975   2.880   4.569   1.488
 1026SOL     OW 3976   0.582   2.545   6.294
 1026SOL    HW1 3977   0.632   2.627   6.321
 1026SOL    HW2 3978   0.491   2.571   6.260
 1027SOL     OW 3979   2.025   4.822   1.288
 1027SOL    HW1 3980   2.008   4.760   1.365
 1027SOL    HW2 3981   1.974   4.790   1.208
 1028SOL     OW 3982   6.885   5.115   0.382
 1028SOL    HW1 3983   6.797   5.155   0.407
 1028SOL    HW2 3984   6.949   5.125   0.459
 1029SOL     OW 3985   3.817   0.526   5.119
 1029SOL    HW1 3986   3.792   0.596   5.184
 1029SOL    HW2 3987   3.749   0.453   5.120
 1030SOL     OW 3988   4.022   4.831   5.170
 1030SOL    HW1 3989   3.942   4.877   5.208
 1030SOL    HW2 3990   4.054   4.762   5.234
 1031SOL     OW 3991   2.401   5.597   0.829
 1031SOL    HW1 3992   2.444   5.529   0.769
 1031SOL    HW2 3993   2.394   5.684   0.780
 1032SOL     OW 3994   1.015   1.315   4.732
 1032SOL    HW1 3995   1.073   1.391   4.761
 1032SOL    HW2 3996   0.958   1.343   4.654
 1033SOL     OW 3997   2.062   6.512   2.470
 1033SOL    HW1 3998   2.110   6.425   2.483
 1033SOL    HW2 3999   2.033   6.547   2.559
 1034SOL     OW 4000   1.110   0.283   1.448
 1034SOL    HW1 4001   1.196   0.260   1.492
 1034SOL    HW2 4002   1.086   0.212   1.382
 1035SOL     OW 4003   3.574   1.457   2.971
 1035SOL    HW1 4004   3.634   1.497   3.041
 1035SOL    HW2 4005   3.617   1.376   2.932
 1036SOL     OW 4006   4.725   6.752   0.038
 1036SOL    HW1 4007   4.666   6.681   0.076
 1036SOL    HW2 4008   4.820   6.731   0.059
 1037SOL     OW 4009   3.348   1.949   6.140
 1037SOL    HW1 4010   3.413   1.961   6.065
 1037SOL    HW2 4011   3.289   2.029   6.146
 1038SOL     OW 4012   2.369   1.849   5.227
 1038SOL    HW1 4013   2.287   1.831   5.172
 1038SOL    HW2 4014   2.346   1.909   5.304
 1039SOL     OW 4015   4.299   2.087   3.562
 1039SOL    HW1 4016   4.354   2.163   3.596
 1039SOL    HW2 4017   4.257   2.039   3.639
 1040SOL     OW 4018   5.905   3.724   4.561
 1040SOL    HW1 4019   5.999   3.734   4.529
 1040SOL    HW2 4020   5.850   3.680   4.491
 1041SOL     OW 4021   1.837   6.772   4.159
 1041SOL    HW1 4022   1.807   6.803   4.069
 1041SOL    HW2 4023   1.814   6.675   4.170
 1042SOL     OW 4024   4.518   3.760   0.774
 1042SOL    HW1 4025   4.546   3.850   0.742
 1042SOL    HW2 4026   4.480   3.768   0.866
 1043SOL     OW 4027   3.852   0.562   0.002
 1043SOL    HW1 4028   3.848   0.662   7.016
 1043SOL    HW2 4029   3.928   0.527   6.970
 1044SOL     OW 4030   4.079   3.132   2.678
 1044SOL    HW1 4031   4.151   3.064   2.666
 1044SOL    HW2 4032   4.118   3.224   2.675
 1045SOL     OW 4033   4.436   0.813   3.342
 1045SOL    HW1 4034   4.393   0.879   3.403
 1045SOL    HW2 4035   4.413   0.835   3.248
 1046SOL     OW 4036   4.022   0.689   2.387
 1046SOL    HW1 4037   4.092   0.618   2.399
 1046SOL    HW2 4038   3.984   0.714   2.476
 1047SOL     OW 4039   0.582   5.926   1.738
 1047SOL    HW1 4040   0.495   5.935   1.689
 1047SOL    HW2 4041   0.656   5.963   1.681
 1048SOL     OW 4042   6.475   4.099   5.352
 1048SOL    HW1 4043   6.553   4.060   5.303
 1048SOL    HW2 4044   6.390   4.060   5.317
 1049SOL     OW 4045   0.458   2.948   5.703
 1049SOL    HW1 4046   0.410   2.861   5.699
 1049SOL    HW2 4047   0.488   2.974   5.611
 1050SOL     OW 4048   2.656   0.885   0.438
 1050SOL    HW1 4049   2.608   0.947   0.500
 1050SOL    HW2 4050   2.670   0.930   0.350
 1051SOL     OW 4051   4.988   4.532   2.106
 1051SOL    HW1 4052   4.902   4.560   2.147
 1051SOL    HW2 4053   5.055   4.606   2.116
 1052SOL     OW 4054   3.673   0.170   3.988
 1052SOL    HW1 4055   3.750   0.140   4.045
 1052SOL    HW2 4056   3.687   0.266   3.961
 1053SOL     OW 4057   3.262   4.911   3.662
 1053SOL    HW1 4058   3.309   4.948   3.742
 1053SOL    HW2 4059   3.316   4.932   3.580
 1054SOL     OW 4060   4.498   5.898   5.138
 1054SOL    HW1 4061   4.508   5.895   5.238
 1054SOL    HW2 4062   4.401   5.890   5.114
 1055SOL     OW 4063   3.659   4.989   4.444
 1055SOL    HW1 4064   3.633   4.944   4.529
 1055SOL    HW2 4065   3.600   4.957   4.370
 1056SOL     OW 4066   2.419   5.944   6.440
 1056SOL    HW1 4067   2.434   5.991   6.527
 1056SOL    HW2 4068   2.448   5.849   6.447
 1057SOL     OW 4069   3.794   4.138   1.287
 1057SOL    HW1 4070   3.890   4.110   1.282
 1057SOL    HW2 4071   3.761   4.161   1.196
 1058SOL     OW 4072   2.966   6.536   2.209
 1058SOL    HW1 4073   3.002   6.443   2.207
 1058SOL    HW2 4074   2.866   6.534   2.205
 1059SOL     OW 4075   3.265   0.728   0.234
 1059SOL    HW1 4076   3.210   0.794   0.284
 1059SOL    HW2 4077   3.350   0.771   0.203
 1060SOL     OW 4078   2.914   1.103   4.138
 1060SOL    HW1 4079   2.933   1.036   4.067
 1060SOL    HW2 4080   2.862   1.179   4.099
 1061SOL     OW 4081   2.879   5.614   1.345
 1061SOL    HW1 4082   2.877   5.707   1.307
 1061SOL    HW2 4083   2.793   5.568   1.323
 1062SOL     OW 4084   4.973   4.417   4.369
 1062SOL    HW1 4085   4.960   4.485   4.442
 1062SOL    HW2 4086   5.005   4.332   4.409
 1063SOL     OW 4087   2.818   2.389   5.889
 1063SOL    HW1 4088   2.840   2.437   5.804
 1063SOL    HW2 4089   2.813   2.455   5.964
 1064SOL     OW 4090   0.637   2.965   1.704
 1064SOL    HW1 4091   0.664   2.994   1.613
 1064SOL    HW2 4092   0.562   2.899   1.697
 1065SOL     OW 4093   4.530   5.293   5.625
 1065SOL    HW1 4094   4.517   5.198   5.652
 1065SOL    HW2 4095   4.457   5.349   5.663
 1066SOL     OW 4096   4.736   6.995   3.933
 1066SOL    HW1 4097   4.736   0.013   4.025
 1066SOL    HW2 4098   4.643   6.976   3.904
 1067SOL     OW 4099   2.717   3.538   0.825
 1067SOL    HW1 4100   2.708   3.459   0.765
 1067SOL    HW2 4101   2.718   3.622   0.771
 1068SOL     OW 4102   0.470   4.711   1.034
 1068SOL    HW1 4103   0.515   4.632   1.075
 1068SOL    HW2 4104   0.537   4.784   1.019
 1069SOL     OW 4105   3.710   2.887   2.507
 1069SOL    HW1 4106   3.768   2.969   2.503
 1069SOL    HW2 4107   3.623   2.905   2.463
 1070SOL     OW 4108   2.459   6.805   0.778
 1070SOL    HW1 4109   2.511   6.728   0.813
 1070SOL    HW2 4110   2.362   6.792   0.797
 1071SOL     OW 4111   5.080   5.427   4.066
 1071SOL    HW1 4112   5.087   5.337   4.109
 1071SOL    HW2 4113   4.997   5.431   4.011
 1072SOL     OW 4114   3.732   5.255   3.112
 1072SOL    HW1 4115   3.702   5.249   3.016
 1072SOL    HW2 4116   3.826   5.290   3.115
 1073SOL     OW 4117   2.932   5.512   3.289
 1073SOL    HW1 4118   2.998   5.529   3.363
 1073SOL    HW2 4119   2.855   5.461   3.325
 1074SOL     OW 4120   1.990   5.420   2.940
 1074SOL    HW1 4121   2.039   5.499   2.976
 1074SOL    HW2 4122   2.054   5.345   2.922
 1075SOL     OW 4123   0.900   4.241   2.730
 1075SOL    HW1 4124   0.857   4.206   2.814
 1075SOL    HW2 4125   0.991   4.277   2.752
 1076SOL     OW 4126   6.462   4.482   2.924
 1076SOL    HW1 4127   6.490   4.387   2.908
 1076SOL    HW2 4128   6.400   4.511   2.852
 1077SOL     OW 4129   4.689   6.901   1.694
 1077SOL    HW1 4130   4.751   6.855   1.630
 1077SOL    HW2 4131   4.725   6.894   1.787
 1078SOL     OW 4132   0.231   2.932   1.989
 1078SOL    HW1 4133   0.168   2.863   2.025
 1078SOL    HW2 4134   0.181   2.995   1.929
 1079SOL     OW 4135   1.790   5.087   3.532
 1079SOL    HW1 4136   1.862   5.040   3.481
 1079SOL    HW2 4137   1.750   5.158   3.475
 1080SOL     OW 4138   1.755   5.466   4.005
 1080SOL    HW1 4139   1.816   5.474   4.084
 1080SOL    HW2 4140   1.797   5.408   3.936
 1081SOL     OW 4141   1.303   0.546   0.181
 1081SOL    HW1 4142   1.229   0.480   0.198
 1081SOL    HW2 4143   1.275   0.636   0.214
 1082SOL     OW 4144   2.232   0.254   1.202
 1082SOL    HW1 4145   2.169   0.280   1.129
 1082SOL    HW2 4146   2.295   0.330   1.219
 1083SOL     OW 4147   3.613   2.493   1.656
 1083SOL    HW1 4148   3.635   2.585   1.686
 1083SOL    HW2 4149   3.638   2.428   1.728
 1084SOL     OW 4150   6.809   3.759   0.687
 1084SOL    HW1 4151   6.902   3.722   0.694
 1084SOL    HW2 4152   6.747   3.689   0.653
 1085SOL     OW 4153   1.671   5.604   3.723
 1085SOL    HW1 4154   1.632   5.539   3.788
 1085SOL    HW2 4155   1.762   5.575   3.696
 1086SOL     OW 4156   2.768   5.587   2.593
 1086SOL    HW1 4157   2.820   5.562   2.676
 1086SOL    HW2 4158   2.798   5.528   2.518
 1087SOL     OW 4159   3.908   3.155   4.856
 1087SOL    HW1 4160   3.879   3.061   4.876
 1087SOL    HW2 4161   3.926   3.164   4.758
 1088SOL     OW 4162   0.089   4.489   2.563
 1088SOL    HW1 4163   0.135   4.548   2.497
 1088SOL    HW2 4164   0.004   4.532   2.594
 1089SOL     OW 4165   6.616   6.919   3.167
 1089SOL    HW1 4166   6.573   6.881   3.085
 1089SOL    HW2 4167   6.626   6.848   3.236
 1090SOL     OW 4168   1.640   2.332   6.705
 1090SOL    HW1 4169   1.620   2.275   6.625
 1090SOL    HW2 4170   1.582   2.303   6.781
 1091SOL     OW 4171   1.140   2.527   5.692
 1091SOL    HW1 4172   1.166   2.623   5.679
 1091SOL    HW2 4173   1.176   2.473   5.616
 1092SOL     OW 4174   2.303   4.696   1.184
 1092SOL    HW1 4175   2.219   4.734   1.145
 1092SOL    HW2 4176   2.281   4.617   1.241
 1093SOL     OW 4177   6.924   2.870   1.830
 1093SOL    HW1 4178   6.853   2.844   1.765
 1093SOL    HW2 4179   6.912   2.966   1.856
 1094SOL     OW 4180   0.943   6.764   2.329
 1094SOL    HW1 4181   0.900   6.753   2.239
 1094SOL    HW2 4182   0.916   6.688   2.388
 1095SOL     OW 4183   0.646   3.580   6.257
 1095SOL    HW1 4184   0.589   3.609   6.180
 1095SOL    HW2 4185   0.706   3.506   6.228
 1096SOL     OW 4186   3.709   3.067   1.500
 1096SOL    HW1 4187   3.674   3.160   1.508
 1096SOL    HW2 4188   3.795   3.069   1.448
 1097SOL     OW 4189   2.725   4.579   5.927
 1097SOL    HW1 4190   2.717   4.498   5.870
 1097SOL    HW2 4191   2.634   4.608   5.957
 1098SOL     OW 4192   3.811   0.476   2.495
 1098SOL    HW1 4193   3.782   0.559   2.543
 1098SOL    HW2 4194   3.737   0.409   2.497
 1099SOL     OW 4195   3.623   0.251   2.491
 1099SOL    HW1 4196   3.565   0.226   2.414
 1099SOL    HW2 4197   3.634   0.172   2.551
 1100SOL     OW 4198   6.534   1.344   6.854
 1100SOL    HW1 4199   6.592   1.407   6.802
 1100SOL    HW2 4200   6.592   1.280   6.904
 1101SOL     OW 4201   5.428   2.933   1.164
 1101SOL    HW1 4202   5.366   2.981   1.226
 1101SOL    HW2 4203   5.406   2.957   1.070
 1102SOL     OW 4204   0.104   3.719   3.948
 1102SOL    HW1 4205   0.176   3.778   3.984
 1102SOL    HW2 4206   0.125   3.624   3.970
 1103SOL     OW 4207   6.809   3.435   6.953
 1103SOL    HW1 4208   6.907   3.445   6.940
 1103SOL    HW2 4209   6.791   3.399   0.023
 1104SOL     OW 4210   2.467   5.440   5.728
 1104SOL    HW1 4211   2.387   5.499   5.744
 1104SOL    HW2 4212   2.490   5.439   5.631
 1105SOL     OW 4213   3.978   5.153   0.882
 1105SOL    HW1 4214   3.938   5.234   0.926
 1105SOL    HW2 4215   3.924   5.128   0.802
 1106SOL     OW 4216   1.285   1.236   6.698
 1106SOL    HW1 4217   1.255   1.177   6.773
 1106SOL    HW2 4218   1.240   1.325   6.706
 1107SOL     OW 4219   6.638   0.581   1.371
 1107SOL    HW1 4220   6.546   0.600   1.405
 1107SOL    HW2 4221   6.637   0.585   1.271
 1108SOL     OW 4222   1.666   1.152   6.930
 1108SOL    HW1 4223   1.597   1.219   6.957
 1108SOL    HW2 4224   1.714   1.120   7.012
 1109SOL     OW 4225   4.697   0.797   4.157
 1109SOL    HW1 4226   4.615   0.769   4.206
 1109SOL    HW2 4227   4.676   0.810   4.060
 1110SOL     OW 4228   3.314   2.967   2.904
 1110SOL    HW1 4229   3.322   2.936   2.810
 1110SOL    HW2 4230   3.217   2.975   2.928
 1111SOL     OW 4231   4.477   6.742   0.362
 1111SOL    HW1 4232   4.441   6.822   0.314
 1111SOL    HW2 4233   4.414   6.665   0.350
 1112SOL     OW 4234   1.152   1.249   2.598
 1112SOL    HW1 4235   1.110   1.172   2.647
 1112SOL    HW2 4236   1.113   1.335   2.631
 1113SOL     OW 4237   6.166   3.652   1.289
 1113SOL    HW1 4238   6.103   3.719   1.330
 1113SOL    HW2 4239   6.229   3.700   1.228
 1114SOL     OW 4240   5.839   1.231   5.369
 1114SOL    HW1 4241   5.915   1.167   5.382
 1114SOL    HW2 4242   5.868   1.323   5.395
 1115SOL     OW 4243   2.221   4.582   0.656
 1115SOL    HW1 4244   2.181   4.668   0.624
 1115SOL    HW2 4245   2.319   4.582   0.638
 1116SOL     OW 4246   3.532   6.345   6.644
 1116SOL    HW1 4247   3.552   6.330   6.548
 1116SOL    HW2 4248   3.437   6.375   6.654
 1117SOL     OW 4249   2.204   3.224   1.047
 1117SOL    HW1 4250   2.152   3.260   0.969
 1117SOL    HW2 4251   2.193   3.285   1.125
 1118SOL     OW 4252   1.770   3.245   1.571
 1118SOL    HW1 4253   1.767   3.340   1.540
 1118SOL    HW2 4254   1.821   3.240   1.657
 1119SOL     OW 4255   2.885   3.754   2.934
 1119SOL    HW1 4256   2.915   3.728   3.025
 1119SOL    HW2 4257   2.813   3.823   2.940
 1120SOL     OW 4258   4.313   0.984   3.946
 1120SOL    HW1 4259   4.406   1.016   3.926
 1120SOL    HW2 4260   4.314   0.884   3.955
 1121SOL     OW 4261   5.547   3.333   3.186
 1121SOL    HW1 4262   5.495   3.366   3.107
 1121SOL    HW2 4263   5.547   3.233   3.185
 1122SOL     OW 4264   4.660   5.274   6.233
 1122SOL    HW1 4265   4.691   5.339   6.164
 1122SOL    HW2 4266   4.723   5.275   6.310
 1123SOL     OW 4267   3.987   1.083   1.775
 1123SOL    HW1 4268   4.042   1.149   1.826
 1123SOL    HW2 4269   3.913   1.131   1.727
 1124SOL     OW 4270   1.543   5.245   4.352
 1124SOL    HW1 4271   1.607   5.315   4.384
 1124SOL    HW2 4272   1.549   5.236   4.253
 1125SOL     OW 4273   3.069   3.335   4.865
 1125SOL    HW1 4274   3.133   3.410   4.846
 1125SOL    HW2 4275   3.000   3.331   4.792
 1126SOL     OW 4276   6.563   0.329   2.256
 1126SOL    HW1 4277   6.605   0.354   2.169
 1126SOL    HW2 4278   6.625   0.268   2.306
 1127SOL     OW 4279   2.288   5.920   6.031
 1127SOL    HW1 4280   2.343   5.994   5.992
 1127SOL    HW2 4281   2.247   5.951   6.117
 1128SOL     OW 4282   2.182   2.397   4.480
 1128SOL    HW1 4283   2.233   2.368   4.562
 1128SOL    HW2 4284   2.174   2.320   4.417
 1129SOL     OW 4285   4.355   6.589   6.124
 1129SOL    HW1 4286   4.345   6.494   6.154
 1129SOL    HW2 4287   4.420   6.593   6.048
 1130SOL     OW 4288   0.378   5.623   5.704
 1130SOL    HW1 4289   0.308   5.633   5.634
 1130SOL    HW2 4290   0.378   5.529   5.738
 1131SOL     OW 4291   0.332   5.346   5.685
 1131SOL    HW1 4292   0.383   5.322   5.768
 1131SOL    HW2 4293   0.351   5.280   5.613
 1132SOL     OW 4294   5.658   6.238   4.771
 1132SOL    HW1 4295   5.605   6.323   4.770
 1132SOL    HW2 4296   5.665   6.204   4.864
 1133SOL     OW 4297   6.767   2.659   6.651
 1133SOL    HW1 4298   6.727   2.706   6.730
 1133SOL    HW2 4299   6.734   2.564   6.649
 1134SOL     OW 4300   6.879   2.320   5.951
 1134SOL    HW1 4301   6.936   2.377   5.892
 1134SOL    HW2 4302   6.926   2.304   6.038
 1135SOL     OW 4303   6.665   1.342   4.665
 1135SOL    HW1 4304   6.598   1.413   4.644
 1135SOL    HW2 4305   6.730   1.334   4.590
 1136SOL     OW 4306   3.421   5.315   4.190
 1136SOL    HW1 4307   3.408   5.411   4.214
 1136SOL    HW2 4308   3.516   5.301   4.162
 1137SOL     OW 4309   1.579   0.891   6.482
 1137SOL    HW1 4310   1.583   0.985   6.516
 1137SOL    HW2 4311   1.588   0.827   6.558
 1138SOL     OW 4312   1.037   3.878   5.813
 1138SOL    HW1 4313   0.972   3.810   5.779
 1138SOL    HW2 4314   1.002   3.969   5.795
 1139SOL     OW 4315   1.139   0.506   2.513
 1139SOL    HW1 4316   1.173   0.536   2.424
 1139SOL    HW2 4317   1.088   0.421   2.502
 1140SOL     OW 4318   3.575   2.100   3.360
 1140SOL    HW1 4319   3.556   2.118   3.263
 1140SOL    HW2 4320   3.673   2.109   3.376
 1141SOL     OW 4321   6.750   5.734   5.907
 1141SOL    HW1 4322   6.760   5.690   5.996
 1141SOL    HW2 4323   6.820   5.699   5.845
 1142SOL     OW 4324   0.120   0.537   4.594
 1142SOL    HW1 4325   0.086   0.454   4.550
 1142SOL    HW2 4326   0.215   0.524   4.622
 1143SOL     OW 4327   4.613   2.071   1.524
 1143SOL    HW1 4328   4.634   2.035   1.433
 1143SOL    HW2 4329   4.514   2.070   1.539
 1144SOL     OW 4330   0.775   6.262   4.894
 1144SOL    HW1 4331   0.759   6.361   4.897
 1144SOL    HW2 4332   0.791   6.228   4.987
 1145SOL     OW 4333   1.772   4.846   5.079
 1145SOL    HW1 4334   1.694   4.787   5.057
 1145SOL    HW2 4335   1.741   4.919   5.141
 1146SOL     OW 4336   5.739   1.690   1.275
 1146SOL    HW1 4337   5.812   1.624   1.257
 1146SOL    HW2 4338   5.760   1.776   1.229
 1147SOL     OW 4339   6.708   3.299   2.218
 1147SOL    HW1 4340   6.753   3.385   2.197
 1147SOL    HW2 4341   6.653   3.270   2.140
 1148SOL     OW 4342   5.480   0.924   6.437
 1148SOL    HW1 4343   5.505   0.997   6.373
 1148SOL    HW2 4344   5.519   0.838   6.405
 1149SOL     OW 4345   5.434   2.630   3.070
 1149SOL    HW1 4346   5.433   2.538   3.110
 1149SOL    HW2 4347   5.516   2.641   3.014
 1150SOL     OW 4348   1.368   5.396   5.580
 1150SOL    HW1 4349   1.335   5.312   5.623
 1150SOL    HW2 4350   1.293   5.440   5.531
 1151SOL     OW 4351   2.286   5.226   0.334
 1151SOL    HW1 4352   2.317   5.187   0.420
 1151SOL    HW2 4353   2.186   5.226   0.331
 1152SOL     OW 4354   0.770   1.015   3.817
 1152SOL    HW1 4355   0.784   1.062   3.730
 1152SOL    HW2 4356   0.700   1.062   3.871
 1153SOL     OW 4357   2.335   4.352   2.833
 1153SOL    HW1 4358   2.383   4.425   2.784
 1153SOL    HW2 4359   2.359   4.355   2.930
 1154SOL     OW 4360   1.447   4.068   2.452
 1154SOL    HW1 4361   1.486   4.027   2.369
 1154SOL    HW2 4362   1.358   4.025   2.471
 1155SOL     OW 4363   4.089   0.079   2.258
 1155SOL    HW1 4364   4.079   7.006   2.289
 1155SOL    HW2 4365   4.181   0.094   2.223
 1156SOL     OW 4366   1.664   1.078   4.082
 1156SOL    HW1 4367   1.578   1.098   4.129
 1156SOL    HW2 4368   1.730   1.152   4.099
 1157SOL     OW 4369   1.836   3.004   4.340
 1157SOL    HW1 4370   1.908   3.073   4.329
 1157SOL    HW2 4371   1.750   3.041   4.307
 1158SOL     OW 4372   4.337   5.930   5.978
 1158SOL    HW1 4373   4.327   5.976   6.066
 1158SOL    HW2 4374   4.313   5.994   5.905
 1159SOL     OW 4375   6.020   4.372   2.550
 1159SOL    HW1 4376   6.067   4.424   2.479
 1159SOL    HW2 4377   5.954   4.309   2.508
 1160SOL     OW 4378   2.586   3.108   1.270
 1160SOL    HW1 4379   2.680   3.139   1.278
 1160SOL    HW2 4380   2.553   3.123   1.176
 1161SOL     OW 4381   4.327   0.688   4.059
 1161SOL    HW1 4382   4.282   0.619   4.002
 1161SOL    HW2 4383   4.303   0.672   4.155
 1162SOL     OW 4384   3.581   5.044   1.445
 1162SOL    HW1 4385   3.507   5.110   1.438
 1162SOL    HW2 4386   3.649   5.076   1.510
 1163SOL     OW 4387   5.169   0.186   2.109
 1163SOL    HW1 4388   5.188   0.242   2.190
 1163SOL    HW2 4389   5.245   0.124   2.093
 1164SOL     OW 4390   6.532   3.957   4.777
 1164SOL    HW1 4391   6.604   3.904   4.821
 1164SOL    HW2 4392   6.454   3.897   4.758
 1165SOL     OW 4393   1.102   4.694   2.227
 1165SOL    HW1 4394   1.075   4.609   2.273
 1165SOL    HW2 4395   1.197   4.687   2.197
 1166SOL     OW 4396   3.402   1.577   6.664
 1166SOL    HW1 4397   3.474   1.624   6.613
 1166SOL    HW2 4398   3.351   1.644   6.719
 1167SOL     OW 4399   3.899   1.849   5.542
 1167SOL    HW1 4400   3.835   1.774   5.524
 1167SOL    HW2 4401   3.956   1.864   5.461
 1168SOL     OW 4402   5.878   0.438   3.319
 1168SOL    HW1 4403   5.925   0.350   3.317
 1168SOL    HW2 4404   5.842   0.455   3.411
 1169SOL     OW 4405   1.111   2.820   1.036
 1169SOL    HW1 4406   1.065   2.832   1.124
 1169SOL    HW2 4407   1.057   2.759   0.978
 1170SOL     OW 4408   2.715   0.878   1.136
 1170SOL    HW1 4409   2.747   0.888   1.041
 1170SOL    HW2 4410   2.619   0.904   1.142
 1171SOL     OW 4411   3.181   1.030   0.299
 1171SOL    HW1 4412   3.091   0.999   0.331
 1171SOL    HW2 4413   3.169   1.110   0.240
 1172SOL     OW 4414   3.379   3.642   5.250
 1172SOL    HW1 4415   3.307   3.710   5.260
 1172SOL    HW2 4416   3.465   3.678   5.287
 1173SOL     OW 4417   5.521   7.005   5.920
 1173SOL    HW1 4418   5.489   0.072   5.953
 1173SOL    HW2 4419   5.482   6.988   5.830
 1174SOL     OW 4420   3.706   5.718   6.542
 1174SOL    HW1 4421   3.734   5.796   6.486
 1174SOL    HW2 4422   3.616   5.687   6.512
 1175SOL     OW 4423   0.053   4.855   4.536
 1175SOL    HW1 4424   0.066   4.818   4.628
 1175SOL    HW2 4425   0.124   4.923   4.517
 1176SOL     OW 4426   6.169   2.673   1.124
 1176SOL    HW1 4427   6.144   2.586   1.165
 1176SOL    HW2 4428   6.161   2.746   1.192
 1177SOL     OW 4429   6.315   3.476   0.206
 1177SOL    HW1 4430   6.224   3.472   0.246
 1177SOL    HW2 4431   6.340   3.571   0.189
 1178SOL     OW 4432   5.382   4.338   2.655
 1178SOL    HW1 4433   5.458   4.321   2.717
 1178SOL    HW2 4434   5.399   4.294   2.567
 1179SOL     OW 4435   1.547   5.557   5.968
 1179SOL    HW1 4436   1.486   5.623   6.013
 1179SOL    HW2 4437   1.625   5.539   6.027
 1180SOL     OW 4438   1.875   0.601   3.871
 1180SOL    HW1 4439   1.795   0.631   3.924
 1180SOL    HW2 4440   1.849   0.523   3.815
 1181SOL     OW 4441   1.576   4.567   2.493
 1181SOL    HW1 4442   1.587   4.665   2.476
 1181SOL    HW2 4443   1.527   4.525   2.417
 1182SOL     OW 4444   1.825   4.056   4.052
 1182SOL    HW1 4445   1.867   4.124   4.112
 1182SOL    HW2 4446   1.894   4.019   3.990
 1183SOL     OW 4447   3.974   5.663   1.215
 1183SOL    HW1 4448   3.991   5.760   1.197
 1183SOL    HW2 4449   3.936   5.620   1.133
 1184SOL     OW 4450   3.400   2.729   6.517
 1184SOL    HW1 4451   3.488   2.777   6.513
 1184SOL    HW2 4452   3.404   2.660   6.589
 1185SOL     OW 4453   2.583   1.012   6.444
 1185SOL    HW1 4454   2.556   0.936   6.385
 1185SOL    HW2 4455   2.680   1.004   6.469
 1186SOL     OW 4456   3.689   1.141   5.054
 1186SOL    HW1 4457   3.720   1.112   5.145
 1186SOL    HW2 4458   3.684   1.061   4.994
 1187SOL     OW 4459   1.157   1.744   4.690
 1187SOL    HW1 4460   1.064   1.708   4.694
 1187SOL    HW2 4461   1.209   1.693   4.622
 1188SOL     OW 4462   1.826   0.608   5.490
 1188SOL    HW1 4463   1.858   0.703   5.489
 1188SOL    HW2 4464   1.899   0.548   5.522
 1189SOL     OW 4465   0.329   0.698   1.563
 1189SOL    HW1 4466   0.365   0.615   1.606
 1189SOL    HW2 4467   0.405   0.760   1.541
 1190SOL     OW 4468   4.005   5.521   1.969
 1190SOL    HW1 4469   4.026   5.582   2.046
 1190SOL    HW2 4470   3.962   5.574   1.895
 1191SOL     OW 4471   2.508   4.685   1.558
 1191SOL    HW1 4472   2.566   4.623   1.611
 1191SOL    HW2 4473   2.447   4.734   1.620
 1192SOL     OW 4474   3.799   5.222   2.820
 1192SOL    HW1 4475   3.822   5.278   2.741
 1192SOL    HW2 4476   3.872   5.157   2.839
 1193SOL     OW 4477   3.271   0.283   4.168
 1193SOL    HW1 4478   3.270   0.379   4.142
 1193SOL    HW2 4479   3.364   0.256   4.195
 1194SOL     OW 4480   6.111   1.683   1.889
 1194SOL    HW1 4481   6.021   1.708   1.923
 1194SOL    HW2 4482   6.167   1.649   1.964
 1195SOL     OW 4483   3.091   6.684   0.124
 1195SOL    HW1 4484   3.186   6.706   0.147
 1195SOL    HW2 4485   3.038   6.769   0.119
 1196SOL     OW 4486   1.298   5.542   3.393
 1196SOL    HW1 4487   1.246   5.622   3.422
 1196SOL    HW2 4488   1.246   5.459   3.413
 1197SOL     OW 4489   3.730   4.595   6.953
 1197SOL    HW1 4490   3.778   4.670   6.998
 1197SOL    HW2 4491   3.632   4.614   6.951
 1198SOL     OW 4492   3.681   0.725   2.519
 1198SOL    HW1 4493   3.621   0.664   2.571
 1198SOL    HW2 4494   3.713   0.799   2.577
 1199SOL     OW 4495   2.875   3.601   3.518
 1199SOL    HW1 4496   2.955   3.571   3.466
 1199SOL    HW2 4497   2.829   3.521   3.557
 1200SOL     OW 4498   4.948   3.112   1.444
 1200SOL    HW1 4499   4.898   3.129   1.529
 1200SOL    HW2 4500   4.941   3.015   1.420
 1201SOL     OW 4501   1.493   1.765   4.780
 1201SOL    HW1 4502   1.555   1.838   4.751
 1201SOL    HW2 4503   1.465   1.782   4.875
 1202SOL     OW 4504   6.393   0.137   4.832
 1202SOL    HW1 4505   6.326   0.066   4.814
 1202SOL    HW2 4506   6.480   0.095   4.860
 1203SOL     OW 4507   6.479   6.939   2.491
 1203SOL    HW1 4508   6.466   6.883   2.572
 1203SOL    HW2 4509   6.577   6.956   2.478
 1204SOL     OW 4510   1.393   0.242   0.216
 1204SOL    HW1 4511   1.412   0.203   0.127
 1204SOL    HW2 4512   1.296   0.262   0.224
 1205SOL     OW 4513   0.814   2.830   5.418
 1205SOL    HW1 4514   0.849   2.884   5.494
 1205SOL    HW2 4515   0.830   2.733   5.436
 1206SOL     OW 4516   0.004   1.391   4.259
 1206SOL    HW1 4517   0.020   1.307   4.207
 1206SOL    HW2 4518   0.089   1.419   4.303
 1207SOL     OW 4519   6.285   6.477   6.588
 1207SOL    HW1 4520   6.270   6.535   6.508
 1207SOL    HW2 4521   6.328   6.391   6.560
 1208SOL     OW 4522   3.757   3.553   2.974
 1208SOL    HW1 4523   3.825   3.557   3.047
 1208SOL    HW2 4524   3.686   3.622   2.990
 1209SOL     OW 4525   6.949   3.912   4.562
 1209SOL    HW1 4526   6.904   3.823   4.553
 1209SOL    HW2 4527   7.006   3.929   4.482
 1210SOL     OW 4528   2.370   0.090   2.820
 1210SOL    HW1 4529   2.292   0.152   2.815
 1210SOL    HW2 4530   2.421   0.093   2.734
 1211SOL     OW 4531   1.091   2.940   3.123
 1211SOL    HW1 4532   1.076   2.901   3.032
 1211SOL    HW2 4533   1.007   2.931   3.177
 1212SOL     OW 4534   1.220   4.906   3.523
 1212SOL    HW1 4535   1.252   4.840   3.591
 1212SOL    HW2 4536   1.127   4.934   3.545
 1213SOL     OW 4537   5.618   3.973   5.060
 1213SOL    HW1 4538   5.626   3.907   4.985
 1213SOL    HW2 4539   5.589   4.062   5.023
 1214SOL     OW 4540   1.746   1.718   1.613
 1214SOL    HW1 4541   1.803   1.800   1.621
 1214SOL    HW2 4542   1.653   1.739   1.643
 1215SOL     OW 4543   0.505   5.395   1.783
 1215SOL    HW1 4544   0.477   5.414   1.877
 1215SOL    HW2 4545   0.582   5.453   1.758
 1216SOL     OW 4546   2.307   0.197   1.470
 1216SOL    HW1 4547   2.282   0.230   1.379
 1216SOL    HW2 4548   2.271   0.258   1.540
 1217SOL     OW 4549   1.895   2.915   2.918
 1217SOL    HW1 4550   1.932   3.005   2.894
 1217SOL    HW2 4551   1.957   2.844   2.885
 1218SOL     OW 4552   0.724   3.377   3.426
 1218SOL    HW1 4553   0.688   3.365   3.518
 1218SOL    HW2 4554   0.659   3.340   3.359
 1219SOL     OW 4555   2.745   5.710   3.172
 1219SOL    HW1 4556   2.763   5.802   3.205
 1219SOL    HW2 4557   2.816   5.648   3.206
 1220SOL     OW 4558   6.606   4.603   2.269
 1220SOL    HW1 4559   6.554   4.519   2.286
 1220SOL    HW2 4560   6.685   4.607   2.331
 1221SOL     OW 4561   5.036   4.530   5.780
 1221SOL    HW1 4562   4.938   4.518   5.763
 1221SOL    HW2 4563   5.079   4.573   5.700
 1222SOL     OW 4564   6.691   4.549   1.550
 1222SOL    HW1 4565   6.730   4.462   1.520
 1222SOL    HW2 4566   6.763   4.606   1.590
 1223SOL     OW 4567   6.904   4.610   5.011
 1223SOL    HW1 4568   6.822   4.647   4.969
 1223SOL    HW2 4569   6.897   4.510   5.015
 1224SOL     OW 4570   3.889   4.695   1.086
 1224SOL    HW1 4571   3.896   4.753   1.005
 1224SOL    HW2 4572   3.807   4.638   1.080
 1225SOL     OW 4573   4.242   1.347   0.206
 1225SOL    HW1 4574   4.174   1.419   0.225
 1225SOL    HW2 4575   4.314   1.384   0.148
 1226SOL     OW 4576   5.864   5.764   0.927
 1226SOL    HW1 4577   5.952   5.793   0.965
 1226SOL    HW2 4578   5.816   5.706   0.994
 1227SOL     OW 4579   4.952   4.489   6.922
 1227SOL    HW1 4580   4.892   4.553   6.970
 1227SOL    HW2 4581   4.900   4.440   6.853
 1228SOL     OW 4582   3.812   4.016   4.054
 1228SOL    HW1 4583   3.794   3.945   3.985
 1228SOL    HW2 4584   3.758   4.098   4.032
 1229SOL     OW 4585   2.715   5.153   2.833
 1229SOL    HW1 4586   2.659   5.214   2.777
 1229SOL    HW2 4587   2.782   5.106   2.774
 1230SOL     OW 4588   4.180   4.538   0.828
 1230SOL    HW1 4589   4.192   4.463   0.764
 1230SOL    HW2 4590   4.180   4.625   0.778
 1231SOL     OW 4591   2.166   1.477   0.226
 1231SOL    HW1 4592   2.112   1.411   0.279
 1231SOL    HW2 4593   2.120   1.565   0.225
 1232SOL     OW 4594   2.363   2.040   5.501
 1232SOL    HW1 4595   2.379   2.135   5.474
 1232SOL    HW2 4596   2.438   2.008   5.558
 1233SOL     OW 4597   0.494   5.029   4.791
 1233SOL    HW1 4598   0.536   5.099   4.733
 1233SOL    HW2 4599   0.409   5.064   4.830
 1234SOL     OW 4600   6.153   4.386   6.804
 1234SOL    HW1 4601   6.243   4.392   6.846
 1234SOL    HW2 4602   6.084   4.419   6.869
 1235SOL     OW 4603   6.060   4.567   0.983
 1235SOL    HW1 4604   6.096   4.656   0.956
 1235SOL    HW2 4605   5.963   4.561   0.958
 1236SOL     OW 4606   0.933   1.010   2.991
 1236SOL    HW1 4607   1.002   1.071   3.027
 1236SOL    HW2 4608   0.928   1.019   2.892
 1237SOL     OW 4609   0.932   0.524   4.161
 1237SOL    HW1 4610   0.968   0.577   4.238
 1237SOL    HW2 4611   1.007   0.479   4.114
 1238SOL     OW 4612   0.523   0.688   3.922
 1238SOL    HW1 4613   0.597   0.632   3.959
 1238SOL    HW2 4614   0.435   0.653   3.954
 1239SOL     OW 4615   5.033   4.217   4.082
 1239SOL    HW1 4616   4.937   4.187   4.087
 1239SOL    HW2 4617   5.036   4.317   4.071
 1240SOL     OW 4618   0.286   3.564   0.736
 1240SOL    HW1 4619   0.341   3.530   0.659
 1240SOL    HW2 4620   0.341   3.561   0.820
 1241SOL     OW 4621   3.598   5.401   5.784
 1241SOL    HW1 4622   3.511   5.357   5.759
 1241SOL    HW2 4623   3.642   5.348   5.857
 1242SOL     OW 4624   1.896   5.234   0.700
 1242SOL    HW1 4625   1.894   5.261   0.796
 1242SOL    HW2 4626   1.968   5.284   0.652
 1243SOL     OW 4627   1.054   3.812   3.404
 1243SOL    HW1 4628   1.104   3.897   3.422
 1243SOL    HW2 4629   1.117   3.742   3.371
 1244SOL     OW 4630   6.502   6.660   4.802
 1244SOL    HW1 4631   6.557   6.685   4.881
 1244SOL    HW2 4632   6.555   6.600   4.742
 1245SOL     OW 4633   4.787   6.363   1.301
 1245SOL    HW1 4634   4.845   6.361   1.220
 1245SOL    HW2 4635   4.692   6.342   1.275
 1246SOL     OW 4636   5.907   2.114   1.695
 1246SOL    HW1 4637   5.928   2.017   1.711
 1246SOL    HW2 4638   5.923   2.136   1.599
 1247SOL     OW 4639   5.267   6.892   2.512
 1247SOL    HW1 4640   5.293   6.819   2.576
 1247SOL    HW2 4641   5.180   6.867   2.468
 1248SOL     OW 4642   0.508   6.933   4.659
 1248SOL    HW1 4643   0.447   6.860   4.627
 1248SOL    HW2 4644   0.493   6.948   4.757
 1249SOL     OW 4645   6.152   6.331   6.786
 1249SOL    HW1 4646   6.190   6.358   6.698
 1249SOL    HW2 4647   6.119   6.412   6.834
 1250SOL     OW 4648   0.313   4.275   4.853
 1250SOL    HW1 4649   0.255   4.193   4.849
 1250SOL    HW2 4650   0.396   4.254   4.905
 1251SOL     OW 4651   3.015   0.314   2.681
 1251SOL    HW1 4652   3.097   0.257   2.689
 1251SOL    HW2 4653   2.934   0.257   2.688
 1252SOL     OW 4654   2.394   5.268   6.421
 1252SOL    HW1 4655   2.368   5.285   6.516
 1252SOL    HW2 4656   2.493   5.274   6.411
 1253SOL     OW 4657   2.858   6.103   7.004
 1253SOL    HW1 4658   2.933   6.051   0.023
 1253SOL    HW2 4659   2.794   6.131   0.054
 1254SOL     OW 4660   6.392   1.604   3.815
 1254SOL    HW1 4661   6.377   1.629   3.911
 1254SOL    HW2 4662   6.317   1.640   3.760
 1255SOL     OW 4663   6.131   1.728   5.694
 1255SOL    HW1 4664   6.217   1.695   5.732
 1255SOL    HW2 4665   6.149   1.781   5.611
 1256SOL     OW 4666   7.015   5.638   4.849
 1256SOL    HW1 4667   6.964   5.621   4.933
 1256SOL    HW2 4668   0.045   5.556   4.824
 1257SOL     OW 4669   0.147   6.279   3.156
 1257SOL    HW1 4670   0.145   6.289   3.256
 1257SOL    HW2 4671   0.056   6.299   3.120
 1258SOL     OW 4672   4.164   5.446   6.524
 1258SOL    HW1 4673   4.145   5.444   6.623
 1258SOL    HW2 4674   4.183   5.540   6.496
 1259SOL     OW 4675   5.280   6.509   5.080
 1259SOL    HW1 4676   5.285   6.602   5.116
 1259SOL    HW2 4677   5.336   6.449   5.136
 1260SOL     OW 4678   3.118   1.346   0.672
 1260SOL    HW1 4679   3.063   1.301   0.602
 1260SOL    HW2 4680   3.148   1.278   0.739
 1261SOL     OW 4681   6.986   4.246   4.524
 1261SOL    HW1 4682   6.887   4.258   4.534
 1261SOL    HW2 4683   0.007   4.334   4.504
 1262SOL     OW 4684   3.921   5.602   1.684
 1262SOL    HW1 4685   3.910   5.547   1.602
 1262SOL    HW2 4686   3.831   5.616   1.727
 1263SOL     OW 4687   0.051   1.423   1.707
 1263SOL    HW1 4688   6.979   1.439   1.738
 1263SOL    HW2 4689   0.054   1.428   1.607
 1264SOL     OW 4690   6.476   2.397   4.831
 1264SOL    HW1 4691   6.423   2.388   4.747
 1264SOL    HW2 4692   6.568   2.430   4.810
 1265SOL     OW 4693   6.255   5.667   4.703
 1265SOL    HW1 4694   6.324   5.595   4.697
 1265SOL    HW2 4695   6.164   5.627   4.687
 1266SOL     OW 4696   3.318   0.764   3.836
 1266SOL    HW1 4697   3.376   0.783   3.916
 1266SOL    HW2 4698   3.281   0.672   3.843
 1267SOL     OW 4699   0.422   4.805   2.379
 1267SOL    HW1 4700   0.403   4.887   2.325
 1267SOL    HW2 4701   0.436   4.830   2.474
 1268SOL     OW 4702   5.921   4.360   6.956
 1268SOL    HW1 4703   5.831   4.402   6.947
 1268SOL    HW2 4704   5.956   4.374   0.027
 1269SOL     OW 4705   6.807   5.164   6.623
 1269SOL    HW1 4706   6.746   5.170   6.544
 1269SOL    HW2 4707   6.789   5.078   6.672
 1270SOL     OW 4708   1.316   1.796   4.046
 1270SOL    HW1 4709   1.307   1.761   4.139
 1270SOL    HW2 4710   1.410   1.828   4.030
 1271SOL     OW 4711   5.227   2.807   3.207
 1271SOL    HW1 4712   5.265   2.716   3.191
 1271SOL    HW2 4713   5.127   2.801   3.212
 1272SOL     OW 4714   5.754   6.452   0.091
 1272SOL    HW1 4715   5.811   6.491   0.164
 1272SOL    HW2 4716   5.667   6.501   0.086
 1273SOL     OW 4717   2.375   6.900   5.239
 1273SOL    HW1 4718   2.412   6.885   5.330
 1273SOL    HW2 4719   2.380   6.998   5.217
 1274SOL     OW 4720   5.992   2.242   2.301
 1274SOL    HW1 4721   5.969   2.321   2.245
 1274SOL    HW2 4722   6.066   2.265   2.363
 1275SOL     OW 4723   4.213   1.806   3.957
 1275SOL    HW1 4724   4.113   1.799   3.952
 1275SOL    HW2 4725   4.248   1.731   4.013
 1276SOL     OW 4726   6.258   6.868   2.349
 1276SOL    HW1 4727   6.228   6.923   2.271
 1276SOL    HW2 4728   6.338   6.911   2.391
 1277SOL     OW 4729   0.929   1.701   4.395
 1277SOL    HW1 4730   0.859   1.711   4.466
 1277SOL    HW2 4731   0.997   1.774   4.405
 1278SOL     OW 4732   2.865   1.388   5.576
 1278SOL    HW1 4733   2.768   1.402   5.559
 1278SOL    HW2 4734   2.900   1.319   5.511
 1279SOL     OW 4735   1.983   5.202   0.331
 1279SOL    HW1 4736   1.981   5.260   0.412
 1279SOL    HW2 4737   1.891   5.197   0.292
 1280SOL     OW 4738   1.260   6.177   3.026
 1280SOL    HW1 4739   1.289   6.254   2.969
 1280SOL    HW2 4740   1.282   6.091   2.981
 1281SOL     OW 4741   0.650   0.034   3.892
 1281SOL    HW1 4742   0.673   6.982   3.955
 1281SOL    HW2 4743   0.708   0.027   3.810
 1282SOL     OW 4744   1.139   6.468   2.800
 1282SOL    HW1 4745   1.096   6.379   2.785
 1282SOL    HW2 4746   1.069   6.538   2.810
 1283SOL     OW 4747   4.970   4.123   4.905
 1283SOL    HW1 4748   5.061   4.081   4.910
 1283SOL    HW2 4749   4.978   4.222   4.902
 1284SOL     OW 4750   3.111   1.767   3.018
 1284SOL    HW1 4751   3.206   1.779   3.047
 1284SOL    HW2 4752   3.052   1.759   3.099
 1285SOL     OW 4753   5.720   3.140   5.959
 1285SOL    HW1 4754   5.647   3.117   5.894
 1285SOL    HW2 4755   5.726   3.069   6.030
 1286SOL     OW 4756   6.075   6.080   1.590
 1286SOL    HW1 4757   6.002   6.052   1.528
 1286SOL    HW2 4758   6.096   6.177   1.574
 1287SOL     OW 4759   6.588   4.089   5.813
 1287SOL    HW1 4760   6.661   4.027   5.786
 1287SOL    HW2 4761   6.500   4.047   5.792
 1288SOL     OW 4762   6.388   3.090   3.896
 1288SOL    HW1 4763   6.465   3.026   3.910
 1288SOL    HW2 4764   6.304   3.046   3.926
 1289SOL     OW 4765   0.488   5.088   2.599
 1289SOL    HW1 4766   0.479   5.184   2.625
 1289SOL    HW2 4767   0.499   5.032   2.681
 1290SOL     OW 4768   0.651   0.374   1.084
 1290SOL    HW1 4769   0.645   0.287   1.134
 1290SOL    HW2 4770   0.740   0.416   1.101
 1291SOL     OW 4771   1.582   6.601   0.875
 1291SOL    HW1 4772   1.504   6.660   0.898
 1291SOL    HW2 4773   1.581   6.520   0.933
 1292SOL     OW 4774   0.919   6.035   6.624
 1292SOL    HW1 4775   1.003   6.054   6.573
 1292SOL    HW2 4776   0.872   6.120   6.646
 1293SOL     OW 4777   6.116   2.306   6.254
 1293SOL    HW1 4778   6.025   2.272   6.279
 1293SOL    HW2 4779   6.116   2.406   6.261
 1294SOL     OW 4780   0.595   1.350   3.513
 1294SOL    HW1 4781   0.634   1.383   3.427
 1294SOL    HW2 4782   0.510   1.302   3.495
 1295SOL     OW 4783   5.208   3.327   1.255
 1295SOL    HW1 4784   5.308   3.333   1.254
 1295SOL    HW2 4785   5.169   3.414   1.284
 1296SOL     OW 4786   3.600   2.224   0.177
 1296SOL    HW1 4787   3.555   2.240   0.265
 1296SOL    HW2 4788   3.531   2.214   0.105
 1297SOL     OW 4789   6.781   0.508   6.464
 1297SOL    HW1 4790   6.857   0.540   6.521
 1297SOL    HW2 4791   6.710   0.579   6.460
 1298SOL     OW 4792   6.580   2.472   3.734
 1298SOL    HW1 4793   6.639   2.457   3.654
 1298SOL    HW2 4794   6.567   2.385   3.782
 1299SOL     OW 4795   1.355   2.754   4.133
 1299SOL    HW1 4796   1.362   2.849   4.162
 1299SOL    HW2 4797   1.447   2.716   4.123
 1300SOL     OW 4798   3.911   3.539   2.087
 1300SOL    HW1 4799   3.998   3.535   2.039
 1300SOL    HW2 4800   3.871   3.447   2.092
 1301SOL     OW 4801   1.372   1.273   2.162
 1301SOL    HW1 4802   1.331   1.207   2.225
 1301SOL    HW2 4803   1.341   1.365   2.185
 1302SOL     OW 4804   2.648   6.288   5.377
 1302SOL    HW1 4805   2.660   6.275   5.278
 1302SOL    HW2 4806   2.694   6.214   5.425
 1303SOL     OW 4807   2.936   0.564   0.906
 1303SOL    HW1 4808   3.014   0.602   0.956
 1303SOL    HW2 4809   2.862   0.543   0.971
 1304SOL     OW 4810   3.747   1.321   6.183
 1304SOL    HW1 4811   3.825   1.265   6.209
 1304SOL    HW2 4812   3.683   1.327   6.260
 1305SOL     OW 4813   5.945   6.203   3.706
 1305SOL    HW1 4814   6.005   6.258   3.765
 1305SOL    HW2 4815   5.851   6.210   3.740
 1306SOL     OW 4816   1.267   5.281   4.740
 1306SOL    HW1 4817   1.259   5.237   4.830
 1306SOL    HW2 4818   1.176   5.311   4.710
 1307SOL     OW 4819   1.015   1.224   4.250
 1307SOL    HW1 4820   1.044   1.144   4.303
 1307SOL    HW2 4821   1.076   1.234   4.171
 1308SOL     OW 4822   4.454   6.022   3.346
 1308SOL    HW1 4823   4.450   6.119   3.324
 1308SOL    HW2 4824   4.367   5.993   3.386
 1309SOL     OW 4825   5.259   2.909   4.711
 1309SOL    HW1 4826   5.278   2.981   4.644
 1309SOL    HW2 4827   5.294   2.822   4.676
 1310SOL     OW 4828   5.434   3.863   5.344
 1310SOL    HW1 4829   5.530   3.878   5.365
 1310SOL    HW2 4830   5.383   3.948   5.358
 1311SOL     OW 4831   5.098   4.985   5.001
 1311SOL    HW1 4832   5.017   5.044   5.003
 1311SOL    HW2 4833   5.163   5.016   5.071
 1312SOL     OW 4834   6.427   0.059   1.604
 1312SOL    HW1 4835   6.404   0.082   1.698
 1312SOL    HW2 4836   6.381   6.997   1.576
 1313SOL     OW 4837   3.319   5.078   5.185
 1313SOL    HW1 4838   3.360   5.157   5.232
 1313SOL    HW2 4839   3.221   5.094   5.172
 1314SOL     OW 4840   6.366   1.332   5.868
 1314SOL    HW1 4841   6.267   1.341   5.874
 1314SOL    HW2 4842   6.407   1.421   5.844
 1315SOL     OW 4843   1.745   0.078   3.461
 1315SOL    HW1 4844   1.693   0.049   3.381
 1315SOL    HW2 4845   1.741   0.177   3.469
 1316SOL     OW 4846   3.627   6.367   3.026
 1316SOL    HW1 4847   3.683   6.301   2.976
 1316SOL    HW2 4848   3.618   6.339   3.122
 1317SOL     OW 4849   0.011   3.373   4.162
 1317SOL    HW1 4850   0.028   3.275   4.174
 1317SOL    HW2 4851   0.085   3.413   4.108
 1318SOL     OW 4852   1.177   6.324   1.567
 1318SOL    HW1 4853   1.143   6.314   1.474
 1318SOL    HW2 4854   1.248   6.255   1.584
 1319SOL     OW 4855   6.271   0.608   0.453
 1319SOL    HW1 4856   6.235   0.673   0.386
 1319SOL    HW2 4857   6.221   0.522   0.445
 1320SOL     OW 4858   5.177   5.708   4.894
 1320SOL    HW1 4859   5.157   5.675   4.987
 1320SOL    HW2 4860   5.272   5.687   4.871
 1321SOL     OW 4861   3.099   1.484   0.201
 1321SOL    HW1 4862   3.130   1.396   0.165
 1321SOL    HW2 4863   3.179   1.543   0.218
 1322SOL     OW 4864   4.973   1.946   6.244
 1322SOL    HW1 4865   5.068   1.936   6.213
 1322SOL    HW2 4866   4.912   1.926   6.167
 1323SOL     OW 4867   6.466   1.394   4.060
 1323SOL    HW1 4868   6.384   1.451   4.065
 1323SOL    HW2 4869   6.462   1.338   3.977
 1324SOL     OW 4870   1.309   2.765   0.573
 1324SOL    HW1 4871   1.393   2.731   0.531
 1324SOL    HW2 4872   1.263   2.826   0.509
 1325SOL     OW 4873   4.257   5.347   3.736
 1325SOL    HW1 4874   4.237   5.333   3.639
 1325SOL    HW2 4875   4.228   5.266   3.787
 1326SOL     OW 4876   5.569   4.105   4.466
 1326SOL    HW1 4877   5.635   4.079   4.396
 1326SOL    HW2 4878   5.480   4.124   4.423
 1327SOL     OW 4879   2.780   6.141   4.245
 1327SOL    HW1 4880   2.707   6.084   4.207
 1327SOL    HW2 4881   2.782   6.229   4.197
 1328SOL     OW 4882   2.411   1.453   1.198
 1328SOL    HW1 4883   2.476   1.478   1.270
 1328SOL    HW2 4884   2.418   1.518   1.123
 1329SOL     OW 4885   0.871   6.750   1.798
 1329SOL    HW1 4886   0.951   6.810   1.804
 1329SOL    HW2 4887   0.893   6.672   1.739
 1330SOL     OW 4888   4.441   6.234   0.957
 1330SOL    HW1 4889   4.410   6.140   0.946
 1330SOL    HW2 4890   4.368   6.297   0.929
 1331SOL     OW 4891   0.449   2.180   2.130
 1331SOL    HW1 4892   0.465   2.278   2.135
 1331SOL    HW2 4893   0.510   2.133   2.194
 1332SOL     OW 4894   4.184   1.888   1.367
 1332SOL    HW1 4895   4.153   1.932   1.451
 1332SOL    HW2 4896   4.258   1.824   1.387
 1333SOL     OW 4897   4.013   3.733   4.368
 1333SOL    HW1 4898   3.944   3.662   4.354
 1333SOL    HW2 4899   3.986   3.816   4.317
 1334SOL     OW 4900   0.984   3.201   3.657
 1334SOL    HW1 4901   1.080   3.221   3.634
 1334SOL    HW2 4902   0.967   3.224   3.753
 1335SOL     OW 4903   2.163   5.675   3.033
 1335SOL    HW1 4904   2.135   5.770   3.050
 1335SOL    HW2 4905   2.150   5.621   3.116
 1336SOL     OW 4906   0.167   0.522   5.327
 1336SOL    HW1 4907   0.195   0.595   5.265
 1336SOL    HW2 4908   0.132   0.562   5.412
 1337SOL     OW 4909   3.549   0.163   6.935
 1337SOL    HW1 4910   3.570   0.257   6.911
 1337SOL    HW2 4911   3.627   0.104   6.915
 1338SOL     OW 4912   2.984   5.179   1.289
 1338SOL    HW1 4913   3.006   5.220   1.200
 1338SOL    HW2 4914   2.975   5.080   1.278
 1339SOL     OW 4915   0.304   4.413   6.525
 1339SOL    HW1 4916   0.234   4.436   6.592
 1339SOL    HW2 4917   0.383   4.474   6.537
 1340SOL     OW 4918   1.965   1.254   6.157
 1340SOL    HW1 4919   1.950   1.206   6.244
 1340SOL    HW2 4920   1.974   1.187   6.083
 1341SOL     OW 4921   5.516   2.644   4.309
 1341SOL    HW1 4922   5.496   2.674   4.215
 1341SOL    HW2 4923   5.611   2.613   4.314
 1342SOL     OW 4924   0.786   6.701   1.344
 1342SOL    HW1 4925   0.773   6.688   1.442
 1342SOL    HW2 4926   0.871   6.752   1.328
 1343SOL     OW 4927   2.771   5.659   4.315
 1343SOL    HW1 4928   2.774   5.559   4.319
 1343SOL    HW2 4929   2.702   5.688   4.248
 1344SOL     OW 4930   5.149   1.622   3.049
 1344SOL    HW1 4931   5.076   1.643   2.984
 1344SOL    HW2 4932   5.133   1.531   3.088
 1345SOL     OW 4933   0.715   5.576   2.499
 1345SOL    HW1 4934   0.661   5.520   2.436
 1345SOL    HW2 4935   0.803   5.532   2.515
 1346SOL     OW 4936   0.251   1.261   3.378
 1346SOL    HW1 4937   0.240   1.360   3.386
 1346SOL    HW2 4938   0.186   1.226   3.311
 1347SOL     OW 4939   4.577   0.751   3.909
 1347SOL    HW1 4940   4.502   0.722   3.969
 1347SOL    HW2 4941   4.540   0.771   3.818
 1348SOL     OW 4942   4.495   5.864   4.559
 1348SOL    HW1 4943   4.442   5.878   4.475
 1348SOL    HW2 4944   4.545   5.777   4.553
 1349SOL     OW 4945   4.416   2.068   0.073
 1349SOL    HW1 4946   4.488   2.015   0.118
 1349SOL    HW2 4947   4.401   2.153   0.124
 1350SOL     OW 4948   3.077   0.903   5.089
 1350SOL    HW1 4949   3.000   0.933   5.034
 1350SOL    HW2 4950   3.146   0.976   5.092
 1351SOL     OW 4951   1.795   1.568   3.916
 1351SOL    HW1 4952   1.793   1.524   3.826
 1351SOL    HW2 4953   1.774   1.665   3.907
 1352SOL     OW 4954   0.914   6.359   4.013
 1352SOL    HW1 4955   0.992   6.382   3.955
 1352SOL    HW2 4956   0.891   6.263   4.000
 1353SOL     OW 4957   2.233   3.088   5.579
 1353SOL    HW1 4958   2.250   3.180   5.613
 1353SOL    HW2 4959   2.231   3.089   5.479
 1354SOL     OW 4960   0.376   6.941   0.109
 1354SOL    HW1 4961   0.293   6.972   0.156
 1354SOL    HW2 4962   0.401   6.850   0.143
 1355SOL     OW 4963   3.749   3.163   6.857
 1355SOL    HW1 4964   3.789   3.247   6.821
 1355SOL    HW2 4965   3.652   3.159   6.833
 1356SOL     OW 4966   3.163   2.987   1.615
 1356SOL    HW1 4967   3.178   2.968   1.712
 1356SOL    HW2 4968   3.066   2.998   1.597
 1357SOL     OW 4969   3.158   2.648   5.818
 1357SOL    HW1 4970   3.153   2.691   5.908
 1357SOL    HW2 4971   3.174   2.717   5.748
 1358SOL     OW 4972   1.679   3.861   6.021
 1358SOL    HW1 4973   1.727   3.932   5.969
 1358SOL    HW2 4974   1.741   3.820   6.087
 1359SOL     OW 4975   0.332   1.630   6.801
 1359SOL    HW1 4976   0.366   1.661   6.890
 1359SOL    HW2 4977   0.405   1.638   6.733
 1360SOL     OW 4978   3.162   3.198   4.019
 1360SOL    HW1 4979   3.102   3.274   4.046
 1360SOL    HW2 4980   3.251   3.235   3.993
 1361SOL     OW 4981   0.733   6.317   1.016
 1361SOL    HW1 4982   0.768   6.227   0.992
 1361SOL    HW2 4983   0.649   6.308   1.069
 1362SOL     OW 4984   3.231   1.829   6.987
 1362SOL    HW1 4985   3.304   1.780   0.011
 1362SOL    HW2 4986   3.143   1.797   7.020
 1363SOL     OW 4987   6.922   6.599   1.167
 1363SOL    HW1 4988   6.860   6.658   1.219
 1363SOL    HW2 4989   6.869   6.536   1.110
 1364SOL     OW 4990   0.948   3.658   0.878
 1364SOL    HW1 4991   0.889   3.737   0.891
 1364SOL    HW2 4992   1.019   3.680   0.811
 1365SOL     OW 4993   0.941   3.538   5.444
 1365SOL    HW1 4994   1.039   3.558   5.436
 1365SOL    HW2 4995   0.928   3.442   5.467
 1366SOL     OW 4996   3.702   0.441   1.474
 1366SOL    HW1 4997   3.701   0.527   1.422
 1366SOL    HW2 4998   3.751   0.371   1.421
 1367SOL     OW 4999   1.167   0.202   4.456
 1367SOL    HW1 5000   1.182   0.147   4.374
 1367SOL    HW2 5001   1.071   0.228   4.462
 1368SOL     OW 5002   1.352   6.181   4.969
 1368SOL    HW1 5003   1.354   6.280   4.982
 1368SOL    HW2 5004   1.377   6.135   5.054
 1369SOL     OW 5005   2.439   5.410   3.707
 1369SOL    HW1 5006   2.370   5.338   3.713
 1369SOL    HW2 5007   2.493   5.411   3.792
 1370SOL     OW 5008   0.001   2.622   3.263
 1370SOL    HW1 5009   0.069   2.556   3.231
 1370SOL    HW2 5010   0.041   2.680   3.334
 1371SOL     OW 5011   6.235   1.866   5.468
 1371SOL    HW1 5012   6.237   1.966   5.471
 1371SOL    HW2 5013   6.239   1.835   5.373
 1372SOL     OW 5014   5.967   2.725   1.413
 1372SOL    HW1 5015   5.907   2.652   1.378
 1372SOL    HW2 5016   6.057   2.687   1.433
 1373SOL     OW 5017   6.122   3.355   1.819
 1373SOL    HW1 5018   6.128   3.281   1.885
 1373SOL    HW2 5019   6.027   3.384   1.810
 1374SOL     OW 5020   3.932   3.029   1.979
 1374SOL    HW1 5021   3.926   2.955   2.046
 1374SOL    HW2 5022   3.919   2.993   1.887
 1375SOL     OW 5023   4.968   4.656   4.524
 1375SOL    HW1 5024   4.955   4.719   4.448
 1375SOL    HW2 5025   5.014   4.704   4.599
 1376SOL     OW 5026   3.268   4.312   5.473
 1376SOL    HW1 5027   3.241   4.216   5.468
 1376SOL    HW2 5028   3.294   4.334   5.567
 1377SOL     OW 5029   1.591   1.520   2.958
 1377SOL    HW1 5030   1.497   1.539   2.985
 1377SOL    HW2 5031   1.609   1.562   2.868
 1378SOL     OW 5032   5.113   2.221   4.318
 1378SOL    HW1 5033   5.068   2.181   4.398
 1378SOL    HW2 5034   5.193   2.167   4.294
 1379SOL     OW 5035   4.414   5.343   0.085
 1379SOL    HW1 5036   4.361   5.284   0.024
 1379SOL    HW2 5037   4.501   5.367   0.041
 1380SOL     OW 5038   0.141   6.153   3.575
 1380SOL    HW1 5039   0.112   6.210   3.499
 1380SOL    HW2 5040   0.198   6.078   3.542
 1381SOL     OW 5041   6.641   2.350   5.840
 1381SOL    HW1 5042   6.682   2.342   5.749
 1381SOL    HW2 5043   6.701   2.308   5.908
 1382SOL     OW 5044   4.404   2.091   6.696
 1382SOL    HW1 5045   4.468   2.131   6.761
 1382SOL    HW2 5046   4.313   2.084   6.737
 1383SOL     OW 5047   6.672   0.384   0.574
 1383SOL    HW1 5048   6.737   0.456   0.597
 1383SOL    HW2 5049   6.616   0.362   0.653
 1384SOL     OW 5050   6.295   2.310   1.884
 1384SOL    HW1 5051   6.334   2.282   1.971
 1384SOL    HW2 5052   6.351   2.382   1.843
 1385SOL     OW 5053   0.351   6.023   1.642
 1385SOL    HW1 5054   0.356   5.989   1.548
 1385SOL    HW2 5055   0.262   5.999   1.682
 1386SOL     OW 5056   2.122   5.984   3.988
 1386SOL    HW1 5057   2.081   5.973   4.079
 1386SOL    HW2 5058   2.057   6.031   3.928
 1387SOL     OW 5059   2.208   6.077   1.937
 1387SOL    HW1 5060   2.189   6.174   1.955
 1387SOL    HW2 5061   2.227   6.031   2.024
 1388SOL     OW 5062   6.370   0.572   1.584
 1388SOL    HW1 5063   6.396   0.543   1.676
 1388SOL    HW2 5064   6.368   0.493   1.524
 1389SOL     OW 5065   6.031   0.576   2.019
 1389SOL    HW1 5066   5.998   0.621   2.102
 1389SOL    HW2 5067   6.042   0.644   1.947
 1390SOL     OW 5068   1.350   1.677   4.323
 1390SOL    HW1 5069   1.348   1.768   4.364
 1390SOL    HW2 5070   1.354   1.608   4.395
 1391SOL     OW 5071   0.464   3.263   3.321
 1391SOL    HW1 5072   0.388   3.307   3.369
 1391SOL    HW2 5073   0.476   3.170   3.356
 1392SOL     OW 5074   5.367   4.406   4.437
 1392SOL    HW1 5075   5.316   4.322   4.417
 1392SOL    HW2 5076   5.444   4.413   4.374
 1393SOL     OW 5077   3.586   5.173   6.744
 1393SOL    HW1 5078   3.509   5.112   6.761
 1393SOL    HW2 5079   3.594   5.190   6.646
 1394SOL     OW 5080   1.667   6.203   6.697
 1394SOL    HW1 5081   1.688   6.295   6.729
 1394SOL    HW2 5082   1.593   6.164   6.751
 1395SOL     OW 5083   4.380   4.723   5.973
 1395SOL    HW1 5084   4.332   4.732   6.060
 1395SOL    HW2 5085   4.479   4.733   5.988
 1396SOL     OW 5086   6.130   6.145   3.522
 1396SOL    HW1 5087   6.090   6.155   3.431
 1396SOL    HW2 5088   6.057   6.143   3.590
 1397SOL     OW 5089   5.098   6.279   5.409
 1397SOL    HW1 5090   5.198   6.272   5.414
 1397SOL    HW2 5091   5.058   6.236   5.490
 1398SOL     OW 5092   2.055   0.998   4.237
 1398SOL    HW1 5093   2.090   1.088   4.262
 1398SOL    HW2 5094   1.955   0.998   4.245
 1399SOL     OW 5095   3.039   5.699   2.296
 1399SOL    HW1 5096   3.094   5.770   2.253
 1399SOL    HW2 5097   3.080   5.609   2.280
 1400SOL     OW 5098   1.517   6.882   2.662
 1400SOL    HW1 5099   1.430   6.927   2.644
 1400SOL    HW2 5100   1.562   6.860   2.575
 1401SOL     OW 5101   6.387   1.895   4.051
 1401SOL    HW1 5102   6.464   1.943   4.093
 1401SOL    HW2 5103   6.357   1.945   3.969
 1402SOL     OW 5104   6.107   3.263   0.254
 1402SOL    HW1 5105   6.196   3.256   0.209
 1402SOL    HW2 5106   6.114   3.229   0.348
 1403SOL     OW 5107   3.798   0.571   1.988
 1403SOL    HW1 5108   3.732   0.518   2.042
 1403SOL    HW2 5109   3.751   0.613   1.910
 1404SOL     OW 5110   5.275   1.695   0.157
 1404SOL    HW1 5111   5.299   1.773   0.215
 1404SOL    HW2 5112   5.224   1.628   0.210
 1405SOL     OW 5113   3.099   2.932   1.281
 1405SOL    HW1 5114   3.056   3.016   1.248
 1405SOL    HW2 5115   3.074   2.917   1.377
 1406SOL     OW 5116   1.578   4.679   1.533
 1406SOL    HW1 5117   1.521   4.677   1.615
 1406SOL    HW2 5118   1.521   4.697   1.453
 1407SOL     OW 5119   6.439   2.149   2.935
 1407SOL    HW1 5120   6.532   2.183   2.927
 1407SOL    HW2 5121   6.388   2.207   2.999
 1408SOL     OW 5122   6.433   6.263   6.485
 1408SOL    HW1 5123   6.523   6.272   6.526
 1408SOL    HW2 5124   6.442   6.235   6.390
 1409SOL     OW 5125   0.816   1.408   3.799
 1409SOL    HW1 5126   0.893   1.442   3.744
 1409SOL    HW2 5127   0.745   1.372   3.738
 1410SOL     OW 5128   6.346   2.757   6.853
 1410SOL    HW1 5129   6.384   2.667   6.832
 1410SOL    HW2 5130   6.403   2.827   6.812
 1411SOL     OW 5131   2.140   0.488   1.945
 1411SOL    HW1 5132   2.151   0.402   1.994
 1411SOL    HW2 5133   2.218   0.500   1.883
 1412SOL     OW 5134   1.130   2.732   6.840
 1412SOL    HW1 5135   1.150   2.748   6.743
 1412SOL    HW2 5136   1.214   2.739   6.893
 1413SOL     OW 5137   3.299   6.689   3.333
 1413SOL    HW1 5138   3.397   6.692   3.312
 1413SOL    HW2 5139   3.260   6.606   3.293
 1414SOL     OW 5140   3.138   0.844   2.007
 1414SOL    HW1 5141   3.091   0.881   1.927
 1414SOL    HW2 5142   3.207   0.910   2.038
 1415SOL     OW 5143   4.767   6.212   5.268
 1415SOL    HW1 5144   4.751   6.309   5.248
 1415SOL    HW2 5145   4.845   6.180   5.214
 1416SOL     OW 5146   4.279   5.548   3.405
 1416SOL    HW1 5147   4.322   5.612   3.469
 1416SOL    HW2 5148   4.341   5.533   3.328
 1417SOL     OW 5149   3.163   2.785   6.405
 1417SOL    HW1 5150   3.170   2.780   6.305
 1417SOL    HW2 5151   3.254   2.775   6.445
 1418SOL     OW 5152   3.833   3.844   2.659
 1418SOL    HW1 5153   3.911   3.846   2.722
 1418SOL    HW2 5154   3.748   3.859   2.711
 1419SOL     OW 5155   4.231   6.224   4.376
 1419SOL    HW1 5156   4.284   6.144   4.345
 1419SOL    HW2 5157   4.185   6.266   4.298
 1420SOL     OW 5158   0.424   5.674   1.604
 1420SOL    HW1 5159   0.437   5.673   1.703
 1420SOL    HW2 5160   0.362   5.600   1.578
 1421SOL     OW 5161   4.097   0.834   2.657
 1421SOL    HW1 5162   4.173   0.770   2.646
 1421SOL    HW2 5163   4.112   0.915   2.601
 1422SOL     OW 5164   2.671   0.037   0.235
 1422SOL    HW1 5165   2.719   0.028   0.323
 1422SOL    HW2 5166   2.596   0.101   0.245
 1423SOL     OW 5167   5.336   0.484   2.102
 1423SOL    HW1 5168   5.422   0.441   2.130
 1423SOL    HW2 5169   5.317   0.563   2.162
 1424SOL     OW 5170   0.055   5.056   2.389
 1424SOL    HW1 5171   6.990   5.072   2.342
 1424SOL    HW2 5172   0.037   5.016   2.479
 1425SOL     OW 5173   1.889   6.901   4.404
 1425SOL    HW1 5174   1.838   6.847   4.336
 1425SOL    HW2 5175   1.977   6.857   4.423
 1426SOL     OW 5176   1.861   1.107   5.522
 1426SOL    HW1 5177   1.846   1.178   5.453
 1426SOL    HW2 5178   1.825   1.139   5.610
 1427SOL     OW 5179   6.132   0.585   5.250
 1427SOL    HW1 5180   6.144   0.675   5.207
 1427SOL    HW2 5181   6.210   0.566   5.310
 1428SOL     OW 5182   5.410   1.374   0.239
 1428SOL    HW1 5183   5.316   1.397   0.261
 1428SOL    HW2 5184   5.461   1.457   0.219
 1429SOL     OW 5185   5.588   6.471   6.751
 1429SOL    HW1 5186   5.593   6.558   6.702
 1429SOL    HW2 5187   5.636   6.479   6.839
 1430SOL     OW 5188   1.840   3.919   3.186
 1430SOL    HW1 5189   1.785   3.996   3.219
 1430SOL    HW2 5190   1.935   3.932   3.213
 1431SOL     OW 5191   1.388   0.581   1.394
 1431SOL    HW1 5192   1.364   0.607   1.301
 1431SOL    HW2 5193   1.365   0.484   1.409
 1432SOL     OW 5194   2.581   0.225   1.068
 1432SOL    HW1 5195   2.560   0.141   1.119
 1432SOL    HW2 5196   2.655   0.207   1.004
 1433SOL     OW 5197   4.327   0.498   4.627
 1433SOL    HW1 5198   4.303   0.437   4.551
 1433SOL    HW2 5199   4.251   0.561   4.644
 1434SOL     OW 5200   0.667   0.929   5.166
 1434SOL    HW1 5201   0.729   0.937   5.088
 1434SOL    HW2 5202   0.693   0.995   5.237
 1435SOL     OW 5203   6.876   1.899   3.271
 1435SOL    HW1 5204   6.828   1.944   3.196
 1435SOL    HW2 5205   6.865   1.800   3.263
 1436SOL     OW 5206   4.132   4.087   0.899
 1436SOL    HW1 5207   4.184   4.149   0.957
 1436SOL    HW2 5208   4.103   4.007   0.952
 1437SOL     OW 5209   4.146   1.401   2.345
 1437SOL    HW1 5210   4.088   1.322   2.361
 1437SOL    HW2 5211   4.234   1.388   2.391
 1438SOL     OW 5212   2.708   0.774   1.703
 1438SOL    HW1 5213   2.660   0.726   1.776
 1438SOL    HW2 5214   2.643   0.825   1.648
 1439SOL     OW 5215   0.604   5.694   1.859
 1439SOL    HW1 5216   0.591   5.783   1.817
 1439SOL    HW2 5217   0.554   5.689   1.945
 1440SOL     OW 5218   2.270   3.213   1.704
 1440SOL    HW1 5219   2.230   3.251   1.787
 1440SOL    HW2 5220   2.345   3.150   1.727
 1441SOL     OW 5221   5.205   5.962   0.654
 1441SOL    HW1 5222   5.142   5.893   0.620
 1441SOL    HW2 5223   5.291   5.918   0.681
 1442SOL     OW 5224   5.296   5.306   0.735
 1442SOL    HW1 5225   5.372   5.245   0.712
 1442SOL    HW2 5226   5.230   5.308   0.660
 1443SOL     OW 5227   0.589   2.472   2.507
 1443SOL    HW1 5228   0.515   2.405   2.498
 1443SOL    HW2 5229   0.672   2.435   2.465
 1444SOL     OW 5230   0.514   4.995   6.217
 1444SOL    HW1 5231   0.460   5.074   6.245
 1444SOL    HW2 5232   0.478   4.959   6.131
 1445SOL     OW 5233   1.054   3.699   1.566
 1445SOL    HW1 5234   1.110   3.781   1.580
 1445SOL    HW2 5235   1.009   3.673   1.651
 1446SOL     OW 5236   6.403   6.117   0.986
 1446SOL    HW1 5237   6.369   6.103   1.079
 1446SOL    HW2 5238   6.503   6.128   0.988
 1447SOL     OW 5239   5.970   5.722   4.505
 1447SOL    HW1 5240   6.061   5.714   4.464
 1447SOL    HW2 5241   5.958   5.653   4.576
 1448SOL     OW 5242   1.129   2.149   6.029
 1448SOL    HW1 5243   1.204   2.113   6.084
 1448SOL    HW2 5244   1.064   2.197   6.087
 1449SOL     OW 5245   1.963   3.190   2.786
 1449SOL    HW1 5246   2.025   3.217   2.860
 1449SOL    HW2 5247   1.895   3.262   2.773
 1450SOL     OW 5248   3.018   2.259   3.951
 1450SOL    HW1 5249   3.080   2.213   4.015
 1450SOL    HW2 5250   3.060   2.344   3.920
 1451SOL     OW 5251   3.389   1.426   2.734
 1451SOL    HW1 5252   3.464   1.480   2.775
 1451SOL    HW2 5253   3.301   1.461   2.769
 1452SOL     OW 5254   4.220   2.685   6.559
 1452SOL    HW1 5255   4.179   2.617   6.620
 1452SOL    HW2 5256   4.150   2.723   6.500
 1453SOL     OW 5257   0.218   3.829   5.526
 1453SOL    HW1 5258   0.205   3.875   5.438
 1453SOL    HW2 5259   0.286   3.879   5.580
 1454SOL     OW 5260   3.598   2.099   3.060
 1454SOL    HW1 5261   3.594   2.137   2.968
 1454SOL    HW2 5262   3.679   2.041   3.069
 1455SOL     OW 5263   0.506   5.693   2.125
 1455SOL    HW1 5264   0.410   5.690   2.153
 1455SOL    HW2 5265   0.541   5.786   2.136
 1456SOL     OW 5266   6.422   5.284   4.048
 1456SOL    HW1 5267   6.375   5.227   4.115
 1456SOL    HW2 5268   6.505   5.322   4.089
 1457SOL     OW 5269   1.462   5.053   6.193
 1457SOL    HW1 5270   1.532   4.981   6.196
 1457SOL    HW2 5271   1.436   5.078   6.287
 1458SOL     OW 5272   5.689   5.122   5.215
 1458SOL    HW1 5273   5.599   5.086   5.190
 1458SOL    HW2 5274   5.681   5.219   5.238
 1459SOL     OW 5275   6.179   6.634   5.601
 1459SOL    HW1 5276   6.213   6.550   5.559
 1459SOL    HW2 5277   6.082   6.644   5.582
 1460SOL     OW 5278   1.588   6.656   5.030
 1460SOL    HW1 5279   1.668   6.599   5.047
 1460SOL    HW2 5280   1.605   6.748   5.064
 1461SOL     OW 5281   5.918   2.891   3.849
 1461SOL    HW1 5282   5.864   2.893   3.765
 1461SOL    HW2 5283   5.907   2.803   3.894
 1462SOL     OW 5284   0.431   1.404   1.882
 1462SOL    HW1 5285   0.424   1.397   1.982
 1462SOL    HW2 5286   0.423   1.500   1.854
 1463SOL     OW 5287   1.777   6.291   6.432
 1463SOL    HW1 5288   1.753   6.249   6.519
 1463SOL    HW2 5289   1.863   6.252   6.399
 1464SOL     OW 5290   1.007   4.378   4.065
 1464SOL    HW1 5291   0.917   4.417   4.042
 1464SOL    HW2 5292   1.063   4.450   4.107
 1465SOL     OW 5293   1.244   3.109   4.484
 1465SOL    HW1 5294   1.228   3.105   4.583
 1465SOL    HW2 5295   1.158   3.130   4.438
 1466SOL     OW 5296   5.678   1.484   2.713
 1466SOL    HW1 5297   5.737   1.429   2.772
 1466SOL    HW2 5298   5.582   1.460   2.731
 1467SOL     OW 5299   0.226   0.456   3.733
 1467SOL    HW1 5300   0.286   0.483   3.807
 1467SOL    HW2 5301   0.135   0.436   3.769
 1468SOL     OW 5302   3.247   5.323   2.733
 1468SOL    HW1 5303   3.233   5.417   2.701
 1468SOL    HW2 5304   3.161   5.288   2.770
 1469SOL     OW 5305   5.704   4.076   3.456
 1469SOL    HW1 5306   5.710   4.018   3.375
 1469SOL    HW2 5307   5.660   4.163   3.432
 1470SOL     OW 5308   6.159   1.826   2.396
 1470SOL    HW1 5309   6.194   1.848   2.305
 1470SOL    HW2 5310   6.066   1.861   2.406
 1471SOL     OW 5311   4.703   6.722   0.578
 1471SOL    HW1 5312   4.618   6.731   0.527
 1471SOL    HW2 5313   4.746   6.812   0.588
 1472SOL     OW 5314   1.889   0.925   6.247
 1472SOL    HW1 5315   1.806   0.901   6.197
 1472SOL    HW2 5316   1.937   0.842   6.275
 1473SOL     OW 5317   1.630   6.067   3.636
 1473SOL    HW1 5318   1.662   6.131   3.566
 1473SOL    HW2 5319   1.538   6.093   3.664
 1474SOL     OW 5320   2.702   4.918   1.506
 1474SOL    HW1 5321   2.669   4.951   1.417
 1474SOL    HW2 5322   2.638   4.851   1.542
 1475SOL     OW 5323   6.330   0.110   6.506
 1475SOL    HW1 5324   6.324   0.105   6.406
 1475SOL    HW2 5325   6.404   0.173   6.531
 1476SOL     OW 5326   5.147   0.210   6.605
 1476SOL    HW1 5327   5.111   0.303   6.619
 1476SOL    HW2 5328   5.207   0.209   6.526
 1477SOL     OW 5329   3.341   4.100   1.679
 1477SOL    HW1 5330   3.280   4.151   1.740
 1477SOL    HW2 5331   3.298   4.013   1.655
 1478SOL     OW 5332   4.599   4.963   6.664
 1478SOL    HW1 5333   4.673   4.896   6.669
 1478SOL    HW2 5334   4.622   5.036   6.600
 1479SOL     OW 5335   4.652   3.330   1.498
 1479SOL    HW1 5336   4.629   3.399   1.566
 1479SOL    HW2 5337   4.618   3.241   1.529
 1480SOL     OW 5338   2.758   0.485   4.534
 1480SOL    HW1 5339   2.819   0.436   4.472
 1480SOL    HW2 5340   2.727   0.570   4.491
 1481SOL     OW 5341   4.582   2.524   6.102
 1481SOL    HW1 5342   4.627   2.460   6.164
 1481SOL    HW2 5343   4.582   2.485   6.009
 1482SOL     OW 5344   5.884   1.407   1.314
 1482SOL    HW1 5345   5.797   1.403   1.363
 1482SOL    HW2 5346   5.938   1.326   1.337
 1483SOL     OW 5347   6.154   0.875   0.281
 1483SOL    HW1 5348   6.251   0.895   0.263
 1483SOL    HW2 5349   6.107   0.858   0.194
 1484SOL     OW 5350   3.428   5.692   5.291
 1484SOL    HW1 5351   3.430   5.690   5.391
 1484SOL    HW2 5352   3.475   5.774   5.259
 1485SOL     OW 5353   4.956   3.471   3.313
 1485SOL    HW1 5354   4.963   3.558   3.265
 1485SOL    HW2 5355   4.896   3.410   3.262
 1486SOL     OW 5356   4.627   5.782   4.031
 1486SOL    HW1 5357   4.619   5.850   3.957
 1486SOL    HW2 5358   4.590   5.695   3.999
 1487SOL     OW 5359   6.374   1.383   0.772
 1487SOL    HW1 5360   6.467   1.392   0.809
 1487SOL    HW2 5361   6.347   1.469   0.729
 1488SOL     OW 5362   6.422   2.200   2.658
 1488SOL    HW1 5363   6.512   2.245   2.666
 1488SOL    HW2 5364   6.402   2.152   2.744
 1489SOL     OW 5365   2.963   5.083   0.065
 1489SOL    HW1 5366   2.906   5.026   0.006
 1489SOL    HW2 5367   3.052   5.099   0.021
 1490SOL     OW 5368   6.080   3.006   2.643
 1490SOL    HW1 5369   6.061   3.033   2.548
 1490SOL    HW2 5370   6.012   3.046   2.704
 1491SOL     OW 5371   5.685   2.518   3.540
 1491SOL    HW1 5372   5.597   2.521   3.588
 1491SOL    HW2 5373   5.681   2.578   3.460
 1492SOL     OW 5374   0.062   1.931   2.657
 1492SOL    HW1 5375   0.147   1.945   2.708
 1492SOL    HW2 5376   0.053   1.834   2.633
 1493SOL     OW 5377   6.144   2.024   6.307
 1493SOL    HW1 5378   6.237   2.056   6.327
 1493SOL    HW2 5379   6.137   1.927   6.333
 1494SOL     OW 5380   0.296   4.624   6.225
 1494SOL    HW1 5381   0.246   4.682   6.289
 1494SOL    HW2 5382   0.246   4.538   6.212
 1495SOL     OW 5383   6.552   3.905   4.347
 1495SOL    HW1 5384   6.551   3.876   4.443
 1495SOL    HW2 5385   6.464   3.948   4.325
 1496SOL     OW 5386   6.432   6.311   5.775
 1496SOL    HW1 5387   6.501   6.379   5.751
 1496SOL    HW2 5388   6.360   6.355   5.829
 1497SOL     OW 5389   6.170   2.482   2.410
 1497SOL    HW1 5390   6.223   2.416   2.462
 1497SOL    HW2 5391   6.215   2.571   2.413
 1498SOL     OW 5392   3.175   4.040   0.540
 1498SOL    HW1 5393   3.080   4.058   0.512
 1498SOL    HW2 5394   3.181   3.947   0.578
 1499SOL     OW 5395   0.025   4.495   4.417
 1499SOL    HW1 5396   0.020   4.529   4.512
 1499SOL    HW2 5397   0.052   4.570   4.357
 1500SOL     OW 5398   1.404   5.914   1.908
 1500SOL    HW1 5399   1.432   5.833   1.961
 1500SOL    HW2 5400   1.437   5.997   1.954
 1501SOL     OW 5401   6.658   1.941   0.693
 1501SOL    HW1 5402   6.615   2.001   0.625
 1501SOL    HW2 5403   6.707   1.867   0.645
 1502SOL     OW 5404   6.994   6.674   6.533
 1502SOL    HW1 5405   0.031   6.613   6.586
 1502SOL    HW2 5406   6.902   6.676   6.573
 1503SOL     OW 5407   0.379   4.680   1.678
 1503SOL    HW1 5408   0.314   4.740   1.633
 1503SOL    HW2 5409   0.409   4.722   1.764
 1504SOL     OW 5410   2.021   6.927   2.474
 1504SOL    HW1 5411   2.016   6.894   2.568
 1504SOL    HW2 5412   1.998   6.853   2.411
 1505SOL     OW 5413   6.267   5.210   5.137
 1505SOL    HW1 5414   6.365   5.232   5.137
 1505SOL    HW2 5415   6.215   5.291   5.110
 1506SOL     OW 5416   1.026   0.770   0.512
 1506SOL    HW1 5417   0.937   0.797   0.550
 1506SOL    HW2 5418   1.069   0.850   0.468
 1507SOL     OW 5419   2.791   2.141   3.461
 1507SOL    HW1 5420   2.709   2.090   3.488
 1507SOL    HW2 5421   2.799   2.142   3.362
 1508SOL     OW 5422   2.033   0.765   1.563
 1508SOL    HW1 5423   2.114   0.815   1.595
 1508SOL    HW2 5424   1.989   0.817   1.490
 1509SOL     OW 5425   5.578   0.980   4.110
 1509SOL    HW1 5426   5.585   0.881   4.100
 1509SOL    HW2 5427   5.488   1.003   4.147
 1510SOL     OW 5428   3.544   5.917   5.188
 1510SOL    HW1 5429   3.475   5.987   5.207
 1510SOL    HW2 5430   3.633   5.960   5.175
 1511SOL     OW 5431   2.876   3.628   5.063
 1511SOL    HW1 5432   2.903   3.533   5.080
 1511SOL    HW2 5433   2.918   3.687   5.131
 1512SOL     OW 5434   5.418   6.240   0.988
 1512SOL    HW1 5435   5.447   6.172   1.055
 1512SOL    HW2 5436   5.367   6.312   1.034
 1513SOL     OW 5437   2.477   0.570   5.383
 1513SOL    HW1 5438   2.435   0.479   5.378
 1513SOL    HW2 5439   2.500   0.590   5.478
 1514SOL     OW 5440   3.135   2.369   6.430
 1514SOL    HW1 5441   3.131   2.431   6.508
 1514SOL    HW2 5442   3.096   2.280   6.455
 1515SOL     OW 5443   3.854   0.861   2.743
 1515SOL    HW1 5444   3.946   0.859   2.704
 1515SOL    HW2 5445   3.845   0.787   2.810
 1516SOL     OW 5446   6.219   6.486   5.844
 1516SOL    HW1 5447   6.206   6.546   5.765
 1516SOL    HW2 5448   6.134   6.439   5.865
 1517SOL     OW 5449   3.080   5.878   3.551
 1517SOL    HW1 5450   3.004   5.939   3.532
 1517SOL    HW2 5451   3.117   5.842   3.466
 1518SOL     OW 5452   0.580   3.178   6.548
 1518SOL    HW1 5453   0.543   3.112   6.483
 1518SOL    HW2 5454   0.556   3.271   6.518
 1519SOL     OW 5455   6.982   4.764   6.820
 1519SOL    HW1 5456   6.892   4.721   6.807
 1519SOL    HW2 5457   7.011   4.808   6.736
 1520SOL     OW 5458   0.351   6.353   3.383
 1520SOL    HW1 5459   0.403   6.339   3.299
 1520SOL    HW2 5460   0.344   6.451   3.403
 1521SOL     OW 5461   2.072   5.343   6.209
 1521SOL    HW1 5462   2.129   5.345   6.127
 1521SOL    HW2 5463   2.103   5.414   6.273
 1522SOL     OW 5464   5.826   6.037   4.000
 1522SOL    HW1 5465   5.745   6.096   4.000
 1522SOL    HW2 5466   5.849   6.012   4.094
 1523SOL     OW 5467   2.883   6.674   0.951
 1523SOL    HW1 5468   2.863   6.766   0.985
 1523SOL    HW2 5469   2.895   6.678   0.851
 1524SOL     OW 5470   2.189   1.471   3.826
 1524SOL    HW1 5471   2.151   1.514   3.744
 1524SOL    HW2 5472   2.282   1.503   3.841
 1525SOL     OW 5473   5.390   4.607   6.915
 1525SOL    HW1 5474   5.420   4.563   6.830
 1525SOL    HW2 5475   5.332   4.686   6.894
 1526SOL     OW 5476   1.204   1.754   1.061
 1526SOL    HW1 5477   1.161   1.707   1.138
 1526SOL    HW2 5478   1.142   1.753   0.982
 1527SOL     OW 5479   5.087   1.847   4.764
 1527SOL    HW1 5480   4.987   1.857   4.759
 1527SOL    HW2 5481   5.125   1.854   4.672
 1528SOL     OW 5482   3.503   3.598   2.353
 1528SOL    HW1 5483   3.516   3.647   2.267
 1528SOL    HW2 5484   3.590   3.595   2.403
 1529SOL     OW 5485   4.812   1.846   6.053
 1529SOL    HW1 5486   4.750   1.798   6.115
 1529SOL    HW2 5487   4.839   1.784   5.979
 1530SOL     OW 5488   2.205   0.030   1.005
 1530SOL    HW1 5489   2.252   0.096   1.063
 1530SOL    HW2 5490   2.219   0.054   0.909
 1531SOL     OW 5491   4.642   5.660   4.316
 1531SOL    HW1 5492   4.627   5.602   4.235
 1531SOL    HW2 5493   4.667   5.752   4.286
 1532SOL     OW 5494   2.686   5.401   0.976
 1532SOL    HW1 5495   2.727   5.464   0.911
 1532SOL    HW2 5496   2.711   5.428   1.069
 1533SOL     OW 5497   5.472   5.800   1.035
 1533SOL    HW1 5498   5.492   5.730   1.103
 1533SOL    HW2 5499   5.413   5.762   0.965
 1534SOL     OW 5500   2.931   5.105   6.608
 1534SOL    HW1 5501   2.916   5.023   6.554
 1534SOL    HW2 5502   2.988   5.083   6.687
 1535SOL     OW 5503   5.415   4.290   3.809
 1535SOL    HW1 5504   5.420   4.352   3.888
 1535SOL    HW2 5505   5.322   4.289   3.773
 1536SOL     OW 5506   4.348   3.638   6.821
 1536SOL    HW1 5507   4.281   3.701   6.863
 1536SOL    HW2 5508   4.427   3.629   6.881
 1537SOL     OW 5509   2.909   5.034   2.620
 1537SOL    HW1 5510   2.905   4.934   2.617
 1537SOL    HW2 5511   2.917   5.070   2.527
 1538SOL     OW 5512   2.912   1.239   0.531
 1538SOL    HW1 5513   2.849   1.218   0.606
 1538SOL    HW2 5514   2.872   1.208   0.444
 1539SOL     OW 5515   6.003   3.284   0.718
 1539SOL    HW1 5516   6.022   3.220   0.643
 1539SOL    HW2 5517   5.905   3.289   0.734
 1540SOL     OW 5518   3.853   6.523   2.983
 1540SOL    HW1 5519   3.829   6.576   2.902
 1540SOL    HW2 5520   3.785   6.451   2.997
 1541SOL     OW 5521   4.350   2.601   5.842
 1541SOL    HW1 5522   4.308   2.520   5.884
 1541SOL    HW2 5523   4.304   2.683   5.876
 1542SOL     OW 5524   0.065   5.304   2.886
 1542SOL    HW1 5525   0.027   5.395   2.868
 1542SOL    HW2 5526   0.020   5.265   2.966
 1543SOL     OW 5527   2.963   5.397   0.277
 1543SOL    HW1 5528   3.005   5.384   0.187
 1543SOL    HW2 5529   2.872   5.356   0.278
 1544SOL     OW 5530   3.762   3.330   3.874
 1544SOL    HW1 5531   3.851   3.285   3.871
 1544SOL    HW2 5532   3.715   3.315   3.787
 1545SOL     OW 5533   5.393   5.433   1.610
 1545SOL    HW1 5534   5.318   5.370   1.590
 1545SOL    HW2 5535   5.378   5.477   1.698
 1546SOL     OW 5536   5.836   6.119   5.491
 1546SOL    HW1 5537   5.911   6.053   5.501
 1546SOL    HW2 5538   5.826   6.171   5.576
 1547SOL     OW 5539   2.288   3.512   6.273
 1547SOL    HW1 5540   2.339   3.598   6.279
 1547SOL    HW2 5541   2.201   3.527   6.225
 1548SOL     OW 5542   0.019   2.425   1.065
 1548SOL    HW1 5543   6.987   2.341   1.059
 1548SOL    HW2 5544   0.035   2.447   1.161
 1549SOL     OW 5545   5.183   0.863   4.717
 1549SOL    HW1 5546   5.137   0.951   4.721
 1549SOL    HW2 5547   5.206   0.833   4.809
 1550SOL     OW 5548   3.745   3.155   4.213
 1550SOL    HW1 5549   3.706   3.108   4.134
 1550SOL    HW2 5550   3.674   3.207   4.260
 1551SOL     OW 5551   6.847   4.908   5.400
 1551SOL    HW1 5552   6.808   4.857   5.323
 1551SOL    HW2 5553   6.775   4.962   5.444
 1552SOL     OW 5554   1.829   4.273   1.511
 1552SOL    HW1 5555   1.915   4.318   1.533
 1552SOL    HW2 5556   1.832   4.178   1.542
 1553SOL     OW 5557   1.813   2.275   6.363
 1553SOL    HW1 5558   1.846   2.204   6.302
 1553SOL    HW2 5559   1.841   2.254   6.457
 1554SOL     OW 5560   3.978   1.842   3.688
 1554SOL    HW1 5561   4.036   1.900   3.746
 1554SOL    HW2 5562   3.885   1.842   3.724
 1555SOL     OW 5563   5.929   5.042   5.369
 1555SOL    HW1 5564   5.941   5.121   5.429
 1555SOL    HW2 5565   5.834   5.040   5.336
 1556SOL     OW 5566   1.865   0.882   5.769
 1556SOL    HW1 5567   1.795   0.882   5.840
 1556SOL    HW2 5568   1.820   0.879   5.679
 1557SOL     OW 5569   0.404   2.165   5.053
 1557SOL    HW1 5570   0.444   2.089   5.104
 1557SOL    HW2 5571   0.478   2.219   5.012
 1558SOL     OW 5572   0.339   6.738   4.632
 1558SOL    HW1 5573   0.368   6.670   4.700
 1558SOL    HW2 5574   0.254   6.780   4.663
 1559SOL     OW 5575   1.434   1.489   5.628
 1559SOL    HW1 5576   1.523   1.447   5.641
 1559SOL    HW2 5577   1.388   1.447   5.551
 1560SOL     OW 5578   0.007   0.658   6.936
 1560SOL    HW1 5579   0.033   0.581   6.878
 1560SOL    HW2 5580   0.032   0.744   6.891
 1561SOL     OW 5581   5.963   5.882   2.083
 1561SOL    HW1 5582   5.944   5.934   2.166
 1561SOL    HW2 5583   5.944   5.939   2.003
 1562SOL     OW 5584   6.028   0.818   4.010
 1562SOL    HW1 5585   6.064   0.856   4.095
 1562SOL    HW2 5586   6.104   0.798   3.948
 1563SOL     OW 5587   3.282   6.792   5.872
 1563SOL    HW1 5588   3.300   6.694   5.857
 1563SOL    HW2 5589   3.195   6.816   5.830
 1564SOL     OW 5590   0.760   1.991   3.319
 1564SOL    HW1 5591   0.762   2.051   3.399
 1564SOL    HW2 5592   0.685   1.926   3.329
 1565SOL     OW 5593   6.434   4.197   1.602
 1565SOL    HW1 5594   6.533   4.186   1.590
 1565SOL    HW2 5595   6.411   4.194   1.699
 1566SOL     OW 5596   5.697   4.141   2.877
 1566SOL    HW1 5597   5.671   4.236   2.891
 1566SOL    HW2 5598   5.671   4.112   2.785
 1567SOL     OW 5599   6.442   5.728   5.243
 1567SOL    HW1 5600   6.504   5.659   5.281
 1567SOL    HW2 5601   6.414   5.701   5.151
 1568SOL     OW 5602   0.007   6.954   6.903
 1568SOL    HW1 5603   0.103   6.941   6.926
 1568SOL    HW2 5604   6.995   0.015   6.948
 1569SOL     OW 5605   3.015   6.296   5.053
 1569SOL    HW1 5606   3.076   6.369   5.082
 1569SOL    HW2 5607   2.943   6.333   4.995
 1570SOL     OW 5608   3.200   2.105   1.965
 1570SOL    HW1 5609   3.112   2.104   2.012
 1570SOL    HW2 5610   3.191   2.155   1.879
 1571SOL     OW 5611   0.116   3.818   0.465
 1571SOL    HW1 5612   0.076   3.808   0.556
 1571SOL    HW2 5613   0.215   3.810   0.472
 1572SOL     OW 5614   1.331   5.519   2.773
 1572SOL    HW1 5615   1.279   5.438   2.800
 1572SOL    HW2 5616   1.428   5.495   2.766
 1573SOL     OW 5617   4.342   6.932   0.219
 1573SOL    HW1 5618   4.418   6.979   0.174
 1573SOL    HW2 5619   4.263   6.993   0.224
 1574SOL     OW 5620   5.636   2.258   2.143
 1574SOL    HW1 5621   5.719   2.312   2.155
 1574SOL    HW2 5622   5.636   2.217   2.052
 1575SOL     OW 5623   3.322   1.593   0.311
 1575SOL    HW1 5624   3.253   1.629   0.374
 1575SOL    HW2 5625   3.382   1.530   0.360
 1576SOL     OW 5626   5.974   5.611   3.365
 1576SOL    HW1 5627   6.005   5.588   3.457
 1576SOL    HW2 5628   6.027   5.560   3.298
 1577SOL     OW 5629   1.136   0.358   0.255
 1577SOL    HW1 5630   1.048   0.337   0.213
 1577SOL    HW2 5631   1.150   0.300   0.335
 1578SOL     OW 5632   5.953   5.320   4.831
 1578SOL    HW1 5633   5.912   5.309   4.922
 1578SOL    HW2 5634   5.946   5.234   4.781
 1579SOL     OW 5635   0.124   7.010   3.078
 1579SOL    HW1 5636   0.112   0.073   3.028
 1579SOL    HW2 5637   0.213   7.010   3.125
 1580SOL     OW 5638   3.109   3.626   5.970
 1580SOL    HW1 5639   3.071   3.561   6.035
 1580SOL    HW2 5640   3.054   3.628   5.887
 1581SOL     OW 5641   6.164   3.761   4.481
 1581SOL    HW1 5642   6.160   3.856   4.513
 1581SOL    HW2 5643   6.260   3.732   4.477
 1582SOL     OW 5644   6.024   6.204   5.005
 1582SOL    HW1 5645   6.005   6.284   5.062
 1582SOL    HW2 5646   6.010   6.229   4.909
 1583SOL     OW 5647   2.250   1.851   2.332
 1583SOL    HW1 5648   2.232   1.949   2.331
 1583SOL    HW2 5649   2.342   1.835   2.367
 1584SOL     OW 5650   2.496   0.825   6.225
 1584SOL    HW1 5651   2.513   0.824   6.126
 1584SOL    HW2 5652   2.490   0.732   6.259
 1585SOL     OW 5653   5.808   1.067   5.885
 1585SOL    HW1 5654   5.737   1.128   5.919
 1585SOL    HW2 5655   5.809   1.068   5.785
 1586SOL     OW 5656   3.989   3.916   3.116
 1586SOL    HW1 5657   4.021   3.835   3.165
 1586SOL    HW2 5658   4.010   3.997   3.171
 1587SOL     OW 5659   2.489   6.789   6.562
 1587SOL    HW1 5660   2.503   6.840   6.477
 1587SOL    HW2 5661   2.406   6.822   6.607
 1588SOL     OW 5662   5.852   3.882   1.641
 1588SOL    HW1 5663   5.814   3.971   1.617
 1588SOL    HW2 5664   5.777   3.819   1.664
 1589SOL     OW 5665   5.002   4.652   3.279
 1589SOL    HW1 5666   4.948   4.655   3.195
 1589SOL    HW2 5667   4.944   4.677   3.357
 1590SOL     OW 5668   1.886   6.909   5.194
 1590SOL    HW1 5669   1.792   6.943   5.195
 1590SOL    HW2 5670   1.886   6.809   5.188
 1591SOL     OW 5671   1.331   3.605   0.800
 1591SOL    HW1 5672   1.251   3.546   0.795
 1591SOL    HW2 5673   1.317   3.675   0.870
 1592SOL     OW 5674   3.354   4.147   3.657
 1592SOL    HW1 5675   3.387   4.238   3.632
 1592SOL    HW2 5676   3.342   4.141   3.756
 1593SOL     OW 5677   1.640   5.015   4.545
 1593SOL    HW1 5678   1.657   5.076   4.468
 1593SOL    HW2 5679   1.593   4.933   4.513
 1594SOL     OW 5680   1.400   5.201   3.132
 1594SOL    HW1 5681   1.323   5.137   3.142
 1594SOL    HW2 5682   1.429   5.203   3.036
 1595SOL     OW 5683   6.743   4.764   5.186
 1595SOL    HW1 5684   6.648   4.732   5.182
 1595SOL    HW2 5685   6.804   4.694   5.148
 1596SOL     OW 5686   2.781   5.698   0.045
 1596SOL    HW1 5687   2.684   5.677   0.058
 1596SOL    HW2 5688   2.818   5.638   6.996
 1597SOL     OW 5689   2.316   0.123   0.088
 1597SOL    HW1 5690   2.238   0.124   0.151
 1597SOL    HW2 5691   2.315   0.038   0.035
 1598SOL     OW 5692   6.493   5.183   1.368
 1598SOL    HW1 5693   6.536   5.092   1.373
 1598SOL    HW2 5694   6.475   5.216   1.461
 1599SOL     OW 5695   2.978   5.033   0.359
 1599SOL    HW1 5696   2.967   5.061   0.263
 1599SOL    HW2 5697   3.000   5.112   0.415
 1600SOL     OW 5698   2.917   1.211   5.380
 1600SOL    HW1 5699   3.002   1.174   5.341
 1600SOL    HW2 5700   2.859   1.246   5.306
 1601SOL     OW 5701   1.263   5.197   4.988
 1601SOL    HW1 5702   1.270   5.254   5.070
 1601SOL    HW2 5703   1.339   5.132   4.986
 1602SOL     OW 5704   0.909   3.665   2.368
 1602SOL    HW1 5705   0.811   3.672   2.390
 1602SOL    HW2 5706   0.933   3.569   2.355
 1603SOL     OW 5707   5.509   6.430   0.602
 1603SOL    HW1 5708   5.473   6.347   0.646
 1603SOL    HW2 5709   5.606   6.439   0.624
 1604SOL     OW 5710   0.303   5.671   4.707
 1604SOL    HW1 5711   0.364   5.750   4.708
 1604SOL    HW2 5712   0.276   5.650   4.613
 1605SOL     OW 5713   5.283   6.092   3.218
 1605SOL    HW1 5714   5.282   6.144   3.303
 1605SOL    HW2 5715   5.189   6.072   3.189
 1606SOL     OW 5716   5.660   6.275   5.053
 1606SOL    HW1 5717   5.700   6.366   5.045
 1606SOL    HW2 5718   5.698   6.228   5.132
 1607SOL     OW 5719   4.729   2.998   0.958
 1607SOL    HW1 5720   4.776   3.053   1.026
 1607SOL    HW2 5721   4.643   2.964   0.996
 1608SOL     OW 5722   2.653   0.612   0.433
 1608SOL    HW1 5723   2.624   0.624   0.338
 1608SOL    HW2 5724   2.669   0.702   0.475
 1609SOL     OW 5725   5.302   1.150   5.608
 1609SOL    HW1 5726   5.252   1.122   5.690
 1609SOL    HW2 5727   5.266   1.101   5.529
 1610SOL     OW 5728   5.320   6.356   3.375
 1610SOL    HW1 5729   5.237   6.411   3.386
 1610SOL    HW2 5730   5.350   6.358   3.280
 1611SOL     OW 5731   4.266   2.901   1.583
 1611SOL    HW1 5732   4.216   2.815   1.574
 1611SOL    HW2 5733   4.296   2.931   1.493
 1612SOL     OW 5734   3.631   0.817   4.490
 1612SOL    HW1 5735   3.608   0.760   4.569
 1612SOL    HW2 5736   3.629   0.913   4.516
 1613SOL     OW 5737   1.781   0.247   0.742
 1613SOL    HW1 5738   1.795   0.155   0.705
 1613SOL    HW2 5739   1.765   0.241   0.841
 1614SOL     OW 5740   0.432   2.616   5.805
 1614SOL    HW1 5741   0.367   2.623   5.730
 1614SOL    HW2 5742   0.398   2.666   5.884
 1615SOL     OW 5743   6.262   5.023   5.689
 1615SOL    HW1 5744   6.319   4.943   5.706
 1615SOL    HW2 5745   6.199   5.004   5.613
 1616SOL     OW 5746   2.658   1.924   6.139
 1616SOL    HW1 5747   2.631   2.006   6.089
 1616SOL    HW2 5748   2.671   1.946   6.236
 1617SOL     OW 5749   4.231   0.304   4.459
 1617SOL    HW1 5750   4.315   0.258   4.430
 1617SOL    HW2 5751   4.156   0.238   4.464
 1618SOL     OW 5752   5.798   2.648   1.759
 1618SOL    HW1 5753   5.736   2.651   1.681
 1618SOL    HW2 5754   5.888   2.615   1.729
 1619SOL     OW 5755   1.982   3.177   4.595
 1619SOL    HW1 5756   2.012   3.272   4.599
 1619SOL    HW2 5757   2.044   3.124   4.537
 1620SOL     OW 5758   3.692   5.692   1.474
 1620SOL    HW1 5759   3.692   5.669   1.571
 1620SOL    HW2 5760   3.763   5.640   1.427
 1621SOL     OW 5761   2.054   1.628   2.167
 1621SOL    HW1 5762   2.087   1.621   2.073
 1621SOL    HW2 5763   2.044   1.725   2.191
 1622SOL     OW 5764   2.068   2.512   4.885
 1622SOL    HW1 5765   2.112   2.601   4.894
 1622SOL    HW2 5766   2.090   2.455   4.965
 1623SOL     OW 5767   2.123   2.101   4.830
 1623SOL    HW1 5768   2.040   2.124   4.781
 1623SOL    HW2 5769   2.199   2.094   4.765
 1624SOL     OW 5770   2.259   0.934   0.743
 1624SOL    HW1 5771   2.315   0.906   0.821
 1624SOL    HW2 5772   2.181   0.872   0.734
 1625SOL     OW 5773   0.440   5.908   1.403
 1625SOL    HW1 5774   0.419   5.826   1.455
 1625SOL    HW2 5775   0.375   5.917   1.327
 1626SOL     OW 5776   2.099   2.883   5.741
 1626SOL    HW1 5777   2.011   2.906   5.781
 1626SOL    HW2 5778   2.121   2.949   5.669
 1627SOL     OW 5779   5.081   3.278   3.685
 1627SOL    HW1 5780   5.000   3.337   3.694
 1627SOL    HW2 5781   5.110   3.278   3.589
 1628SOL     OW 5782   2.689   3.270   0.197
 1628SOL    HW1 5783   2.754   3.211   0.246
 1628SOL    HW2 5784   2.648   3.218   0.121
 1629SOL     OW 5785   3.235   2.079   2.916
 1629SOL    HW1 5786   3.240   2.008   2.845
 1629SOL    HW2 5787   3.323   2.084   2.965
 1630SOL     OW 5788   6.361   4.938   4.589
 1630SOL    HW1 5789   6.395   5.015   4.535
 1630SOL    HW2 5790   6.308   4.876   4.530
 1631SOL     OW 5791   0.698   6.481   5.654
 1631SOL    HW1 5792   0.699   6.398   5.599
 1631SOL    HW2 5793   0.785   6.493   5.701
 1632SOL     OW 5794   4.731   0.062   0.411
 1632SOL    HW1 5795   4.729   0.018   0.321
 1632SOL    HW2 5796   4.803   0.020   0.466
 1633SOL     OW 5797   5.689   3.461   3.659
 1633SOL    HW1 5798   5.701   3.427   3.566
 1633SOL    HW2 5799   5.777   3.492   3.695
 1634SOL     OW 5800   4.124   0.620   0.845
 1634SOL    HW1 5801   4.149   0.573   0.930
 1634SOL    HW2 5802   4.061   0.695   0.865
 1635SOL     OW 5803   0.952   4.984   4.151
 1635SOL    HW1 5804   0.886   4.982   4.225
 1635SOL    HW2 5805   0.933   4.910   4.087
 1636SOL     OW 5806   2.255   6.148   0.668
 1636SOL    HW1 5807   2.327   6.218   0.674
 1636SOL    HW2 5808   2.276   6.085   0.593
 1637SOL     OW 5809   0.882   2.550   2.736
 1637SOL    HW1 5810   0.919   2.566   2.827
 1637SOL    HW2 5811   0.816   2.622   2.713
 1638SOL     OW 5812   1.100   2.983   5.914
 1638SOL    HW1 5813   1.034   2.911   5.893
 1638SOL    HW2 5814   1.058   3.048   5.978
 1639SOL     OW 5815   4.530   4.798   3.016
 1639SOL    HW1 5816   4.485   4.747   3.090
 1639SOL    HW2 5817   4.501   4.762   2.928
 1640SOL     OW 5818   5.499   0.428   1.045
 1640SOL    HW1 5819   5.587   0.473   1.029
 1640SOL    HW2 5820   5.429   0.471   0.988
 1641SOL     OW 5821   6.720   2.815   5.458
 1641SOL    HW1 5822   6.785   2.759   5.509
 1641SOL    HW2 5823   6.693   2.768   5.375
 1642SOL     OW 5824   0.404   2.455   1.524
 1642SOL    HW1 5825   0.382   2.409   1.610
 1642SOL    HW2 5826   0.425   2.387   1.454
 1643SOL     OW 5827   3.780   0.700   5.836
 1643SOL    HW1 5828   3.712   0.765   5.871
 1643SOL    HW2 5829   3.830   0.741   5.760
 1644SOL     OW 5830   3.822   1.132   0.169
 1644SOL    HW1 5831   3.841   1.061   0.237
 1644SOL    HW2 5832   3.743   1.105   0.114
 1645SOL     OW 5833   2.036   6.484   5.851
 1645SOL    HW1 5834   1.937   6.483   5.865
 1645SOL    HW2 5835   2.056   6.512   5.757
 1646SOL     OW 5836   1.645   3.985   0.339
 1646SOL    HW1 5837   1.641   3.952   0.434
 1646SOL    HW2 5838   1.651   3.907   0.277
 1647SOL     OW 5839   5.845   2.741   2.580
 1647SOL    HW1 5840   5.864   2.666   2.516
 1647SOL    HW2 5841   5.914   2.740   2.653
 1648SOL     OW 5842   4.049   0.249   2.482
 1648SOL    HW1 5843   4.038   0.178   2.412
 1648SOL    HW2 5844   3.973   0.313   2.476
 1649SOL     OW 5845   2.530   6.918   2.941
 1649SOL    HW1 5846   2.583   6.858   2.881
 1649SOL    HW2 5847   2.455   6.959   2.889
 1650SOL     OW 5848   3.092   7.011   3.778
 1650SOL    HW1 5849   3.088   0.036   3.867
 1650SOL    HW2 5850   3.140   6.924   3.789
 1651SOL     OW 5851   1.395   0.419   1.801
 1651SOL    HW1 5852   1.485   0.440   1.762
 1651SOL    HW2 5853   1.341   0.503   1.805
 1652SOL     OW 5854   2.881   3.145   1.820
 1652SOL    HW1 5855   2.967   3.194   1.808
 1652SOL    HW2 5856   2.824   3.157   1.739
 1653SOL     OW 5857   1.333   4.903   0.741
 1653SOL    HW1 5858   1.382   4.969   0.798
 1653SOL    HW2 5859   1.331   4.814   0.785
 1654SOL     OW 5860   0.354   1.567   3.629
 1654SOL    HW1 5861   0.435   1.622   3.648
 1654SOL    HW2 5862   0.292   1.570   3.707
 1655SOL     OW 5863   4.751   4.375   5.620
 1655SOL    HW1 5864   4.718   4.463   5.654
 1655SOL    HW2 5865   4.725   4.303   5.684
 1656SOL     OW 5866   0.562   4.150   2.559
 1656SOL    HW1 5867   0.573   4.248   2.543
 1656SOL    HW2 5868   0.492   4.135   2.628
 1657SOL     OW 5869   1.137   0.165   4.997
 1657SOL    HW1 5870   1.169   0.128   4.910
 1657SOL    HW2 5871   1.144   0.265   4.996
 1658SOL     OW 5872   6.277   6.344   2.911
 1658SOL    HW1 5873   6.310   6.430   2.872
 1658SOL    HW2 5874   6.250   6.359   3.006
 1659SOL     OW 5875   4.992   2.187   6.373
 1659SOL    HW1 5876   4.959   2.097   6.346
 1659SOL    HW2 5877   4.936   2.221   6.448
 1660SOL     OW 5878   2.462   6.154   3.148
 1660SOL    HW1 5879   2.481   6.139   3.245
 1660SOL    HW2 5880   2.388   6.094   3.118
 1661SOL     OW 5881   3.014   0.135   3.032
 1661SOL    HW1 5882   3.099   0.120   2.981
 1661SOL    HW2 5883   3.035   0.177   3.120
 1662SOL     OW 5884   6.880   0.854   2.747
 1662SOL    HW1 5885   6.822   0.867   2.667
 1662SOL    HW2 5886   6.974   0.839   2.718
 1663SOL     OW 5887   1.917   0.389   3.682
 1663SOL    HW1 5888   1.857   0.460   3.646
 1663SOL    HW2 5889   2.012   0.413   3.664
 1664SOL     OW 5890   2.496   4.750   4.258
 1664SOL    HW1 5891   2.435   4.676   4.287
 1664SOL    HW2 5892   2.591   4.724   4.276
 1665SOL     OW 5893   1.211   0.780   4.100
 1665SOL    HW1 5894   1.129   0.782   4.044
 1665SOL    HW2 5895   1.236   0.685   4.120
 1666SOL     OW 5896   5.575   3.270   6.187
 1666SOL    HW1 5897   5.483   3.305   6.168
 1666SOL    HW2 5898   5.631   3.277   6.105
 1667SOL     OW 5899   6.736   1.136   6.860
 1667SOL    HW1 5900   6.724   1.044   6.900
 1667SOL    HW2 5901   6.833   1.155   6.850
 1668SOL     OW 5902   1.927   0.432   5.024
 1668SOL    HW1 5903   2.026   0.442   5.032
 1668SOL    HW2 5904   1.905   0.379   4.942
 1669SOL     OW 5905   5.823   5.907   6.289
 1669SOL    HW1 5906   5.782   5.858   6.366
 1669SOL    HW2 5907   5.913   5.941   6.316
 1670SOL     OW 5908   6.496   3.334   6.688
 1670SOL    HW1 5909   6.533   3.383   6.767
 1670SOL    HW2 5910   6.472   3.399   6.616
 1671SOL     OW 5911   5.985   5.042   0.184
 1671SOL    HW1 5912   6.019   5.056   0.277
 1671SOL    HW2 5913   6.060   5.052   0.119
 1672SOL     OW 5914   2.037   5.355   2.251
 1672SOL    HW1 5915   2.107   5.418   2.286
 1672SOL    HW2 5916   2.041   5.269   2.301
 1673SOL     OW 5917   6.431   2.175   3.423
 1673SOL    HW1 5918   6.493   2.253   3.434
 1673SOL    HW2 5919   6.337   2.208   3.412
 1674SOL     OW 5920   2.161   5.602   6.775
 1674SOL    HW1 5921   2.122   5.642   6.692
 1674SOL    HW2 5922   2.088   5.561   6.830
 1675SOL     OW 5923   4.684   2.110   0.539
 1675SOL    HW1 5924   4.692   2.186   0.474
 1675SOL    HW2 5925   4.602   2.123   0.595
 1676SOL     OW 5926   2.565   1.062   4.103
 1676SOL    HW1 5927   2.488   1.056   4.167
 1676SOL    HW2 5928   2.574   1.156   4.070
 1677SOL     OW 5929   5.916   0.494   5.769
 1677SOL    HW1 5930   5.890   0.580   5.813
 1677SOL    HW2 5931   5.937   0.511   5.672
 1678SOL     OW 5932   4.907   0.460   1.444
 1678SOL    HW1 5933   5.001   0.430   1.428
 1678SOL    HW2 5934   4.846   0.381   1.443
 1679SOL     OW 5935   5.428   4.428   0.290
 1679SOL    HW1 5936   5.387   4.511   0.253
 1679SOL    HW2 5937   5.523   4.447   0.315
 1680SOL     OW 5938   1.319   2.456   5.062
 1680SOL    HW1 5939   1.403   2.452   5.008
 1680SOL    HW2 5940   1.342   2.447   5.159
 1681SOL     OW 5941   4.782   5.456   0.399
 1681SOL    HW1 5942   4.769   5.459   0.498
 1681SOL    HW2 5943   4.870   5.497   0.376
 1682SOL     OW 5944   6.899   3.415   5.421
 1682SOL    HW1 5945   6.883   3.372   5.333
 1682SOL    HW2 5946   6.868   3.510   5.419
 1683SOL     OW 5947   5.445   5.568   6.014
 1683SOL    HW1 5948   5.519   5.516   5.971
 1683SOL    HW2 5949   5.372   5.506   6.041
 1684SOL     OW 5950   0.312   6.408   4.052
 1684SOL    HW1 5951   0.398   6.458   4.049
 1684SOL    HW2 5952   0.238   6.471   4.074
 1685SOL     OW 5953   1.267   1.316   0.437
 1685SOL    HW1 5954   1.217   1.280   0.515
 1685SOL    HW2 5955   1.240   1.411   0.420
 1686SOL     OW 5956   2.236   6.289   6.584
 1686SOL    HW1 5957   2.326   6.250   6.603
 1686SOL    HW2 5958   2.236   6.386   6.607
 1687SOL     OW 5959   2.664   6.155   2.253
 1687SOL    HW1 5960   2.595   6.085   2.269
 1687SOL    HW2 5961   2.629   6.224   2.189
 1688SOL     OW 5962   0.870   1.243   3.172
 1688SOL    HW1 5963   0.865   1.273   3.076
 1688SOL    HW2 5964   0.850   1.146   3.178
 1689SOL     OW 5965   3.272   1.847   2.286
 1689SOL    HW1 5966   3.246   1.942   2.306
 1689SOL    HW2 5967   3.252   1.827   2.190
 1690SOL     OW 5968   1.105   2.224   0.591
 1690SOL    HW1 5969   1.138   2.155   0.655
 1690SOL    HW2 5970   1.013   2.201   0.561
 1691SOL     OW 5971   4.262   5.063   2.498
 1691SOL    HW1 5972   4.276   5.136   2.431
 1691SOL    HW2 5973   4.349   5.014   2.512
 1692SOL     OW 5974   1.730   7.006   3.174
 1692SOL    HW1 5975   1.664   0.049   3.135
 1692SOL    HW2 5976   1.698   6.913   3.160
 1693SOL     OW 5977   3.321   1.830   3.966
 1693SOL    HW1 5978   3.343   1.861   4.059
 1693SOL    HW2 5979   3.389   1.762   3.937
 1694SOL     OW 5980   5.401   5.675   5.215
 1694SOL    HW1 5981   5.356   5.601   5.165
 1694SOL    HW2 5982   5.357   5.686   5.304
 1695SOL     OW 5983   3.942   1.134   6.285
 1695SOL    HW1 5984   4.008   1.089   6.226
 1695SOL    HW2 5985   3.968   1.121   6.381
 1696SOL     OW 5986   3.405   5.864   1.841
 1696SOL    HW1 5987   3.333   5.929   1.862
 1696SOL    HW2 5988   3.374   5.801   1.769
 1697SOL     OW 5989   1.038   1.751   1.825
 1697SOL    HW1 5990   1.132   1.718   1.816
 1697SOL    HW2 5991   0.991   1.699   1.897
 1698SOL     OW 5992   5.011   2.192   1.158
 1698SOL    HW1 5993   5.026   2.133   1.078
 1698SOL    HW2 5994   4.947   2.265   1.134
 1699SOL     OW 5995   2.810   4.881   0.508
 1699SOL    HW1 5996   2.776   4.803   0.455
 1699SOL    HW2 5997   2.859   4.943   0.447
 1700SOL     OW 5998   6.126   2.536   4.654
 1700SOL    HW1 5999   6.123   2.565   4.558
 1700SOL    HW2 6000   6.132   2.436   4.658
 1701SOL     OW 6001   6.220   2.973   5.116
 1701SOL    HW1 6002   6.150   2.940   5.179
 1701SOL    HW2 6003   6.308   2.933   5.140
 1702SOL     OW 6004   4.599   2.795   1.766
 1702SOL    HW1 6005   4.641   2.801   1.675
 1702SOL    HW2 6006   4.583   2.888   1.801
 1703SOL     OW 6007   1.652   3.744   0.185
 1703SOL    HW1 6008   1.701   3.658   0.196
 1703SOL    HW2 6009   1.554   3.727   0.177
 1704SOL     OW 6010   0.161   1.032   1.718
 1704SOL    HW1 6011   0.067   1.061   1.697
 1704SOL    HW2 6012   0.162   0.981   1.803
 1705SOL     OW 6013   3.942   3.023   2.906
 1705SOL    HW1 6014   4.003   3.072   2.844
 1705SOL    HW2 6015   3.869   2.979   2.854
 1706SOL     OW 6016   2.476   0.552   6.287
 1706SOL    HW1 6017   2.426   0.493   6.350
 1706SOL    HW2 6018   2.573   0.527   6.287
 1707SOL     OW 6019   5.046   1.355   2.780
 1707SOL    HW1 6020   5.040   1.344   2.681
 1707SOL    HW2 6021   4.989   1.432   2.809
 1708SOL     OW 6022   0.092   4.602   1.500
 1708SOL    HW1 6023   0.118   4.690   1.538
 1708SOL    HW2 6024   0.143   4.584   1.416
 1709SOL     OW 6025   2.486   5.307   4.978
 1709SOL    HW1 6026   2.493   5.353   5.067
 1709SOL    HW2 6027   2.567   5.249   4.964
 1710SOL     OW 6028   6.649   5.301   4.199
 1710SOL    HW1 6029   6.681   5.354   4.278
 1710SOL    HW2 6030   6.648   5.204   4.222
 1711SOL     OW 6031   1.643   4.317   5.400
 1711SOL    HW1 6032   1.732   4.271   5.405
 1711SOL    HW2 6033   1.608   4.311   5.306
 1712SOL     OW 6034   2.179   4.818   1.668
 1712SOL    HW1 6035   2.129   4.836   1.584
 1712SOL    HW2 6036   2.209   4.904   1.709
 1713SOL     OW 6037   1.813   3.309   0.817
 1713SOL    HW1 6038   1.885   3.376   0.837
 1713SOL    HW2 6039   1.855   3.222   0.790
 1714SOL     OW 6040   4.157   1.018   1.545
 1714SOL    HW1 6041   4.251   0.986   1.535
 1714SOL    HW2 6042   4.122   0.994   1.635
 1715SOL     OW 6043   0.426   2.926   3.613
 1715SOL    HW1 6044   0.490   2.919   3.690
 1715SOL    HW2 6045   0.361   3.000   3.631
 1716SOL     OW 6046   0.529   0.458   0.221
 1716SOL    HW1 6047   0.564   0.388   0.283
 1716SOL    HW2 6048   0.591   0.470   0.144
 1717SOL     OW 6049   3.135   6.896   6.844
 1717SOL    HW1 6050   3.181   6.932   6.925
 1717SOL    HW2 6051   3.051   6.948   6.828
 1718SOL     OW 6052   1.739   4.514   5.558
 1718SOL    HW1 6053   1.681   4.436   5.533
 1718SOL    HW2 6054   1.832   4.482   5.574
 1719SOL     OW 6055   2.067   3.665   1.537
 1719SOL    HW1 6056   2.066   3.685   1.439
 1719SOL    HW2 6057   1.975   3.641   1.567
 1720SOL     OW 6058   6.684   1.651   2.395
 1720SOL    HW1 6059   6.679   1.720   2.467
 1720SOL    HW2 6060   6.716   1.564   2.434
 1721SOL     OW 6061   1.572   6.284   4.108
 1721SOL    HW1 6062   1.522   6.322   4.185
 1721SOL    HW2 6063   1.584   6.186   4.122
 1722SOL     OW 6064   5.726   0.319   1.693
 1722SOL    HW1 6065   5.753   0.318   1.790
 1722SOL    HW2 6066   5.629   0.298   1.685
 1723SOL     OW 6067   5.958   0.997   2.673
 1723SOL    HW1 6068   5.979   0.961   2.764
 1723SOL    HW2 6069   5.861   1.020   2.667
 1724SOL     OW 6070   5.648   0.453   0.206
 1724SOL    HW1 6071   5.566   0.411   0.166
 1724SOL    HW2 6072   5.722   0.386   0.208
 1725SOL     OW 6073   3.628   5.634   2.179
 1725SOL    HW1 6074   3.612   5.540   2.148
 1725SOL    HW2 6075   3.651   5.633   2.276
 1726SOL     OW 6076   6.840   3.645   4.580
 1726SOL    HW1 6077   6.879   3.598   4.501
 1726SOL    HW2 6078   6.829   3.580   4.656
 1727SOL     OW 6079   2.808   3.419   5.331
 1727SOL    HW1 6080   2.792   3.512   5.365
 1727SOL    HW2 6081   2.870   3.423   5.253
 1728SOL     OW 6082   4.443   4.916   3.649
 1728SOL    HW1 6083   4.372   4.972   3.692
 1728SOL    HW2 6084   4.524   4.915   3.708
 1729SOL     OW 6085   1.578   3.771   2.119
 1729SOL    HW1 6086   1.624   3.763   2.207
 1729SOL    HW2 6087   1.531   3.859   2.113
 1730SOL     OW 6088   5.682   2.291   4.652
 1730SOL    HW1 6089   5.750   2.329   4.715
 1730SOL    HW2 6090   5.595   2.279   4.699
 1731SOL     OW 6091   6.933   6.500   0.709
 1731SOL    HW1 6092   6.977   6.590   0.709
 1731SOL    HW2 6093   7.003   6.429   0.716
 1732SOL     OW 6094   0.535   4.583   6.906
 1732SOL    HW1 6095   0.561   4.510   6.843
 1732SOL    HW2 6096   0.451   4.557   6.955
 1733SOL     OW 6097   0.929   3.878   0.109
 1733SOL    HW1 6098   0.937   3.793   0.160
 1733SOL    HW2 6099   0.946   3.861   0.012
 1734SOL     OW 6100   4.970   3.645   1.579
 1734SOL    HW1 6101   4.924   3.591   1.509
 1734SOL    HW2 6102   5.060   3.606   1.597
 1735SOL     OW 6103   5.066   5.715   0.600
 1735SOL    HW1 6104   5.117   5.650   0.544
 1735SOL    HW2 6105   5.063   5.682   0.694
 1736SOL     OW 6106   2.776   3.491   0.360
 1736SOL    HW1 6107   2.860   3.445   0.388
 1736SOL    HW2 6108   2.723   3.431   0.301
 1737SOL     OW 6109   0.789   5.593   3.482
 1737SOL    HW1 6110   0.778   5.692   3.482
 1737SOL    HW2 6111   0.802   5.561   3.388
 1738SOL     OW 6112   1.094   1.416   1.883
 1738SOL    HW1 6113   1.170   1.475   1.857
 1738SOL    HW2 6114   1.122   1.320   1.878
 1739SOL     OW 6115   4.385   2.374   6.251
 1739SOL    HW1 6116   4.416   2.317   6.175
 1739SOL    HW2 6117   4.416   2.334   6.337
 1740SOL     OW 6118   0.753   1.448   5.436
 1740SOL    HW1 6119   0.813   1.430   5.357
 1740SOL    HW2 6120   0.768   1.378   5.506
 1741SOL     OW 6121   2.280   1.126   2.345
 1741SOL    HW1 6122   2.322   1.071   2.417
 1741SOL    HW2 6123   2.328   1.213   2.337
 1742SOL     OW 6124   5.685   6.691   4.218
 1742SOL    HW1 6125   5.747   6.769   4.219
 1742SOL    HW2 6126   5.693   6.642   4.131
 1743SOL     OW 6127   4.692   1.025   0.619
 1743SOL    HW1 6128   4.598   1.016   0.588
 1743SOL    HW2 6129   4.717   0.946   0.674
 1744SOL     OW 6130   3.120   5.992   1.835
 1744SOL    HW1 6131   3.081   6.059   1.898
 1744SOL    HW2 6132   3.056   5.917   1.822
 1745SOL     OW 6133   6.878   3.286   5.192
 1745SOL    HW1 6134   6.902   3.203   5.142
 1745SOL    HW2 6135   6.832   3.350   5.130
 1746SOL     OW 6136   2.621   0.831   5.541
 1746SOL    HW1 6137   2.666   0.876   5.463
 1746SOL    HW2 6138   2.645   0.879   5.625
 1747SOL     OW 6139   5.037   6.696   5.385
 1747SOL    HW1 6140   5.020   6.612   5.334
 1747SOL    HW2 6141   5.083   6.674   5.471
 1748SOL     OW 6142   5.707   1.250   1.496
 1748SOL    HW1 6143   5.648   1.210   1.426
 1748SOL    HW2 6144   5.729   1.182   1.565
 1749SOL     OW 6145   4.570   0.153   5.850
 1749SOL    HW1 6146   4.500   0.100   5.898
 1749SOL    HW2 6147   4.637   0.090   5.810
 1750SOL     OW 6148   4.844   0.569   4.331
 1750SOL    HW1 6149   4.842   0.669   4.338
 1750SOL    HW2 6150   4.938   0.537   4.343
 1751SOL     OW 6151   2.027   5.650   3.926
 1751SOL    HW1 6152   2.010   5.594   3.845
 1751SOL    HW2 6153   2.023   5.747   3.902
 1752SOL     OW 6154   6.902   1.887   6.299
 1752SOL    HW1 6155   6.847   1.966   6.324
 1752SOL    HW2 6156   6.983   1.882   6.358
 1753SOL     OW 6157   2.763   6.292   2.501
 1753SOL    HW1 6158   2.744   6.243   2.416
 1753SOL    HW2 6159   2.749   6.230   2.579
 1754SOL     OW 6160   3.566   2.820   1.963
 1754SOL    HW1 6161   3.479   2.836   1.918
 1754SOL    HW2 6162   3.622   2.758   1.907
 1755SOL     OW 6163   6.373   4.585   0.219
 1755SOL    HW1 6164   6.361   4.559   0.315
 1755SOL    HW2 6165   6.383   4.684   0.212
 1756SOL     OW 6166   5.619   5.399   4.689
 1756SOL    HW1 6167   5.657   5.490   4.701
 1756SOL    HW2 6168   5.658   5.356   4.607
 1757SOL     OW 6169   3.638   0.818   5.545
 1757SOL    HW1 6170   3.608   0.857   5.458
 1757SOL    HW2 6171   3.567   0.757   5.580
 1758SOL     OW 6172   3.054   1.712   3.265
 1758SOL    HW1 6173   2.984   1.646   3.240
 1758SOL    HW2 6174   3.024   1.765   3.345
 1759SOL     OW 6175   0.513   5.322   6.163
 1759SOL    HW1 6176   0.550   5.410   6.132
 1759SOL    HW2 6177   0.549   5.301   6.254
 1760SOL     OW 6178   4.933   0.173   2.010
 1760SOL    HW1 6179   4.949   0.190   1.913
 1760SOL    HW2 6180   5.021   0.164   2.057
 1761SOL     OW 6181   5.749   3.021   1.524
 1761SOL    HW1 6182   5.737   2.949   1.456
 1761SOL    HW2 6183   5.703   3.104   1.493
 1762SOL     OW 6184   5.518   2.952   0.667
 1762SOL    HW1 6185   5.466   2.871   0.693
 1762SOL    HW2 6186   5.557   2.939   0.576
 1763SOL     OW 6187   2.163   3.107   3.823
 1763SOL    HW1 6188   2.206   3.018   3.832
 1763SOL    HW2 6189   2.165   3.155   3.912
 1764SOL     OW 6190   6.531   3.528   4.386
 1764SOL    HW1 6191   6.488   3.536   4.297
 1764SOL    HW2 6192   6.582   3.442   4.391
 1765SOL     OW 6193   2.156   3.894   6.213
 1765SOL    HW1 6194   2.154   3.858   6.119
 1765SOL    HW2 6195   2.247   3.881   6.252
 1766SOL     OW 6196   5.795   3.482   5.752
 1766SOL    HW1 6197   5.843   3.551   5.699
 1766SOL    HW2 6198   5.838   3.473   5.842
 1767SOL     OW 6199   6.383   4.583   1.750
 1767SOL    HW1 6200   6.441   4.540   1.819
 1767SOL    HW2 6201   6.438   4.606   1.670
 1768SOL     OW 6202   6.391   6.553   3.619
 1768SOL    HW1 6203   6.314   6.515   3.568
 1768SOL    HW2 6204   6.362   6.575   3.712
 1769SOL     OW 6205   5.163   1.109   3.522
 1769SOL    HW1 6206   5.191   1.200   3.552
 1769SOL    HW2 6207   5.236   1.043   3.541
 1770SOL     OW 6208   3.228   5.576   5.153
 1770SOL    HW1 6209   3.304   5.621   5.199
 1770SOL    HW2 6210   3.166   5.645   5.115
 1771SOL     OW 6211   4.636   6.818   6.760
 1771SOL    HW1 6212   4.682   6.831   6.848
 1771SOL    HW2 6213   4.608   6.722   6.751
 1772SOL     OW 6214   3.513   5.905   3.376
 1772SOL    HW1 6215   3.464   5.876   3.458
 1772SOL    HW2 6216   3.448   5.917   3.301
 1773SOL     OW 6217   0.766   6.945   0.191
 1773SOL    HW1 6218   0.840   6.988   0.243
 1773SOL    HW2 6219   0.759   6.848   0.216
 1774SOL     OW 6220   2.885   4.768   2.651
 1774SOL    HW1 6221   2.980   4.737   2.653
 1774SOL    HW2 6222   2.842   4.749   2.739
 1775SOL     OW 6223   0.785   4.123   1.527
 1775SOL    HW1 6224   0.850   4.059   1.486
 1775SOL    HW2 6225   0.790   4.116   1.627
 1776SOL     OW 6226   2.999   6.551   5.640
 1776SOL    HW1 6227   3.005   6.532   5.738
 1776SOL    HW2 6228   2.915   6.512   5.604
 1777SOL     OW 6229   3.367   6.312   0.565
 1777SOL    HW1 6230   3.278   6.279   0.533
 1777SOL    HW2 6231   3.410   6.367   0.493
 1778SOL     OW 6232   6.999   3.424   5.891
 1778SOL    HW1 6233   0.055   3.422   5.954
 1778SOL    HW2 6234   7.011   3.353   5.821
 1779SOL     OW 6235   4.011   0.586   5.742
 1779SOL    HW1 6236   3.980   0.578   5.836
 1779SOL    HW2 6237   3.934   0.570   5.680
 1780SOL     OW 6238   3.113   3.397   6.689
 1780SOL    HW1 6239   3.020   3.362   6.683
 1780SOL    HW2 6240   3.169   3.335   6.743
 1781SOL     OW 6241   3.468   5.475   3.947
 1781SOL    HW1 6242   3.525   5.518   3.877
 1781SOL    HW2 6243   3.482   5.521   4.035
 1782SOL     OW 6244   3.173   1.821   4.291
 1782SOL    HW1 6245   3.097   1.761   4.314
 1782SOL    HW2 6246   3.138   1.912   4.268
 1783SOL     OW 6247   1.684   5.968   6.544
 1783SOL    HW1 6248   1.711   6.060   6.576
 1783SOL    HW2 6249   1.694   5.963   6.445
 1784SOL     OW 6250   3.280   0.335   6.160
 1784SOL    HW1 6251   3.350   0.407   6.154
 1784SOL    HW2 6252   3.325   0.246   6.160
 1785SOL     OW 6253   6.963   4.997   1.625
 1785SOL    HW1 6254   6.902   5.013   1.703
 1785SOL    HW2 6255   6.956   5.073   1.561
 1786SOL     OW 6256   3.920   2.218   1.453
 1786SOL    HW1 6257   3.849   2.210   1.383
 1786SOL    HW2 6258   4.003   2.256   1.414
 1787SOL     OW 6259   3.849   0.929   5.659
 1787SOL    HW1 6260   3.820   0.983   5.738
 1787SOL    HW2 6261   3.770   0.881   5.620
 1788SOL     OW 6262   1.661   4.830   6.202
 1788SOL    HW1 6263   1.646   4.750   6.261
 1788SOL    HW2 6264   1.699   4.799   6.115
 1789SOL     OW 6265   5.631   0.207   0.417
 1789SOL    HW1 6266   5.679   0.157   0.345
 1789SOL    HW2 6267   5.532   0.202   0.402
 1790SOL     OW 6268   3.026   6.430   2.694
 1790SOL    HW1 6269   3.025   6.345   2.642
 1790SOL    HW2 6270   3.075   6.416   2.781
 1791SOL     OW 6271   0.406   6.494   2.454
 1791SOL    HW1 6272   0.380   6.400   2.475
 1791SOL    HW2 6273   0.342   6.557   2.498
 1792SOL     OW 6274   1.150   3.912   4.381
 1792SOL    HW1 6275   1.141   3.985   4.314
 1792SOL    HW2 6276   1.098   3.936   4.463
 1793SOL     OW 6277   6.933   0.749   3.217
 1793SOL    HW1 6278   6.965   0.832   3.261
 1793SOL    HW2 6279   6.936   0.673   3.282
 1794SOL     OW 6280   4.273   5.751   6.569
 1794SOL    HW1 6281   4.317   5.840   6.562
 1794SOL    HW2 6282   4.299   5.707   6.654
 1795SOL     OW 6283   0.899   2.777   0.256
 1795SOL    HW1 6284   0.803   2.777   0.286
 1795SOL    HW2 6285   0.918   2.693   0.206
 1796SOL     OW 6286   3.790   0.730   6.242
 1796SOL    HW1 6287   3.724   0.801   6.269
 1796SOL    HW2 6288   3.806   0.669   6.319
 1797SOL     OW 6289   0.739   0.735   1.305
 1797SOL    HW1 6290   0.835   0.756   1.321
 1797SOL    HW2 6291   0.687   0.820   1.298
 1798SOL     OW 6292   5.697   1.771   3.222
 1798SOL    HW1 6293   5.607   1.743   3.188
 1798SOL    HW2 6294   5.768   1.738   3.161
 1799SOL     OW 6295   2.185   2.191   0.014
 1799SOL    HW1 6296   2.242   2.125   0.064
 1799SOL    HW2 6297   2.232   2.220   6.953
 1800SOL     OW 6298   3.240   4.887   2.561
 1800SOL    HW1 6299   3.172   4.896   2.633
 1800SOL    HW2 6300   3.200   4.914   2.473
 1801SOL     OW 6301   5.534   6.700   0.611
 1801SOL    HW1 6302   5.582   6.712   0.524
 1801SOL    HW2 6303   5.511   6.604   0.622
 1802SOL     OW 6304   6.175   4.887   3.580
 1802SOL    HW1 6305   6.206   4.925   3.493
 1802SOL    HW2 6306   6.238   4.915   3.652
 1803SOL     OW 6307   5.440   5.327   1.231
 1803SOL    HW1 6308   5.473   5.343   1.138
 1803SOL    HW2 6309   5.466   5.235   1.261
 1804SOL     OW 6310   3.371   3.236   6.067
 1804SOL    HW1 6311   3.303   3.196   6.006
 1804SOL    HW2 6312   3.398   3.170   6.136
 1805SOL     OW 6313   5.855   3.288   6.298
 1805SOL    HW1 6314   5.852   3.343   6.215
 1805SOL    HW2 6315   5.783   3.219   6.295
 1806SOL     OW 6316   6.893   0.544   0.560
 1806SOL    HW1 6317   6.880   0.638   0.530
 1806SOL    HW2 6318   6.964   0.540   0.630
 1807SOL     OW 6319   6.295   2.070   5.785
 1807SOL    HW1 6320   6.365   2.020   5.734
 1807SOL    HW2 6321   6.330   2.091   5.877
 1808SOL     OW 6322   2.111   4.620   4.385
 1808SOL    HW1 6323   2.076   4.593   4.474
 1808SOL    HW2 6324   2.139   4.716   4.388
 1809SOL     OW 6325   3.805   0.535   6.455
 1809SOL    HW1 6326   3.728   0.473   6.469
 1809SOL    HW2 6327   3.840   0.566   6.543
 1810SOL     OW 6328   3.807   5.880   2.997
 1810SOL    HW1 6329   3.754   5.851   2.917
 1810SOL    HW2 6330   3.761   5.848   3.080
 1811SOL     OW 6331   5.957   5.917   2.547
 1811SOL    HW1 6332   6.057   5.917   2.548
 1811SOL    HW2 6333   5.923   5.846   2.608
 1812SOL     OW 6334   4.513   5.042   6.183
 1812SOL    HW1 6335   4.551   5.132   6.206
 1812SOL    HW2 6336   4.471   5.003   6.265
 1813SOL     OW 6337   6.780   5.478   5.418
 1813SOL    HW1 6338   6.840   5.558   5.429
 1813SOL    HW2 6339   6.831   5.405   5.372
 1814SOL     OW 6340   5.002   6.743   2.619
 1814SOL    HW1 6341   4.970   6.761   2.712
 1814SOL    HW2 6342   4.931   6.768   2.554
 1815SOL     OW 6343   0.308   1.252   2.422
 1815SOL    HW1 6344   0.252   1.332   2.405
 1815SOL    HW2 6345   0.295   1.221   2.516
 1816SOL     OW 6346   1.234   4.583   0.510
 1816SOL    HW1 6347   1.216   4.491   0.474
 1816SOL    HW2 6348   1.162   4.609   0.573
 1817SOL     OW 6349   1.402   5.771   1.701
 1817SOL    HW1 6350   1.428   5.830   1.625
 1817SOL    HW2 6351   1.396   5.826   1.785
 1818SOL     OW 6352   1.363   1.268   3.213
 1818SOL    HW1 6353   1.413   1.230   3.291
 1818SOL    HW2 6354   1.428   1.310   3.150
 1819SOL     OW 6355   0.761   4.170   2.272
 1819SOL    HW1 6356   0.777   4.238   2.344
 1819SOL    HW2 6357   0.847   4.124   2.250
 1820SOL     OW 6358   5.952   0.384   2.657
 1820SOL    HW1 6359   5.995   0.387   2.747
 1820SOL    HW2 6360   5.886   0.458   2.648
 1821SOL     OW 6361   1.608   1.718   3.676
 1821SOL    HW1 6362   1.611   1.764   3.765
 1821SOL    HW2 6363   1.677   1.759   3.616
 1822SOL     OW 6364   3.325   3.509   1.720
 1822SOL    HW1 6365   3.341   3.410   1.713
 1822SOL    HW2 6366   3.354   3.540   1.811
 1823SOL     OW 6367   4.273   0.391   2.517
 1823SOL    HW1 6368   4.323   0.363   2.435
 1823SOL    HW2 6369   4.192   0.333   2.528
 1824SOL     OW 6370   4.955   2.115   1.556
 1824SOL    HW1 6371   4.870   2.145   1.600
 1824SOL    HW2 6372   5.027   2.182   1.573
 1825SOL     OW 6373   1.026   0.856   1.735
 1825SOL    HW1 6374   1.055   0.790   1.665
 1825SOL    HW2 6375   1.107   0.892   1.782
 1826SOL     OW 6376   2.929   5.964   6.233
 1826SOL    HW1 6377   2.911   5.957   6.331
 1826SOL    HW2 6378   2.874   6.039   6.194
 1827SOL     OW 6379   6.224   6.925   1.488
 1827SOL    HW1 6380   6.235   6.931   1.389
 1827SOL    HW2 6381   6.177   7.006   1.522
 1828SOL     OW 6382   1.761   2.648   0.041
 1828SOL    HW1 6383   1.723   2.728   7.017
 1828SOL    HW2 6384   1.693   2.611   0.105
 1829SOL     OW 6385   6.075   5.018   1.811
 1829SOL    HW1 6386   6.055   5.116   1.811
 1829SOL    HW2 6387   5.989   4.966   1.818
 1830SOL     OW 6388   5.251   6.320   3.939
 1830SOL    HW1 6389   5.155   6.345   3.937
 1830SOL    HW2 6390   5.273   6.265   3.858
 1831SOL     OW 6391   5.287   0.630   3.594
 1831SOL    HW1 6392   5.378   0.645   3.555
 1831SOL    HW2 6393   5.266   0.704   3.658
 1832SOL     OW 6394   4.949   2.429   0.296
 1832SOL    HW1 6395   4.856   2.398   0.313
 1832SOL    HW2 6396   4.978   2.491   0.369
 1833SOL     OW 6397   5.646   1.732   5.862
 1833SOL    HW1 6398   5.667   1.638   5.889
 1833SOL    HW2 6399   5.697   1.756   5.779
 1834SOL     OW 6400   2.549   4.170   0.653
 1834SOL    HW1 6401   2.521   4.243   0.716
 1834SOL    HW2 6402   2.647   4.153   0.663
 1835SOL     OW 6403   1.172   4.899   6.650
 1835SOL    HW1 6404   1.218   4.812   6.633
 1835SOL    HW2 6405   1.224   4.952   6.717
 1836SOL     OW 6406   1.027   6.343   0.442
 1836SOL    HW1 6407   0.993   6.375   0.531
 1836SOL    HW2 6408   1.059   6.421   0.389
 1837SOL     OW 6409   1.075   2.378   5.021
 1837SOL    HW1 6410   1.170   2.404   5.035
 1837SOL    HW2 6411   1.026   2.452   4.975
 1838SOL     OW 6412   0.905   2.482   4.539
 1838SOL    HW1 6413   0.999   2.514   4.536
 1838SOL    HW2 6414   0.843   2.560   4.526
 1839SOL     OW 6415   0.431   1.457   6.351
 1839SOL    HW1 6416   0.463   1.551   6.355
 1839SOL    HW2 6417   0.382   1.441   6.265
 1840SOL     OW 6418   1.278   5.350   0.704
 1840SOL    HW1 6419   1.215   5.294   0.758
 1840SOL    HW2 6420   1.354   5.293   0.672
 1841SOL     OW 6421   1.185   3.123   2.947
 1841SOL    HW1 6422   1.179   3.039   3.002
 1841SOL    HW2 6423   1.101   3.175   2.955
 1842SOL     OW 6424   0.866   5.306   6.422
 1842SOL    HW1 6425   0.896   5.234   6.485
 1842SOL    HW2 6426   0.858   5.392   6.471
 1843SOL     OW 6427   4.097   2.227   4.752
 1843SOL    HW1 6428   4.005   2.210   4.790
 1843SOL    HW2 6429   4.144   2.294   4.809
 1844SOL     OW 6430   5.382   3.409   3.894
 1844SOL    HW1 6431   5.477   3.415   3.863
 1844SOL    HW2 6432   5.324   3.467   3.836
 1845SOL     OW 6433   4.104   6.643   0.751
 1845SOL    HW1 6434   4.022   6.623   0.698
 1845SOL    HW2 6435   4.078   6.671   0.843
 1846SOL     OW 6436   3.578   1.383   5.617
 1846SOL    HW1 6437   3.566   1.427   5.528
 1846SOL    HW2 6438   3.638   1.440   5.674
 1847SOL     OW 6439   1.549   6.859   6.895
 1847SOL    HW1 6440   1.547   6.809   6.808
 1847SOL    HW2 6441   1.640   6.897   6.910
 1848SOL     OW 6442   2.527   0.076   2.585
 1848SOL    HW1 6443   2.585   7.018   2.568
 1848SOL    HW2 6444   2.488   0.107   2.499
 1849SOL     OW 6445   3.183   0.808   6.652
 1849SOL    HW1 6446   3.146   0.763   6.733
 1849SOL    HW2 6447   3.127   0.783   6.572
 1850SOL     OW 6448   5.102   1.648   1.812
 1850SOL    HW1 6449   5.056   1.638   1.900
 1850SOL    HW2 6450   5.134   1.558   1.781
 1851SOL     OW 6451   6.280   3.529   2.939
 1851SOL    HW1 6452   6.205   3.589   2.968
 1851SOL    HW2 6453   6.245   3.461   2.875
 1852SOL     OW 6454   4.910   2.451   6.095
 1852SOL    HW1 6455   4.991   2.397   6.118
 1852SOL    HW2 6456   4.914   2.479   5.999
 1853SOL     OW 6457   1.027   4.374   0.535
 1853SOL    HW1 6458   1.043   4.406   0.442
 1853SOL    HW2 6459   0.954   4.305   0.534
 1854SOL     OW 6460   2.792   5.546   3.774
 1854SOL    HW1 6461   2.780   5.620   3.707
 1854SOL    HW2 6462   2.714   5.484   3.768
 1855SOL     OW 6463   5.817   4.525   2.298
 1855SOL    HW1 6464   5.907   4.532   2.340
 1855SOL    HW2 6465   5.814   4.581   2.215
 1856SOL     OW 6466   5.089   2.960   6.678
 1856SOL    HW1 6467   5.098   2.861   6.664
 1856SOL    HW2 6468   5.049   3.001   6.596
 1857SOL     OW 6469   4.710   1.541   3.492
 1857SOL    HW1 6470   4.671   1.450   3.504
 1857SOL    HW2 6471   4.636   1.606   3.471
 1858SOL     OW 6472   5.822   3.711   3.386
 1858SOL    HW1 6473   5.736   3.674   3.352
 1858SOL    HW2 6474   5.843   3.797   3.340
 1859SOL     OW 6475   5.804   1.453   2.955
 1859SOL    HW1 6476   5.760   1.412   3.035
 1859SOL    HW2 6477   5.876   1.392   2.923
 1860SOL     OW 6478   3.752   1.978   5.126
 1860SOL    HW1 6479   3.735   2.059   5.183
 1860SOL    HW2 6480   3.767   1.898   5.185
 1861SOL     OW 6481   5.470   6.016   2.325
 1861SOL    HW1 6482   5.554   6.002   2.272
 1861SOL    HW2 6483   5.391   5.988   2.270
 1862SOL     OW 6484   1.989   1.661   0.447
 1862SOL    HW1 6485   2.012   1.581   0.503
 1862SOL    HW2 6486   1.930   1.723   0.499
 1863SOL     OW 6487   2.046   2.633   1.428
 1863SOL    HW1 6488   2.114   2.593   1.489
 1863SOL    HW2 6489   2.039   2.579   1.345
 1864SOL     OW 6490   0.769   6.678   3.139
 1864SOL    HW1 6491   0.784   6.761   3.085
 1864SOL    HW2 6492   0.842   6.613   3.120
 1865SOL     OW 6493   5.190   2.359   6.856
 1865SOL    HW1 6494   5.188   2.388   6.952
 1865SOL    HW2 6495   5.135   2.276   6.846
 1866SOL     OW 6496   4.956   5.219   2.328
 1866SOL    HW1 6497   4.874   5.162   2.339
 1866SOL    HW2 6498   5.036   5.170   2.363
 1867SOL     OW 6499   0.693   5.005   6.739
 1867SOL    HW1 6500   0.708   4.910   6.765
 1867SOL    HW2 6501   0.654   5.009   6.647
 1868SOL     OW 6502   6.794   3.995   5.495
 1868SOL    HW1 6503   6.724   4.015   5.426
 1868SOL    HW2 6504   6.840   3.909   5.472
 1869SOL     OW 6505   6.222   1.415   4.773
 1869SOL    HW1 6506   6.127   1.410   4.805
 1869SOL    HW2 6507   6.223   1.415   4.673
 1870SOL     OW 6508   2.329   4.261   4.555
 1870SOL    HW1 6509   2.345   4.241   4.652
 1870SOL    HW2 6510   2.407   4.314   4.519
 1871SOL     OW 6511   1.591   0.404   0.611
 1871SOL    HW1 6512   1.665   0.378   0.674
 1871SOL    HW2 6513   1.512   0.344   0.627
 1872SOL     OW 6514   2.470   5.045   0.101
 1872SOL    HW1 6515   2.372   5.041   0.121
 1872SOL    HW2 6516   2.510   4.955   0.117
 1873SOL     OW 6517   5.367   0.886   0.748
 1873SOL    HW1 6518   5.373   0.940   0.832
 1873SOL    HW2 6519   5.459   0.864   0.716
 1874SOL     OW 6520   1.160   4.063   2.503
 1874SOL    HW1 6521   1.110   4.048   2.588
 1874SOL    HW2 6522   1.187   4.159   2.496
 1875SOL     OW 6523   1.407   0.208   1.284
 1875SOL    HW1 6524   1.364   0.211   1.193
 1875SOL    HW2 6525   1.495   0.256   1.281
 1876SOL     OW 6526   2.175   6.802   4.028
 1876SOL    HW1 6527   2.141   6.741   4.101
 1876SOL    HW2 6528   2.170   6.897   4.059
 1877SOL     OW 6529   0.356   0.258   3.588
 1877SOL    HW1 6530   0.313   0.342   3.622
 1877SOL    HW2 6531   0.389   0.204   3.665
 1878SOL     OW 6532   5.994   2.713   5.756
 1878SOL    HW1 6533   5.924   2.648   5.729
 1878SOL    HW2 6534   5.960   2.807   5.746
 1879SOL     OW 6535   1.972   4.735   5.733
 1879SOL    HW1 6536   1.883   4.739   5.689
 1879SOL    HW2 6537   1.968   4.671   5.810
 1880SOL     OW 6538   6.313   0.297   5.049
 1880SOL    HW1 6539   6.338   0.281   4.954
 1880SOL    HW2 6540   6.239   0.364   5.054
 1881SOL     OW 6541   0.326   2.656   6.993
 1881SOL    HW1 6542   0.375   2.723   6.936
 1881SOL    HW2 6543   0.272   2.704   0.040
 1882SOL     OW 6544   1.307   6.298   6.739
 1882SOL    HW1 6545   1.284   6.231   6.808
 1882SOL    HW2 6546   1.243   6.375   6.743
 1883SOL     OW 6547   0.449   1.996   4.267
 1883SOL    HW1 6548   0.395   2.034   4.193
 1883SOL    HW2 6549   0.388   1.967   4.342
 1884SOL     OW 6550   0.299   2.425   1.037
 1884SOL    HW1 6551   0.202   2.442   1.019
 1884SOL    HW2 6552   0.310   2.397   1.132
 1885SOL     OW 6553   2.340   0.953   4.526
 1885SOL    HW1 6554   2.375   0.863   4.552
 1885SOL    HW2 6555   2.382   1.022   4.585
 1886SOL     OW 6556   0.614   6.633   3.355
 1886SOL    HW1 6557   0.662   6.676   3.279
 1886SOL    HW2 6558   0.672   6.563   3.397
 1887SOL     OW 6559   2.830   6.346   6.156
 1887SOL    HW1 6560   2.923   6.318   6.130
 1887SOL    HW2 6561   2.773   6.264   6.167
 1888SOL     OW 6562   2.752   0.852   3.439
 1888SOL    HW1 6563   2.768   0.847   3.340
 1888SOL    HW2 6564   2.782   0.942   3.472
 1889SOL     OW 6565   0.712   3.614   2.692
 1889SOL    HW1 6566   0.683   3.678   2.621
 1889SOL    HW2 6567   0.642   3.543   2.704
 1890SOL     OW 6568   1.165   6.078   4.784
 1890SOL    HW1 6569   1.090   6.020   4.816
 1890SOL    HW2 6570   1.227   6.098   4.860
 1891SOL     OW 6571   3.112   3.530   3.393
 1891SOL    HW1 6572   3.168   3.606   3.423
 1891SOL    HW2 6573   3.143   3.498   3.304
 1892SOL     OW 6574   1.199   0.227   2.770
 1892SOL    HW1 6575   1.181   0.130   2.749
 1892SOL    HW2 6576   1.115   0.280   2.755
 1893SOL     OW 6577   4.101   3.483   4.439
 1893SOL    HW1 6578   4.092   3.571   4.390
 1893SOL    HW2 6579   4.113   3.501   4.536
 1894SOL     OW 6580   3.220   3.559   4.159
 1894SOL    HW1 6581   3.313   3.523   4.166
 1894SOL    HW2 6582   3.206   3.629   4.229
 1895SOL     OW 6583   1.836   5.994   0.153
 1895SOL    HW1 6584   1.829   6.005   0.054
 1895SOL    HW2 6585   1.830   5.896   0.176
 1896SOL     OW 6586   6.406   2.363   1.555
 1896SOL    HW1 6587   6.439   2.404   1.470
 1896SOL    HW2 6588   6.388   2.266   1.540
 1897SOL     OW 6589   1.211   4.548   4.182
 1897SOL    HW1 6590   1.241   4.602   4.104
 1897SOL    HW2 6591   1.192   4.608   4.259
 1898SOL     OW 6592   1.557   6.096   3.008
 1898SOL    HW1 6593   1.569   6.002   2.975
 1898SOL    HW2 6594   1.560   6.159   2.931
 1899SOL     OW 6595   0.339   1.076   2.196
 1899SOL    HW1 6596   0.348   1.113   2.289
 1899SOL    HW2 6597   0.276   0.999   2.197
 1900SOL     OW 6598   2.607   6.931   6.786
 1900SOL    HW1 6599   2.605   6.858   6.718
 1900SOL    HW2 6600   2.649   6.897   6.870
 1901SOL     OW 6601   2.826   3.628   1.770
 1901SOL    HW1 6602   2.786   3.655   1.682
 1901SOL    HW2 6603   2.918   3.666   1.777
 1902SOL     OW 6604   1.091   6.570   4.951
 1902SOL    HW1 6605   1.061   6.521   4.870
 1902SOL    HW2 6606   1.113   6.665   4.927
 1903SOL     OW 6607   1.059   1.957   4.344
 1903SOL    HW1 6608   1.067   1.957   4.245
 1903SOL    HW2 6609   1.150   1.946   4.385
 1904SOL     OW 6610   5.610   6.019   1.839
 1904SOL    HW1 6611   5.567   6.070   1.764
 1904SOL    HW2 6612   5.706   6.002   1.816
 1905SOL     OW 6613   0.664   1.788   4.009
 1905SOL    HW1 6614   0.738   1.739   3.962
 1905SOL    HW2 6615   0.682   1.789   4.107
 1906SOL     OW 6616   0.961   6.225   4.277
 1906SOL    HW1 6617   0.923   6.317   4.290
 1906SOL    HW2 6618   1.040   6.231   4.215
 1907SOL     OW 6619   4.864   3.216   0.727
 1907SOL    HW1 6620   4.827   3.135   0.680
 1907SOL    HW2 6621   4.963   3.209   0.731
 1908SOL     OW 6622   3.787   0.710   1.403
 1908SOL    HW1 6623   3.884   0.714   1.379
 1908SOL    HW2 6624   3.744   0.798   1.383
 1909SOL     OW 6625   6.344   5.224   4.745
 1909SOL    HW1 6626   6.364   5.195   4.652
 1909SOL    HW2 6627   6.247   5.209   4.764
 1910SOL     OW 6628   0.410   6.404   5.812
 1910SOL    HW1 6629   0.486   6.341   5.803
 1910SOL    HW2 6630   0.444   6.498   5.809
 1911SOL     OW 6631   6.216   6.154   4.062
 1911SOL    HW1 6632   6.310   6.134   4.031
 1911SOL    HW2 6633   6.167   6.068   4.077
 1912SOL     OW 6634   3.594   4.998   1.956
 1912SOL    HW1 6635   3.513   5.052   1.931
 1912SOL    HW2 6636   3.573   4.901   1.946
 1913SOL     OW 6637   3.306   4.190   6.905
 1913SOL    HW1 6638   3.211   4.160   6.903
 1913SOL    HW2 6639   3.310   4.284   6.939
 1914SOL     OW 6640   3.435   4.070   6.700
 1914SOL    HW1 6641   3.398   4.123   6.777
 1914SOL    HW2 6642   3.435   3.973   6.724
 1915SOL     OW 6643   3.244   2.914   6.745
 1915SOL    HW1 6644   3.188   2.832   6.763
 1915SOL    HW2 6645   3.249   2.930   6.647
 1916SOL     OW 6646   4.709   0.606   2.481
 1916SOL    HW1 6647   4.636   0.565   2.424
 1916SOL    HW2 6648   4.752   0.680   2.430
 1917SOL     OW 6649   2.071   4.373   1.630
 1917SOL    HW1 6650   2.085   4.275   1.621
 1917SOL    HW2 6651   2.050   4.395   1.725
 1918SOL     OW 6652   5.608   2.191   3.436
 1918SOL    HW1 6653   5.586   2.099   3.404
 1918SOL    HW2 6654   5.555   2.212   3.519
 1919SOL     OW 6655   6.272   2.203   6.051
 1919SOL    HW1 6656   6.360   2.187   6.096
 1919SOL    HW2 6657   6.207   2.240   6.118
 1920SOL     OW 6658   4.466   2.852   0.578
 1920SOL    HW1 6659   4.422   2.874   0.490
 1920SOL    HW2 6660   4.561   2.827   0.562
 1921SOL     OW 6661   2.216   1.967   0.431
 1921SOL    HW1 6662   2.252   1.881   0.468
 1921SOL    HW2 6663   2.204   2.032   0.506
 1922SOL     OW 6664   3.258   2.919   3.920
 1922SOL    HW1 6665   3.214   3.003   3.953
 1922SOL    HW2 6666   3.227   2.842   3.975
 1923SOL     OW 6667   3.084   0.567   4.302
 1923SOL    HW1 6668   3.028   0.616   4.236
 1923SOL    HW2 6669   3.153   0.514   4.254
 1924SOL     OW 6670   5.231   1.189   0.936
 1924SOL    HW1 6671   5.290   1.164   0.859
 1924SOL    HW2 6672   5.274   1.262   0.989
 1925SOL     OW 6673   1.035   4.130   1.202
 1925SOL    HW1 6674   1.057   4.096   1.111
 1925SOL    HW2 6675   1.105   4.195   1.232
 1926SOL     OW 6676   4.070   0.225   1.568
 1926SOL    HW1 6677   4.117   0.271   1.643
 1926SOL    HW2 6678   4.137   0.179   1.510
 1927SOL     OW 6679   2.201   5.276   1.308
 1927SOL    HW1 6680   2.285   5.266   1.254
 1927SOL    HW2 6681   2.224   5.320   1.395
 1928SOL     OW 6682   6.794   4.531   2.447
 1928SOL    HW1 6683   6.799   4.460   2.517
 1928SOL    HW2 6684   6.849   4.503   2.368
 1929SOL     OW 6685   3.459   6.957   3.186
 1929SOL    HW1 6686   3.509   6.876   3.218
 1929SOL    HW2 6687   3.378   6.971   3.243
 1930SOL     OW 6688   3.776   3.483   0.371
 1930SOL    HW1 6689   3.695   3.433   0.340
 1930SOL    HW2 6690   3.845   3.418   0.405
 1931SOL     OW 6691   6.948   2.844   3.965
 1931SOL    HW1 6692   6.910   2.842   3.873
 1931SOL    HW2 6693   6.899   2.913   4.019
 1932SOL     OW 6694   4.553   1.293   2.271
 1932SOL    HW1 6695   4.486   1.289   2.345
 1932SOL    HW2 6696   4.506   1.283   2.183
 1933SOL     OW 6697   1.469   1.316   1.338
 1933SOL    HW1 6698   1.480   1.403   1.288
 1933SOL    HW2 6699   1.440   1.245   1.274
 1934SOL     OW 6700   6.942   1.145   0.063
 1934SOL    HW1 6701   6.975   1.112   6.997
 1934SOL    HW2 6702   7.018   1.176   0.119
 1935SOL     OW 6703   5.815   5.242   3.541
 1935SOL    HW1 6704   5.726   5.285   3.527
 1935SOL    HW2 6705   5.813   5.149   3.504
 1936SOL     OW 6706   4.887   3.362   5.747
 1936SOL    HW1 6707   4.950   3.310   5.690
 1936SOL    HW2 6708   4.923   3.454   5.761
 1937SOL     OW 6709   6.591   4.941   6.585
 1937SOL    HW1 6710   6.506   4.894   6.560
 1937SOL    HW2 6711   6.588   4.965   6.682
 1938SOL     OW 6712   6.914   2.541   6.912
 1938SOL    HW1 6713   6.876   2.630   6.936
 1938SOL    HW2 6714   6.840   2.474   6.903
 1939SOL     OW 6715   0.392   0.570   4.251
 1939SOL    HW1 6716   0.387   0.498   4.320
 1939SOL    HW2 6717   0.343   0.540   4.169
 1940SOL     OW 6718   0.531   5.204   0.652
 1940SOL    HW1 6719   0.479   5.237   0.574
 1940SOL    HW2 6720   0.620   5.171   0.622
 1941SOL     OW 6721   5.936   1.345   4.809
 1941SOL    HW1 6722   5.938   1.257   4.762
 1941SOL    HW2 6723   5.867   1.343   4.881
 1942SOL     OW 6724   0.384   5.008   1.746
 1942SOL    HW1 6725   0.327   5.082   1.709
 1942SOL    HW2 6726   0.436   4.966   1.671
 1943SOL     OW 6727   0.636   2.948   3.787
 1943SOL    HW1 6728   0.724   2.934   3.742
 1943SOL    HW2 6729   0.631   3.041   3.823
 1944SOL     OW 6730   0.950   3.033   3.458
 1944SOL    HW1 6731   1.048   3.012   3.464
 1944SOL    HW2 6732   0.926   3.099   3.529
 1945SOL     OW 6733   5.403   1.507   1.462
 1945SOL    HW1 6734   5.381   1.442   1.535
 1945SOL    HW2 6735   5.377   1.467   1.374
 1946SOL     OW 6736   5.965   5.505   0.808
 1946SOL    HW1 6737   5.937   5.585   0.860
 1946SOL    HW2 6738   5.926   5.510   0.716
 1947SOL     OW 6739   6.255   5.123   2.899
 1947SOL    HW1 6740   6.209   5.034   2.906
 1947SOL    HW2 6741   6.303   5.142   2.984
 1948SOL     OW 6742   5.210   3.464   3.444
 1948SOL    HW1 6743   5.129   3.413   3.417
 1948SOL    HW2 6744   5.289   3.402   3.447
 1949SOL     OW 6745   3.286   4.065   6.455
 1949SOL    HW1 6746   3.217   3.993   6.449
 1949SOL    HW2 6747   3.330   4.062   6.545
 1950SOL     OW 6748   3.894   3.834   3.517
 1950SOL    HW1 6749   3.888   3.761   3.585
 1950SOL    HW2 6750   3.920   3.795   3.429
 1951SOL     OW 6751   6.309   5.281   5.765
 1951SOL    HW1 6752   6.238   5.215   5.742
 1951SOL    HW2 6753   6.389   5.265   5.708
 1952SOL     OW 6754   5.529   4.225   6.928
 1952SOL    HW1 6755   5.594   4.211   6.853
 1952SOL    HW2 6756   5.508   4.323   6.936
 1953SOL     OW 6757   1.097   0.997   0.343
 1953SOL    HW1 6758   1.020   1.059   0.333
 1953SOL    HW2 6759   1.170   1.024   0.280
 1954SOL     OW 6760   3.697   6.646   2.138
 1954SOL    HW1 6761   3.624   6.593   2.181
 1954SOL    HW2 6762   3.785   6.602   2.156
 1955SOL     OW 6763   6.246   2.526   4.155
 1955SOL    HW1 6764   6.341   2.530   4.186
 1955SOL    HW2 6765   6.244   2.511   4.056
 1956SOL     OW 6766   5.006   1.066   1.561
 1956SOL    HW1 6767   4.987   1.164   1.570
 1956SOL    HW2 6768   4.924   1.014   1.585
 1957SOL     OW 6769   6.177   2.635   4.399
 1957SOL    HW1 6770   6.160   2.615   4.302
 1957SOL    HW2 6771   6.261   2.689   4.407
 1958SOL     OW 6772   3.816   1.609   0.689
 1958SOL    HW1 6773   3.863   1.696   0.680
 1958SOL    HW2 6774   3.720   1.620   0.665
 1959SOL     OW 6775   1.462   1.660   6.041
 1959SOL    HW1 6776   1.554   1.660   6.080
 1959SOL    HW2 6777   1.444   1.570   6.000
 1960SOL     OW 6778   5.466   3.974   3.030
 1960SOL    HW1 6779   5.383   3.950   2.979
 1960SOL    HW2 6780   5.458   4.066   3.066
 1961SOL     OW 6781   0.405   3.667   4.201
 1961SOL    HW1 6782   0.472   3.740   4.211
 1961SOL    HW2 6783   0.314   3.702   4.225
 1962SOL     OW 6784   0.737   0.028   2.119
 1962SOL    HW1 6785   0.763   6.955   2.101
 1962SOL    HW2 6786   0.819   0.085   2.120
 1963SOL     OW 6787   1.060   2.967   0.138
 1963SOL    HW1 6788   1.014   2.894   0.189
 1963SOL    HW2 6789   1.070   2.940   0.042
 1964SOL     OW 6790   5.474   3.408   0.849
 1964SOL    HW1 6791   5.377   3.410   0.876
 1964SOL    HW2 6792   5.482   3.438   0.754
 1965SOL     OW 6793   6.169   4.542   3.468
 1965SOL    HW1 6794   6.164   4.462   3.528
 1965SOL    HW2 6795   6.158   4.514   3.373
 1966SOL     OW 6796   0.952   5.110   6.653
 1966SOL    HW1 6797   1.019   5.131   6.724
 1966SOL    HW2 6798   0.869   5.072   6.694
 1967SOL     OW 6799   6.670   3.378   5.033
 1967SOL    HW1 6800   6.654   3.286   4.997
 1967SOL    HW2 6801   6.584   3.413   5.072
 1968SOL     OW 6802   2.020   1.097   5.954
 1968SOL    HW1 6803   2.093   1.132   5.895
 1968SOL    HW2 6804   2.051   1.013   5.998
 1969SOL     OW 6805   1.329   5.707   0.505
 1969SOL    HW1 6806   1.248   5.660   0.470
 1969SOL    HW2 6807   1.401   5.703   0.436
 1970SOL     OW 6808   5.352   4.469   4.002
 1970SOL    HW1 6809   5.278   4.477   4.069
 1970SOL    HW2 6810   5.401   4.556   3.995
 1971SOL     OW 6811   1.658   4.677   4.697
 1971SOL    HW1 6812   1.745   4.712   4.662
 1971SOL    HW2 6813   1.588   4.685   4.626
 1972SOL     OW 6814   6.176   2.207   2.524
 1972SOL    HW1 6815   6.129   2.131   2.570
 1972SOL    HW2 6816   6.272   2.207   2.552
 1973SOL     OW 6817   3.450   2.079   1.090
 1973SOL    HW1 6818   3.530   2.019   1.085
 1973SOL    HW2 6819   3.373   2.029   1.128
 1974SOL     OW 6820   2.542   6.471   4.771
 1974SOL    HW1 6821   2.556   6.541   4.700
 1974SOL    HW2 6822   2.447   6.475   4.803
 1975SOL     OW 6823   1.922   2.760   2.493
 1975SOL    HW1 6824   1.964   2.685   2.442
 1975SOL    HW2 6825   1.894   2.832   2.430
 1976SOL     OW 6826   1.505   0.696   5.202
 1976SOL    HW1 6827   1.536   0.613   5.249
 1976SOL    HW2 6828   1.525   0.688   5.104
 1977SOL     OW 6829   1.158   3.865   6.498
 1977SOL    HW1 6830   1.098   3.885   6.420
 1977SOL    HW2 6831   1.216   3.945   6.516
 1978SOL     OW 6832   3.213   0.417   2.174
 1978SOL    HW1 6833   3.147   0.345   2.194
 1978SOL    HW2 6834   3.195   0.455   2.083
 1979SOL     OW 6835   5.585   4.585   6.484
 1979SOL    HW1 6836   5.662   4.645   6.507
 1979SOL    HW2 6837   5.530   4.627   6.412
 1980SOL     OW 6838   4.130   0.220   0.956
 1980SOL    HW1 6839   4.089   0.141   1.000
 1980SOL    HW2 6840   4.197   0.189   0.888
 1981SOL     OW 6841   4.315   2.109   2.430
 1981SOL    HW1 6842   4.238   2.155   2.384
 1981SOL    HW2 6843   4.379   2.075   2.361
 1982SOL     OW 6844   1.338   3.160   6.151
 1982SOL    HW1 6845   1.322   3.068   6.117
 1982SOL    HW2 6846   1.332   3.160   6.251
 1983SOL     OW 6847   6.747   1.223   1.798
 1983SOL    HW1 6848   6.650   1.208   1.778
 1983SOL    HW2 6849   6.798   1.139   1.779
 1984SOL     OW 6850   4.912   3.910   6.099
 1984SOL    HW1 6851   5.007   3.937   6.119
 1984SOL    HW2 6852   4.863   3.897   6.185
 1985SOL     OW 6853   6.054   4.437   3.904
 1985SOL    HW1 6854   6.098   4.352   3.875
 1985SOL    HW2 6855   6.071   4.509   3.836
 1986SOL     OW 6856   2.788   3.501   2.014
 1986SOL    HW1 6857   2.693   3.505   2.045
 1986SOL    HW2 6858   2.795   3.541   1.923
 1987SOL     OW 6859   2.710   0.843   2.142
 1987SOL    HW1 6860   2.797   0.826   2.188
 1987SOL    HW2 6861   2.665   0.921   2.185
 1988SOL     OW 6862   0.674   1.994   2.575
 1988SOL    HW1 6863   0.678   1.899   2.605
 1988SOL    HW2 6864   0.668   2.054   2.655
 1989SOL     OW 6865   2.794   5.635   4.927
 1989SOL    HW1 6866   2.888   5.668   4.928
 1989SOL    HW2 6867   2.787   5.556   4.988
 1990SOL     OW 6868   4.104   0.126   0.245
 1990SOL    HW1 6869   4.094   0.156   0.340
 1990SOL    HW2 6870   4.170   0.185   0.199
 1991SOL     OW 6871   2.528   5.504   1.940
 1991SOL    HW1 6872   2.493   5.488   2.033
 1991SOL    HW2 6873   2.532   5.603   1.923
 1992SOL     OW 6874   1.015   6.714   2.841
 1992SOL    HW1 6875   1.096   6.769   2.861
 1992SOL    HW2 6876   0.964   6.698   2.925
 1993SOL     OW 6877   1.987   1.704   2.781
 1993SOL    HW1 6878   2.014   1.737   2.690
 1993SOL    HW2 6879   1.900   1.745   2.807
 1994SOL     OW 6880   3.949   3.427   1.299
 1994SOL    HW1 6881   3.938   3.347   1.240
 1994SOL    HW2 6882   3.962   3.398   1.393
 1995SOL     OW 6883   5.815   1.708   4.324
 1995SOL    HW1 6884   5.907   1.723   4.287
 1995SOL    HW2 6885   5.764   1.794   4.325
 1996SOL     OW 6886   5.249   0.658   0.623
 1996SOL    HW1 6887   5.157   0.694   0.638
 1996SOL    HW2 6888   5.316   0.732   0.631
 1997SOL     OW 6889   3.699   1.363   3.939
 1997SOL    HW1 6890   3.681   1.427   3.864
 1997SOL    HW2 6891   3.671   1.271   3.912
 1998SOL     OW 6892   2.576   3.917   1.235
 1998SOL    HW1 6893   2.523   3.833   1.221
 1998SOL    HW2 6894   2.583   3.966   1.149
 1999SOL     OW 6895   0.662   6.626   6.516
 1999SOL    HW1 6896   0.668   6.625   6.416
 1999SOL    HW2 6897   0.667   6.532   6.550
 2000SOL     OW 6898   4.378   4.354   6.014
 2000SOL    HW1 6899   4.358   4.393   5.924
 2000SOL    HW2 6900   4.474   4.371   6.037
 2001SOL     OW 6901   1.528   2.221   0.825
 2001SOL    HW1 6902   1.555   2.178   0.911
 2001SOL    HW2 6903   1.573   2.310   0.817
 2002SOL     OW 6904   6.244   5.491   0.838
 2002SOL    HW1 6905   6.145   5.488   0.846
 2002SOL    HW2 6906   6.285   5.505   0.928
 2003SOL     OW 6907   6.048   5.517   1.243
 2003SOL    HW1 6908   5.988   5.595   1.260
 2003SOL    HW2 6909   6.132   5.548   1.199
 2004SOL     OW 6910   4.020   0.120   3.378
 2004SOL    HW1 6911   4.032   0.218   3.369
 2004SOL    HW2 6912   4.064   0.073   3.301
 2005SOL     OW 6913   1.224   6.830   0.236
 2005SOL    HW1 6914   1.249   6.895   0.308
 2005SOL    HW2 6915   1.307   6.801   0.187
 2006SOL     OW 6916   5.854   6.845   1.952
 2006SOL    HW1 6917   5.800   6.791   1.887
 2006SOL    HW2 6918   5.862   6.795   2.038
 2007SOL     OW 6919   5.716   5.238   5.785
 2007SOL    HW1 6920   5.761   5.158   5.745
 2007SOL    HW2 6921   5.623   5.213   5.813
 2008SOL     OW 6922   1.700   3.177   2.505
 2008SOL    HW1 6923   1.645   3.139   2.431
 2008SOL    HW2 6924   1.706   3.111   2.580
 2009SOL     OW 6925   6.200   6.875   2.760
 2009SOL    HW1 6926   6.143   6.943   2.713
 2009SOL    HW2 6927   6.170   6.866   2.855
 2010SOL     OW 6928   0.113   1.569   1.463
 2010SOL    HW1 6929   0.071   1.641   1.518
 2010SOL    HW2 6930   0.195   1.535   1.509
 2011SOL     OW 6931   0.806   6.800   4.783
 2011SOL    HW1 6932   0.899   6.768   4.765
 2011SOL    HW2 6933   0.811   6.887   4.833
 2012SOL     OW 6934   0.551   2.749   0.965
 2012SOL    HW1 6935   0.503   2.817   0.909
 2012SOL    HW2 6936   0.557   2.663   0.914
 2013SOL     OW 6937   0.773   2.383   2.268
 2013SOL    HW1 6938   0.803   2.295   2.304
 2013SOL    HW2 6939   0.707   2.368   2.193
 2014SOL     OW 6940   3.923   1.791   3.997
 2014SOL    HW1 6941   3.922   1.696   4.030
 2014SOL    HW2 6942   3.830   1.818   3.973
 2015SOL     OW 6943   3.904   6.444   2.187
 2015SOL    HW1 6944   3.969   6.457   2.262
 2015SOL    HW2 6945   3.822   6.399   2.222
 2016SOL     OW 6946   1.876   0.873   5.431
 2016SOL    HW1 6947   1.970   0.857   5.399
 2016SOL    HW2 6948   1.870   0.966   5.468
 2017SOL     OW 6949   2.805   6.427   4.092
 2017SOL    HW1 6950   2.777   6.522   4.074
 2017SOL    HW2 6951   2.746   6.365   4.040
 2018SOL     OW 6952   0.287   0.258   4.312
 2018SOL    HW1 6953   0.190   0.234   4.316
 2018SOL    HW2 6954   0.342   0.179   4.339
 2019SOL     OW 6955   6.633   5.054   6.888
 2019SOL    HW1 6956   6.659   5.119   6.961
 2019SOL    HW2 6957   6.649   4.961   6.920
 2020SOL     OW 6958   1.764   6.769   0.991
 2020SOL    HW1 6959   1.696   6.712   0.945
 2020SOL    HW2 6960   1.820   6.712   1.052
 2021SOL     OW 6961   0.298   6.066   4.338
 2021SOL    HW1 6962   0.395   6.087   4.329
 2021SOL    HW2 6963   0.286   5.983   4.392
 2022SOL     OW 6964   1.458   3.405   4.201
 2022SOL    HW1 6965   1.366   3.372   4.180
 2022SOL    HW2 6966   1.479   3.385   4.297
 2023SOL     OW 6967   6.747   5.646   6.921
 2023SOL    HW1 6968   6.659   5.599   6.931
 2023SOL    HW2 6969   6.739   5.718   6.852
 2024SOL     OW 6970   7.020   5.464   3.595
 2024SOL    HW1 6971   0.045   5.550   3.615
 2024SOL    HW2 6972   7.001   5.416   3.681
 2025SOL     OW 6973   1.635   6.211   4.535
 2025SOL    HW1 6974   1.667   6.283   4.596
 2025SOL    HW2 6975   1.697   6.132   4.540
 2026SOL     OW 6976   1.132   7.007   5.217
 2026SOL    HW1 6977   1.159   0.042   5.295
 2026SOL    HW2 6978   1.099   0.044   5.143
 2027SOL     OW 6979   6.907   5.882   2.307
 2027SOL    HW1 6980   6.902   5.787   2.277
 2027SOL    HW2 6981   6.881   5.888   2.403
 2028SOL     OW 6982   2.588   5.805   4.886
 2028SOL    HW1 6983   2.651   5.731   4.909
 2028SOL    HW2 6984   2.617   5.848   4.800
 2029SOL     OW 6985   6.146   2.464   6.847
 2029SOL    HW1 6986   6.225   2.485   6.904
 2029SOL    HW2 6987   6.130   2.365   6.848
 2030SOL     OW 6988   2.001   6.604   2.738
 2030SOL    HW1 6989   1.932   6.609   2.810
 2030SOL    HW2 6990   2.092   6.610   2.778
 2031SOL     OW 6991   0.334   6.319   5.361
 2031SOL    HW1 6992   0.385   6.391   5.410
 2031SOL    HW2 6993   0.356   6.230   5.400
 2032SOL     OW 6994   2.156   3.189   6.125
 2032SOL    HW1 6995   2.245   3.184   6.079
 2032SOL    HW2 6996   2.148   3.113   6.189
 2033SOL     OW 6997   2.340   1.222   1.063
 2033SOL    HW1 6998   2.371   1.292   1.127
 2033SOL    HW2 6999   2.253   1.184   1.095
 2034SOL     OW 7000   0.550   4.543   4.940
 2034SOL    HW1 7001   0.635   4.562   4.990
 2034SOL    HW2 7002   0.512   4.456   4.971
 2035SOL     OW 7003   5.588   5.470   2.745
 2035SOL    HW1 7004   5.664   5.447   2.806
 2035SOL    HW2 7005   5.505   5.486   2.799
 2036SOL     OW 7006   0.436   4.253   6.360
 2036SOL    HW1 7007   0.389   4.333   6.395
 2036SOL    HW2 7008   0.525   4.243   6.406
 2037SOL     OW 7009   0.976   2.999   6.878
 2037SOL    HW1 7010   1.027   2.927   6.831
 2037SOL    HW2 7011   0.877   2.982   6.867
 2038SOL     OW 7012   1.255   1.127   5.896
 2038SOL    HW1 7013   1.232   1.215   5.936
 2038SOL    HW2 7014   1.342   1.135   5.846
 2039SOL     OW 7015   5.766   5.922   3.175
 2039SOL    HW1 7016   5.795   5.945   3.082
 2039SOL    HW2 7017   5.685   5.977   3.199
 2040SOL     OW 7018   2.658   2.040   0.471
 2040SOL    HW1 7019   2.608   2.076   0.550
 2040SOL    HW2 7020   2.657   2.107   0.398
 2041SOL     OW 7021   2.377   6.704   0.168
 2041SOL    HW1 7022   2.394   6.636   0.239
 2041SOL    HW2 7023   2.357   6.793   0.210
 2042SOL     OW 7024   6.673   7.017   6.065
 2042SOL    HW1 7025   6.676   6.995   6.163
 2042SOL    HW2 7026   6.668   6.931   6.013
 2043SOL     OW 7027   0.478   4.299   0.110
 2043SOL    HW1 7028   0.409   4.365   0.080
 2043SOL    HW2 7029   0.548   4.289   0.039
 2044SOL     OW 7030   4.042   0.445   1.835
 2044SOL    HW1 7031   4.034   0.526   1.776
 2044SOL    HW2 7032   3.953   0.425   1.876
 2045SOL     OW 7033   1.951   6.117   3.820
 2045SOL    HW1 7034   1.934   6.215   3.814
 2045SOL    HW2 7035   1.864   6.068   3.826
 2046SOL     OW 7036   0.954   2.924   5.665
 2046SOL    HW1 7037   0.960   2.856   5.738
 2046SOL    HW2 7038   0.938   3.014   5.704
 2047SOL     OW 7039   6.578   6.749   1.829
 2047SOL    HW1 7040   6.597   6.806   1.749
 2047SOL    HW2 7041   6.530   6.666   1.800
 2048SOL     OW 7042   2.264   0.781   3.856
 2048SOL    HW1 7043   2.301   0.816   3.770
 2048SOL    HW2 7044   2.206   0.850   3.898
 2049SOL     OW 7045   4.804   2.629   5.348
 2049SOL    HW1 7046   4.781   2.546   5.296
 2049SOL    HW2 7047   4.815   2.706   5.285
 2050SOL     OW 7048   0.640   1.083   3.018
 2050SOL    HW1 7049   0.709   1.080   2.946
 2050SOL    HW2 7050   0.672   1.032   3.097
 2051SOL     OW 7051   3.008   6.689   6.716
 2051SOL    HW1 7052   3.046   6.761   6.772
 2051SOL    HW2 7053   2.963   6.621   6.775
 2052SOL     OW 7054   0.566   3.801   0.846
 2052SOL    HW1 7055   0.508   3.860   0.790
 2052SOL    HW2 7056   0.536   3.706   0.837
 2053SOL     OW 7057   6.158   4.886   2.913
 2053SOL    HW1 7058   6.108   4.898   2.998
 2053SOL    HW2 7059   6.110   4.820   2.855
 2054SOL     OW 7060   3.368   4.004   2.784
 2054SOL    HW1 7061   3.323   3.916   2.800
 2054SOL    HW2 7062   3.337   4.070   2.852
 2055SOL     OW 7063   4.129   2.658   5.677
 2055SOL    HW1 7064   4.223   2.647   5.709
 2055SOL    HW2 7065   4.125   2.734   5.613
 2056SOL     OW 7066   2.794   4.767   1.754
 2056SOL    HW1 7067   2.824   4.720   1.838
 2056SOL    HW2 7068   2.787   4.701   1.680
 2057SOL     OW 7069   5.754   3.100   4.051
 2057SOL    HW1 7070   5.762   3.113   3.952
 2057SOL    HW2 7071   5.798   3.014   4.077
 2058SOL     OW 7072   5.609   6.911   3.547
 2058SOL    HW1 7073   5.702   6.948   3.547
 2058SOL    HW2 7074   5.557   6.952   3.473
 2059SOL     OW 7075   2.077   2.240   5.765
 2059SOL    HW1 7076   2.080   2.235   5.665
 2059SOL    HW2 7077   2.079   2.147   5.803
 2060SOL     OW 7078   1.423   2.535   6.496
 2060SOL    HW1 7079   1.519   2.514   6.478
 2060SOL    HW2 7080   1.385   2.467   6.559
 2061SOL     OW 7081   1.963   1.991   3.834
 2061SOL    HW1 7082   1.949   2.076   3.784
 2061SOL    HW2 7083   2.058   1.985   3.864
 2062SOL     OW 7084   5.733   5.065   4.273
 2062SOL    HW1 7085   5.761   5.135   4.339
 2062SOL    HW2 7086   5.695   4.986   4.322
 2063SOL     OW 7087   1.077   1.932   4.073
 2063SOL    HW1 7088   1.160   1.897   4.030
 2063SOL    HW2 7089   1.006   1.862   4.072
 2064SOL     OW 7090   0.517   4.139   4.480
 2064SOL    HW1 7091   0.570   4.202   4.537
 2064SOL    HW2 7092   0.577   4.096   4.413
 2065SOL     OW 7093   3.840   3.417   5.230
 2065SOL    HW1 7094   3.791   3.504   5.220
 2065SOL    HW2 7095   3.777   3.346   5.260
 2066SOL     OW 7096   1.567   2.424   4.925
 2066SOL    HW1 7097   1.605   2.510   4.958
 2066SOL    HW2 7098   1.542   2.434   4.829
 2067SOL     OW 7099   6.535   4.365   2.397
 2067SOL    HW1 7100   6.574   4.365   2.489
 2067SOL    HW2 7101   6.435   4.368   2.403
 2068SOL     OW 7102   4.083   6.359   4.188
 2068SOL    HW1 7103   4.008   6.366   4.123
 2068SOL    HW2 7104   4.129   6.448   4.196
 2069SOL     OW 7105   6.234   1.340   3.505
 2069SOL    HW1 7106   6.228   1.438   3.525
 2069SOL    HW2 7107   6.161   1.292   3.554
 2070SOL     OW 7108   0.624   4.798   1.284
 2070SOL    HW1 7109   0.690   4.763   1.350
 2070SOL    HW2 7110   0.667   4.809   1.195
 2071SOL     OW 7111   6.755   2.445   4.784
 2071SOL    HW1 7112   6.748   2.517   4.853
 2071SOL    HW2 7113   6.740   2.356   4.826
 2072SOL     OW 7114   5.576   3.593   5.082
 2072SOL    HW1 7115   5.604   3.674   5.031
 2072SOL    HW2 7116   5.482   3.605   5.115
 2073SOL     OW 7117   3.567   5.224   6.474
 2073SOL    HW1 7118   3.558   5.312   6.520
 2073SOL    HW2 7119   3.593   5.239   6.379
 2074SOL     OW 7120   3.557   4.807   5.366
 2074SOL    HW1 7121   3.631   4.852   5.416
 2074SOL    HW2 7122   3.547   4.850   5.276
 2075SOL     OW 7123   5.396   2.144   1.575
 2075SOL    HW1 7124   5.319   2.179   1.521
 2075SOL    HW2 7125   5.366   2.127   1.668
 2076SOL     OW 7126   6.722   6.706   4.006
 2076SOL    HW1 7127   6.813   6.720   4.046
 2076SOL    HW2 7128   6.724   6.628   3.944
 2077SOL     OW 7129   6.925   4.348   0.781
 2077SOL    HW1 7130   6.919   4.298   0.695
 2077SOL    HW2 7131   7.003   4.411   0.778
 2078SOL     OW 7132   0.712   2.746   6.431
 2078SOL    HW1 7133   0.749   2.830   6.470
 2078SOL    HW2 7134   0.740   2.668   6.486
 2079SOL     OW 7135   5.500   1.395   2.995
 2079SOL    HW1 7136   5.561   1.462   3.037
 2079SOL    HW2 7137   5.438   1.441   2.931
 2080SOL     OW 7138   2.402   3.768   6.290
 2080SOL    HW1 7139   2.429   3.756   6.386
 2080SOL    HW2 7140   2.485   3.773   6.233
 2081SOL     OW 7141   0.491   5.993   2.419
 2081SOL    HW1 7142   0.536   5.945   2.495
 2081SOL    HW2 7143   0.549   5.989   2.338
 2082SOL     OW 7144   0.021   5.748   3.663
 2082SOL    HW1 7145   0.071   5.759   3.577
 2082SOL    HW2 7146   6.947   5.770   3.649
 2083SOL     OW 7147   0.637   5.736   4.190
 2083SOL    HW1 7148   0.582   5.757   4.270
 2083SOL    HW2 7149   0.680   5.819   4.155
 2084SOL     OW 7150   6.451   2.481   1.330
 2084SOL    HW1 7151   6.501   2.568   1.319
 2084SOL    HW2 7152   6.394   2.465   1.250
 2085SOL     OW 7153   6.167   5.805   0.241
 2085SOL    HW1 7154   6.241   5.837   0.183
 2085SOL    HW2 7155   6.145   5.875   0.309
 2086SOL     OW 7156   5.878   0.210   6.138
 2086SOL    HW1 7157   5.879   0.111   6.144
 2086SOL    HW2 7158   5.958   0.242   6.087
 2087SOL     OW 7159   4.831   0.979   0.012
 2087SOL    HW1 7160   4.838   1.067   0.059
 2087SOL    HW2 7161   4.846   0.993   6.936
 2088SOL     OW 7162   0.402   4.076   6.152
 2088SOL    HW1 7163   0.403   4.163   6.200
 2088SOL    HW2 7164   0.472   4.016   6.189
 2089SOL     OW 7165   2.796   4.946   5.685
 2089SOL    HW1 7166   2.780   4.961   5.783
 2089SOL    HW2 7167   2.894   4.942   5.668
 2090SOL     OW 7168   4.874   2.542   0.054
 2090SOL    HW1 7169   4.901   2.509   0.145
 2090SOL    HW2 7170   4.940   2.611   0.023
 2091SOL     OW 7171   5.297   6.460   1.136
 2091SOL    HW1 7172   5.244   6.535   1.097
 2091SOL    HW2 7173   5.291   6.462   1.235
 2092SOL     OW 7174   3.317   3.218   1.963
 2092SOL    HW1 7175   3.267   3.253   1.883
 2092SOL    HW2 7176   3.252   3.192   2.034
 2093SOL     OW 7177   4.572   0.152   0.633
 2093SOL    HW1 7178   4.619   0.136   0.546
 2093SOL    HW2 7179   4.570   0.067   0.686
 2094SOL     OW 7180   5.196   2.214   1.364
 2094SOL    HW1 7181   5.129   2.174   1.302
 2094SOL    HW2 7182   5.263   2.268   1.312
 2095SOL     OW 7183   5.293   5.082   4.098
 2095SOL    HW1 7184   5.290   4.992   4.054
 2095SOL    HW2 7185   5.200   5.110   4.121
 2096SOL     OW 7186   4.347   6.767   2.553
 2096SOL    HW1 7187   4.257   6.800   2.523
 2096SOL    HW2 7188   4.391   6.836   2.610
 2097SOL     OW 7189   0.945   6.044   5.620
 2097SOL    HW1 7190   0.915   5.952   5.596
 2097SOL    HW2 7191   0.872   6.109   5.600
 2098SOL     OW 7192   1.970   6.930   3.371
 2098SOL    HW1 7193   1.903   6.902   3.302
 2098SOL    HW2 7194   1.930   7.001   3.429
 2099SOL     OW 7195   4.444   1.522   0.097
 2099SOL    HW1 7196   4.381   1.599   0.107
 2099SOL    HW2 7197   4.538   1.555   0.104
 2100SOL     OW 7198   4.964   0.490   0.147
 2100SOL    HW1 7199   4.905   0.563   0.112
 2100SOL    HW2 7200   5.059   0.522   0.150
 2101SOL     OW 7201   2.101   0.439   2.552
 2101SOL    HW1 7202   2.035   0.461   2.481
 2101SOL    HW2 7203   2.191   0.472   2.526
 2102SOL     OW 7204   3.723   2.718   1.758
 2102SOL    HW1 7205   3.809   2.676   1.784
 2102SOL    HW2 7206   3.739   2.814   1.733
 2103SOL     OW 7207   1.493   6.978   0.736
 2103SOL    HW1 7208   1.513   6.983   0.833
 2103SOL    HW2 7209   1.439   6.896   0.717
 2104SOL     OW 7210   1.235   4.330   2.491
 2104SOL    HW1 7211   1.228   4.430   2.497
 2104SOL    HW2 7212   1.257   4.304   2.397
 2105SOL     OW 7213   5.568   6.836   5.109
 2105SOL    HW1 7214   5.578   6.829   5.010
 2105SOL    HW2 7215   5.549   6.745   5.147
 2106SOL     OW 7216   3.392   2.314   1.224
 2106SOL    HW1 7217   3.385   2.283   1.318
 2106SOL    HW2 7218   3.412   2.236   1.164
 2107SOL     OW 7219   5.004   4.209   4.568
 2107SOL    HW1 7220   5.060   4.266   4.628
 2107SOL    HW2 7221   4.991   4.119   4.611
 2108SOL     OW 7222   4.501   6.959   4.674
 2108SOL    HW1 7223   4.518   0.009   4.606
 2108SOL    HW2 7224   4.518   6.996   4.765
 2109SOL     OW 7225   2.547   5.858   2.027
 2109SOL    HW1 7226   2.512   5.909   1.947
 2109SOL    HW2 7227   2.480   5.861   2.100
 2110SOL     OW 7228   3.696   5.929   6.906
 2110SOL    HW1 7229   3.610   5.882   6.925
 2110SOL    HW2 7230   3.772   5.866   6.918
 2111SOL     OW 7231   0.725   2.408   6.956
 2111SOL    HW1 7232   0.647   2.433   7.013
 2111SOL    HW2 7233   0.795   2.479   6.962
 2112SOL     OW 7234   0.829   0.216   6.656
 2112SOL    HW1 7235   0.929   0.215   6.659
 2112SOL    HW2 7236   0.798   0.182   6.568
 2113SOL     OW 7237   6.820   1.685   4.810
 2113SOL    HW1 7238   6.880   1.657   4.885
 2113SOL    HW2 7239   6.728   1.702   4.845
 2114SOL     OW 7240   2.712   1.279   5.237
 2114SOL    HW1 7241   2.728   1.244   5.145
 2114SOL    HW2 7242   2.618   1.312   5.244
 2115SOL     OW 7243   6.825   6.461   3.897
 2115SOL    HW1 7244   6.742   6.406   3.907
 2115SOL    HW2 7245   6.896   6.427   3.958
 2116SOL     OW 7246   2.152   1.603   6.354
 2116SOL    HW1 7247   2.225   1.601   6.286
 2116SOL    HW2 7248   2.191   1.624   6.444
 2117SOL     OW 7249   5.758   2.644   2.035
 2117SOL    HW1 7250   5.766   2.650   1.936
 2117SOL    HW2 7251   5.840   2.682   2.078
 2118SOL     OW 7252   0.534   3.070   2.541
 2118SOL    HW1 7253   0.495   3.160   2.560
 2118SOL    HW2 7254   0.609   3.052   2.605
 2119SOL     OW 7255   1.312   3.133   0.570
 2119SOL    HW1 7256   1.346   3.078   0.646
 2119SOL    HW2 7257   1.217   3.109   0.551
 2120SOL     OW 7258   5.373   1.856   0.357
 2120SOL    HW1 7259   5.390   1.792   0.432
 2120SOL    HW2 7260   5.313   1.929   0.388
 2121SOL     OW 7261   2.634   6.777   1.462
 2121SOL    HW1 7262   2.555   6.834   1.483
 2121SOL    HW2 7263   2.662   6.727   1.544
 2122SOL     OW 7264   6.764   0.533   4.525
 2122SOL    HW1 7265   6.698   0.520   4.450
 2122SOL    HW2 7266   6.715   0.565   4.606
 2123SOL     OW 7267   1.226   4.986   3.222
 2123SOL    HW1 7268   1.239   4.963   3.318
 2123SOL    HW2 7269   1.134   4.962   3.193
 2124SOL     OW 7270   4.740   3.213   6.273
 2124SOL    HW1 7271   4.712   3.306   6.252
 2124SOL    HW2 7272   4.703   3.187   6.363
 2125SOL     OW 7273   1.229   5.774   4.858
 2125SOL    HW1 7274   1.300   5.716   4.816
 2125SOL    HW2 7275   1.192   5.729   4.939
 2126SOL     OW 7276   2.959   4.776   0.703
 2126SOL    HW1 7277   2.907   4.829   0.635
 2126SOL    HW2 7278   2.922   4.794   0.794
 2127SOL     OW 7279   1.465   3.832   4.432
 2127SOL    HW1 7280   1.388   3.789   4.385
 2127SOL    HW2 7281   1.537   3.764   4.447
 2128SOL     OW 7282   5.190   3.258   1.577
 2128SOL    HW1 7283   5.127   3.225   1.506
 2128SOL    HW2 7284   5.153   3.236   1.667
 2129SOL     OW 7285   5.501   4.040   3.909
 2129SOL    HW1 7286   5.442   3.984   3.966
 2129SOL    HW2 7287   5.476   4.136   3.918
 2130SOL     OW 7288   2.079   0.673   2.164
 2130SOL    HW1 7289   2.112   0.608   2.095
 2130SOL    HW2 7290   2.057   0.760   2.120
 2131SOL     OW 7291   6.004   0.760   6.743
 2131SOL    HW1 7292   6.093   0.729   6.777
 2131SOL    HW2 7293   5.931   0.705   6.785
 2132SOL     OW 7294   2.674   2.631   0.355
 2132SOL    HW1 7295   2.591   2.576   0.354
 2132SOL    HW2 7296   2.651   2.728   0.342
 2133SOL     OW 7297   4.133   2.653   1.609
 2133SOL    HW1 7298   4.204   2.648   1.678
 2133SOL    HW2 7299   4.113   2.561   1.575
 2134SOL     OW 7300   2.380   0.329   5.411
 2134SOL    HW1 7301   2.314   0.294   5.477
 2134SOL    HW2 7302   2.463   0.274   5.415
 2135SOL     OW 7303   0.914   6.074   4.503
 2135SOL    HW1 7304   0.952   5.983   4.493
 2135SOL    HW2 7305   0.943   6.131   4.427
 2136SOL     OW 7306   0.883   5.267   3.550
 2136SOL    HW1 7307   0.855   5.268   3.646
 2136SOL    HW2 7308   0.840   5.343   3.501
 2137SOL     OW 7309   0.424   0.035   4.392
 2137SOL    HW1 7310   0.482   6.986   4.350
 2137SOL    HW2 7311   0.437   0.035   4.491
 2138SOL     OW 7312   1.502   2.228   6.278
 2138SOL    HW1 7313   1.575   2.252   6.213
 2138SOL    HW2 7314   1.434   2.301   6.279
 2139SOL     OW 7315   3.001   6.617   4.466
 2139SOL    HW1 7316   2.962   6.628   4.557
 2139SOL    HW2 7317   2.962   6.536   4.422
 2140SOL     OW 7318   1.294   5.810   3.736
 2140SOL    HW1 7319   1.338   5.725   3.707
 2140SOL    HW2 7320   1.324   5.833   3.829
 2141SOL     OW 7321   6.995   1.558   6.700
 2141SOL    HW1 7322   0.016   1.533   6.614
 2141SOL    HW2 7323   6.978   1.657   6.702
 2142SOL     OW 7324   4.011   1.287   3.346
 2142SOL    HW1 7325   4.046   1.193   3.338
 2142SOL    HW2 7326   3.960   1.311   3.264
 2143SOL     OW 7327   3.193   5.709   0.399
 2143SOL    HW1 7328   3.230   5.651   0.327
 2143SOL    HW2 7329   3.114   5.664   0.441
 2144SOL     OW 7330   1.394   1.110   1.692
 2144SOL    HW1 7331   1.320   1.127   1.757
 2144SOL    HW2 7332   1.474   1.076   1.742
 2145SOL     OW 7333   2.583   5.513   3.032
 2145SOL    HW1 7334   2.587   5.525   2.933
 2145SOL    HW2 7335   2.636   5.585   3.076
 2146SOL     OW 7336   2.705   2.740   0.758
 2146SOL    HW1 7337   2.740   2.831   0.736
 2146SOL    HW2 7338   2.769   2.671   0.723
 2147SOL     OW 7339   0.280   0.333   5.159
 2147SOL    HW1 7340   0.268   0.235   5.169
 2147SOL    HW2 7341   0.212   0.381   5.215
 2148SOL     OW 7342   6.514   3.735   4.573
 2148SOL    HW1 7343   6.544   3.706   4.664
 2148SOL    HW2 7344   6.538   3.665   4.506
 2149SOL     OW 7345   3.072   0.694   3.205
 2149SOL    HW1 7346   3.123   0.665   3.124
 2149SOL    HW2 7347   2.975   0.671   3.193
 2150SOL     OW 7348   4.994   6.995   3.026
 2150SOL    HW1 7349   4.923   6.930   2.997
 2150SOL    HW2 7350   4.992   0.053   2.966
 2151SOL     OW 7351   4.934   4.890   6.082
 2151SOL    HW1 7352   4.906   4.880   6.177
 2151SOL    HW2 7353   4.989   4.812   6.054
 2152SOL     OW 7354   0.154   6.701   2.498
 2152SOL    HW1 7355   0.088   6.627   2.512
 2152SOL    HW2 7356   0.134   6.748   2.412
 2153SOL     OW 7357   4.536   1.673   4.075
 2153SOL    HW1 7358   4.620   1.630   4.109
 2153SOL    HW2 7359   4.457   1.619   4.105
 2154SOL     OW 7360   3.464   6.340   4.904
 2154SOL    HW1 7361   3.411   6.382   4.830
 2154SOL    HW2 7362   3.427   6.368   4.992
 2155SOL     OW 7363   5.664   3.476   0.450
 2155SOL    HW1 7364   5.630   3.458   0.358
 2155SOL    HW2 7365   5.650   3.394   0.507
 2156SOL     OW 7366   6.766   6.980   2.473
 2156SOL    HW1 7367   6.798   6.966   2.379
 2156SOL    HW2 7368   6.771   6.893   2.523
 2157SOL     OW 7369   6.100   1.080   4.163
 2157SOL    HW1 7370   6.128   1.173   4.187
 2157SOL    HW2 7371   6.044   1.084   4.080
 2158SOL     OW 7372   4.531   0.397   3.924
 2158SOL    HW1 7373   4.594   0.320   3.934
 2158SOL    HW2 7374   4.582   0.483   3.932
 2159SOL     OW 7375   2.599   0.723   5.196
 2159SOL    HW1 7376   2.566   0.815   5.175
 2159SOL    HW2 7377   2.556   0.691   5.281
 2160SOL     OW 7378   2.636   3.394   1.096
 2160SOL    HW1 7379   2.591   3.321   1.045
 2160SOL    HW2 7380   2.704   3.354   1.158
 2161SOL     OW 7381   4.780   2.775   3.763
 2161SOL    HW1 7382   4.698   2.719   3.780
 2161SOL    HW2 7383   4.797   2.832   3.843
 2162SOL     OW 7384   2.745   1.558   1.810
 2162SOL    HW1 7385   2.765   1.485   1.746
 2162SOL    HW2 7386   2.713   1.519   1.897
 2163SOL     OW 7387   3.220   1.678   1.162
 2163SOL    HW1 7388   3.274   1.622   1.224
 2163SOL    HW2 7389   3.128   1.690   1.199
 2164SOL     OW 7390   6.761   0.936   1.267
 2164SOL    HW1 7391   6.763   1.022   1.318
 2164SOL    HW2 7392   6.671   0.893   1.277
 2165SOL     OW 7393   2.819   0.265   2.028
 2165SOL    HW1 7394   2.791   0.170   2.015
 2165SOL    HW2 7395   2.817   0.313   1.940
 2166SOL     OW 7396   5.690   2.470   5.370
 2166SOL    HW1 7397   5.618   2.404   5.391
 2166SOL    HW2 7398   5.739   2.441   5.288
 2167SOL     OW 7399   3.599   1.030   0.930
 2167SOL    HW1 7400   3.514   0.998   0.887
 2167SOL    HW2 7401   3.615   1.125   0.905
 2168SOL     OW 7402   6.058   6.211   4.323
 2168SOL    HW1 7403   6.133   6.275   4.309
 2168SOL    HW2 7404   6.077   6.126   4.274
 2169SOL     OW 7405   5.563   1.314   5.758
 2169SOL    HW1 7406   5.480   1.358   5.726
 2169SOL    HW2 7407   5.620   1.288   5.680
 2170SOL     OW 7408   5.034   4.803   4.043
 2170SOL    HW1 7409   5.006   4.829   4.135
 2170SOL    HW2 7410   4.968   4.840   3.977
 2171SOL     OW 7411   0.003   3.643   0.071
 2171SOL    HW1 7412   0.044   3.729   0.043
 2171SOL    HW2 7413   6.932   3.660   0.106
 2172SOL     OW 7414   2.522   0.399   2.003
 2172SOL    HW1 7415   2.535   0.369   2.098
 2172SOL    HW2 7416   2.582   0.345   1.943
 2173SOL     OW 7417   4.686   2.295   5.035
 2173SOL    HW1 7418   4.712   2.318   5.129
 2173SOL    HW2 7419   4.587   2.295   5.027
 2174SOL     OW 7420   1.048   5.545   4.670
 2174SOL    HW1 7421   1.144   5.549   4.642
 2174SOL    HW2 7422   1.016   5.450   4.665
 2175SOL     OW 7423   1.596   6.745   5.886
 2175SOL    HW1 7424   1.612   6.755   5.788
 2175SOL    HW2 7425   1.505   6.707   5.901
 2176SOL     OW 7426   2.125   2.446   2.931
 2176SOL    HW1 7427   2.151   2.355   2.901
 2176SOL    HW2 7428   2.109   2.505   2.852
 2177SOL     OW 7429   1.357   1.650   1.399
 2177SOL    HW1 7430   1.348   1.747   1.374
 2177SOL    HW2 7431   1.266   1.609   1.406
 2178SOL     OW 7432   6.287   6.588   0.562
 2178SOL    HW1 7433   6.363   6.631   0.610
 2178SOL    HW2 7434   6.296   6.604   0.463
 2179SOL     OW 7435   2.129   3.956   4.052
 2179SOL    HW1 7436   2.120   4.023   3.978
 2179SOL    HW2 7437   2.080   3.872   4.027
 2180SOL     OW 7438   3.290   2.786   1.894
 2180SOL    HW1 7439   3.227   2.844   1.945
 2180SOL    HW2 7440   3.247   2.756   1.809
 2181SOL     OW 7441   3.646   6.625   1.515
 2181SOL    HW1 7442   3.725   6.684   1.534
 2181SOL    HW2 7443   3.672   6.529   1.525
 2182SOL     OW 7444   4.717   2.982   0.676
 2182SOL    HW1 7445   4.733   2.982   0.774
 2182SOL    HW2 7446   4.764   2.905   0.634
 2183SOL     OW 7447   3.644   2.358   0.878
 2183SOL    HW1 7448   3.650   2.453   0.847
 2183SOL    HW2 7449   3.637   2.355   0.978
 2184SOL     OW 7450   5.323   3.116   6.303
 2184SOL    HW1 7451   5.278   3.205   6.299
 2184SOL    HW2 7452   5.400   3.121   6.366
 2185SOL     OW 7453   6.864   6.943   2.229
 2185SOL    HW1 7454   6.830   0.004   2.185
 2185SOL    HW2 7455   6.815   6.863   2.192
 2186SOL     OW 7456   0.631   4.256   3.115
 2186SOL    HW1 7457   0.541   4.214   3.105
 2186SOL    HW2 7458   0.633   4.312   3.197
 2187SOL     OW 7459   6.392   1.517   0.351
 2187SOL    HW1 7460   6.491   1.502   0.348
 2187SOL    HW2 7461   6.345   1.429   0.356
 2188SOL     OW 7462   5.211   1.538   3.960
 2188SOL    HW1 7463   5.250   1.532   4.052
 2188SOL    HW2 7464   5.174   1.629   3.945
 2189SOL     OW 7465   3.526   7.008   0.146
 2189SOL    HW1 7466   3.442   7.008   0.199
 2189SOL    HW2 7467   3.519   0.052   0.071
 2190SOL     OW 7468   5.181   3.014   0.553
 2190SOL    HW1 7469   5.083   3.003   0.534
 2190SOL    HW2 7470   5.217   2.928   0.590
 2191SOL     OW 7471   3.028   1.069   6.683
 2191SOL    HW1 7472   3.103   1.014   6.720
 2191SOL    HW2 7473   3.065   1.137   6.620
 2192SOL     OW 7474   3.922   5.707   2.220
 2192SOL    HW1 7475   3.928   5.772   2.145
 2192SOL    HW2 7476   3.841   5.650   2.209
 2193SOL     OW 7477   6.684   6.072   4.696
 2193SOL    HW1 7478   6.768   6.074   4.640
 2193SOL    HW2 7479   6.702   6.021   4.780
 2194SOL     OW 7480   2.769   6.902   1.717
 2194SOL    HW1 7481   2.863   6.873   1.733
 2194SOL    HW2 7482   2.760   6.933   1.622
 2195SOL     OW 7483   0.489   4.683   1.934
 2195SOL    HW1 7484   0.541   4.604   1.902
 2195SOL    HW2 7485   0.420   4.653   2.000
 2196SOL     OW 7486   4.428   3.874   0.220
 2196SOL    HW1 7487   4.523   3.856   0.195
 2196SOL    HW2 7488   4.424   3.951   0.283
 2197SOL     OW 7489   4.599   3.398   0.064
 2197SOL    HW1 7490   4.601   3.497   0.049
 2197SOL    HW2 7491   4.677   3.371   0.121
 2198SOL     OW 7492   6.758   4.552   0.073
 2198SOL    HW1 7493   6.730   4.511   0.160
 2198SOL    HW2 7494   6.849   4.592   0.084
 2199SOL     OW 7495   4.444   1.368   3.427
 2199SOL    HW1 7496   4.355   1.406   3.454
 2199SOL    HW2 7497   4.457   1.380   3.329
 2200SOL     OW 7498   3.205   6.830   4.194
 2200SOL    HW1 7499   3.278   6.875   4.143
 2200SOL    HW2 7500   3.207   6.732   4.175
 2201SOL     OW 7501   4.650   4.295   4.267
 2201SOL    HW1 7502   4.673   4.269   4.360
 2201SOL    HW2 7503   4.697   4.380   4.243
 2202SOL     OW 7504   4.531   5.318   3.644
 2202SOL    HW1 7505   4.437   5.314   3.680
 2202SOL    HW2 7506   4.529   5.354   3.551
 2203SOL     OW 7507   2.819   2.128   2.626
 2203SOL    HW1 7508   2.834   2.085   2.715
 2203SOL    HW2 7509   2.906   2.140   2.579
 2204SOL     OW 7510   2.749   2.172   0.908
 2204SOL    HW1 7511   2.786   2.256   0.947
 2204SOL    HW2 7512   2.819   2.128   0.851
 2205SOL     OW 7513   3.446   1.333   2.467
 2205SOL    HW1 7514   3.430   1.358   2.563
 2205SOL    HW2 7515   3.514   1.394   2.427
 2206SOL     OW 7516   1.561   3.839   0.571
 2206SOL    HW1 7517   1.486   3.788   0.528
 2206SOL    HW2 7518   1.622   3.774   0.617
 2207SOL     OW 7519   6.383   4.933   5.092
 2207SOL    HW1 7520   6.372   4.851   5.034
 2207SOL    HW2 7521   6.328   4.923   5.175
 2208SOL     OW 7522   6.530   5.446   1.856
 2208SOL    HW1 7523   6.508   5.543   1.841
 2208SOL    HW2 7524   6.495   5.392   1.780
 2209SOL     OW 7525   0.091   6.396   1.612
 2209SOL    HW1 7526   0.163   6.348   1.562
 2209SOL    HW2 7527   0.078   6.487   1.573
 2210SOL     OW 7528   1.964   5.133   3.971
 2210SOL    HW1 7529   2.019   5.084   4.038
 2210SOL    HW2 7530   1.992   5.229   3.969
 2211SOL     OW 7531   6.925   1.521   5.019
 2211SOL    HW1 7532   6.969   1.543   5.106
 2211SOL    HW2 7533   6.988   1.466   4.963
 2212SOL     OW 7534   3.120   0.047   5.936
 2212SOL    HW1 7535   3.082   7.007   5.866
 2212SOL    HW2 7536   3.134   7.018   6.021
 2213SOL     OW 7537   4.736   0.320   3.172
 2213SOL    HW1 7538   4.754   0.336   3.075
 2213SOL    HW2 7539   4.819   0.338   3.224
 2214SOL     OW 7540   3.738   0.006   5.164
 2214SOL    HW1 7541   3.659   6.988   5.211
 2214SOL    HW2 7542   3.818   6.970   5.179
 2215SOL     OW 7543   5.949   2.261   5.413
 2215SOL    HW1 7544   5.900   2.340   5.450
 2215SOL    HW2 7545   5.998   2.214   5.486
 2216SOL     OW 7546   3.417   1.777   2.735
 2216SOL    HW1 7547   3.410   1.726   2.649
 2216SOL    HW2 7548   3.482   1.853   2.724
 2217SOL     OW 7549   3.667   0.319   1.754
 2217SOL    HW1 7550   3.582   0.340   1.803
 2217SOL    HW2 7551   3.673   0.378   1.673
 2218SOL     OW 7552   0.435   0.466   2.319
 2218SOL    HW1 7553   0.420   0.416   2.234
 2218SOL    HW2 7554   0.490   0.548   2.300
 2219SOL     OW 7555   2.927   2.016   2.838
 2219SOL    HW1 7556   3.010   1.961   2.825
 2219SOL    HW2 7557   2.939   2.076   2.916
 2220SOL     OW 7558   1.237   0.298   1.992
 2220SOL    HW1 7559   1.290   0.359   1.933
 2220SOL    HW2 7560   1.289   0.278   2.075
 2221SOL     OW 7561   0.380   0.036   5.688
 2221SOL    HW1 7562   0.420   0.127   5.686
 2221SOL    HW2 7563   0.369   0.006   5.783
 2222SOL     OW 7564   6.208   4.987   3.892
 2222SOL    HW1 7565   6.207   5.078   3.851
 2222SOL    HW2 7566   6.115   4.961   3.918
 2223SOL     OW 7567   6.705   6.541   1.546
 2223SOL    HW1 7568   6.794   6.587   1.541
 2223SOL    HW2 7569   6.718   6.445   1.571
 2224SOL     OW 7570   0.667   5.383   0.455
 2224SOL    HW1 7571   0.719   5.358   0.373
 2224SOL    HW2 7572   0.571   5.357   0.443
 2225SOL     OW 7573   0.393   4.111   0.340
 2225SOL    HW1 7574   0.401   4.011   0.338
 2225SOL    HW2 7575   0.480   4.151   0.312
 2226SOL     OW 7576   3.832   3.312   2.354
 2226SOL    HW1 7577   3.810   3.270   2.266
 2226SOL    HW2 7578   3.916   3.366   2.345
 2227SOL     OW 7579   0.721   1.863   4.269
 2227SOL    HW1 7580   0.777   1.892   4.347
 2227SOL    HW2 7581   0.624   1.876   4.291
 2228SOL     OW 7582   2.694   4.649   3.870
 2228SOL    HW1 7583   2.617   4.699   3.910
 2228SOL    HW2 7584   2.776   4.664   3.924
 2229SOL     OW 7585   6.418   6.231   3.146
 2229SOL    HW1 7586   6.517   6.240   3.155
 2229SOL    HW2 7587   6.394   6.211   3.050
 2230SOL     OW 7588   1.758   5.475   2.448
 2230SOL    HW1 7589   1.780   5.508   2.356
 2230SOL    HW2 7590   1.758   5.375   2.448
 2231SOL     OW 7591   2.382   5.567   1.269
 2231SOL    HW1 7592   2.369   5.665   1.281
 2231SOL    HW2 7593   2.338   5.537   1.184
 2232SOL     OW 7594   5.561   2.134   3.854
 2232SOL    HW1 7595   5.625   2.061   3.831
 2232SOL    HW2 7596   5.486   2.097   3.909
 2233SOL     OW 7597   3.443   1.311   0.039
 2233SOL    HW1 7598   3.522   1.361   0.075
 2233SOL    HW2 7599   3.430   1.334   6.964
 2234SOL     OW 7600   3.811   2.885   1.167
 2234SOL    HW1 7601   3.743   2.850   1.230
 2234SOL    HW2 7602   3.790   2.854   1.074
 2235SOL     OW 7603   2.052   1.797   2.522
 2235SOL    HW1 7604   2.133   1.826   2.471
 2235SOL    HW2 7605   2.007   1.878   2.560
 2236SOL     OW 7606   0.965   4.409   5.379
 2236SOL    HW1 7607   0.943   4.504   5.357
 2236SOL    HW2 7608   1.043   4.380   5.324
 2237SOL     OW 7609   6.563   2.834   4.299
 2237SOL    HW1 7610   6.568   2.892   4.380
 2237SOL    HW2 7611   6.655   2.813   4.268
 2238SOL     OW 7612   5.295   6.338   0.150
 2238SOL    HW1 7613   5.270   6.266   0.214
 2238SOL    HW2 7614   5.300   6.300   0.057
 2239SOL     OW 7615   6.218   5.732   1.457
 2239SOL    HW1 7616   6.246   5.762   1.548
 2239SOL    HW2 7617   6.210   5.632   1.456
 2240SOL     OW 7618   6.236   4.023   1.537
 2240SOL    HW1 7619   6.309   4.089   1.522
 2240SOL    HW2 7620   6.268   3.950   1.597
 2241SOL     OW 7621   1.164   0.427   4.034
 2241SOL    HW1 7622   1.208   0.373   3.963
 2241SOL    HW2 7623   1.234   0.474   4.089
 2242SOL     OW 7624   3.003   1.444   3.120
 2242SOL    HW1 7625   3.008   1.379   3.044
 2242SOL    HW2 7626   3.093   1.483   3.137
 2243SOL     OW 7627   2.222   0.235   4.807
 2243SOL    HW1 7628   2.150   0.172   4.837
 2243SOL    HW2 7629   2.276   0.191   4.735
 2244SOL     OW 7630   4.082   0.630   5.018
 2244SOL    HW1 7631   4.064   0.575   5.100
 2244SOL    HW2 7632   4.170   0.603   4.979
 2245SOL     OW 7633   0.362   2.326   2.426
 2245SOL    HW1 7634   0.335   2.230   2.436
 2245SOL    HW2 7635   0.288   2.377   2.383
 2246SOL     OW 7636   1.073   4.284   5.590
 2246SOL    HW1 7637   1.015   4.306   5.511
 2246SOL    HW2 7638   1.152   4.347   5.592
 2247SOL     OW 7639   1.883   1.355   4.605
 2247SOL    HW1 7640   1.787   1.370   4.581
 2247SOL    HW2 7641   1.895   1.262   4.639
 2248SOL     OW 7642   5.468   4.364   6.051
 2248SOL    HW1 7643   5.531   4.427   6.095
 2248SOL    HW2 7644   5.519   4.295   6.000
 2249SOL     OW 7645   5.048   5.684   5.484
 2249SOL    HW1 7646   5.000   5.748   5.424
 2249SOL    HW2 7647   5.138   5.720   5.505
 2250SOL     OW 7648   4.745   5.064   1.646
 2250SOL    HW1 7649   4.739   5.156   1.685
 2250SOL    HW2 7650   4.728   4.996   1.717
 2251SOL     OW 7651   0.518   0.994   5.913
 2251SOL    HW1 7652   0.485   1.081   5.949
 2251SOL    HW2 7653   0.608   1.007   5.872
 2252SOL     OW 7654   3.603   0.905   6.376
 2252SOL    HW1 7655   3.527   0.922   6.313
 2252SOL    HW2 7656   3.579   0.830   6.437
 2253SOL     OW 7657   0.641   4.185   6.937
 2253SOL    HW1 7658   0.674   4.252   6.871
 2253SOL    HW2 7659   0.606   4.105   6.889
 2254SOL     OW 7660   2.064   5.059   6.332
 2254SOL    HW1 7661   1.966   5.043   6.343
 2254SOL    HW2 7662   2.081   5.158   6.328
 2255SOL     OW 7663   6.666   3.730   6.573
 2255SOL    HW1 7664   6.677   3.645   6.624
 2255SOL    HW2 7665   6.616   3.796   6.629
 2256SOL     OW 7666   2.655   4.973   1.833
 2256SOL    HW1 7667   2.679   5.068   1.812
 2256SOL    HW2 7668   2.710   4.911   1.776
 2257SOL     OW 7669   1.524   4.251   5.147
 2257SOL    HW1 7670   1.550   4.155   5.141
 2257SOL    HW2 7671   1.443   4.266   5.089
 2258SOL     OW 7672   1.927   5.528   5.087
 2258SOL    HW1 7673   2.007   5.474   5.064
 2258SOL    HW2 7674   1.898   5.581   5.007
 2259SOL     OW 7675   6.436   2.101   6.365
 2259SOL    HW1 7676   6.449   2.006   6.337
 2259SOL    HW2 7677   6.491   2.161   6.307
 2260SOL     OW 7678   4.026   3.166   0.560
 2260SOL    HW1 7679   4.088   3.223   0.506
 2260SOL    HW2 7680   4.056   3.166   0.656
 2261SOL     OW 7681   2.345   5.958   5.195
 2261SOL    HW1 7682   2.442   5.944   5.177
 2261SOL    HW2 7683   2.311   5.884   5.253
 2262SOL     OW 7684   3.464   1.847   3.026
 2262SOL    HW1 7685   3.511   1.806   2.948
 2262SOL    HW2 7686   3.516   1.926   3.059
 2263SOL     OW 7687   1.153   4.492   5.877
 2263SOL    HW1 7688   1.166   4.409   5.931
 2263SOL    HW2 7689   1.056   4.517   5.878
 2264SOL     OW 7690   3.743   3.719   3.206
 2264SOL    HW1 7691   3.746   3.807   3.159
 2264SOL    HW2 7692   3.649   3.695   3.228
 2265SOL     OW 7693   0.822   6.613   3.949
 2265SOL    HW1 7694   0.782   6.629   3.859
 2265SOL    HW2 7695   0.901   6.552   3.941
 2266SOL     OW 7696   6.972   0.581   5.960
 2266SOL    HW1 7697   0.046   0.555   5.973
 2266SOL    HW2 7698   6.957   0.607   5.865
 2267SOL     OW 7699   5.434   2.033   5.351
 2267SOL    HW1 7700   5.422   2.013   5.448
 2267SOL    HW2 7701   5.511   1.980   5.316
 2268SOL     OW 7702   6.773   5.668   0.246
 2268SOL    HW1 7703   6.765   5.668   0.146
 2268SOL    HW2 7704   6.759   5.761   0.280
 2269SOL     OW 7705   0.165   6.810   2.870
 2269SOL    HW1 7706   0.239   6.829   2.805
 2269SOL    HW2 7707   0.187   6.849   2.959
 2270SOL     OW 7708   3.586   3.138   3.411
 2270SOL    HW1 7709   3.525   3.195   3.357
 2270SOL    HW2 7710   3.557   3.043   3.405
 2271SOL     OW 7711   1.317   4.646   3.109
 2271SOL    HW1 7712   1.372   4.725   3.135
 2271SOL    HW2 7713   1.221   4.671   3.109
 2272SOL     OW 7714   5.165   0.740   5.398
 2272SOL    HW1 7715   5.129   0.833   5.400
 2272SOL    HW2 7716   5.125   0.687   5.472
 2273SOL     OW 7717   0.741   1.456   2.502
 2273SOL    HW1 7718   0.720   1.478   2.406
 2273SOL    HW2 7719   0.692   1.373   2.528
 2274SOL     OW 7720   0.863   4.284   3.779
 2274SOL    HW1 7721   0.827   4.224   3.706
 2274SOL    HW2 7722   0.927   4.232   3.835
 2275SOL     OW 7723   4.877   6.273   3.409
 2275SOL    HW1 7724   4.901   6.323   3.493
 2275SOL    HW2 7725   4.924   6.185   3.409
 2276SOL     OW 7726   3.355   5.709   2.177
 2276SOL    HW1 7727   3.453   5.690   2.183
 2276SOL    HW2 7728   3.304   5.623   2.175
 2277SOL     OW 7729   3.141   2.938   2.168
 2277SOL    HW1 7730   3.097   2.973   2.252
 2277SOL    HW2 7731   3.228   2.895   2.192
 2278SOL     OW 7732   3.859   5.378   1.019
 2278SOL    HW1 7733   3.862   5.471   0.982
 2278SOL    HW2 7734   3.767   5.358   1.051
 2279SOL     OW 7735   5.626   4.132   5.878
 2279SOL    HW1 7736   5.623   4.042   5.922
 2279SOL    HW2 7737   5.613   4.121   5.780
 2280SOL     OW 7738   5.771   0.466   6.130
 2280SOL    HW1 7739   5.816   0.379   6.149
 2280SOL    HW2 7740   5.837   0.528   6.086
 2281SOL     OW 7741   2.181   1.199   0.293
 2281SOL    HW1 7742   2.204   1.145   0.374
 2281SOL    HW2 7743   2.237   1.169   0.216
 2282SOL     OW 7744   4.002   6.131   2.712
 2282SOL    HW1 7745   4.025   6.197   2.641
 2282SOL    HW2 7746   4.077   6.065   2.723
 2283SOL     OW 7747   0.871   3.355   1.388
 2283SOL    HW1 7748   0.959   3.398   1.409
 2283SOL    HW2 7749   0.823   3.336   1.474
 2284SOL     OW 7750   2.266   2.447   1.219
 2284SOL    HW1 7751   2.330   2.508   1.265
 2284SOL    HW2 7752   2.172   2.479   1.235
 2285SOL     OW 7753   1.323   3.248   6.795
 2285SOL    HW1 7754   1.347   3.197   6.877
 2285SOL    HW2 7755   1.354   3.198   6.714
 2286SOL     OW 7756   6.527   6.865   4.082
 2286SOL    HW1 7757   6.549   6.924   4.160
 2286SOL    HW2 7758   6.610   6.820   4.050
 2287SOL     OW 7759   2.925   1.934   1.061
 2287SOL    HW1 7760   2.844   1.975   1.104
 2287SOL    HW2 7761   2.957   1.993   0.987
 2288SOL     OW 7762   2.602   6.176   4.516
 2288SOL    HW1 7763   2.514   6.164   4.562
 2288SOL    HW2 7764   2.602   6.124   4.430
 2289SOL     OW 7765   4.137   0.125   6.871
 2289SOL    HW1 7766   4.078   0.124   6.790
 2289SOL    HW2 7767   4.113   0.204   6.928
 2290SOL     OW 7768   3.215   3.319   4.576
 2290SOL    HW1 7769   3.273   3.384   4.625
 2290SOL    HW2 7770   3.119   3.333   4.603
 2291SOL     OW 7771   2.686   2.252   0.310
 2291SOL    HW1 7772   2.719   2.341   0.343
 2291SOL    HW2 7773   2.755   2.212   0.250
 2292SOL     OW 7774   4.817   2.367   3.323
 2292SOL    HW1 7775   4.840   2.381   3.419
 2292SOL    HW2 7776   4.899   2.382   3.267
 2293SOL     OW 7777   0.965   1.159   6.811
 2293SOL    HW1 7778   1.036   1.170   6.742
 2293SOL    HW2 7779   0.984   1.219   6.888
 2294SOL     OW 7780   6.286   2.095   5.067
 2294SOL    HW1 7781   6.346   2.175   5.077
 2294SOL    HW2 7782   6.273   2.075   4.970
 2295SOL     OW 7783   5.249   6.119   0.318
 2295SOL    HW1 7784   5.230   6.148   0.412
 2295SOL    HW2 7785   5.165   6.086   0.276
 2296SOL     OW 7786   3.705   5.483   4.900
 2296SOL    HW1 7787   3.624   5.539   4.916
 2296SOL    HW2 7788   3.709   5.455   4.804
 2297SOL     OW 7789   5.976   2.947   6.364
 2297SOL    HW1 7790   6.022   3.007   6.429
 2297SOL    HW2 7791   5.979   2.853   6.399
 2298SOL     OW 7792   2.800   3.661   5.422
 2298SOL    HW1 7793   2.783   3.689   5.517
 2298SOL    HW2 7794   2.755   3.725   5.360
 2299SOL     OW 7795   5.907   3.558   4.790
 2299SOL    HW1 7796   5.964   3.596   4.863
 2299SOL    HW2 7797   5.905   3.622   4.713
 2300SOL     OW 7798   5.151   0.127   2.644
 2300SOL    HW1 7799   5.177   0.189   2.569
 2300SOL    HW2 7800   5.196   0.039   2.631
 2301SOL     OW 7801   3.894   3.099   5.167
 2301SOL    HW1 7802   3.813   3.112   5.224
 2301SOL    HW2 7803   3.870   3.108   5.071
 2302SOL     OW 7804   6.520   3.800   5.644
 2302SOL    HW1 7805   6.467   3.884   5.652
 2302SOL    HW2 7806   6.565   3.797   5.554
 2303SOL     OW 7807   2.660   1.684   6.474
 2303SOL    HW1 7808   2.656   1.584   6.469
 2303SOL    HW2 7809   2.732   1.717   6.414
 2304SOL     OW 7810   5.713   0.033   2.066
 2304SOL    HW1 7811   5.779   6.996   2.019
 2304SOL    HW2 7812   5.758   0.081   2.141
 2305SOL     OW 7813   3.035   6.780   5.176
 2305SOL    HW1 7814   2.944   6.815   5.195
 2305SOL    HW2 7815   3.069   6.820   5.091
 2306SOL     OW 7816   0.700   4.300   4.616
 2306SOL    HW1 7817   0.760   4.265   4.545
 2306SOL    HW2 7818   0.755   4.330   4.694
 2307SOL     OW 7819   6.102   3.899   5.014
 2307SOL    HW1 7820   6.010   3.904   5.053
 2307SOL    HW2 7821   6.124   3.804   4.993
 2308SOL     OW 7822   1.149   5.933   1.850
 2308SOL    HW1 7823   1.131   5.894   1.760
 2308SOL    HW2 7824   1.244   5.915   1.877
 2309SOL     OW 7825   2.056   0.785   4.602
 2309SOL    HW1 7826   1.979   0.729   4.571
 2309SOL    HW2 7827   2.121   0.798   4.527
 2310SOL     OW 7828   4.028   6.468   0.183
 2310SOL    HW1 7829   4.081   6.412   0.247
 2310SOL    HW2 7830   3.979   6.409   0.120
 2311SOL     OW 7831   2.399   5.841   0.700
 2311SOL    HW1 7832   2.414   5.891   0.615
 2311SOL    HW2 7833   2.430   5.896   0.778
 2312SOL     OW 7834   2.844   4.720   3.135
 2312SOL    HW1 7835   2.936   4.680   3.136
 2312SOL    HW2 7836   2.795   4.694   3.218
 2313SOL     OW 7837   4.517   5.227   1.668
 2313SOL    HW1 7838   4.541   5.197   1.760
 2313SOL    HW2 7839   4.430   5.274   1.669
 2314SOL     OW 7840   2.232   4.189   3.095
 2314SOL    HW1 7841   2.146   4.190   3.146
 2314SOL    HW2 7842   2.305   4.227   3.153
 2315SOL     OW 7843   4.331   1.940   6.484
 2315SOL    HW1 7844   4.363   1.994   6.562
 2315SOL    HW2 7845   4.279   1.861   6.517
 2316SOL     OW 7846   4.828   3.128   1.703
 2316SOL    HW1 7847   4.855   3.050   1.761
 2316SOL    HW2 7848   4.729   3.126   1.689
 2317SOL     OW 7849   0.795   5.812   3.812
 2317SOL    HW1 7850   0.892   5.803   3.789
 2317SOL    HW2 7851   0.748   5.862   3.740
 2318SOL     OW 7852   6.987   1.529   3.501
 2318SOL    HW1 7853   6.973   1.430   3.496
 2318SOL    HW2 7854   0.059   1.551   3.471
 2319SOL     OW 7855   1.532   5.075   1.572
 2319SOL    HW1 7856   1.446   5.032   1.544
 2319SOL    HW2 7857   1.597   5.072   1.495
 2320SOL     OW 7858   6.284   4.615   4.147
 2320SOL    HW1 7859   6.228   4.533   4.158
 2320SOL    HW2 7860   6.274   4.651   4.054
 2321SOL     OW 7861   3.702   4.971   4.098
 2321SOL    HW1 7862   3.682   5.068   4.108
 2321SOL    HW2 7863   3.629   4.918   4.144
 2322SOL     OW 7864   2.698   1.024   4.491
 2322SOL    HW1 7865   2.637   1.078   4.548
 2322SOL    HW2 7866   2.750   1.085   4.431
 2323SOL     OW 7867   5.307   3.654   1.892
 2323SOL    HW1 7868   5.222   3.695   1.924
 2323SOL    HW2 7869   5.339   3.702   1.810
 2324SOL     OW 7870   0.208   5.538   3.917
 2324SOL    HW1 7871   0.250   5.505   3.833
 2324SOL    HW2 7872   0.278   5.573   3.979
 2325SOL     OW 7873   6.872   2.453   0.170
 2325SOL    HW1 7874   6.907   2.490   0.084
 2325SOL    HW2 7875   6.949   2.429   0.229
 2326SOL     OW 7876   0.345   4.548   0.565
 2326SOL    HW1 7877   0.413   4.510   0.627
 2326SOL    HW2 7878   0.353   4.503   0.476
 2327SOL     OW 7879   4.900   1.418   3.283
 2327SOL    HW1 7880   4.860   1.329   3.262
 2327SOL    HW2 7881   4.866   1.450   3.372
 2328SOL     OW 7882   6.167   5.234   3.757
 2328SOL    HW1 7883   6.159   5.258   3.661
 2328SOL    HW2 7884   6.208   5.311   3.807
 2329SOL     OW 7885   1.087   6.272   3.207
 2329SOL    HW1 7886   1.144   6.291   3.287
 2329SOL    HW2 7887   1.142   6.225   3.138
 2330SOL     OW 7888   1.361   4.619   0.074
 2330SOL    HW1 7889   1.301   4.548   0.110
 2330SOL    HW2 7890   1.456   4.592   0.089
 2331SOL     OW 7891   0.894   4.963   5.095
 2331SOL    HW1 7892   0.938   5.033   5.040
 2331SOL    HW2 7893   0.818   4.922   5.044
 2332SOL     OW 7894   6.130   3.206   5.684
 2332SOL    HW1 7895   6.177   3.265   5.618
 2332SOL    HW2 7896   6.140   3.244   5.776
 2333SOL     OW 7897   2.408   4.793   3.463
 2333SOL    HW1 7898   2.401   4.694   3.446
 2333SOL    HW2 7899   2.415   4.809   3.561
 2334SOL     OW 7900   2.381   0.439   5.990
 2334SOL    HW1 7901   2.344   0.502   6.059
 2334SOL    HW2 7902   2.345   0.347   6.008
 2335SOL     OW 7903   4.758   4.541   4.264
 2335SOL    HW1 7904   4.844   4.520   4.312
 2335SOL    HW2 7905   4.716   4.622   4.305
 2336SOL     OW 7906   4.184   2.172   5.737
 2336SOL    HW1 7907   4.274   2.194   5.774
 2336SOL    HW2 7908   4.173   2.073   5.730
 2337SOL     OW 7909   5.642   0.706   4.624
 2337SOL    HW1 7910   5.724   0.655   4.651
 2337SOL    HW2 7911   5.669   0.797   4.595
 2338SOL     OW 7912   1.244   6.970   6.616
 2338SOL    HW1 7913   1.304   6.944   6.541
 2338SOL    HW2 7914   1.221   6.889   6.671
 2339SOL     OW 7915   4.319   4.778   0.005
 2339SOL    HW1 7916   4.335   4.756   6.930
 2339SOL    HW2 7917   4.230   4.824   0.014
 2340SOL     OW 7918   3.525   5.229   4.632
 2340SOL    HW1 7919   3.517   5.131   4.648
 2340SOL    HW2 7920   3.437   5.273   4.651
 2341SOL     OW 7921   6.490   4.659   6.669
 2341SOL    HW1 7922   6.483   4.581   6.606
 2341SOL    HW2 7923   6.403   4.709   6.669
 2342SOL     OW 7924   6.657   1.437   5.749
 2342SOL    HW1 7925   6.703   1.349   5.764
 2342SOL    HW2 7926   6.625   1.441   5.654
 2343SOL     OW 7927   1.537   6.353   0.334
 2343SOL    HW1 7928   1.509   6.291   0.260
 2343SOL    HW2 7929   1.545   6.302   0.419
 2344SOL     OW 7930   2.841   0.806   2.932
 2344SOL    HW1 7931   2.905   0.838   2.863
 2344SOL    HW2 7932   2.751   0.793   2.891
 2345SOL     OW 7933   1.111   1.980   1.983
 2345SOL    HW1 7934   1.064   1.894   1.967
 2345SOL    HW2 7935   1.165   1.974   2.067
 2346SOL     OW 7936   4.737   2.900   5.348
 2346SOL    HW1 7937   4.809   2.941   5.292
 2346SOL    HW2 7938   4.735   2.945   5.438
 2347SOL     OW 7939   1.648   4.084   0.662
 2347SOL    HW1 7940   1.624   3.991   0.633
 2347SOL    HW2 7941   1.718   4.080   0.733
 2348SOL     OW 7942   2.487   0.026   1.285
 2348SOL    HW1 7943   2.452   6.968   1.237
 2348SOL    HW2 7944   2.411   0.076   1.327
 2349SOL     OW 7945   5.368   3.214   6.775
 2349SOL    HW1 7946   5.387   3.237   6.679
 2349SOL    HW2 7947   5.450   3.173   6.816
 2350SOL     OW 7948   1.744   6.405   4.719
 2350SOL    HW1 7949   1.790   6.388   4.806
 2350SOL    HW2 7950   1.763   6.498   4.688
 2351SOL     OW 7951   1.366   4.810   2.498
 2351SOL    HW1 7952   1.363   4.804   2.598
 2351SOL    HW2 7953   1.274   4.825   2.463
 2352SOL     OW 7954   5.688   5.430   0.385
 2352SOL    HW1 7955   5.589   5.429   0.398
 2352SOL    HW2 7956   5.709   5.402   0.291
 2353SOL     OW 7957   2.414   3.199   6.004
 2353SOL    HW1 7958   2.424   3.288   5.960
 2353SOL    HW2 7959   2.385   3.131   5.937
 2354SOL     OW 7960   4.302   1.747   2.424
 2354SOL    HW1 7961   4.258   1.767   2.337
 2354SOL    HW2 7962   4.330   1.832   2.468
 2355SOL     OW 7963   0.718   1.492   1.821
 2355SOL    HW1 7964   0.642   1.432   1.848
 2355SOL    HW2 7965   0.785   1.438   1.770
 2356SOL     OW 7966   3.233   5.120   4.305
 2356SOL    HW1 7967   3.138   5.138   4.328
 2356SOL    HW2 7968   3.269   5.195   4.248
 2357SOL     OW 7969   1.140   5.237   0.921
 2357SOL    HW1 7970   1.228   5.205   0.956
 2357SOL    HW2 7971   1.097   5.296   0.989
 2358SOL     OW 7972   2.870   0.604   5.413
 2358SOL    HW1 7973   2.804   0.536   5.381
 2358SOL    HW2 7974   2.850   0.692   5.370
 2359SOL     OW 7975   2.418   2.001   5.902
 2359SOL    HW1 7976   2.472   2.058   5.964
 2359SOL    HW2 7977   2.463   1.998   5.812
 2360SOL     OW 7978   3.280   5.108   0.583
 2360SOL    HW1 7979   3.200   5.167   0.571
 2360SOL    HW2 7980   3.348   5.156   0.638
 2361SOL     OW 7981   3.376   5.217   1.410
 2361SOL    HW1 7982   3.287   5.230   1.454
 2361SOL    HW2 7983   3.366   5.154   1.333
 2362SOL     OW 7984   2.892   5.089   4.748
 2362SOL    HW1 7985   2.802   5.093   4.706
 2362SOL    HW2 7986   2.938   5.004   4.722
 2363SOL     OW 7987   2.170   3.840   1.123
 2363SOL    HW1 7988   2.188   3.923   1.176
 2363SOL    HW2 7989   2.110   3.862   1.046
 2364SOL     OW 7990   4.719   0.815   2.255
 2364SOL    HW1 7991   4.719   0.763   2.170
 2364SOL    HW2 7992   4.770   0.900   2.241
 2365SOL     OW 7993   5.443   4.627   2.970
 2365SOL    HW1 7994   5.472   4.535   2.943
 2365SOL    HW2 7995   5.426   4.628   3.069
 2366SOL     OW 7996   3.024   5.400   5.195
 2366SOL    HW1 7997   3.106   5.455   5.180
 2366SOL    HW2 7998   2.986   5.371   5.107
 2367SOL     OW 7999   6.218   5.268   5.402
 2367SOL    HW1 8000   6.302   5.297   5.448
 2367SOL    HW2 8001   6.238   5.191   5.341
 2368SOL     OW 8002   5.551   0.299   4.938
 2368SOL    HW1 8003   5.470   0.258   4.981
 2368SOL    HW2 8004   5.522   0.372   4.876
 2369SOL     OW 8005   4.107   1.749   4.355
 2369SOL    HW1 8006   4.083   1.655   4.333
 2369SOL    HW2 8007   4.103   1.762   4.455
 2370SOL     OW 8008   4.652   1.532   1.871
 2370SOL    HW1 8009   4.601   1.613   1.842
 2370SOL    HW2 8010   4.653   1.529   1.971
 2371SOL     OW 8011   1.634   6.851   1.897
 2371SOL    HW1 8012   1.583   6.915   1.953
 2371SOL    HW2 8013   1.719   6.894   1.865
 2372SOL     OW 8014   6.838   6.865   5.385
 2372SOL    HW1 8015   6.742   6.837   5.384
 2372SOL    HW2 8016   6.853   6.929   5.461
 2373SOL     OW 8017   5.905   4.212   5.817
 2373SOL    HW1 8018   5.913   4.299   5.768
 2373SOL    HW2 8019   5.809   4.189   5.830
 2374SOL     OW 8020   0.140   6.336   2.271
 2374SOL    HW1 8021   0.154   6.277   2.350
 2374SOL    HW2 8022   0.060   6.394   2.286
 2375SOL     OW 8023   1.597   6.997   4.107
 2375SOL    HW1 8024   1.635   6.913   4.069
 2375SOL    HW2 8025   1.571   0.037   4.033
 2376SOL     OW 8026   5.091   3.151   3.443
 2376SOL    HW1 8027   5.048   3.120   3.528
 2376SOL    HW2 8028   5.035   3.124   3.365
 2377SOL     OW 8029   3.776   3.854   5.559
 2377SOL    HW1 8030   3.799   3.872   5.655
 2377SOL    HW2 8031   3.726   3.932   5.521
 2378SOL     OW 8032   0.386   0.474   0.655
 2378SOL    HW1 8033   0.362   0.532   0.578
 2378SOL    HW2 8034   0.401   0.530   0.736
 2379SOL     OW 8035   0.718   5.009   2.375
 2379SOL    HW1 8036   0.769   4.953   2.309
 2379SOL    HW2 8037   0.688   4.952   2.451
 2380SOL     OW 8038   4.206   5.189   6.455
 2380SOL    HW1 8039   4.282   5.165   6.395
 2380SOL    HW2 8040   4.195   5.288   6.458
 2381SOL     OW 8041   2.088   3.724   4.276
 2381SOL    HW1 8042   2.141   3.796   4.321
 2381SOL    HW2 8043   1.990   3.745   4.282
 2382SOL     OW 8044   6.933   5.694   3.103
 2382SOL    HW1 8045   6.857   5.629   3.100
 2382SOL    HW2 8046   6.899   5.785   3.128
 2383SOL     OW 8047   4.852   4.186   6.121
 2383SOL    HW1 8048   4.893   4.096   6.137
 2383SOL    HW2 8049   4.917   4.245   6.074
 2384SOL     OW 8050   0.552   2.686   2.892
 2384SOL    HW1 8051   0.568   2.712   2.797
 2384SOL    HW2 8052   0.454   2.689   2.912
 2385SOL     OW 8053   0.459   1.268   0.210
 2385SOL    HW1 8054   0.423   1.351   0.251
 2385SOL    HW2 8055   0.441   1.190   0.270
 2386SOL     OW 8056   6.689   5.523   5.157
 2386SOL    HW1 8057   6.745   5.591   5.110
 2386SOL    HW2 8058   6.722   5.511   5.251
 2387SOL     OW 8059   0.461   1.098   3.544
 2387SOL    HW1 8060   0.368   1.134   3.539
 2387SOL    HW2 8061   0.485   1.080   3.640
 2388SOL     OW 8062   0.766   3.406   4.926
 2388SOL    HW1 8063   0.771   3.354   5.011
 2388SOL    HW2 8064   0.688   3.375   4.873
 2389SOL     OW 8065   3.539   6.244   3.270
 2389SOL    HW1 8066   3.553   6.150   3.301
 2389SOL    HW2 8067   3.546   6.306   3.349
 2390SOL     OW 8068   5.565   2.303   6.045
 2390SOL    HW1 8069   5.625   2.235   6.004
 2390SOL    HW2 8070   5.540   2.275   6.137
 2391SOL     OW 8071   2.859   4.053   6.763
 2391SOL    HW1 8072   2.890   4.075   6.670
 2391SOL    HW2 8073   2.935   4.067   6.827
 2392SOL     OW 8074   4.198   4.825   5.799
 2392SOL    HW1 8075   4.249   4.761   5.856
 2392SOL    HW2 8076   4.218   4.918   5.827
 2393SOL     OW 8077   3.698   4.455   0.235
 2393SOL    HW1 8078   3.718   4.369   0.282
 2393SOL    HW2 8079   3.749   4.459   0.149
 2394SOL     OW 8080   6.124   1.915   3.836
 2394SOL    HW1 8081   6.178   1.996   3.812
 2394SOL    HW2 8082   6.145   1.841   3.772
 2395SOL     OW 8083   1.816   2.580   3.745
 2395SOL    HW1 8084   1.834   2.560   3.842
 2395SOL    HW2 8085   1.788   2.495   3.699
 2396SOL     OW 8086   6.981   0.264   6.610
 2396SOL    HW1 8087   0.003   0.312   6.534
 2396SOL    HW2 8088   0.029   0.235   6.676
 2397SOL     OW 8089   2.206   4.571   5.554
 2397SOL    HW1 8090   2.147   4.643   5.517
 2397SOL    HW2 8091   2.192   4.486   5.504
 2398SOL     OW 8092   4.016   5.790   5.068
 2398SOL    HW1 8093   3.949   5.844   5.119
 2398SOL    HW2 8094   4.031   5.703   5.114
 2399SOL     OW 8095   3.092   1.283   2.440
 2399SOL    HW1 8096   3.056   1.240   2.523
 2399SOL    HW2 8097   3.175   1.235   2.411
 2400SOL     OW 8098   1.174   2.601   0.274
 2400SOL    HW1 8099   1.122   2.671   0.322
 2400SOL    HW2 8100   1.195   2.526   0.338
 2401SOL     OW 8101   1.551   6.155   0.117
 2401SOL    HW1 8102   1.645   6.122   0.109
 2401SOL    HW2 8103   1.505   6.106   0.191
 2402SOL     OW 8104   0.630   3.804   1.794
 2402SOL    HW1 8105   0.604   3.890   1.750
 2402SOL    HW2 8106   0.547   3.757   1.826
 2403SOL     OW 8107   3.175   4.172   5.202
 2403SOL    HW1 8108   3.114   4.247   5.230
 2403SOL    HW2 8109   3.244   4.207   5.139
 2404SOL     OW 8110   6.227   1.426   1.549
 2404SOL    HW1 8111   6.144   1.482   1.541
 2404SOL    HW2 8112   6.254   1.420   1.645
 2405SOL     OW 8113   1.612   2.848   0.896
 2405SOL    HW1 8114   1.595   2.777   0.964
 2405SOL    HW2 8115   1.675   2.916   0.933
 2406SOL     OW 8116   4.037   5.642   4.762
 2406SOL    HW1 8117   3.981   5.669   4.841
 2406SOL    HW2 8118   4.129   5.620   4.792
 2407SOL     OW 8119   2.142   1.771   3.997
 2407SOL    HW1 8120   2.111   1.686   3.955
 2407SOL    HW2 8121   2.065   1.816   4.042
 2408SOL     OW 8122   3.797   0.176   6.457
 2408SOL    HW1 8123   3.703   0.206   6.437
 2408SOL    HW2 8124   3.842   0.149   6.372
 2409SOL     OW 8125   0.615   3.036   6.776
 2409SOL    HW1 8126   0.609   3.095   6.695
 2409SOL    HW2 8127   0.653   3.089   6.852
 2410SOL     OW 8128   0.033   3.362   4.491
 2410SOL    HW1 8129   0.017   3.352   4.393
 2410SOL    HW2 8130   6.983   3.315   4.542
 2411SOL     OW 8131   2.874   1.480   0.409
 2411SOL    HW1 8132   2.948   1.515   0.352
 2411SOL    HW2 8133   2.903   1.393   0.451
 2412SOL     OW 8134   3.342   2.140   6.576
 2412SOL    HW1 8135   3.348   2.041   6.591
 2412SOL    HW2 8136   3.265   2.160   6.516
 2413SOL     OW 8137   6.853   3.906   6.926
 2413SOL    HW1 8138   6.905   3.886   7.009
 2413SOL    HW2 8139   6.756   3.912   6.947
 2414SOL     OW 8140   0.234   1.429   5.345
 2414SOL    HW1 8141   0.201   1.334   5.351
 2414SOL    HW2 8142   0.332   1.431   5.364
 2415SOL     OW 8143   3.439   4.126   6.207
 2415SOL    HW1 8144   3.397   4.084   6.287
 2415SOL    HW2 8145   3.534   4.150   6.228
 2416SOL     OW 8146   6.963   3.235   3.659
 2416SOL    HW1 8147   6.921   3.291   3.587
 2416SOL    HW2 8148   7.012   3.159   3.616
 2417SOL     OW 8149   3.305   2.584   1.544
 2417SOL    HW1 8150   3.242   2.610   1.618
 2417SOL    HW2 8151   3.389   2.547   1.584
 2418SOL     OW 8152   5.348   4.281   6.672
 2418SOL    HW1 8153   5.405   4.203   6.645
 2418SOL    HW2 8154   5.404   4.364   6.673
 2419SOL     OW 8155   3.810   0.887   3.231
 2419SOL    HW1 8156   3.845   0.800   3.195
 2419SOL    HW2 8157   3.741   0.869   3.301
 2420SOL     OW 8158   1.449   3.762   2.547
 2420SOL    HW1 8159   1.357   3.743   2.582
 2420SOL    HW2 8160   1.483   3.847   2.586
 2421SOL     OW 8161   2.595   6.445   2.994
 2421SOL    HW1 8162   2.538   6.447   3.076
 2421SOL    HW2 8163   2.683   6.489   3.013
 2422SOL     OW 8164   3.743   6.212   0.371
 2422SOL    HW1 8165   3.654   6.172   0.390
 2422SOL    HW2 8166   3.732   6.307   0.343
 2423SOL     OW 8167   3.271   4.950   4.538
 2423SOL    HW1 8168   3.356   4.932   4.588
 2423SOL    HW2 8169   3.291   5.007   4.458
 2424SOL     OW 8170   5.197   6.621   6.541
 2424SOL    HW1 8171   5.132   6.572   6.483
 2424SOL    HW2 8172   5.238   6.558   6.606
 2425SOL     OW 8173   4.043   5.464   5.246
 2425SOL    HW1 8174   4.039   5.402   5.167
 2425SOL    HW2 8175   3.951   5.473   5.285
 2426SOL     OW 8176   2.940   2.398   5.406
 2426SOL    HW1 8177   2.975   2.387   5.313
 2426SOL    HW2 8178   2.906   2.491   5.418
 2427SOL     OW 8179   4.306   1.829   0.401
 2427SOL    HW1 8180   4.284   1.905   0.462
 2427SOL    HW2 8181   4.316   1.745   0.454
 2428SOL     OW 8182   1.862   1.415   3.015
 2428SOL    HW1 8183   1.797   1.485   3.045
 2428SOL    HW2 8184   1.882   1.428   2.918
 2429SOL     OW 8185   5.756   5.930   1.195
 2429SOL    HW1 8186   5.708   6.013   1.224
 2429SOL    HW2 8187   5.738   5.913   1.098
 2430SOL     OW 8188   6.550   0.143   6.924
 2430SOL    HW1 8189   6.543   0.242   6.936
 2430SOL    HW2 8190   6.587   0.102   7.007
 2431SOL     OW 8191   2.123   3.139   2.007
 2431SOL    HW1 8192   2.165   3.087   2.081
 2431SOL    HW2 8193   2.158   3.233   2.008
 2432SOL     OW 8194   2.742   5.767   2.292
 2432SOL    HW1 8195   2.678   5.841   2.274
 2432SOL    HW2 8196   2.807   5.759   2.216
 2433SOL     OW 8197   0.117   4.073   4.711
 2433SOL    HW1 8198   0.079   3.992   4.666
 2433SOL    HW2 8199   0.078   4.155   4.669
 2434SOL     OW 8200   4.590   1.634   3.072
 2434SOL    HW1 8201   4.559   1.709   3.014
 2434SOL    HW2 8202   4.688   1.645   3.090
 2435SOL     OW 8203   6.206   6.932   6.872
 2435SOL    HW1 8204   6.203   6.987   6.789
 2435SOL    HW2 8205   6.155   6.847   6.857
 2436SOL     OW 8206   6.937   2.794   0.616
 2436SOL    HW1 8207   6.867   2.739   0.662
 2436SOL    HW2 8208   6.895   2.875   0.576
 2437SOL     OW 8209   0.558   4.499   1.166
 2437SOL    HW1 8210   0.569   4.460   1.258
 2437SOL    HW2 8211   0.553   4.425   1.099
 2438SOL     OW 8212   3.518   1.351   4.972
 2438SOL    HW1 8213   3.586   1.284   5.002
 2438SOL    HW2 8214   3.523   1.360   4.872
 2439SOL     OW 8215   0.060   5.412   0.527
 2439SOL    HW1 8216   0.130   5.343   0.549
 2439SOL    HW2 8217   0.105   5.496   0.496
 2440SOL     OW 8218   6.466   1.744   5.556
 2440SOL    HW1 8219   6.524   1.819   5.588
 2440SOL    HW2 8220   6.388   1.782   5.505
 2441SOL     OW 8221   6.205   0.948   0.552
 2441SOL    HW1 8222   6.214   0.918   0.457
 2441SOL    HW2 8223   6.262   1.029   0.567
 2442SOL     OW 8224   5.124   2.929   2.132
 2442SOL    HW1 8225   5.108   2.972   2.221
 2442SOL    HW2 8226   5.170   2.842   2.145
 2443SOL     OW 8227   0.131   3.061   1.500
 2443SOL    HW1 8228   0.087   3.151   1.498
 2443SOL    HW2 8229   0.189   3.050   1.419
 2444SOL     OW 8230   3.234   5.108   3.315
 2444SOL    HW1 8231   3.185   5.029   3.279
 2444SOL    HW2 8232   3.209   5.122   3.411
 2445SOL     OW 8233   0.668   2.101   0.978
 2445SOL    HW1 8234   0.625   2.100   1.069
 2445SOL    HW2 8235   0.767   2.094   0.989
 2446SOL     OW 8236   0.125   5.647   1.833
 2446SOL    HW1 8237   0.122   5.549   1.817
 2446SOL    HW2 8238   0.140   5.665   1.930
 2447SOL     OW 8239   1.730   6.989   0.660
 2447SOL    HW1 8240   1.742   6.980   0.561
 2447SOL    HW2 8241   1.633   6.991   0.683
 2448SOL     OW 8242   5.509   1.136   3.896
 2448SOL    HW1 8243   5.578   1.151   3.967
 2448SOL    HW2 8244   5.479   1.224   3.860
 2449SOL     OW 8245   1.820   4.266   1.108
 2449SOL    HW1 8246   1.794   4.209   1.030
 2449SOL    HW2 8247   1.738   4.299   1.154
 2450SOL     OW 8248   0.729   6.424   5.247
 2450SOL    HW1 8249   0.794   6.486   5.204
 2450SOL    HW2 8250   0.658   6.477   5.294
 2451SOL     OW 8251   2.347   6.597   6.042
 2451SOL    HW1 8252   2.259   6.552   6.027
 2451SOL    HW2 8253   2.368   6.655   5.962
 2452SOL     OW 8254   1.925   1.865   4.653
 2452SOL    HW1 8255   2.001   1.904   4.601
 2452SOL    HW2 8256   1.916   1.912   4.740
 2453SOL     OW 8257   1.447   1.898   5.937
 2453SOL    HW1 8258   1.419   1.947   6.020
 2453SOL    HW2 8259   1.463   1.802   5.960
 2454SOL     OW 8260   3.065   6.223   0.832
 2454SOL    HW1 8261   3.156   6.185   0.821
 2454SOL    HW2 8262   3.068   6.322   0.818
 2455SOL     OW 8263   4.183   2.031   0.568
 2455SOL    HW1 8264   4.105   2.091   0.552
 2455SOL    HW2 8265   4.164   1.971   0.646
 2456SOL     OW 8266   0.649   3.767   6.470
 2456SOL    HW1 8267   0.593   3.739   6.548
 2456SOL    HW2 8268   0.645   3.696   6.399
 2457SOL     OW 8269   4.663   1.628   5.697
 2457SOL    HW1 8270   4.572   1.656   5.726
 2457SOL    HW2 8271   4.680   1.660   5.604
 2458SOL     OW 8272   1.031   0.421   2.211
 2458SOL    HW1 8273   1.062   0.444   2.118
 2458SOL    HW2 8274   0.937   0.451   2.223
 2459SOL     OW 8275   2.222   6.643   1.428
 2459SOL    HW1 8276   2.125   6.657   1.408
 2459SOL    HW2 8277   2.270   6.731   1.422
 2460SOL     OW 8278   0.710   0.868   4.083
 2460SOL    HW1 8279   0.711   0.957   4.128
 2460SOL    HW2 8280   0.616   0.844   4.058
 2461SOL     OW 8281   3.476   1.609   3.853
 2461SOL    HW1 8282   3.550   1.605   3.786
 2461SOL    HW2 8283   3.432   1.519   3.861
 2462SOL     OW 8284   0.581   5.797   0.914
 2462SOL    HW1 8285   0.548   5.880   0.959
 2462SOL    HW2 8286   0.600   5.816   0.818
 2463SOL     OW 8287   6.818   6.911   1.067
 2463SOL    HW1 8288   6.782   6.880   0.979
 2463SOL    HW2 8289   6.777   6.858   1.141
 2464SOL     OW 8290   0.870   2.962   4.496
 2464SOL    HW1 8291   0.818   2.882   4.466
 2464SOL    HW2 8292   0.939   2.933   4.563
 2465SOL     OW 8293   6.153   1.242   0.053
 2465SOL    HW1 8294   6.070   1.192   0.079
 2465SOL    HW2 8295   6.146   1.272   6.980
 2466SOL     OW 8296   0.718   2.350   1.576
 2466SOL    HW1 8297   0.786   2.277   1.590
 2466SOL    HW2 8298   0.746   2.432   1.626
 2467SOL     OW 8299   4.577   2.704   5.059
 2467SOL    HW1 8300   4.591   2.680   4.963
 2467SOL    HW2 8301   4.625   2.789   5.080
 2468SOL     OW 8302   3.638   0.361   5.315
 2468SOL    HW1 8303   3.639   0.385   5.412
 2468SOL    HW2 8304   3.689   0.276   5.301
 2469SOL     OW 8305   3.223   2.195   6.146
 2469SOL    HW1 8306   3.182   2.241   6.067
 2469SOL    HW2 8307   3.208   2.250   6.228
 2470SOL     OW 8308   2.002   6.144   6.633
 2470SOL    HW1 8309   2.030   6.048   6.641
 2470SOL    HW2 8310   2.083   6.202   6.623
 2471SOL     OW 8311   3.051   5.311   2.427
 2471SOL    HW1 8312   3.027   5.407   2.441
 2471SOL    HW2 8313   3.141   5.293   2.465
 2472SOL     OW 8314   4.786   1.048   3.026
 2472SOL    HW1 8315   4.786   1.064   3.124
 2472SOL    HW2 8316   4.774   0.951   3.008
 2473SOL     OW 8317   0.461   3.978   3.739
 2473SOL    HW1 8318   0.554   3.968   3.775
 2473SOL    HW2 8319   0.421   4.064   3.772
 2474SOL     OW 8320   1.358   6.689   1.609
 2474SOL    HW1 8321   1.309   6.642   1.682
 2474SOL    HW2 8322   1.303   6.687   1.525
 2475SOL     OW 8323   5.032   1.803   0.634
 2475SOL    HW1 8324   4.949   1.755   0.606
 2475SOL    HW2 8325   5.111   1.762   0.589
 2476SOL     OW 8326   4.298   6.940   0.567
 2476SOL    HW1 8327   4.270   6.869   0.502
 2476SOL    HW2 8328   4.313   0.004   0.519
 2477SOL     OW 8329   3.991   0.154   3.745
 2477SOL    HW1 8330   3.983   0.055   3.728
 2477SOL    HW2 8331   3.910   0.186   3.792
 2478SOL     OW 8332   3.446   0.523   4.900
 2478SOL    HW1 8333   3.422   0.539   4.996
 2478SOL    HW2 8334   3.449   0.425   4.883
 2479SOL     OW 8335   5.204   3.385   0.990
 2479SOL    HW1 8336   5.168   3.467   1.036
 2479SOL    HW2 8337   5.230   3.317   1.058
 2480SOL     OW 8338   3.495   2.282   1.503
 2480SOL    HW1 8339   3.537   2.369   1.533
 2480SOL    HW2 8340   3.471   2.228   1.583
 2481SOL     OW 8341   3.638   0.410   2.136
 2481SOL    HW1 8342   3.569   0.347   2.172
 2481SOL    HW2 8343   3.726   0.363   2.128
 2482SOL     OW 8344   6.469   3.218   0.307
 2482SOL    HW1 8345   6.477   3.317   0.318
 2482SOL    HW2 8346   6.433   3.178   0.392
 2483SOL     OW 8347   2.308   2.220   0.816
 2483SOL    HW1 8348   2.225   2.171   0.843
 2483SOL    HW2 8349   2.318   2.217   0.716
 2484SOL     OW 8350   4.105   0.535   0.165
 2484SOL    HW1 8351   4.109   0.584   0.252
 2484SOL    HW2 8352   4.065   0.594   0.095
 2485SOL     OW 8353   0.326   2.077   5.819
 2485SOL    HW1 8354   0.345   2.174   5.833
 2485SOL    HW2 8355   0.312   2.059   5.722
 2486SOL     OW 8356   0.083   5.777   3.383
 2486SOL    HW1 8357   0.161   5.828   3.348
 2486SOL    HW2 8358   0.090   5.682   3.352
 2487SOL     OW 8359   4.176   6.212   0.011
 2487SOL    HW1 8360   4.078   6.216   7.014
 2487SOL    HW2 8361   4.196   6.138   0.074
 2488SOL     OW 8362   0.008   3.950   0.249
 2488SOL    HW1 8363   6.931   3.947   0.265
 2488SOL    HW2 8364   0.054   3.891   0.315
 2489SOL     OW 8365   6.074   5.037   4.246
 2489SOL    HW1 8366   6.030   5.082   4.168
 2489SOL    HW2 8367   6.163   5.002   4.218
 2490SOL     OW 8368   2.601   5.945   2.957
 2490SOL    HW1 8369   2.630   5.995   2.875
 2490SOL    HW2 8370   2.634   5.992   3.039
 2491SOL     OW 8371   3.832   4.688   1.515
 2491SOL    HW1 8372   3.822   4.708   1.417
 2491SOL    HW2 8373   3.873   4.597   1.526
 2492SOL     OW 8374   6.422   5.429   1.275
 2492SOL    HW1 8375   6.486   5.357   1.302
 2492SOL    HW2 8376   6.361   5.449   1.352
 2493SOL     OW 8377   5.458   6.646   0.900
 2493SOL    HW1 8378   5.483   6.684   0.810
 2493SOL    HW2 8379   5.369   6.601   0.894
 2494SOL     OW 8380   6.556   3.652   1.196
 2494SOL    HW1 8381   6.474   3.671   1.143
 2494SOL    HW2 8382   6.626   3.612   1.136
 2495SOL     OW 8383   0.403   3.566   1.578
 2495SOL    HW1 8384   0.459   3.627   1.523
 2495SOL    HW2 8385   0.313   3.606   1.592
 2496SOL     OW 8386   5.539   4.469   6.721
 2496SOL    HW1 8387   5.555   4.515   6.634
 2496SOL    HW2 8388   5.618   4.480   6.780
 2497SOL     OW 8389   0.064   6.792   2.232
 2497SOL    HW1 8390   0.018   6.704   2.239
 2497SOL    HW2 8391   7.019   6.864   2.213
 2498SOL     OW 8392   1.983   3.441   5.085
 2498SOL    HW1 8393   1.921   3.468   5.012
 2498SOL    HW2 8394   1.950   3.478   5.172
 2499SOL     OW 8395   6.989   3.586   2.348
 2499SOL    HW1 8396   6.892   3.567   2.333
 2499SOL    HW2 8397   7.011   3.676   2.310
 2500SOL     OW 8398   4.015   3.120   1.464
 2500SOL    HW1 8399   4.033   3.204   1.514
 2500SOL    HW2 8400   4.088   3.054   1.481
 2501SOL     OW 8401   6.402   5.479   6.196
 2501SOL    HW1 8402   6.465   5.550   6.227
 2501SOL    HW2 8403   6.417   5.395   6.248
 2502SOL     OW 8404   2.066   6.552   4.582
 2502SOL    HW1 8405   2.140   6.484   4.587
 2502SOL    HW2 8406   2.003   6.538   4.658
 2503SOL     OW 8407   2.748   0.083   5.637
 2503SOL    HW1 8408   2.710   0.029   5.712
 2503SOL    HW2 8409   2.801   0.024   5.576
 2504SOL     OW 8410   3.646   0.235   3.693
 2504SOL    HW1 8411   3.682   0.325   3.717
 2504SOL    HW2 8412   3.563   0.217   3.746
 2505SOL     OW 8413   6.853   4.126   3.638
 2505SOL    HW1 8414   6.876   4.223   3.629
 2505SOL    HW2 8415   6.929   4.078   3.682
 2506SOL     OW 8416   5.439   5.465   6.331
 2506SOL    HW1 8417   5.360   5.405   6.318
 2506SOL    HW2 8418   5.426   5.522   6.411
 2507SOL     OW 8419   0.396   3.329   2.609
 2507SOL    HW1 8420   0.468   3.339   2.678
 2507SOL    HW2 8421   0.327   3.400   2.624
 2508SOL     OW 8422   6.079   0.887   4.335
 2508SOL    HW1 8423   6.069   0.955   4.262
 2508SOL    HW2 8424   6.127   0.929   4.412
 2509SOL     OW 8425   0.571   3.134   5.858
 2509SOL    HW1 8426   0.531   3.056   5.810
 2509SOL    HW2 8427   0.502   3.207   5.866
 2510SOL     OW 8428   3.157   3.883   2.483
 2510SOL    HW1 8429   3.250   3.862   2.512
 2510SOL    HW2 8430   3.098   3.890   2.563
 2511SOL     OW 8431   2.165   0.747   4.295
 2511SOL    HW1 8432   2.262   0.768   4.280
 2511SOL    HW2 8433   2.109   0.824   4.264
 2512SOL     OW 8434   4.053   4.768   3.856
 2512SOL    HW1 8435   4.105   4.754   3.940
 2512SOL    HW2 8436   3.991   4.690   3.842
 2513SOL     OW 8437   1.883   5.638   5.915
 2513SOL    HW1 8438   1.926   5.716   5.960
 2513SOL    HW2 8439   1.952   5.569   5.895
 2514SOL     OW 8440   1.467   1.618   3.380
 2514SOL    HW1 8441   1.450   1.588   3.473
 2514SOL    HW2 8442   1.382   1.652   3.339
 2515SOL     OW 8443   0.532   2.144   1.620
 2515SOL    HW1 8444   0.574   2.234   1.612
 2515SOL    HW2 8445   0.533   2.115   1.716
 2516SOL     OW 8446   5.811   2.614   4.697
 2516SOL    HW1 8447   5.853   2.653   4.614
 2516SOL    HW2 8448   5.730   2.668   4.721
 2517SOL     OW 8449   1.193   1.155   4.036
 2517SOL    HW1 8450   1.102   1.181   4.004
 2517SOL    HW2 8451   1.229   1.080   3.980
 2518SOL     OW 8452   2.416   4.219   1.228
 2518SOL    HW1 8453   2.476   4.298   1.243
 2518SOL    HW2 8454   2.381   4.186   1.316
 2519SOL     OW 8455   1.190   1.413   0.787
 2519SOL    HW1 8456   1.147   1.344   0.728
 2519SOL    HW2 8457   1.237   1.368   0.862
 2520SOL     OW 8458   2.435   1.864   0.801
 2520SOL    HW1 8459   2.514   1.828   0.752
 2520SOL    HW2 8460   2.465   1.932   0.867
 2521SOL     OW 8461   5.486   0.539   4.849
 2521SOL    HW1 8462   5.547   0.597   4.795
 2521SOL    HW2 8463   5.496   0.561   4.946
 2522SOL     OW 8464   1.317   1.753   6.801
 2522SOL    HW1 8465   1.392   1.687   6.803
 2522SOL    HW2 8466   1.347   1.838   6.845
 2523SOL     OW 8467   1.316   5.160   6.389
 2523SOL    HW1 8468   1.247   5.114   6.445
 2523SOL    HW2 8469   1.282   5.249   6.360
 2524SOL     OW 8470   0.781   0.662   4.546
 2524SOL    HW1 8471   0.781   0.704   4.455
 2524SOL    HW2 8472   0.838   0.580   4.545
 2525SOL     OW 8473   6.548   2.721   5.927
 2525SOL    HW1 8474   6.472   2.766   5.880
 2525SOL    HW2 8475   6.588   2.784   5.994
 2526SOL     OW 8476   1.668   0.169   1.041
 2526SOL    HW1 8477   1.744   0.164   1.106
 2526SOL    HW2 8478   1.651   0.077   1.004
 2527SOL     OW 8479   4.342   5.077   5.959
 2527SOL    HW1 8480   4.242   5.078   5.966
 2527SOL    HW2 8481   4.380   5.027   6.037
 2528SOL     OW 8482   4.609   5.772   6.242
 2528SOL    HW1 8483   4.552   5.697   6.208
 2528SOL    HW2 8484   4.616   5.843   6.173
 2529SOL     OW 8485   0.714   6.672   6.231
 2529SOL    HW1 8486   0.810   6.699   6.225
 2529SOL    HW2 8487   0.696   6.598   6.167
 2530SOL     OW 8488   2.476   6.062   6.683
 2530SOL    HW1 8489   2.548   6.105   6.629
 2530SOL    HW2 8490   2.515   6.026   6.768
 2531SOL     OW 8491   6.804   5.399   6.347
 2531SOL    HW1 8492   6.831   5.449   6.429
 2531SOL    HW2 8493   6.722   5.345   6.368
 2532SOL     OW 8494   5.658   6.318   1.608
 2532SOL    HW1 8495   5.599   6.364   1.542
 2532SOL    HW2 8496   5.715   6.251   1.561
 2533SOL     OW 8497   4.838   0.709   3.787
 2533SOL    HW1 8498   4.854   0.637   3.854
 2533SOL    HW2 8499   4.776   0.778   3.825
 2534SOL     OW 8500   4.144   1.355   2.676
 2534SOL    HW1 8501   4.152   1.374   2.774
 2534SOL    HW2 8502   4.112   1.262   2.663
 2535SOL     OW 8503   3.912   2.684   6.179
 2535SOL    HW1 8504   3.930   2.706   6.083
 2535SOL    HW2 8505   3.908   2.584   6.189
 2536SOL     OW 8506   1.505   0.999   1.262
 2536SOL    HW1 8507   1.433   0.970   1.325
 2536SOL    HW2 8508   1.592   1.007   1.312
 2537SOL     OW 8509   4.006   0.556   6.027
 2537SOL    HW1 8510   3.973   0.650   6.037
 2537SOL    HW2 8511   4.002   0.510   6.115
 2538SOL     OW 8512   6.304   3.341   3.964
 2538SOL    HW1 8513   6.213   3.358   3.926
 2538SOL    HW2 8514   6.318   3.243   3.976
 2539SOL     OW 8515   5.325   2.418   5.669
 2539SOL    HW1 8516   5.289   2.495   5.721
 2539SOL    HW2 8517   5.254   2.349   5.658
 2540SOL     OW 8518   2.928   1.776   1.779
 2540SOL    HW1 8519   2.866   1.697   1.781
 2540SOL    HW2 8520   2.998   1.765   1.850
 2541SOL     OW 8521   3.480   6.632   4.126
 2541SOL    HW1 8522   3.494   6.590   4.036
 2541SOL    HW2 8523   3.402   6.588   4.171
 2542SOL     OW 8524   2.194   5.634   6.084
 2542SOL    HW1 8525   2.248   5.605   6.164
 2542SOL    HW2 8526   2.236   5.716   6.045
 2543SOL     OW 8527   0.758   1.157   4.131
 2543SOL    HW1 8528   0.809   1.201   4.204
 2543SOL    HW2 8529   0.808   1.164   4.045
 2544SOL     OW 8530   0.670   5.097   7.005
 2544SOL    HW1 8531   0.699   5.066   6.914
 2544SOL    HW2 8532   0.574   5.125   7.001
 2545SOL     OW 8533   3.008   5.508   3.577
 2545SOL    HW1 8534   2.946   5.489   3.653
 2545SOL    HW2 8535   3.084   5.563   3.610
 2546SOL     OW 8536   6.707   1.389   1.263
 2546SOL    HW1 8537   6.755   1.302   1.248
 2546SOL    HW2 8538   6.649   1.381   1.344
 2547SOL     OW 8539   0.879   3.745   4.900
 2547SOL    HW1 8540   0.842   3.685   4.829
 2547SOL    HW2 8541   0.869   3.701   4.989
 2548SOL     OW 8542   0.877   0.050   4.948
 2548SOL    HW1 8543   0.814   0.040   5.025
 2548SOL    HW2 8544   0.966   0.082   4.981
 2549SOL     OW 8545   6.139   3.156   2.007
 2549SOL    HW1 8546   6.062   3.092   2.005
 2549SOL    HW2 8547   6.160   3.180   2.102
 2550SOL     OW 8548   6.137   5.309   6.933
 2550SOL    HW1 8549   6.237   5.321   6.936
 2550SOL    HW2 8550   6.097   5.378   6.872
 2551SOL     OW 8551   1.202   4.443   0.171
 2551SOL    HW1 8552   1.256   4.367   0.207
 2551SOL    HW2 8553   1.122   4.407   0.123
 2552SOL     OW 8554   1.971   5.576   3.654
 2552SOL    HW1 8555   1.987   5.489   3.608
 2552SOL    HW2 8556   2.027   5.647   3.612
 2553SOL     OW 8557   4.197   3.742   6.588
 2553SOL    HW1 8558   4.250   3.690   6.655
 2553SOL    HW2 8559   4.257   3.807   6.541
 2554SOL     OW 8560   1.564   1.291   0.527
 2554SOL    HW1 8561   1.568   1.315   0.624
 2554SOL    HW2 8562   1.469   1.278   0.499
 2555SOL     OW 8563   5.965   0.446   6.966
 2555SOL    HW1 8564   6.057   0.475   6.940
 2555SOL    HW2 8565   5.898   0.489   6.906
 2556SOL     OW 8566   3.589   5.165   0.896
 2556SOL    HW1 8567   3.636   5.086   0.935
 2556SOL    HW2 8568   3.553   5.142   0.806
 2557SOL     OW 8569   2.202   4.871   6.735
 2557SOL    HW1 8570   2.208   4.847   6.638
 2557SOL    HW2 8571   2.170   4.791   6.786
 2558SOL     OW 8572   4.237   0.723   5.710
 2558SOL    HW1 8573   4.295   0.682   5.639
 2558SOL    HW2 8574   4.146   0.683   5.706
 2559SOL     OW 8575   0.386   4.757   4.916
 2559SOL    HW1 8576   0.448   4.678   4.909
 2559SOL    HW2 8577   0.425   4.834   4.865
 2560SOL     OW 8578   6.119   1.537   0.088
 2560SOL    HW1 8579   6.064   1.488   0.020
 2560SOL    HW2 8580   6.172   1.471   0.142
 2561SOL     OW 8581   2.805   5.493   4.651
 2561SOL    HW1 8582   2.721   5.474   4.601
 2561SOL    HW2 8583   2.783   5.521   4.744
 2562SOL     OW 8584   2.549   4.100   6.751
 2562SOL    HW1 8585   2.547   4.200   6.763
 2562SOL    HW2 8586   2.643   4.072   6.731
 2563SOL     OW 8587   2.246   1.207   0.796
 2563SOL    HW1 8588   2.304   1.245   0.868
 2563SOL    HW2 8589   2.270   1.111   0.781
 2564SOL     OW 8590   1.773   6.563   2.166
 2564SOL    HW1 8591   1.714   6.534   2.242
 2564SOL    HW2 8592   1.790   6.486   2.106
 2565SOL     OW 8593   1.160   0.705   1.521
 2565SOL    HW1 8594   1.097   0.708   1.443
 2565SOL    HW2 8595   1.250   0.675   1.490
 2566SOL     OW 8596   2.444   0.005   5.663
 2566SOL    HW1 8597   2.361   0.045   5.626
 2566SOL    HW2 8598   2.462   0.043   5.754
 2567SOL     OW 8599   1.120   0.502   0.518
 2567SOL    HW1 8600   1.147   0.440   0.445
 2567SOL    HW2 8601   1.077   0.583   0.478
 2568SOL     OW 8602   5.299   3.945   0.011
 2568SOL    HW1 8603   5.265   3.972   0.101
 2568SOL    HW2 8604   5.324   4.026   6.981
 2569SOL     OW 8605   3.015   0.789   2.712
 2569SOL    HW1 8606   3.084   0.844   2.759
 2569SOL    HW2 8607   3.017   0.809   2.614
 2570SOL     OW 8608   5.419   2.783   5.895
 2570SOL    HW1 8609   5.466   2.709   5.943
 2570SOL    HW2 8610   5.340   2.746   5.846
 2571SOL     OW 8611   0.694   3.756   4.482
 2571SOL    HW1 8612   0.775   3.697   4.489
 2571SOL    HW2 8613   0.623   3.721   4.543
 2572SOL     OW 8614   1.235   4.965   3.907
 2572SOL    HW1 8615   1.212   5.019   3.987
 2572SOL    HW2 8616   1.151   4.927   3.868
 2573SOL     OW 8617   1.221   0.221   1.060
 2573SOL    HW1 8618   1.135   0.196   1.104
 2573SOL    HW2 8619   1.206   0.299   1.000
 2574SOL     OW 8620   6.027   3.716   0.757
 2574SOL    HW1 8621   6.075   3.652   0.818
 2574SOL    HW2 8622   5.991   3.665   0.678
 2575SOL     OW 8623   0.343   6.119   6.180
 2575SOL    HW1 8624   0.417   6.064   6.220
 2575SOL    HW2 8625   0.269   6.058   6.151
 2576SOL     OW 8626   4.179   6.055   4.653
 2576SOL    HW1 8627   4.248   6.017   4.714
 2576SOL    HW2 8628   4.225   6.104   4.578
 2577SOL     OW 8629   2.054   3.960   2.176
 2577SOL    HW1 8630   2.121   3.960   2.251
 2577SOL    HW2 8631   1.962   3.966   2.213
 2578SOL     OW 8632   4.098   1.713   2.955
 2578SOL    HW1 8633   4.069   1.748   3.044
 2578SOL    HW2 8634   4.017   1.700   2.897
 2579SOL     OW 8635   0.341   6.626   3.406
 2579SOL    HW1 8636   0.437   6.616   3.380
 2579SOL    HW2 8637   0.289   6.665   3.330
 2580SOL     OW 8638   2.554   2.156   6.075
 2580SOL    HW1 8639   2.575   2.250   6.047
 2580SOL    HW2 8640   2.501   2.158   6.160
 2581SOL     OW 8641   3.509   0.866   5.051
 2581SOL    HW1 8642   3.552   0.888   4.964
 2581SOL    HW2 8643   3.409   0.863   5.040
 2582SOL     OW 8644   6.756   3.351   1.690
 2582SOL    HW1 8645   6.770   3.252   1.691
 2582SOL    HW2 8646   6.742   3.383   1.597
 2583SOL     OW 8647   6.086   0.244   0.876
 2583SOL    HW1 8648   6.163   0.230   0.939
 2583SOL    HW2 8649   6.121   0.259   0.784
 2584SOL     OW 8650   3.867   4.274   6.057
 2584SOL    HW1 8651   3.964   4.251   6.042
 2584SOL    HW2 8652   3.847   4.363   6.015
 2585SOL     OW 8653   3.444   4.539   6.742
 2585SOL    HW1 8654   3.440   4.535   6.842
 2585SOL    HW2 8655   3.494   4.621   6.714
 2586SOL     OW 8656   2.721   0.838   3.803
 2586SOL    HW1 8657   2.667   0.790   3.872
 2586SOL    HW2 8658   2.666   0.911   3.763
 2587SOL     OW 8659   6.635   0.757   4.128
 2587SOL    HW1 8660   6.537   0.773   4.139
 2587SOL    HW2 8661   6.682   0.773   4.215
 2588SOL     OW 8662   4.790   0.683   6.482
 2588SOL    HW1 8663   4.841   0.746   6.424
 2588SOL    HW2 8664   4.750   0.733   6.559
 2589SOL     OW 8665   2.100   6.840   0.548
 2589SOL    HW1 8666   2.150   6.758   0.573
 2589SOL    HW2 8667   2.015   6.845   0.601
 2590SOL     OW 8668   2.901   6.037   0.479
 2590SOL    HW1 8669   2.914   5.978   0.399
 2590SOL    HW2 8670   2.884   5.981   0.560
 2591SOL     OW 8671   5.568   5.460   3.380
 2591SOL    HW1 8672   5.498   5.409   3.331
 2591SOL    HW2 8673   5.621   5.515   3.315
 2592SOL     OW 8674   2.744   4.265   0.996
 2592SOL    HW1 8675   2.705   4.304   0.912
 2592SOL    HW2 8676   2.842   4.249   0.983
 2593SOL     OW 8677   3.483   4.317   0.895
 2593SOL    HW1 8678   3.476   4.405   0.848
 2593SOL    HW2 8679   3.406   4.259   0.870
 2594SOL     OW 8680   2.106   3.096   4.242
 2594SOL    HW1 8681   2.085   3.171   4.178
 2594SOL    HW2 8682   2.158   3.026   4.194
 2595SOL     OW 8683   2.398   1.409   2.960
 2595SOL    HW1 8684   2.315   1.463   2.945
 2595SOL    HW2 8685   2.476   1.456   2.918
 2596SOL     OW 8686   0.898   1.446   0.471
 2596SOL    HW1 8687   0.956   1.513   0.423
 2596SOL    HW2 8688   0.814   1.491   0.501
 2597SOL     OW 8689   6.490   6.855   0.184
 2597SOL    HW1 8690   6.571   6.883   0.134
 2597SOL    HW2 8691   6.424   6.931   0.187
 2598SOL     OW 8692   5.280   2.527   2.458
 2598SOL    HW1 8693   5.305   2.603   2.518
 2598SOL    HW2 8694   5.360   2.498   2.405
 2599SOL     OW 8695   2.436   5.985   2.304
 2599SOL    HW1 8696   2.344   6.002   2.270
 2599SOL    HW2 8697   2.431   5.933   2.389
 2600SOL     OW 8698   5.574   3.661   4.087
 2600SOL    HW1 8699   5.507   3.729   4.058
 2600SOL    HW2 8700   5.644   3.651   4.016
 2601SOL     OW 8701   6.578   1.557   3.646
 2601SOL    HW1 8702   6.609   1.647   3.618
 2601SOL    HW2 8703   6.501   1.566   3.710
 2602SOL     OW 8704   0.927   4.814   2.728
 2602SOL    HW1 8705   0.970   4.725   2.748
 2602SOL    HW2 8706   0.848   4.800   2.669
 2603SOL     OW 8707   2.580   6.518   2.731
 2603SOL    HW1 8708   2.667   6.514   2.683
 2603SOL    HW2 8709   2.591   6.482   2.824
 2604SOL     OW 8710   4.588   2.629   3.923
 2604SOL    HW1 8711   4.549   2.583   4.003
 2604SOL    HW2 8712   4.578   2.569   3.843
 2605SOL     OW 8713   1.371   4.087   1.953
 2605SOL    HW1 8714   1.294   4.028   1.933
 2605SOL    HW2 8715   1.449   4.063   1.895
 2606SOL     OW 8716   5.163   3.910   1.062
 2606SOL    HW1 8717   5.207   3.822   1.042
 2606SOL    HW2 8718   5.206   3.982   1.008
 2607SOL     OW 8719   2.355   2.653   1.383
 2607SOL    HW1 8720   2.350   2.729   1.319
 2607SOL    HW2 8721   2.450   2.623   1.392
 2608SOL     OW 8722   2.634   5.211   5.878
 2608SOL    HW1 8723   2.560   5.183   5.817
 2608SOL    HW2 8724   2.700   5.136   5.886
 2609SOL     OW 8725   0.719   2.411   0.993
 2609SOL    HW1 8726   0.651   2.429   0.922
 2609SOL    HW2 8727   0.689   2.335   1.050
 2610SOL     OW 8728   1.568   4.032   4.838
 2610SOL    HW1 8729   1.639   4.009   4.771
 2610SOL    HW2 8730   1.560   3.957   4.904
 2611SOL     OW 8731   5.036   0.184   6.057
 2611SOL    HW1 8732   4.946   0.227   6.064
 2611SOL    HW2 8733   5.036   0.119   5.981
 2612SOL     OW 8734   6.488   6.741   6.562
 2612SOL    HW1 8735   6.399   6.785   6.546
 2612SOL    HW2 8736   6.528   6.714   6.474
 2613SOL     OW 8737   1.187   6.736   6.792
 2613SOL    HW1 8738   1.101   6.685   6.783
 2613SOL    HW2 8739   1.195   6.772   6.885
 2614SOL     OW 8740   6.036   2.093   0.107
 2614SOL    HW1 8741   6.011   2.100   0.203
 2614SOL    HW2 8742   6.128   2.056   0.099
 2615SOL     OW 8743   0.224   3.386   6.845
 2615SOL    HW1 8744   0.310   3.423   6.879
 2615SOL    HW2 8745   0.241   3.333   6.762
 2616SOL     OW 8746   1.268   0.971   5.187
 2616SOL    HW1 8747   1.339   0.903   5.172
 2616SOL    HW2 8748   1.180   0.926   5.202
 2617SOL     OW 8749   5.064   6.892   1.632
 2617SOL    HW1 8750   5.074   6.936   1.543
 2617SOL    HW2 8751   5.039   6.796   1.619
 2618SOL     OW 8752   1.267   6.910   6.128
 2618SOL    HW1 8753   1.326   6.861   6.193
 2618SOL    HW2 8754   1.261   7.006   6.156
 2619SOL     OW 8755   4.950   1.087   2.789
 2619SOL    HW1 8756   4.975   1.182   2.804
 2619SOL    HW2 8757   4.860   1.069   2.828
 2620SOL     OW 8758   6.174   1.965   1.910
 2620SOL    HW1 8759   6.157   1.872   1.877
 2620SOL    HW2 8760   6.091   2.020   1.897
 2621SOL     OW 8761   2.407   6.447   1.449
 2621SOL    HW1 8762   2.458   6.462   1.364
 2621SOL    HW2 8763   2.325   6.504   1.449
 2622SOL     OW 8764   2.702   4.098   0.169
 2622SOL    HW1 8765   2.602   4.098   0.173
 2622SOL    HW2 8766   2.739   4.112   0.261
 2623SOL     OW 8767   7.012   0.188   3.632
 2623SOL    HW1 8768   0.033   0.245   3.562
 2623SOL    HW2 8769   7.009   0.093   3.600
 2624SOL     OW 8770   1.000   1.415   5.311
 2624SOL    HW1 8771   1.010   1.437   5.214
 2624SOL    HW2 8772   1.067   1.345   5.336
 2625SOL     OW 8773   2.569   5.582   6.011
 2625SOL    HW1 8774   2.530   5.489   6.010
 2625SOL    HW2 8775   2.537   5.631   5.930
 2626SOL     OW 8776   6.668   6.605   6.727
 2626SOL    HW1 8777   6.586   6.646   6.686
 2626SOL    HW2 8778   6.728   6.678   6.760
 2627SOL     OW 8779   2.133   0.879   5.790
 2627SOL    HW1 8780   2.036   0.876   5.768
 2627SOL    HW2 8781   2.147   0.845   5.883
 2628SOL     OW 8782   0.244   5.033   1.357
 2628SOL    HW1 8783   0.332   5.079   1.360
 2628SOL    HW2 8784   0.248   4.958   1.291
 2629SOL     OW 8785   3.418   3.818   2.494
 2629SOL    HW1 8786   3.476   3.899   2.501
 2629SOL    HW2 8787   3.461   3.750   2.434
 2630SOL     OW 8788   3.717   0.426   3.921
 2630SOL    HW1 8789   3.651   0.498   3.903
 2630SOL    HW2 8790   3.798   0.466   3.965
 2631SOL     OW 8791   5.500   6.544   0.093
 2631SOL    HW1 8792   5.458   6.633   0.111
 2631SOL    HW2 8793   5.430   6.473   0.097
 2632SOL     OW 8794   5.823   4.963   2.000
 2632SOL    HW1 8795   5.886   5.041   1.993
 2632SOL    HW2 8796   5.789   4.940   1.908
 2633SOL     OW 8797   0.196   3.446   6.066
 2633SOL    HW1 8798   0.272   3.399   6.019
 2633SOL    HW2 8799   0.230   3.487   6.150
 2634SOL     OW 8800   1.141   1.612   5.433
 2634SOL    HW1 8801   1.081   1.537   5.407
 2634SOL    HW2 8802   1.113   1.648   5.522
 2635SOL     OW 8803   4.011   5.079   3.595
 2635SOL    HW1 8804   3.913   5.098   3.587
 2635SOL    HW2 8805   4.063   5.153   3.553
 2636SOL     OW 8806   3.513   6.568   6.094
 2636SOL    HW1 8807   3.457   6.587   6.175
 2636SOL    HW2 8808   3.609   6.560   6.121
 2637SOL     OW 8809   0.552   0.722   3.056
 2637SOL    HW1 8810   0.528   0.658   2.983
 2637SOL    HW2 8811   0.649   0.745   3.050
 2638SOL     OW 8812   0.600   6.786   4.290
 2638SOL    HW1 8813   0.644   6.762   4.376
 2638SOL    HW2 8814   0.500   6.778   4.299
 2639SOL     OW 8815   4.877   4.853   4.730
 2639SOL    HW1 8816   4.917   4.902   4.807
 2639SOL    HW2 8817   4.920   4.763   4.722
 2640SOL     OW 8818   2.762   1.123   3.738
 2640SOL    HW1 8819   2.684   1.178   3.709
 2640SOL    HW2 8820   2.816   1.096   3.658
 2641SOL     OW 8821   5.021   1.911   0.106
 2641SOL    HW1 8822   5.117   1.885   0.107
 2641SOL    HW2 8823   5.012   2.009   0.087
 2642SOL     OW 8824   0.042   7.008   2.627
 2642SOL    HW1 8825   6.985   7.011   2.566
 2642SOL    HW2 8826   0.052   6.916   2.664
 2643SOL     OW 8827   1.205   4.712   4.430
 2643SOL    HW1 8828   1.213   4.809   4.452
 2643SOL    HW2 8829   1.121   4.675   4.470
 2644SOL     OW 8830   5.511   5.621   4.330
 2644SOL    HW1 8831   5.537   5.572   4.413
 2644SOL    HW2 8832   5.528   5.562   4.250
 2645SOL     OW 8833   4.812   5.776   3.243
 2645SOL    HW1 8834   4.896   5.818   3.212
 2645SOL    HW2 8835   4.833   5.694   3.297
 2646SOL     OW 8836   0.855   2.286   6.529
 2646SOL    HW1 8837   0.765   2.308   6.491
 2646SOL    HW2 8838   0.920   2.271   6.454
 2647SOL     OW 8839   4.604   6.842   2.722
 2647SOL    HW1 8840   4.657   6.907   2.667
 2647SOL    HW2 8841   4.615   6.750   2.685
 2648SOL     OW 8842   1.272   0.175   6.169
 2648SOL    HW1 8843   1.360   0.177   6.121
 2648SOL    HW2 8844   1.231   0.267   6.168
 2649SOL     OW 8845   5.155   1.664   3.473
 2649SOL    HW1 8846   5.076   1.682   3.532
 2649SOL    HW2 8847   5.159   1.733   3.401
 2650SOL     OW 8848   2.041   7.019   3.819
 2650SOL    HW1 8849   2.126   0.037   3.785
 2650SOL    HW2 8850   1.964   0.057   3.796
 2651SOL     OW 8851   4.273   2.121   4.170
 2651SOL    HW1 8852   4.198   2.058   4.150
 2651SOL    HW2 8853   4.355   2.068   4.193
 2652SOL     OW 8854   5.215   4.234   5.061
 2652SOL    HW1 8855   5.125   4.275   5.048
 2652SOL    HW2 8856   5.286   4.303   5.047
 2653SOL     OW 8857   2.152   6.510   6.860
 2653SOL    HW1 8858   2.060   6.543   6.840
 2653SOL    HW2 8859   2.149   6.412   6.878
 2654SOL     OW 8860   0.231   1.167   0.837
 2654SOL    HW1 8861   0.138   1.173   0.873
 2654SOL    HW2 8862   0.284   1.104   0.894
 2655SOL     OW 8863   5.527   6.250   2.885
 2655SOL    HW1 8864   5.531   6.311   2.806
 2655SOL    HW2 8865   5.596   6.277   2.952
 2656SOL     OW 8866   4.592   5.580   3.670
 2656SOL    HW1 8867   4.687   5.609   3.654
 2656SOL    HW2 8868   4.587   5.481   3.675
 2657SOL     OW 8869   1.210   3.402   6.600
 2657SOL    HW1 8870   1.303   3.435   6.588
 2657SOL    HW2 8871   1.203   3.349   6.685
 2658SOL     OW 8872   3.855   4.798   0.051
 2658SOL    HW1 8873   3.816   4.878   0.006
 2658SOL    HW2 8874   3.856   4.813   0.150
 2659SOL     OW 8875   0.161   1.986   5.344
 2659SOL    HW1 8876   0.209   1.948   5.423
 2659SOL    HW2 8877   0.199   2.076   5.323
 2660SOL     OW 8878   0.515   1.358   1.140
 2660SOL    HW1 8879   0.564   1.368   1.226
 2660SOL    HW2 8880   0.579   1.364   1.064
 2661SOL     OW 8881   1.703   1.320   1.487
 2661SOL    HW1 8882   1.616   1.333   1.438
 2661SOL    HW2 8883   1.716   1.223   1.506
 2662SOL     OW 8884   2.668   2.004   1.786
 2662SOL    HW1 8885   2.626   1.927   1.834
 2662SOL    HW2 8886   2.751   2.033   1.836
 2663SOL     OW 8887   3.597   0.288   0.873
 2663SOL    HW1 8888   3.664   0.254   0.940
 2663SOL    HW2 8889   3.555   0.372   0.908
 2664SOL     OW 8890   4.903   3.568   5.404
 2664SOL    HW1 8891   4.882   3.507   5.328
 2664SOL    HW2 8892   4.820   3.588   5.455
 2665SOL     OW 8893   1.731   3.034   3.636
 2665SOL    HW1 8894   1.676   3.101   3.586
 2665SOL    HW2 8895   1.790   3.080   3.701
 2666SOL     OW 8896   1.986   4.351   1.940
 2666SOL    HW1 8897   1.935   4.431   1.970
 2666SOL    HW2 8898   2.045   4.319   2.015
 2667SOL     OW 8899   6.639   2.650   5.282
 2667SOL    HW1 8900   6.680   2.650   5.191
 2667SOL    HW2 8901   6.547   2.610   5.278
 2668SOL     OW 8902   6.126   0.780   3.712
 2668SOL    HW1 8903   6.159   0.705   3.770
 2668SOL    HW2 8904   6.203   0.820   3.663
 2669SOL     OW 8905   2.749   1.038   1.397
 2669SOL    HW1 8906   2.752   1.134   1.369
 2669SOL    HW2 8907   2.709   0.983   1.323
 2670SOL     OW 8908   0.288   0.374   0.066
 2670SOL    HW1 8909   0.366   0.391   0.125
 2670SOL    HW2 8910   0.314   0.310   7.015
 2671SOL     OW 8911   5.528   4.719   6.066
 2671SOL    HW1 8912   5.521   4.799   6.007
 2671SOL    HW2 8913   5.607   4.664   6.038
 2672SOL     OW 8914   2.593   1.017   2.351
 2672SOL    HW1 8915   2.657   1.015   2.428
 2672SOL    HW2 8916   2.565   1.111   2.333
 2673SOL     OW 8917   3.687   0.025   2.713
 2673SOL    HW1 8918   3.744   7.002   2.782
 2673SOL    HW2 8919   3.591   0.021   2.742
 2674SOL     OW 8920   6.990   6.038   3.017
 2674SOL    HW1 8921   6.985   6.137   3.016
 2674SOL    HW2 8922   6.973   6.005   3.110
 2675SOL     OW 8923   4.802   0.827   4.647
 2675SOL    HW1 8924   4.862   0.840   4.568
 2675SOL    HW2 8925   4.732   0.759   4.625
 2676SOL     OW 8926   4.128   3.625   4.074
 2676SOL    HW1 8927   4.120   3.680   4.158
 2676SOL    HW2 8928   4.119   3.685   3.995
 2677SOL     OW 8929   1.982   6.224   0.340
 2677SOL    HW1 8930   1.954   6.308   0.387
 2677SOL    HW2 8931   1.967   6.234   0.242
 2678SOL     OW 8932   3.507   1.994   2.503
 2678SOL    HW1 8933   3.411   1.981   2.530
 2678SOL    HW2 8934   3.511   2.014   2.405
 2679SOL     OW 8935   1.453   3.364   2.511
 2679SOL    HW1 8936   1.470   3.327   2.420
 2679SOL    HW2 8937   1.506   3.312   2.578
 2680SOL     OW 8938   5.364   2.781   0.037
 2680SOL    HW1 8939   5.388   2.875   0.063
 2680SOL    HW2 8940   5.416   2.717   0.094
 2681SOL     OW 8941   2.146   2.593   3.459
 2681SOL    HW1 8942   2.117   2.589   3.555
 2681SOL    HW2 8943   2.245   2.577   3.454
 2682SOL     OW 8944   3.623   3.788   1.818
 2682SOL    HW1 8945   3.570   3.706   1.839
 2682SOL    HW2 8946   3.720   3.771   1.835
 2683SOL     OW 8947   2.122   4.113   1.599
 2683SOL    HW1 8948   2.219   4.111   1.626
 2683SOL    HW2 8949   2.065   4.085   1.677
 2684SOL     OW 8950   6.433   0.554   3.675
 2684SOL    HW1 8951   6.405   0.584   3.584
 2684SOL    HW2 8952   6.470   0.631   3.726
 2685SOL     OW 8953   0.965   6.557   5.709
 2685SOL    HW1 8954   0.992   6.472   5.662
 2685SOL    HW2 8955   1.005   6.635   5.660
 2686SOL     OW 8956   1.446   0.817   5.739
 2686SOL    HW1 8957   1.353   0.829   5.774
 2686SOL    HW2 8958   1.457   0.870   5.655
 2687SOL     OW 8959   4.556   1.711   1.442
 2687SOL    HW1 8960   4.582   1.725   1.347
 2687SOL    HW2 8961   4.612   1.638   1.482
 2688SOL     OW 8962   4.019   2.665   0.040
 2688SOL    HW1 8963   3.999   2.749   7.011
 2688SOL    HW2 8964   3.944   2.600   0.029
 2689SOL     OW 8965   0.347   4.160   2.777
 2689SOL    HW1 8966   0.378   4.111   2.858
 2689SOL    HW2 8967   0.338   4.257   2.797
 2690SOL     OW 8968   5.461   1.140   5.305
 2690SOL    HW1 8969   5.417   1.050   5.307
 2690SOL    HW2 8970   5.393   1.209   5.279
 2691SOL     OW 8971   0.456   3.559   4.917
 2691SOL    HW1 8972   0.473   3.460   4.909
 2691SOL    HW2 8973   0.460   3.586   5.013
 2692SOL     OW 8974   2.915   5.549   2.025
 2692SOL    HW1 8975   2.901   5.505   1.936
 2692SOL    HW2 8976   2.913   5.649   2.013
 2693SOL     OW 8977   1.081   5.276   2.717
 2693SOL    HW1 8978   1.031   5.205   2.668
 2693SOL    HW2 8979   1.057   5.273   2.814
 2694SOL     OW 8980   2.548   0.321   2.243
 2694SOL    HW1 8981   2.565   0.373   2.326
 2694SOL    HW2 8982   2.538   0.224   2.266
 2695SOL     OW 8983   6.727   5.094   3.495
 2695SOL    HW1 8984   6.687   5.155   3.426
 2695SOL    HW2 8985   6.659   5.027   3.525
 2696SOL     OW 8986   4.409   4.567   6.644
 2696SOL    HW1 8987   4.315   4.541   6.624
 2696SOL    HW2 8988   4.409   4.655   6.692
 2697SOL     OW 8989   3.666   1.910   0.801
 2697SOL    HW1 8990   3.613   1.827   0.816
 2697SOL    HW2 8991   3.762   1.887   0.788
 2698SOL     OW 8992   1.251   5.780   6.116
 2698SOL    HW1 8993   1.221   5.687   6.096
 2698SOL    HW2 8994   1.341   5.777   6.159
 2699SOL     OW 8995   2.916   6.752   2.388
 2699SOL    HW1 8996   2.871   6.707   2.465
 2699SOL    HW2 8997   2.940   6.684   2.319
 2700SOL     OW 8998   4.303   2.073   1.607
 2700SOL    HW1 8999   4.245   1.993   1.619
 2700SOL    HW2 9000   4.280   2.142   1.675
 2701SOL     OW 9001   5.193   4.090   5.306
 2701SOL    HW1 9002   5.206   4.154   5.381
 2701SOL    HW2 9003   5.200   4.138   5.219
 2702SOL     OW 9004   2.745   1.493   4.623
 2702SOL    HW1 9005   2.666   1.511   4.564
 2702SOL    HW2 9006   2.718   1.503   4.719
 2703SOL     OW 9007   2.153   6.358   2.906
 2703SOL    HW1 9008   2.228   6.413   2.871
 2703SOL    HW2 9009   2.173   6.331   3.000
 2704SOL     OW 9010   4.509   0.601   3.512
 2704SOL    HW1 9011   4.453   0.641   3.585
 2704SOL    HW2 9012   4.515   0.665   3.436
 2705SOL     OW 9013   1.782   0.289   5.224
 2705SOL    HW1 9014   1.719   0.251   5.157
 2705SOL    HW2 9015   1.855   0.340   5.177
 2706SOL     OW 9016   6.998   4.524   3.992
 2706SOL    HW1 9017   6.914   4.523   4.045
 2706SOL    HW2 9018   0.051   4.484   4.045
 2707SOL     OW 9019   4.539   1.191   3.610
 2707SOL    HW1 9020   4.591   1.118   3.567
 2707SOL    HW2 9021   4.525   1.265   3.544
 2708SOL     OW 9022   4.979   3.619   5.864
 2708SOL    HW1 9023   4.960   3.717   5.872
 2708SOL    HW2 9024   5.077   3.606   5.848
 2709SOL     OW 9025   4.969   1.838   5.528
 2709SOL    HW1 9026   4.970   1.765   5.459
 2709SOL    HW2 9027   4.898   1.905   5.504
 2710SOL     OW 9028   1.304   2.406   4.233
 2710SOL    HW1 9029   1.369   2.386   4.159
 2710SOL    HW2 9030   1.339   2.482   4.288
 2711SOL     OW 9031   4.253   0.550   1.531
 2711SOL    HW1 9032   4.236   0.481   1.602
 2711SOL    HW2 9033   4.298   0.506   1.453
 2712SOL     OW 9034   5.721   6.071   1.450
 2712SOL    HW1 9035   5.650   6.004   1.472
 2712SOL    HW2 9036   5.797   6.025   1.404
 2713SOL     OW 9037   3.935   5.247   5.502
 2713SOL    HW1 9038   4.026   5.217   5.474
 2713SOL    HW2 9039   3.876   5.254   5.422
 2714SOL     OW 9040   3.314   4.332   5.791
 2714SOL    HW1 9041   3.377   4.289   5.856
 2714SOL    HW2 9042   3.333   4.430   5.786
 2715SOL     OW 9043   4.579   6.557   6.784
 2715SOL    HW1 9044   4.485   6.525   6.779
 2715SOL    HW2 9045   4.615   6.541   6.876
 2716SOL     OW 9046   4.290   0.591   2.931
 2716SOL    HW1 9047   4.326   0.660   2.868
 2716SOL    HW2 9048   4.363   0.560   2.992
 2717SOL     OW 9049   1.036   1.698   2.414
 2717SOL    HW1 9050   1.025   1.711   2.315
 2717SOL    HW2 9051   1.134   1.701   2.437
 2718SOL     OW 9052   6.094   1.317   5.972
 2718SOL    HW1 9053   6.040   1.239   5.941
 2718SOL    HW2 9054   6.086   1.325   6.071
 2719SOL     OW 9055   1.461   5.065   3.730
 2719SOL    HW1 9056   1.391   5.022   3.787
 2719SOL    HW2 9057   1.418   5.103   3.648
 2720SOL     OW 9058   2.006   5.802   6.259
 2720SOL    HW1 9059   2.067   5.880   6.245
 2720SOL    HW2 9060   2.031   5.728   6.197
 2721SOL     OW 9061   2.319   6.962   2.131
 2721SOL    HW1 9062   2.413   6.993   2.119
 2721SOL    HW2 9063   2.300   6.888   2.066
 2722SOL     OW 9064   3.696   4.438   6.480
 2722SOL    HW1 9065   3.658   4.400   6.564
 2722SOL    HW2 9066   3.694   4.368   6.408
 2723SOL     OW 9067   4.130   5.751   6.121
 2723SOL    HW1 9068   4.122   5.735   6.219
 2723SOL    HW2 9069   4.154   5.847   6.105
 2724SOL     OW 9070   6.566   5.734   1.530
 2724SOL    HW1 9071   6.579   5.723   1.432
 2724SOL    HW2 9072   6.651   5.715   1.578
 2725SOL     OW 9073   5.931   4.651   3.207
 2725SOL    HW1 9074   5.849   4.655   3.150
 2725SOL    HW2 9075   5.933   4.730   3.268
 2726SOL     OW 9076   6.515   1.843   2.858
 2726SOL    HW1 9077   6.492   1.867   2.764
 2726SOL    HW2 9078   6.484   1.915   2.920
 2727SOL     OW 9079   1.578   5.505   3.314
 2727SOL    HW1 9080   1.598   5.413   3.347
 2727SOL    HW2 9081   1.486   5.531   3.342
 2728SOL     OW 9082   4.598   5.949   6.048
 2728SOL    HW1 9083   4.507   5.934   6.011
 2728SOL    HW2 9084   4.667   5.923   5.980
 2729SOL     OW 9085   6.072   0.398   0.182
 2729SOL    HW1 9086   6.169   0.378   0.170
 2729SOL    HW2 9087   6.024   0.390   0.094
 2730SOL     OW 9088   1.441   6.015   2.554
 2730SOL    HW1 9089   1.411   5.928   2.593
 2730SOL    HW2 9090   1.498   5.997   2.474
 2731SOL     OW 9091   3.192   4.111   4.743
 2731SOL    HW1 9092   3.131   4.168   4.797
 2731SOL    HW2 9093   3.154   4.019   4.734
 2732SOL     OW 9094   4.971   0.692   1.589
 2732SOL    HW1 9095   4.985   0.764   1.522
 2732SOL    HW2 9096   4.937   0.610   1.544
 2733SOL     OW 9097   0.675   6.585   0.117
 2733SOL    HW1 9098   0.707   6.566   0.210
 2733SOL    HW2 9099   0.736   6.541   0.051
 2734SOL     OW 9100   3.876   6.282   2.486
 2734SOL    HW1 9101   3.857   6.203   2.428
 2734SOL    HW2 9102   3.797   6.300   2.545
 2735SOL     OW 9103   0.963   1.672   2.135
 2735SOL    HW1 9104   0.982   1.581   2.173
 2735SOL    HW2 9105   0.865   1.681   2.118
 2736SOL     OW 9106   5.666   4.081   2.616
 2736SOL    HW1 9107   5.758   4.043   2.608
 2736SOL    HW2 9108   5.602   4.009   2.644
 2737SOL     OW 9109   3.057   0.384   5.431
 2737SOL    HW1 9110   3.042   0.453   5.501
 2737SOL    HW2 9111   3.013   0.413   5.346
 2738SOL     OW 9112   4.922   5.443   0.910
 2738SOL    HW1 9113   4.835   5.443   0.959
 2738SOL    HW2 9114   4.994   5.408   0.970
 2739SOL     OW 9115   6.822   5.662   1.665
 2739SOL    HW1 9116   6.870   5.739   1.623
 2739SOL    HW2 9117   6.869   5.577   1.642
 2740SOL     OW 9118   0.150   4.933   3.562
 2740SOL    HW1 9119   0.063   4.923   3.514
 2740SOL    HW2 9120   0.178   4.845   3.600
 2741SOL     OW 9121   1.259   6.680   6.010
 2741SOL    HW1 9122   1.289   6.774   6.024
 2741SOL    HW2 9123   1.170   6.679   5.965
 2742SOL     OW 9124   3.262   5.491   3.116
 2742SOL    HW1 9125   3.180   5.436   3.133
 2742SOL    HW2 9126   3.335   5.431   3.081
 2743SOL     OW 9127   5.127   1.948   2.932
 2743SOL    HW1 9128   5.059   1.953   2.859
 2743SOL    HW2 9129   5.212   1.912   2.895
 2744SOL     OW 9130   3.510   4.084   2.214
 2744SOL    HW1 9131   3.572   4.107   2.289
 2744SOL    HW2 9132   3.419   4.118   2.234
 2745SOL     OW 9133   0.686   5.736   0.286
 2745SOL    HW1 9134   0.622   5.672   0.242
 2745SOL    HW2 9135   0.755   5.684   0.336
 2746SOL     OW 9136   1.880   0.921   3.728
 2746SOL    HW1 9137   1.950   0.853   3.746
 2746SOL    HW2 9138   1.868   0.932   3.629
 2747SOL     OW 9139   4.086   4.670   0.454
 2747SOL    HW1 9140   4.118   4.703   0.543
 2747SOL    HW2 9141   3.997   4.626   0.465
 2748SOL     OW 9142   3.916   0.390   0.885
 2748SOL    HW1 9143   3.910   0.459   0.958
 2748SOL    HW2 9144   3.994   0.330   0.904
 2749SOL     OW 9145   3.559   1.548   1.052
 2749SOL    HW1 9146   3.592   1.617   1.117
 2749SOL    HW2 9147   3.495   1.591   0.988
 2750SOL     OW 9148   3.194   5.808   3.320
 2750SOL    HW1 9149   3.249   5.725   3.320
 2750SOL    HW2 9150   3.222   5.868   3.246
 2751SOL     OW 9151   6.344   4.569   1.145
 2751SOL    HW1 9152   6.280   4.500   1.113
 2751SOL    HW2 9153   6.297   4.658   1.153
 2752SOL     OW 9154   3.653   5.570   6.775
 2752SOL    HW1 9155   3.661   5.647   6.713
 2752SOL    HW2 9156   3.690   5.595   6.865
 2753SOL     OW 9157   5.316   5.771   5.456
 2753SOL    HW1 9158   5.329   5.869   5.469
 2753SOL    HW2 9159   5.356   5.722   5.533
 2754SOL     OW 9160   1.249   0.429   5.884
 2754SOL    HW1 9161   1.216   0.446   5.976
 2754SOL    HW2 9162   1.314   0.501   5.858
 2755SOL     OW 9163   3.654   6.818   2.484
 2755SOL    HW1 9164   3.648   6.861   2.574
 2755SOL    HW2 9165   3.741   6.769   2.476
 2756SOL     OW 9166   4.213   6.031   0.205
 2756SOL    HW1 9167   4.139   6.037   0.272
 2756SOL    HW2 9168   4.267   5.949   0.223
 2757SOL     OW 9169   0.774   5.065   0.604
 2757SOL    HW1 9170   0.758   4.986   0.544
 2757SOL    HW2 9171   0.853   5.116   0.571
 2758SOL     OW 9172   5.208   0.641   5.059
 2758SOL    HW1 9173   5.308   0.644   5.064
 2758SOL    HW2 9174   5.174   0.566   5.115
 2759SOL     OW 9175   4.801   5.101   4.158
 2759SOL    HW1 9176   4.735   5.104   4.234
 2759SOL    HW2 9177   4.772   5.032   4.091
 2760SOL     OW 9178   1.131   6.738   3.732
 2760SOL    HW1 9179   1.180   6.807   3.784
 2760SOL    HW2 9180   1.154   6.745   3.635
 2761SOL     OW 9181   2.484   4.784   4.001
 2761SOL    HW1 9182   2.388   4.810   3.993
 2761SOL    HW2 9183   2.509   4.777   4.098
 2762SOL     OW 9184   2.139   0.787   5.330
 2762SOL    HW1 9185   2.192   0.781   5.414
 2762SOL    HW2 9186   2.197   0.762   5.252
 2763SOL     OW 9187   5.344   0.998   2.349
 2763SOL    HW1 9188   5.266   0.966   2.295
 2763SOL    HW2 9189   5.429   0.972   2.304
 2764SOL     OW 9190   6.147   0.728   1.539
 2764SOL    HW1 9191   6.167   0.825   1.544
 2764SOL    HW2 9192   6.229   0.675   1.560
 2765SOL     OW 9193   5.068   2.207   2.967
 2765SOL    HW1 9194   5.081   2.108   2.977
 2765SOL    HW2 9195   5.076   2.251   3.057
 2766SOL     OW 9196   5.788   0.146   2.657
 2766SOL    HW1 9197   5.868   0.204   2.642
 2766SOL    HW2 9198   5.777   0.084   2.579
 2767SOL     OW 9199   6.395   4.447   6.130
 2767SOL    HW1 9200   6.443   4.402   6.206
 2767SOL    HW2 9201   6.457   4.511   6.085
 2768SOL     OW 9202   5.991   1.446   6.851
 2768SOL    HW1 9203   5.937   1.511   6.905
 2768SOL    HW2 9204   6.081   1.484   6.833
 2769SOL     OW 9205   1.005   4.582   1.032
 2769SOL    HW1 9206   0.950   4.658   1.066
 2769SOL    HW2 9207   0.954   4.497   1.043
 2770SOL     OW 9208   5.993   5.655   1.925
 2770SOL    HW1 9209   5.906   5.640   1.877
 2770SOL    HW2 9210   5.984   5.733   1.986
 2771SOL     OW 9211   5.128   1.155   1.303
 2771SOL    HW1 9212   5.091   1.100   1.377
 2771SOL    HW2 9213   5.054   1.202   1.255
 2772SOL     OW 9214   3.508   2.301   6.710
 2772SOL    HW1 9215   3.443   2.241   6.663
 2772SOL    HW2 9216   3.598   2.257   6.714
 2773SOL     OW 9217   3.363   4.903   0.848
 2773SOL    HW1 9218   3.298   4.973   0.876
 2773SOL    HW2 9219   3.333   4.813   0.881
 2774SOL     OW 9220   5.537   3.230   1.968
 2774SOL    HW1 9221   5.508   3.149   1.915
 2774SOL    HW2 9222   5.476   3.306   1.948
 2775SOL     OW 9223   6.833   6.971   1.838
 2775SOL    HW1 9224   6.773   6.944   1.764
 2775SOL    HW2 9225   6.893   6.894   1.862
 2776SOL     OW 9226   3.059   6.123   6.529
 2776SOL    HW1 9227   3.149   6.116   6.573
 2776SOL    HW2 9228   3.032   6.034   6.494
 2777SOL     OW 9229   2.278   1.952   3.825
 2777SOL    HW1 9230   2.347   1.899   3.774
 2777SOL    HW2 9231   2.242   1.897   3.900
 2778SOL     OW 9232   2.466   2.647   4.754
 2778SOL    HW1 9233   2.501   2.617   4.665
 2778SOL    HW2 9234   2.477   2.745   4.763
 2779SOL     OW 9235   6.404   1.623   1.206
 2779SOL    HW1 9236   6.420   1.637   1.303
 2779SOL    HW2 9237   6.328   1.680   1.175
 2780SOL     OW 9238   3.485   5.942   0.192
 2780SOL    HW1 9239   3.465   6.020   0.252
 2780SOL    HW2 9240   3.550   5.971   0.122
 2781SOL     OW 9241   4.814   4.284   6.750
 2781SOL    HW1 9242   4.751   4.361   6.743
 2781SOL    HW2 9243   4.795   4.219   6.676
 2782SOL     OW 9244   3.109   1.352   5.932
 2782SOL    HW1 9245   3.198   1.347   5.887
 2782SOL    HW2 9246   3.091   1.447   5.960
 2783SOL     OW 9247   0.475   4.025   5.587
 2783SOL    HW1 9248   0.553   3.971   5.617
 2783SOL    HW2 9249   0.433   4.070   5.665
 2784SOL     OW 9250   2.307   2.418   1.839
 2784SOL    HW1 9251   2.273   2.407   1.745
 2784SOL    HW2 9252   2.358   2.337   1.866
 2785SOL     OW 9253   5.884   1.334   1.716
 2785SOL    HW1 9254   5.908   1.244   1.678
 2785SOL    HW2 9255   5.897   1.404   1.645
 2786SOL     OW 9256   3.119   0.489   0.056
 2786SOL    HW1 9257   3.211   0.494   0.019
 2786SOL    HW2 9258   3.098   0.394   0.081
 2787SOL     OW 9259   1.721   3.503   6.183
 2787SOL    HW1 9260   1.806   3.451   6.190
 2787SOL    HW2 9261   1.697   3.514   6.086
 2788SOL     OW 9262   0.012   3.572   6.788
 2788SOL    HW1 9263   7.008   3.619   6.873
 2788SOL    HW2 9264   0.097   3.522   6.802
 2789SOL     OW 9265   0.163   2.761   4.206
 2789SOL    HW1 9266   0.125   2.853   4.191
 2789SOL    HW2 9267   0.191   2.752   4.302
 2790SOL     OW 9268   3.139   6.109   4.640
 2790SOL    HW1 9269   3.073   6.082   4.571
 2790SOL    HW2 9270   3.231   6.079   4.612
 2791SOL     OW 9271   1.804   3.679   2.723
 2791SOL    HW1 9272   1.777   3.764   2.678
 2791SOL    HW2 9273   1.894   3.690   2.765
 2792SOL     OW 9274   1.172   2.219   4.792
 2792SOL    HW1 9275   1.127   2.282   4.855
 2792SOL    HW2 9276   1.193   2.134   4.839
 2793SOL     OW 9277   4.998   0.855   4.109
 2793SOL    HW1 9278   5.069   0.803   4.061
 2793SOL    HW2 9279   4.924   0.793   4.137
 2794SOL     OW 9280   0.857   1.350   1.642
 2794SOL    HW1 9281   0.920   1.402   1.585
 2794SOL    HW2 9282   0.897   1.260   1.663
 2795SOL     OW 9283   1.664   4.427   1.672
 2795SOL    HW1 9284   1.742   4.389   1.623
 2795SOL    HW2 9285   1.588   4.441   1.609
 2796SOL     OW 9286   5.612   4.043   2.118
 2796SOL    HW1 9287   5.571   3.970   2.062
 2796SOL    HW2 9288   5.561   4.128   2.104
 2797SOL     OW 9289   4.541   4.517   4.512
 2797SOL    HW1 9290   4.607   4.544   4.443
 2797SOL    HW2 9291   4.450   4.510   4.470
 2798SOL     OW 9292   1.737   3.559   3.385
 2798SOL    HW1 9293   1.794   3.477   3.392
 2798SOL    HW2 9294   1.748   3.599   3.294
 2799SOL     OW 9295   6.342   5.628   5.985
 2799SOL    HW1 9296   6.343   5.570   6.067
 2799SOL    HW2 9297   6.293   5.582   5.912
 2800SOL     OW 9298   2.892   1.891   6.878
 2800SOL    HW1 9299   2.793   1.904   6.884
 2800SOL    HW2 9300   2.911   1.806   6.828
 2801SOL     OW 9301   4.185   5.614   2.686
 2801SOL    HW1 9302   4.136   5.626   2.599
 2801SOL    HW2 9303   4.212   5.519   2.696
 2802SOL     OW 9304   6.177   0.373   6.213
 2802SOL    HW1 9305   6.265   0.419   6.218
 2802SOL    HW2 9306   6.103   0.439   6.227
 2803SOL     OW 9307   2.457   6.016   5.750
 2803SOL    HW1 9308   2.530   5.953   5.721
 2803SOL    HW2 9309   2.461   6.098   5.693
 2804SOL     OW 9310   0.249   4.900   1.936
 2804SOL    HW1 9311   0.276   4.808   1.965
 2804SOL    HW2 9312   0.318   4.937   1.874
 2805SOL     OW 9313   5.180   3.585   6.752
 2805SOL    HW1 9314   5.081   3.587   6.759
 2805SOL    HW2 9315   5.216   3.510   6.808
 2806SOL     OW 9316   6.580   5.668   2.778
 2806SOL    HW1 9317   6.631   5.628   2.701
 2806SOL    HW2 9318   6.645   5.706   2.844
 2807SOL     OW 9319   4.176   4.709   4.099
 2807SOL    HW1 9320   4.225   4.647   4.160
 2807SOL    HW2 9321   4.151   4.792   4.148
 2808SOL     OW 9322   4.347   5.905   4.323
 2808SOL    HW1 9323   4.392   5.936   4.240
 2808SOL    HW2 9324   4.273   5.842   4.299
 2809SOL     OW 9325   5.406   3.150   0.443
 2809SOL    HW1 9326   5.482   3.176   0.504
 2809SOL    HW2 9327   5.322   3.140   0.497
 2810SOL     OW 9328   1.321   0.644   6.149
 2810SOL    HW1 9329   1.327   0.734   6.193
 2810SOL    HW2 9330   1.232   0.635   6.103
 2811SOL     OW 9331   0.064   0.760   3.728
 2811SOL    HW1 9332   7.007   0.704   3.704
 2811SOL    HW2 9333   0.131   0.757   3.654
 2812SOL     OW 9334   4.915   4.112   2.166
 2812SOL    HW1 9335   4.848   4.115   2.093
 2812SOL    HW2 9336   4.984   4.183   2.151
 2813SOL     OW 9337   6.154   1.555   6.162
 2813SOL    HW1 9338   6.251   1.539   6.182
 2813SOL    HW2 9339   6.146   1.607   6.077
 2814SOL     OW 9340   5.348   4.452   4.724
 2814SOL    HW1 9341   5.388   4.542   4.740
 2814SOL    HW2 9342   5.353   4.430   4.627
 2815SOL     OW 9343   0.046   0.960   4.790
 2815SOL    HW1 9344   0.021   0.864   4.800
 2815SOL    HW2 9345   0.131   0.968   4.737
 2816SOL     OW 9346   5.525   6.608   3.001
 2816SOL    HW1 9347   5.577   6.562   2.930
 2816SOL    HW2 9348   5.587   6.657   3.062
 2817SOL     OW 9349   1.035   1.591   1.260
 2817SOL    HW1 9350   0.989   1.669   1.218
 2817SOL    HW2 9351   1.035   1.601   1.359
 2818SOL     OW 9352   0.703   3.457   6.719
 2818SOL    HW1 9353   0.801   3.459   6.704
 2818SOL    HW2 9354   0.656   3.454   6.631
 2819SOL     OW 9355   6.138   3.145   0.913
 2819SOL    HW1 9356   6.081   3.195   0.848
 2819SOL    HW2 9357   6.145   3.197   0.998
 2820SOL     OW 9358   5.458   2.517   3.736
 2820SOL    HW1 9359   5.365   2.527   3.772
 2820SOL    HW2 9360   5.524   2.553   3.802
 2821SOL     OW 9361   1.607   3.432   3.957
 2821SOL    HW1 9362   1.562   3.430   4.046
 2821SOL    HW2 9363   1.618   3.339   3.923
 2822SOL     OW 9364   2.633   1.791   0.636
 2822SOL    HW1 9365   2.709   1.829   0.583
 2822SOL    HW2 9366   2.591   1.716   0.585
 2823SOL     OW 9367   2.433   6.479   3.737
 2823SOL    HW1 9368   2.413   6.561   3.790
 2823SOL    HW2 9369   2.352   6.451   3.686
 2824SOL     OW 9370   2.779   2.194   5.564
 2824SOL    HW1 9371   2.874   2.221   5.578
 2824SOL    HW2 9372   2.736   2.255   5.497
 2825SOL     OW 9373   6.184   6.164   0.841
 2825SOL    HW1 9374   6.125   6.128   0.913
 2825SOL    HW2 9375   6.280   6.158   0.870
 2826SOL     OW 9376   4.696   2.806   4.384
 2826SOL    HW1 9377   4.756   2.742   4.335
 2826SOL    HW2 9378   4.740   2.833   4.470
 2827SOL     OW 9379   6.426   0.407   6.950
 2827SOL    HW1 9380   6.502   0.445   6.897
 2827SOL    HW2 9381   6.341   0.449   6.921
 2828SOL     OW 9382   3.769   2.047   0.065
 2828SOL    HW1 9383   3.710   1.996   0.003
 2828SOL    HW2 9384   3.714   2.110   0.120
 2829SOL     OW 9385   2.750   0.472   6.535
 2829SOL    HW1 9386   2.664   0.429   6.565
 2829SOL    HW2 9387   2.778   0.541   6.602
 2830SOL     OW 9388   3.298   3.613   6.656
 2830SOL    HW1 9389   3.228   3.684   6.668
 2830SOL    HW2 9390   3.253   3.525   6.643
 2831SOL     OW 9391   6.797   5.956   3.935
 2831SOL    HW1 9392   6.849   5.871   3.949
 2831SOL    HW2 9393   6.705   5.934   3.903
 2832SOL     OW 9394   0.438   1.110   1.725
 2832SOL    HW1 9395   0.339   1.103   1.734
 2832SOL    HW2 9396   0.477   1.018   1.719
 2833SOL     OW 9397   6.460   3.342   2.706
 2833SOL    HW1 9398   6.500   3.323   2.795
 2833SOL    HW2 9399   6.518   3.303   2.634
 2834SOL     OW 9400   4.369   1.010   5.761
 2834SOL    HW1 9401   4.387   0.912   5.753
 2834SOL    HW2 9402   4.272   1.028   5.740
 2835SOL     OW 9403   0.005   6.334   3.427
 2835SOL    HW1 9404   6.932   6.302   3.416
 2835SOL    HW2 9405   0.013   6.388   3.511
 2836SOL     OW 9406   6.454   0.599   0.642
 2836SOL    HW1 9407   6.381   0.621   0.577
 2836SOL    HW2 9408   6.476   0.501   0.636
 2837SOL     OW 9409   6.653   3.121   3.731
 2837SOL    HW1 9410   6.555   3.139   3.732
 2837SOL    HW2 9411   6.671   3.032   3.690
 2838SOL     OW 9412   1.720   4.483   3.827
 2838SOL    HW1 9413   1.674   4.476   3.739
 2838SOL    HW2 9414   1.656   4.517   3.896
 2839SOL     OW 9415   4.886   2.581   0.688
 2839SOL    HW1 9416   4.967   2.604   0.742
 2839SOL    HW2 9417   4.834   2.509   0.734
 2840SOL     OW 9418   6.454   2.845   5.150
 2840SOL    HW1 9419   6.493   2.929   5.185
 2840SOL    HW2 9420   6.527   2.787   5.113
 2841SOL     OW 9421   0.299   6.337   1.452
 2841SOL    HW1 9422   0.396   6.331   1.477
 2841SOL    HW2 9423   0.269   6.432   1.456
 2842SOL     OW 9424   5.854   3.085   2.780
 2842SOL    HW1 9425   5.860   3.142   2.861
 2842SOL    HW2 9426   5.799   3.004   2.800
 2843SOL     OW 9427   4.217   1.199   4.684
 2843SOL    HW1 9428   4.155   1.124   4.706
 2843SOL    HW2 9429   4.276   1.218   4.763
 2844SOL     OW 9430   0.636   3.866   5.775
 2844SOL    HW1 9431   0.701   3.815   5.719
 2844SOL    HW2 9432   0.578   3.802   5.826
 2845SOL     OW 9433   0.093   4.332   5.956
 2845SOL    HW1 9434   0.085   4.320   6.055
 2845SOL    HW2 9435   0.072   4.245   5.911
 2846SOL     OW 9436   4.838   1.001   5.964
 2846SOL    HW1 9437   4.760   1.039   5.915
 2846SOL    HW2 9438   4.852   1.050   6.049
 2847SOL     OW 9439   4.716   4.679   3.973
 2847SOL    HW1 9440   4.740   4.615   4.046
 2847SOL    HW2 9441   4.618   4.698   3.976
 2848SOL     OW 9442   1.950   6.539   5.575
 2848SOL    HW1 9443   1.886   6.462   5.574
 2848SOL    HW2 9444   2.021   6.524   5.506
 2849SOL     OW 9445   2.131   2.981   1.581
 2849SOL    HW1 9446   2.167   3.060   1.631
 2849SOL    HW2 9447   2.163   2.985   1.486
 2850SOL     OW 9448   3.870   0.937   0.347
 2850SOL    HW1 9449   3.870   0.922   0.446
 2850SOL    HW2 9450   3.924   0.866   0.303
 2851SOL     OW 9451   2.646   5.279   6.342
 2851SOL    HW1 9452   2.597   5.255   6.258
 2851SOL    HW2 9453   2.741   5.247   6.336
 2852SOL     OW 9454   0.417   3.026   6.396
 2852SOL    HW1 9455   0.374   2.949   6.442
 2852SOL    HW2 9456   0.346   3.090   6.365
 2853SOL     OW 9457   3.698   2.578   1.366
 2853SOL    HW1 9458   3.682   2.525   1.450
 2853SOL    HW2 9459   3.659   2.669   1.377
 2854SOL     OW 9460   1.120   0.966   3.781
 2854SOL    HW1 9461   1.151   0.872   3.770
 2854SOL    HW2 9462   1.139   1.017   3.696
 2855SOL     OW 9463   2.819   0.949   5.365
 2855SOL    HW1 9464   2.870   1.030   5.395
 2855SOL    HW2 9465   2.826   0.941   5.265
 2856SOL     OW 9466   2.092   1.529   5.331
 2856SOL    HW1 9467   2.025   1.469   5.373
 2856SOL    HW2 9468   2.054   1.621   5.322
 2857SOL     OW 9469   3.459   3.742   3.228
 2857SOL    HW1 9470   3.361   3.724   3.241
 2857SOL    HW2 9471   3.478   3.837   3.252
 2858SOL     OW 9472   5.472   2.292   3.018
 2858SOL    HW1 9473   5.546   2.230   2.992
 2858SOL    HW2 9474   5.410   2.304   2.941
 2859SOL     OW 9475   5.103   6.485   0.455
 2859SOL    HW1 9476   5.046   6.562   0.426
 2859SOL    HW2 9477   5.199   6.507   0.442
 2860SOL     OW 9478   4.248   2.040   0.972
 2860SOL    HW1 9479   4.197   2.040   1.058
 2860SOL    HW2 9480   4.286   2.132   0.957
 2861SOL     OW 9481   4.084   5.176   6.023
 2861SOL    HW1 9482   4.102   5.173   5.925
 2861SOL    HW2 9483   4.065   5.270   6.051
 2862SOL     OW 9484   6.232   7.020   4.289
 2862SOL    HW1 9485   6.188   0.026   4.374
 2862SOL    HW2 9486   6.262   0.079   4.239
 2863SOL     OW 9487   7.008   1.623   6.980
 2863SOL    HW1 9488   0.026   1.574   6.902
 2863SOL    HW2 9489   6.910   1.636   6.965
 2864SOL     OW 9490   3.520   1.431   0.396
 2864SOL    HW1 9491   3.615   1.423   0.364
 2864SOL    HW2 9492   3.473   1.343   0.384
 2865SOL     OW 9493   4.834   5.052   5.451
 2865SOL    HW1 9494   4.747   5.026   5.410
 2865SOL    HW2 9495   4.880   5.118   5.392
 2866SOL     OW 9496   0.167   6.817   6.398
 2866SOL    HW1 9497   0.112   6.874   6.337
 2866SOL    HW2 9498   0.107   6.765   6.458
 2867SOL     OW 9499   6.740   3.962   3.323
 2867SOL    HW1 9500   6.734   3.945   3.421
 2867SOL    HW2 9501   6.757   4.060   3.307
 2868SOL     OW 9502   1.472   5.032   4.969
 2868SOL    HW1 9503   1.534   5.059   5.043
 2868SOL    HW2 9504   1.505   4.948   4.927
 2869SOL     OW 9505   5.957   0.743   2.216
 2869SOL    HW1 9506   5.897   0.811   2.175
 2869SOL    HW2 9507   5.951   0.750   2.316
 2870SOL     OW 9508   4.736   2.104   2.376
 2870SOL    HW1 9509   4.654   2.065   2.334
 2870SOL    HW2 9510   4.810   2.109   2.309
 2871SOL     OW 9511   2.009   1.853   6.328
 2871SOL    HW1 9512   2.088   1.880   6.274
 2871SOL    HW2 9513   2.018   1.758   6.357
 2872SOL     OW 9514   2.010   6.378   3.912
 2872SOL    HW1 9515   2.106   6.352   3.911
 2872SOL    HW2 9516   2.002   6.477   3.898
 2873SOL     OW 9517   0.106   5.897   1.708
 2873SOL    HW1 9518   0.106   5.801   1.737
 2873SOL    HW2 9519   0.064   5.953   1.780
 2874SOL     OW 9520   5.954   1.359   2.564
 2874SOL    HW1 9521   6.040   1.312   2.546
 2874SOL    HW2 9522   5.970   1.457   2.574
 2875SOL     OW 9523   2.785   4.808   1.203
 2875SOL    HW1 9524   2.850   4.837   1.274
 2875SOL    HW2 9525   2.696   4.850   1.221
 2876SOL     OW 9526   6.921   2.044   2.288
 2876SOL    HW1 9527   7.020   2.051   2.298
 2876SOL    HW2 9528   6.878   2.125   2.328
 2877SOL     OW 9529   2.439   4.031   5.824
 2877SOL    HW1 9530   2.371   3.981   5.770
 2877SOL    HW2 9531   2.527   4.030   5.777
 2878SOL     OW 9532   3.449   5.098   0.294
 2878SOL    HW1 9533   3.403   5.038   0.359
 2878SOL    HW2 9534   3.506   5.164   0.343
 2879SOL     OW 9535   4.579   4.894   0.065
 2879SOL    HW1 9536   4.663   4.847   0.038
 2879SOL    HW2 9537   4.501   4.832   0.055
 2880SOL     OW 9538   1.195   0.106   1.791
 2880SOL    HW1 9539   1.225   0.154   1.708
 2880SOL    HW2 9540   1.198   0.169   1.868
 2881SOL     OW 9541   0.561   0.115   6.742
 2881SOL    HW1 9542   0.586   0.020   6.724
 2881SOL    HW2 9543   0.592   0.172   6.666
 2882SOL     OW 9544   6.788   3.316   3.894
 2882SOL    HW1 9545   6.758   3.256   3.821
 2882SOL    HW2 9546   6.871   3.364   3.866
 2883SOL     OW 9547   4.848   6.123   2.386
 2883SOL    HW1 9548   4.910   6.201   2.376
 2883SOL    HW2 9549   4.902   6.040   2.396
 2884SOL     OW 9550   1.637   5.868   2.727
 2884SOL    HW1 9551   1.707   5.814   2.772
 2884SOL    HW2 9552   1.652   5.965   2.745
 2885SOL     OW 9553   0.449   2.505   4.036
 2885SOL    HW1 9554   0.353   2.530   4.049
 2885SOL    HW2 9555   0.493   2.574   3.979
 2886SOL     OW 9556   2.516   3.094   6.237
 2886SOL    HW1 9557   2.578   3.015   6.228
 2886SOL    HW2 9558   2.486   3.123   6.147
 2887SOL     OW 9559   2.652   1.587   4.866
 2887SOL    HW1 9560   2.575   1.627   4.916
 2887SOL    HW2 9561   2.737   1.613   4.911
 2888SOL     OW 9562   0.021   5.089   6.999
 2888SOL    HW1 9563   0.040   5.073   6.903
 2888SOL    HW2 9564   7.001   5.008   0.018
 2889SOL     OW 9565   0.523   6.959   0.778
 2889SOL    HW1 9566   0.477   6.890   0.723
 2889SOL    HW2 9567   0.523   0.025   0.729
 2890SOL     OW 9568   2.782   0.084   0.564
 2890SOL    HW1 9569   2.815   0.078   0.659
 2890SOL    HW2 9570   2.841   0.144   0.512
 2891SOL     OW 9571   3.041   4.868   4.695
 2891SOL    HW1 9572   3.046   4.831   4.788
 2891SOL    HW2 9573   3.126   4.917   4.675
 2892SOL     OW 9574   4.504   4.347   5.426
 2892SOL    HW1 9575   4.440   4.288   5.474
 2892SOL    HW2 9576   4.590   4.354   5.478
 2893SOL     OW 9577   3.063   0.878   5.846
 2893SOL    HW1 9578   3.060   0.807   5.775
 2893SOL    HW2 9579   3.040   0.838   5.934
 2894SOL     OW 9580   3.225   2.522   1.258
 2894SOL    HW1 9581   3.242   2.545   1.354
 2894SOL    HW2 9582   3.275   2.438   1.235
 2895SOL     OW 9583   3.022   3.188   6.859
 2895SOL    HW1 9584   3.027   3.263   6.924
 2895SOL    HW2 9585   3.003   3.103   6.907
 2896SOL     OW 9586   2.241   5.472   1.018
 2896SOL    HW1 9587   2.311   5.495   0.950
 2896SOL    HW2 9588   2.273   5.396   1.074
 2897SOL     OW 9589   1.530   6.885   3.755
 2897SOL    HW1 9590   1.482   6.874   3.842
 2897SOL    HW2 9591   1.521   6.801   3.702
 2898SOL     OW 9592   2.452   4.680   2.744
 2898SOL    HW1 9593   2.494   4.764   2.780
 2898SOL    HW2 9594   2.493   4.658   2.656
 2899SOL     OW 9595   6.342   1.194   0.598
 2899SOL    HW1 9596   6.327   1.230   0.506
 2899SOL    HW2 9597   6.353   1.270   0.662
 2900SOL     OW 9598   2.943   5.607   6.474
 2900SOL    HW1 9599   2.868   5.556   6.516
 2900SOL    HW2 9600   2.916   5.637   6.383
 2901SOL     OW 9601   2.862   0.204   1.195
 2901SOL    HW1 9602   2.881   0.131   1.260
 2901SOL    HW2 9603   2.902   0.290   1.228
 2902SOL     OW 9604   5.511   5.055   1.201
 2902SOL    HW1 9605   5.504   4.961   1.234
 2902SOL    HW2 9606   5.606   5.077   1.181
 2903SOL     OW 9607   2.696   2.499   1.733
 2903SOL    HW1 9608   2.704   2.597   1.714
 2903SOL    HW2 9609   2.782   2.466   1.773
 2904SOL     OW 9610   2.241   3.042   4.479
 2904SOL    HW1 9611   2.329   3.087   4.469
 2904SOL    HW2 9612   2.182   3.065   4.402
 2905SOL     OW 9613   1.351   1.960   1.824
 2905SOL    HW1 9614   1.299   1.928   1.904
 2905SOL    HW2 9615   1.300   2.034   1.780
 2906SOL     OW 9616   5.140   5.557   2.174
 2906SOL    HW1 9617   5.131   5.458   2.159
 2906SOL    HW2 9618   5.051   5.595   2.199
 2907SOL     OW 9619   6.318   0.490   4.550
 2907SOL    HW1 9620   6.393   0.434   4.586
 2907SOL    HW2 9621   6.321   0.581   4.592
 2908SOL     OW 9622   4.121   6.260   4.935
 2908SOL    HW1 9623   4.084   6.330   4.997
 2908SOL    HW2 9624   4.179   6.197   4.986
 2909SOL     OW 9625   1.413   5.982   5.506
 2909SOL    HW1 9626   1.430   6.079   5.522
 2909SOL    HW2 9627   1.366   5.943   5.584
 2910SOL     OW 9628   5.016   6.485   5.217
 2910SOL    HW1 9629   5.103   6.498   5.169
 2910SOL    HW2 9630   5.019   6.397   5.265
 2911SOL     OW 9631   2.205   4.251   3.486
 2911SOL    HW1 9632   2.252   4.233   3.572
 2911SOL    HW2 9633   2.200   4.350   3.471
 2912SOL     OW 9634   2.733   5.335   0.671
 2912SOL    HW1 9635   2.823   5.353   0.711
 2912SOL    HW2 9636   2.716   5.237   0.670
 2913SOL     OW 9637   1.102   3.670   2.580
 2913SOL    HW1 9638   1.030   3.662   2.511
 2913SOL    HW2 9639   1.160   3.589   2.578
 2914SOL     OW 9640   5.148   4.682   5.590
 2914SOL    HW1 9641   5.223   4.747   5.601
 2914SOL    HW2 9642   5.070   4.728   5.546
 2915SOL     OW 9643   4.113   1.303   4.447
 2915SOL    HW1 9644   4.075   1.393   4.468
 2915SOL    HW2 9645   4.166   1.270   4.525
 2916SOL     OW 9646   4.341   5.861   4.800
 2916SOL    HW1 9647   4.402   5.851   4.721
 2916SOL    HW2 9648   4.295   5.774   4.817
 2917SOL     OW 9649   4.700   0.743   1.983
 2917SOL    HW1 9650   4.771   0.785   1.925
 2917SOL    HW2 9651   4.612   0.784   1.961
 2918SOL     OW 9652   0.573   3.218   4.142
 2918SOL    HW1 9653   0.583   3.229   4.241
 2918SOL    HW2 9654   0.529   3.131   4.122
 2919SOL     OW 9655   6.056   6.191   0.283
 2919SOL    HW1 9656   6.075   6.197   0.185
 2919SOL    HW2 9657   6.066   6.281   0.325
 2920SOL     OW 9658   4.481   2.054   3.055
 2920SOL    HW1 9659   4.385   2.028   3.069
 2920SOL    HW2 9660   4.486   2.124   2.984
 2921SOL     OW 9661   0.273   7.015   1.400
 2921SOL    HW1 9662   0.267   0.063   1.329
 2921SOL    HW2 9663   0.330   6.940   1.368
 2922SOL     OW 9664   4.405   6.642   5.269
 2922SOL    HW1 9665   4.443   6.561   5.224
 2922SOL    HW2 9666   4.428   6.639   5.367
 2923SOL     OW 9667   0.103   4.443   0.149
 2923SOL    HW1 9668   0.070   4.478   0.237
 2923SOL    HW2 9669   0.039   4.375   0.114
 2924SOL     OW 9670   6.103   0.099   5.801
 2924SOL    HW1 9671   6.082   0.176   5.862
 2924SOL    HW2 9672   6.143   0.025   5.855
 2925SOL     OW 9673   5.603   3.591   1.398
 2925SOL    HW1 9674   5.612   3.682   1.437
 2925SOL    HW2 9675   5.557   3.598   1.309
 2926SOL     OW 9676   6.864   1.278   3.512
 2926SOL    HW1 9677   6.923   1.275   3.593
 2926SOL    HW2 9678   6.768   1.271   3.540
 2927SOL     OW 9679   0.846   3.058   2.256
 2927SOL    HW1 9680   0.766   3.118   2.262
 2927SOL    HW2 9681   0.911   3.083   2.328
 2928SOL     OW 9682   5.461   6.029   1.190
 2928SOL    HW1 9683   5.490   6.001   1.281
 2928SOL    HW2 9684   5.454   5.949   1.130
 2929SOL     OW 9685   0.897   0.347   5.943
 2929SOL    HW1 9686   0.945   0.262   5.922
 2929SOL    HW2 9687   0.881   0.398   5.859
 2930SOL     OW 9688   3.217   6.563   4.227
 2930SOL    HW1 9689   3.154   6.499   4.184
 2930SOL    HW2 9690   3.204   6.562   4.326
 2931SOL     OW 9691   3.736   4.979   6.906
 2931SOL    HW1 9692   3.797   4.925   6.848
 2931SOL    HW2 9693   3.686   5.044   6.849
 2932SOL     OW 9694   1.155   4.442   1.860
 2932SOL    HW1 9695   1.253   4.430   1.872
 2932SOL    HW2 9696   1.126   4.525   1.908
 2933SOL     OW 9697   4.584   1.969   3.667
 2933SOL    HW1 9698   4.540   1.885   3.700
 2933SOL    HW2 9699   4.563   1.981   3.570
 2934SOL     OW 9700   2.190   1.038   0.508
 2934SOL    HW1 9701   2.105   0.987   0.492
 2934SOL    HW2 9702   2.222   1.021   0.601
 2935SOL     OW 9703   6.815   1.876   1.238
 2935SOL    HW1 9704   6.772   1.792   1.206
 2935SOL    HW2 9705   6.911   1.876   1.212
 2936SOL     OW 9706   3.284   5.897   0.979
 2936SOL    HW1 9707   3.274   5.911   0.881
 2936SOL    HW2 9708   3.321   5.980   1.021
 2937SOL     OW 9709   2.191   4.531   0.343
 2937SOL    HW1 9710   2.203   4.457   0.409
 2937SOL    HW2 9711   2.108   4.582   0.364
 2938SOL     OW 9712   5.321   4.823   5.188
 2938SOL    HW1 9713   5.309   4.893   5.259
 2938SOL    HW2 9714   5.262   4.745   5.209
 2939SOL     OW 9715   0.175   6.470   6.193
 2939SOL    HW1 9716   0.205   6.413   6.117
 2939SOL    HW2 9717   0.254   6.502   6.244
 2940SOL     OW 9718   4.327   0.410   5.376
 2940SOL    HW1 9719   4.246   0.355   5.396
 2940SOL    HW2 9720   4.408   0.361   5.405
 2941SOL     OW 9721   3.115   1.491   5.548
 2941SOL    HW1 9722   3.149   1.481   5.455
 2941SOL    HW2 9723   3.018   1.469   5.552
 2942SOL     OW 9724   3.616   6.497   4.562
 2942SOL    HW1 9725   3.586   6.590   4.543
 2942SOL    HW2 9726   3.715   6.495   4.570
 2943SOL     OW 9727   5.226   3.604   2.485
 2943SOL    HW1 9728   5.215   3.693   2.440
 2943SOL    HW2 9729   5.139   3.555   2.485
 2944SOL     OW 9730   4.325   6.018   6.883
 2944SOL    HW1 9731   4.324   6.107   6.928
 2944SOL    HW2 9732   4.240   5.969   6.903
 2945SOL     OW 9733   3.237   4.100   3.014
 2945SOL    HW1 9734   3.156   4.159   3.016
 2945SOL    HW2 9735   3.290   4.115   3.098
 2946SOL     OW 9736   0.222   5.659   5.956
 2946SOL    HW1 9737   0.272   5.685   6.038
 2946SOL    HW2 9738   0.252   5.714   5.878
 2947SOL     OW 9739   0.153   5.185   0.310
 2947SOL    HW1 9740   0.099   5.109   0.345
 2947SOL    HW2 9741   0.117   5.214   0.221
 2948SOL     OW 9742   5.976   4.316   5.464
 2948SOL    HW1 9743   5.921   4.315   5.381
 2948SOL    HW2 9744   5.992   4.221   5.494
 2949SOL     OW 9745   1.091   6.062   0.584
 2949SOL    HW1 9746   1.035   6.145   0.593
 2949SOL    HW2 9747   1.038   5.983   0.613
 2950SOL     OW 9748   5.177   3.538   4.705
 2950SOL    HW1 9749   5.127   3.456   4.735
 2950SOL    HW2 9750   5.112   3.610   4.682
 2951SOL     OW 9751   6.156   0.816   1.095
 2951SOL    HW1 9752   6.151   0.736   1.155
 2951SOL    HW2 9753   6.231   0.804   1.030
 2952SOL     OW 9754   1.048   4.044   2.227
 2952SOL    HW1 9755   1.056   4.034   2.326
 2952SOL    HW2 9756   1.079   3.960   2.182
 2953SOL     OW 9757   5.688   0.875   2.567
 2953SOL    HW1 9758   5.671   0.969   2.595
 2953SOL    HW2 9759   5.690   0.816   2.648
 2954SOL     OW 9760   6.066   5.839   1.088
 2954SOL    HW1 9761   6.054   5.932   1.052
 2954SOL    HW2 9762   6.151   5.833   1.140
 2955SOL     OW 9763   6.477   2.576   0.637
 2955SOL    HW1 9764   6.390   2.571   0.687
 2955SOL    HW2 9765   6.528   2.491   0.651
 2956SOL     OW 9766   6.600   4.933   2.695
 2956SOL    HW1 9767   6.649   4.864   2.642
 2956SOL    HW2 9768   6.528   4.889   2.748
 2957SOL     OW 9769   0.896   5.112   1.176
 2957SOL    HW1 9770   0.843   5.196   1.168
 2957SOL    HW2 9771   0.884   5.072   1.267
 2958SOL     OW 9772   3.580   4.783   6.672
 2958SOL    HW1 9773   3.568   4.844   6.594
 2958SOL    HW2 9774   3.668   4.737   6.665
 2959SOL     OW 9775   4.376   5.787   0.253
 2959SOL    HW1 9776   4.293   5.740   0.222
 2959SOL    HW2 9777   4.453   5.724   0.249
 2960SOL     OW 9778   2.906   1.630   6.795
 2960SOL    HW1 9779   2.943   1.626   6.702
 2960SOL    HW2 9780   2.807   1.613   6.793
 2961SOL     OW 9781   5.631   1.960   4.327
 2961SOL    HW1 9782   5.683   2.010   4.258
 2961SOL    HW2 9783   5.659   1.989   4.419
 2962SOL     OW 9784   4.067   0.875   2.952
 2962SOL    HW1 9785   4.025   0.795   2.994
 2962SOL    HW2 9786   4.111   0.849   2.866
 2963SOL     OW 9787   2.153   3.357   5.308
 2963SOL    HW1 9788   2.225   3.426   5.313
 2963SOL    HW2 9789   2.121   3.349   5.214
 2964SOL     OW 9790   2.948   6.464   0.139
 2964SOL    HW1 9791   3.007   6.387   0.165
 2964SOL    HW2 9792   3.005   6.544   0.121
 2965SOL     OW 9793   0.411   2.340   5.861
 2965SOL    HW1 9794   0.388   2.436   5.849
 2965SOL    HW2 9795   0.500   2.321   5.819
 2966SOL     OW 9796   4.778   4.298   3.264
 2966SOL    HW1 9797   4.742   4.283   3.356
 2966SOL    HW2 9798   4.741   4.383   3.227
 2967SOL     OW 9799   5.759   2.311   3.750
 2967SOL    HW1 9800   5.675   2.293   3.802
 2967SOL    HW2 9801   5.736   2.349   3.661
 2968SOL     OW 9802   6.724   3.912   3.574
 2968SOL    HW1 9803   6.775   3.831   3.604
 2968SOL    HW2 9804   6.767   3.994   3.611
 2969SOL     OW 9805   4.510   1.254   4.372
 2969SOL    HW1 9806   4.499   1.191   4.449
 2969SOL    HW2 9807   4.462   1.218   4.292
 2970SOL     OW 9808   0.996   4.719   6.339
 2970SOL    HW1 9809   1.034   4.811   6.343
 2970SOL    HW2 9810   0.896   4.724   6.348
 2971SOL     OW 9811   5.272   3.535   3.014
 2971SOL    HW1 9812   5.225   3.572   2.934
 2971SOL    HW2 9813   5.262   3.599   3.091
 2972SOL     OW 9814   1.257   3.962   5.964
 2972SOL    HW1 9815   1.315   3.892   6.005
 2972SOL    HW2 9816   1.183   3.918   5.913
 2973SOL     OW 9817   5.675   0.082   4.329
 2973SOL    HW1 9818   5.672   0.131   4.242
 2973SOL    HW2 9819   5.616   0.002   4.323
 2974SOL     OW 9820   0.405   4.331   1.985
 2974SOL    HW1 9821   0.347   4.352   1.907
 2974SOL    HW2 9822   0.355   4.349   2.070
 2975SOL     OW 9823   0.360   1.640   4.168
 2975SOL    HW1 9824   0.456   1.628   4.194
 2975SOL    HW2 9825   0.304   1.570   4.213
 2976SOL     OW 9826   2.723   5.996   1.628
 2976SOL    HW1 9827   2.680   6.070   1.679
 2976SOL    HW2 9828   2.690   5.908   1.664
 2977SOL     OW 9829   3.633   6.139   3.982
 2977SOL    HW1 9830   3.654   6.116   3.887
 2977SOL    HW2 9831   3.535   6.132   3.997
 2978SOL     OW 9832   3.557   6.762   0.002
 2978SOL    HW1 9833   3.587   6.839   0.058
 2978SOL    HW2 9834   3.591   6.774   6.930
 2979SOL     OW 9835   3.434   1.226   3.318
 2979SOL    HW1 9836   3.460   1.209   3.223
 2979SOL    HW2 9837   3.447   1.323   3.339
 2980SOL     OW 9838   6.757   6.209   4.018
 2980SOL    HW1 9839   6.764   6.124   3.967
 2980SOL    HW2 9840   6.665   6.217   4.057
 2981SOL     OW 9841   1.824   1.467   5.386
 2981SOL    HW1 9842   1.758   1.522   5.335
 2981SOL    HW2 9843   1.831   1.501   5.479
 2982SOL     OW 9844   4.766   6.486   2.890
 2982SOL    HW1 9845   4.827   6.565   2.891
 2982SOL    HW2 9846   4.816   6.404   2.918
 2983SOL     OW 9847   6.704   0.006   2.827
 2983SOL    HW1 9848   6.761   0.073   2.781
 2983SOL    HW2 9849   6.758   6.978   2.894
 2984SOL     OW 9850   5.906   4.860   1.499
 2984SOL    HW1 9851   5.998   4.826   1.517
 2984SOL    HW2 9852   5.855   4.793   1.445
 2985SOL     OW 9853   6.542   1.872   3.211
 2985SOL    HW1 9854   6.563   1.840   3.303
 2985SOL    HW2 9855   6.494   1.799   3.161
 2986SOL     OW 9856   2.229   4.007   5.337
 2986SOL    HW1 9857   2.304   4.008   5.272
 2986SOL    HW2 9858   2.143   3.987   5.290
 2987SOL     OW 9859   5.027   1.587   4.868
 2987SOL    HW1 9860   4.960   1.548   4.804
 2987SOL    HW2 9861   5.073   1.664   4.825
 2988SOL     OW 9862   0.689   0.070   1.659
 2988SOL    HW1 9863   0.669   6.997   1.683
 2988SOL    HW2 9864   0.772   0.100   1.707
 2989SOL     OW 9865   6.327   5.741   0.747
 2989SOL    HW1 9866   6.311   5.651   0.787
 2989SOL    HW2 9867   6.239   5.788   0.737
 2990SOL     OW 9868   3.134   0.846   0.973
 2990SOL    HW1 9869   3.231   0.830   0.994
 2990SOL    HW2 9870   3.112   0.805   0.884
 2991SOL     OW 9871   6.447   4.851   0.201
 2991SOL    HW1 9872   6.393   4.919   0.152
 2991SOL    HW2 9873   6.458   4.880   0.296
 2992SOL     OW 9874   4.335   4.226   6.740
 2992SOL    HW1 9875   4.352   4.230   6.641
 2992SOL    HW2 9876   4.373   4.309   6.783
 2993SOL     OW 9877   1.735   5.269   0.195
 2993SOL    HW1 9878   1.715   5.174   0.173
 2993SOL    HW2 9879   1.705   5.328   0.120
 2994SOL     OW 9880   3.869   6.443   6.769
 2994SOL    HW1 9881   3.789   6.474   6.821
 2994SOL    HW2 9882   3.921   6.522   6.738
 2995SOL     OW 9883   2.561   1.096   5.396
 2995SOL    HW1 9884   2.657   1.074   5.413
 2995SOL    HW2 9885   2.551   1.195   5.388
 2996SOL     OW 9886   4.243   5.949   5.514
 2996SOL    HW1 9887   4.254   5.995   5.426
 2996SOL    HW2 9888   4.183   5.870   5.502
 2997SOL     OW 9889   4.501   6.048   0.249
 2997SOL    HW1 9890   4.465   5.960   0.278
 2997SOL    HW2 9891   4.438   6.089   0.182
 2998SOL     OW 9892   6.092   5.002   5.013
 2998SOL    HW1 9893   6.128   4.924   5.064
 2998SOL    HW2 9894   6.145   5.084   5.034
 2999SOL     OW 9895   3.159   0.108   2.418
 2999SOL    HW1 9896   3.115   0.145   2.336
 2999SOL    HW2 9897   3.091   0.094   2.490
 3000SOL     OW 9898   1.314   2.288   4.558
 3000SOL    HW1 9899   1.260   2.263   4.639
 3000SOL    HW2 9900   1.253   2.291   4.478
 3001SOL     OW 9901   4.550   6.735   5.779
 3001SOL    HW1 9902   4.631   6.764   5.728
 3001SOL    HW2 9903   4.468   6.761   5.728
 3002SOL     OW 9904   2.965   0.635   5.671
 3002SOL    HW1 9905   2.910   0.635   5.587
 3002SOL    HW2 9906   2.931   0.563   5.733
 3003SOL     OW 9907   2.540   0.034   5.915
 3003SOL    HW1 9908   2.611   0.072   5.974
 3003SOL    HW2 9909   2.488   6.986   5.965
 3004SOL     OW 9910   6.336   3.309   5.298
 3004SOL    HW1 9911   6.298   3.366   5.371
 3004SOL    HW2 9912   6.261   3.272   5.243
 3005SOL     OW 9913   4.378   2.277   1.436
 3005SOL    HW1 9914   4.441   2.252   1.362
 3005SOL    HW2 9915   4.334   2.195   1.471
 3006SOL     OW 9916   4.782   0.626   0.933
 3006SOL    HW1 9917   4.689   0.592   0.922
 3006SOL    HW2 9918   4.807   0.625   1.029
 3007SOL     OW 9919   6.334   5.094   1.907
 3007SOL    HW1 9920   6.241   5.087   1.871
 3007SOL    HW2 9921   6.366   5.003   1.935
 3008SOL     OW 9922   4.749   5.858   5.818
 3008SOL    HW1 9923   4.837   5.809   5.813
 3008SOL    HW2 9924   4.676   5.792   5.834
 3009SOL     OW 9925   1.492   1.034   2.536
 3009SOL    HW1 9926   1.498   1.124   2.579
 3009SOL    HW2 9927   1.441   0.972   2.596
 3010SOL     OW 9928   2.816   6.551   2.563
 3010SOL    HW1 9929   2.895   6.531   2.620
 3010SOL    HW2 9930   2.779   6.466   2.525
 3011SOL     OW 9931   5.745   0.720   0.160
 3011SOL    HW1 9932   5.674   0.750   0.096
 3011SOL    HW2 9933   5.713   0.639   0.210
 3012SOL     OW 9934   0.101   4.563   1.995
 3012SOL    HW1 9935   0.171   4.552   1.924
 3012SOL    HW2 9936   0.016   4.518   1.965
 3013SOL     OW 9937   6.426   3.758   2.268
 3013SOL    HW1 9938   6.407   3.666   2.304
 3013SOL    HW2 9939   6.491   3.804   2.328
 3014SOL     OW 9940   5.161   0.423   5.218
 3014SOL    HW1 9941   5.076   0.415   5.270
 3014SOL    HW2 9942   5.239   0.419   5.281
 3015SOL     OW 9943   3.259   2.077   0.081
 3015SOL    HW1 9944   3.259   1.984   0.044
 3015SOL    HW2 9945   3.218   2.076   0.173
 3016SOL     OW 9946   3.875   6.383   3.485
 3016SOL    HW1 9947   3.933   6.362   3.407
 3016SOL    HW2 9948   3.845   6.297   3.528
 3017SOL     OW 9949   6.863   6.249   0.901
 3017SOL    HW1 9950   6.952   6.261   0.855
 3017SOL    HW2 9951   6.799   6.207   0.837
 3018SOL     OW 9952   3.723   6.831   6.302
 3018SOL    HW1 9953   3.729   6.737   6.269
 3018SOL    HW2 9954   3.627   6.861   6.302
 3019SOL     OW 9955   5.115   6.538   2.091
 3019SOL    HW1 9956   5.151   6.492   2.010
 3019SOL    HW2 9957   5.094   6.633   2.068
 3020SOL     OW 9958   2.312   1.167   1.424
 3020SOL    HW1 9959   2.260   1.154   1.339
 3020SOL    HW2 9960   2.249   1.181   1.500
 3021SOL     OW 9961   4.148   0.724   6.271
 3021SOL    HW1 9962   4.120   0.639   6.226
 3021SOL    HW2 9963   4.128   0.802   6.212
 3022SOL     OW 9964   5.966   0.009   1.713
 3022SOL    HW1 9965   5.866   0.012   1.709
 3022SOL    HW2 9966   5.997   6.939   1.689
 3023SOL     OW 9967   5.392   0.005   1.381
 3023SOL    HW1 9968   5.472   6.972   1.407
 3023SOL    HW2 9969   5.422   0.091   1.341
 3024SOL     OW 9970   2.726   6.609   6.806
 3024SOL    HW1 9971   2.640   6.596   6.855
 3024SOL    HW2 9972   2.796   6.549   6.845
 3025SOL     OW 9973   1.849   2.348   2.053
 3025SOL    HW1 9974   1.928   2.372   2.109
 3025SOL    HW2 9975   1.786   2.291   2.106
 3026SOL     OW 9976   1.691   5.047   0.652
 3026SOL    HW1 9977   1.688   5.028   0.554
 3026SOL    HW2 9978   1.774   5.098   0.674
 3027SOL     OW 9979   1.378   1.447   4.001
 3027SOL    HW1 9980   1.304   1.471   3.938
 3027SOL    HW2 9981   1.447   1.393   3.952
 3028SOL     OW 9982   1.253   0.634   4.495
 3028SOL    HW1 9983   1.288   0.675   4.411
 3028SOL    HW2 9984   1.290   0.542   4.505
 3029SOL     OW 9985   5.601   5.359   6.142
 3029SOL    HW1 9986   5.557   5.276   6.109
 3029SOL    HW2 9987   5.543   5.402   6.211
 3030SOL     OW 9988   1.018   1.364   5.733
 3030SOL    HW1 9989   1.064   1.316   5.658
 3030SOL    HW2 9990   1.081   1.375   5.809
 3031SOL     OW 9991   0.928   5.141   0.181
 3031SOL    HW1 9992   0.986   5.223   0.178
 3031SOL    HW2 9993   0.853   5.151   0.116
 3032SOL     OW 9994   4.056   0.283   5.374
 3032SOL    HW1 9995   4.000   0.308   5.453
 3032SOL    HW2 9996   3.996   0.260   5.297
 3033SOL     OW 9997   5.477   4.883   5.847
 3033SOL    HW1 9998   5.431   4.866   5.760
 3033SOL    HW2 9999   5.477   4.981   5.867
 3034SOL     OW10000   2.443   6.944   4.320
 3034SOL    HW110001   2.348   6.966   4.342
 3034SOL    HW210002   2.503   6.980   4.391
 3035SOL     OW10003   6.483   6.866   6.901
 3035SOL    HW110004   6.388   6.890   6.882
 3035SOL    HW210005   6.538   6.949   6.909
 3036SOL     OW10006   1.010   4.853   5.791
 3036SOL    HW110007   1.037   4.757   5.795
 3036SOL    HW210008   0.979   4.883   5.881
 3037SOL     OW10009   6.445   6.800   5.716
 3037SOL    HW110010   6.446   6.715   5.665
 3037SOL    HW210011   6.466   6.876   5.655
 3038SOL     OW10012   5.969   6.374   5.866
 3038SOL    HW110013   5.957   6.296   5.928
 3038SOL    HW210014   6.023   6.345   5.787
 3039SOL     OW10015   6.955   4.843   0.324
 3039SOL    HW110016   6.959   4.828   0.225
 3039SOL    HW210017   6.930   4.938   0.343
 3040SOL     OW10018   2.374   2.130   0.211
 3040SOL    HW110019   2.330   2.130   0.300
 3040SOL    HW210020   2.473   2.127   0.223
 3041SOL     OW10021   1.469   2.201   5.852
 3041SOL    HW110022   1.547   2.215   5.914
 3041SOL    HW210023   1.435   2.107   5.863
 3042SOL     OW10024   5.257   6.902   1.863
 3042SOL    HW110025   5.187   6.951   1.810
 3042SOL    HW210026   5.259   6.806   1.834
 3043SOL     OW10027   6.606   5.253   0.120
 3043SOL    HW110028   6.569   5.335   0.164
 3043SOL    HW210029   6.697   5.273   0.085
 3044SOL     OW10030   3.192   3.742   5.643
 3044SOL    HW110031   3.117   3.719   5.705
 3044SOL    HW210032   3.178   3.834   5.606
 3045SOL     OW10033   5.365   2.116   4.302
 3045SOL    HW110034   5.408   2.187   4.357
 3045SOL    HW210035   5.404   2.116   4.210
 3046SOL     OW10036   2.124   2.564   6.103
 3046SOL    HW110037   2.155   2.631   6.170
 3046SOL    HW210038   2.099   2.611   6.018
 3047SOL     OW10039   0.155   4.864   1.569
 3047SOL    HW110040   0.089   4.927   1.611
 3047SOL    HW210041   0.192   4.906   1.486
 3048SOL     OW10042   3.104   2.600   1.739
 3048SOL    HW110043   3.027   2.642   1.691
 3048SOL    HW210044   3.073   2.562   1.826
 3049SOL     OW10045   0.958   0.139   1.082
 3049SOL    HW110046   0.872   0.116   1.128
 3049SOL    HW210047   0.949   0.123   0.984
 3050SOL     OW10048   2.256   6.259   3.853
 3050SOL    HW110049   2.206   6.178   3.822
 3050SOL    HW210050   2.319   6.289   3.781
 3051SOL     OW10051   2.598   4.412   5.381
 3051SOL    HW110052   2.530   4.445   5.447
 3051SOL    HW210053   2.677   4.473   5.381
 3052SOL     OW10054   5.280   6.628   2.886
 3052SOL    HW110055   5.361   6.600   2.938
 3052SOL    HW210056   5.263   6.725   2.900
 3053SOL     OW10057   4.951   6.614   1.335
 3053SOL    HW110058   4.916   6.529   1.374
 3053SOL    HW210059   5.042   6.632   1.371
 3054SOL     OW10060   2.161   4.241   5.723
 3054SOL    HW110061   2.225   4.201   5.656
 3054SOL    HW210062   2.211   4.266   5.806
 3055SOL     OW10063   5.703   6.495   2.767
 3055SOL    HW110064   5.788   6.547   2.754
 3055SOL    HW210065   5.654   6.488   2.680
 3056SOL     OW10066   6.108   0.583   1.214
 3056SOL    HW110067   6.047   0.547   1.143
 3056SOL    HW210068   6.067   0.567   1.304
 3057SOL     OW10069   6.718   5.959   2.556
 3057SOL    HW110070   6.652   5.937   2.485
 3057SOL    HW210071   6.699   6.050   2.593
 3058SOL     OW10072   6.391   5.243   1.677
 3058SOL    HW110073   6.328   5.180   1.630
 3058SOL    HW210074   6.404   5.213   1.771
 3059SOL     OW10075   2.108   2.736   5.250
 3059SOL    HW110076   2.181   2.767   5.189
 3059SOL    HW210077   2.147   2.683   5.325
 3060SOL     OW10078   6.711   6.451   0.541
 3060SOL    HW110079   6.646   6.524   0.559
 3060SOL    HW210080   6.792   6.462   0.598
 3061SOL     OW10081   0.263   0.679   6.154
 3061SOL    HW110082   0.243   0.596   6.207
 3061SOL    HW210083   0.358   0.705   6.168
 3062SOL     OW10084   2.931   5.635   6.134
 3062SOL    HW110085   3.008   5.573   6.120
 3062SOL    HW210086   2.853   5.583   6.170
 3063SOL     OW10087   2.186   5.817   0.110
 3063SOL    HW110088   2.149   5.861   0.028
 3063SOL    HW210089   2.119   5.824   0.184
 3064SOL     OW10090   0.245   4.063   3.414
 3064SOL    HW110091   0.148   4.064   3.440
 3064SOL    HW210092   0.253   4.054   3.315
 3065SOL     OW10093   2.777   1.299   1.320
 3065SOL    HW110094   2.876   1.305   1.314
 3065SOL    HW210095   2.737   1.390   1.317
 3066SOL     OW10096   5.406   5.713   0.705
 3066SOL    HW110097   5.496   5.678   0.731
 3066SOL    HW210098   5.335   5.663   0.755
 3067SOL     OW10099   4.668   6.832   3.435
 3067SOL    HW110100   4.735   6.905   3.444
 3067SOL    HW210101   4.677   6.789   3.345
 3068SOL     OW10102   5.658   4.680   0.464
 3068SOL    HW110103   5.675   4.761   0.408
 3068SOL    HW210104   5.694   4.599   0.418
 3069SOL     OW10105   0.795   5.282   3.810
 3069SOL    HW110106   0.726   5.353   3.821
 3069SOL    HW210107   0.859   5.285   3.886
 3070SOL     OW10108   3.995   1.538   4.528
 3070SOL    HW110109   3.922   1.587   4.576
 3070SOL    HW210110   4.084   1.573   4.558
 3071SOL     OW10111   5.511   0.144   3.971
 3071SOL    HW110112   5.561   0.061   3.949
 3071SOL    HW210113   5.562   0.224   3.939
 3072SOL     OW10114   0.865   0.917   2.072
 3072SOL    HW110115   0.950   0.882   2.109
 3072SOL    HW210116   0.855   1.014   2.097
 3073SOL     OW10117   1.612   2.704   4.514
 3073SOL    HW110118   1.685   2.643   4.482
 3073SOL    HW210119   1.652   2.785   4.556
 3074SOL     OW10120   4.849   3.461   6.041
 3074SOL    HW110121   4.902   3.521   5.981
 3074SOL    HW210122   4.793   3.399   5.985
 3075SOL     OW10123   6.970   5.868   0.871
 3075SOL    HW110124   6.966   5.910   0.780
 3075SOL    HW210125   7.000   5.773   0.863
 3076SOL     OW10126   0.943   0.622   5.147
 3076SOL    HW110127   0.866   0.641   5.209
 3076SOL    HW210128   0.924   0.537   5.097
 3077SOL     OW10129   5.304   4.214   4.112
 3077SOL    HW110130   5.208   4.198   4.091
 3077SOL    HW210131   5.329   4.308   4.088
 3078SOL     OW10132   2.262   3.309   0.480
 3078SOL    HW110133   2.289   3.222   0.520
 3078SOL    HW210134   2.271   3.304   0.380
 3079SOL     OW10135   5.298   2.760   6.431
 3079SOL    HW110136   5.287   2.661   6.418
 3079SOL    HW210137   5.239   2.809   6.368
 3080SOL     OW10138   5.715   5.971   0.848
 3080SOL    HW110139   5.766   5.885   0.858
 3080SOL    HW210140   5.724   6.004   0.755
 3081SOL     OW10141   6.726   4.776   5.739
 3081SOL    HW110142   6.649   4.809   5.793
 3081SOL    HW210143   6.763   4.851   5.685
 3082SOL     OW10144   2.701   0.023   1.961
 3082SOL    HW110145   2.710   6.964   2.019
 3082SOL    HW210146   2.731   7.022   1.868
 3083SOL     OW10147   3.663   0.666   2.261
 3083SOL    HW110148   3.679   0.569   2.244
 3083SOL    HW210149   3.677   0.686   2.358
 3084SOL     OW10150   4.449   6.594   4.248
 3084SOL    HW110151   4.444   6.525   4.176
 3084SOL    HW210152   4.438   6.550   4.338
 3085SOL     OW10153   1.106   6.067   1.468
 3085SOL    HW110154   1.204   6.069   1.484
 3085SOL    HW210155   1.087   6.044   1.372
 3086SOL     OW10156   5.921   1.637   3.782
 3086SOL    HW110157   5.853   1.566   3.799
 3086SOL    HW210158   5.877   1.727   3.784
 3087SOL     OW10159   5.299   3.241   2.361
 3087SOL    HW110160   5.282   3.302   2.283
 3087SOL    HW210161   5.397   3.222   2.367
 3088SOL     OW10162   2.650   3.844   6.077
 3088SOL    HW110163   2.604   3.933   6.076
 3088SOL    HW210164   2.739   3.853   6.123
 3089SOL     OW10165   2.580   2.272   0.621
 3089SOL    HW110166   2.667   2.226   0.641
 3089SOL    HW210167   2.574   2.357   0.674
 3090SOL     OW10168   0.372   1.832   1.178
 3090SOL    HW110169   0.339   1.758   1.237
 3090SOL    HW210170   0.404   1.907   1.235
 3091SOL     OW10171   2.629   6.980   0.985
 3091SOL    HW110172   2.557   6.961   1.052
 3091SOL    HW210173   2.613   6.925   0.903
 3092SOL     OW10174   3.826   6.323   0.894
 3092SOL    HW110175   3.842   6.281   0.804
 3092SOL    HW210176   3.910   6.319   0.948
 3093SOL     OW10177   5.026   5.876   3.646
 3093SOL    HW110178   5.083   5.925   3.712
 3093SOL    HW210179   5.085   5.829   3.580
 3094SOL     OW10180   3.072   5.363   5.734
 3094SOL    HW110181   3.095   5.459   5.752
 3094SOL    HW210182   2.979   5.358   5.697
 3095SOL     OW10183   2.463   4.962   4.812
 3095SOL    HW110184   2.520   4.896   4.762
 3095SOL    HW210185   2.482   4.955   4.910
 3096SOL     OW10186   6.641   0.598   5.484
 3096SOL    HW110187   6.696   0.515   5.473
 3096SOL    HW210188   6.658   0.637   5.575
 3097SOL     OW10189   1.966   2.464   0.272
 3097SOL    HW110190   1.947   2.429   0.364
 3097SOL    HW210191   1.891   2.524   0.242
 3098SOL     OW10192   3.931   2.169   0.578
 3098SOL    HW110193   3.841   2.176   0.620
 3098SOL    HW210194   3.949   2.251   0.524
 3099SOL     OW10195   1.065   6.153   5.350
 3099SOL    HW110196   1.131   6.225   5.327
 3099SOL    HW210197   1.099   6.065   5.319
 3100SOL     OW10198   5.953   6.102   6.662
 3100SOL    HW110199   5.952   6.200   6.680
 3100SOL    HW210200   5.898   6.055   6.732
 3101SOL     OW10201   4.410   6.825   0.899
 3101SOL    HW110202   4.499   6.784   0.881
 3101SOL    HW210203   4.344   6.754   0.922
 3102SOL     OW10204   0.400   5.824   0.445
 3102SOL    HW110205   0.389   5.873   0.359
 3102SOL    HW210206   0.423   5.728   0.425
 3103SOL     OW10207   4.159   3.783   1.773
 3103SOL    HW110208   4.169   3.736   1.685
 3103SOL    HW210209   4.198   3.875   1.766
 3104SOL     OW10210   6.261   5.448   3.892
 3104SOL    HW110211   6.331   5.403   3.948
 3104SOL    HW210212   6.216   5.519   3.946
 3105SOL     OW10213   6.226   5.865   3.246
 3105SOL    HW110214   6.226   5.920   3.162
 3105SOL    HW210215   6.132   5.858   3.280
 3106SOL     OW10216   6.926   2.859   4.554
 3106SOL    HW110217   6.889   2.766   4.544
 3106SOL    HW210218   6.876   2.907   4.625
 3107SOL     OW10219   2.898   6.576   3.809
 3107SOL    HW110220   2.822   6.610   3.753
 3107SOL    HW210221   2.872   6.577   3.905
 3108SOL     OW10222   3.492   1.130   3.072
 3108SOL    HW110223   3.499   1.033   3.094
 3108SOL    HW210224   3.412   1.146   3.013
 3109SOL     OW10225   4.547   5.813   3.162
 3109SOL    HW110226   4.517   5.898   3.205
 3109SOL    HW210227   4.630   5.780   3.206
 3110SOL     OW10228   1.256   2.740   1.862
 3110SOL    HW110229   1.318   2.670   1.897
 3110SOL    HW210230   1.302   2.829   1.861
 3111SOL     OW10231   6.801   4.886   3.110
 3111SOL    HW110232   6.744   4.810   3.081
 3111SOL    HW210233   6.830   4.938   3.029
 3112SOL     OW10234   2.952   3.663   6.568
 3112SOL    HW110235   2.967   3.569   6.599
 3112SOL    HW210236   2.872   3.701   6.613
 3113SOL     OW10237   4.399   0.104   4.094
 3113SOL    HW110238   4.497   0.126   4.092
 3113SOL    HW210239   4.356   0.137   4.010
 3114SOL     OW10240   5.658   5.656   0.787
 3114SOL    HW110241   5.732   5.654   0.720
 3114SOL    HW210242   5.691   5.696   0.872
 3115SOL     OW10243   2.648   3.409   1.685
 3115SOL    HW110244   2.711   3.484   1.704
 3115SOL    HW210245   2.566   3.419   1.742
 3116SOL     OW10246   0.536   1.610   6.624
 3116SOL    HW110247   0.502   1.659   6.544
 3116SOL    HW210248   0.635   1.605   6.621
 3117SOL     OW10249   3.533   3.908   5.292
 3117SOL    HW110250   3.550   3.813   5.317
 3117SOL    HW210251   3.434   3.922   5.282
 3118SOL     OW10252   5.771   5.276   0.104
 3118SOL    HW110253   5.834   5.206   0.139
 3118SOL    HW210254   5.679   5.237   0.100
 3119SOL     OW10255   2.245   4.989   6.131
 3119SOL    HW110256   2.337   4.973   6.165
 3119SOL    HW210257   2.188   5.025   6.205
 3120SOL     OW10258   2.664   5.864   5.665
 3120SOL    HW110259   2.752   5.817   5.676
 3120SOL    HW210260   2.643   5.873   5.567
 3121SOL     OW10261   0.336   6.092   3.055
 3121SOL    HW110262   0.280   6.156   3.108
 3121SOL    HW210263   0.332   6.116   2.958
 3122SOL     OW10264   2.688   5.496   0.423
 3122SOL    HW110265   2.735   5.437   0.489
 3122SOL    HW210266   2.607   5.449   0.388
 3123SOL     OW10267   3.567   6.741   4.398
 3123SOL    HW110268   3.574   6.677   4.322
 3123SOL    HW210269   3.620   6.823   4.377
 3124SOL     OW10270   4.008   0.465   6.293
 3124SOL    HW110271   4.083   0.424   6.345
 3124SOL    HW210272   3.930   0.480   6.353
 3125SOL     OW10273   6.817   2.118   5.744
 3125SOL    HW110274   6.845   2.141   5.651
 3125SOL    HW210275   6.862   2.180   5.809
 3126SOL     OW10276   3.219   6.834   0.477
 3126SOL    HW110277   3.207   6.910   0.542
 3126SOL    HW210278   3.153   6.762   0.498
 3127SOL     OW10279   1.606   1.086   3.775
 3127SOL    HW110280   1.694   1.060   3.735
 3127SOL    HW210281   1.583   1.021   3.847
 3128SOL     OW10282   1.318   0.652   0.688
 3128SOL    HW110283   1.291   0.676   0.781
 3128SOL    HW210284   1.250   0.590   0.649
 3129SOL     OW10285   1.911   3.185   3.760
 3129SOL    HW110286   1.910   3.284   3.750
 3129SOL    HW210287   2.005   3.152   3.760
 3130SOL     OW10288   2.014   5.767   3.448
 3130SOL    HW110289   1.915   5.779   3.443
 3130SOL    HW210290   2.043   5.700   3.380
 3131SOL     OW10291   0.643   3.219   3.871
 3131SOL    HW110292   0.620   3.241   3.965
 3131SOL    HW210293   0.736   3.248   3.850
 3132SOL     OW10294   5.218   5.979   5.018
 3132SOL    HW110295   5.305   6.019   4.991
 3132SOL    HW210296   5.197   5.900   4.961
 3133SOL     OW10297   2.583   1.979   3.031
 3133SOL    HW110298   2.657   1.983   3.099
 3133SOL    HW210299   2.547   2.071   3.017
 3134SOL     OW10300   5.487   3.006   1.804
 3134SOL    HW110301   5.491   2.952   1.720
 3134SOL    HW210302   5.477   2.945   1.882
 3135SOL     OW10303   2.585   1.775   3.330
 3135SOL    HW110304   2.652   1.727   3.274
 3135SOL    HW210305   2.505   1.716   3.344
 3136SOL     OW10306   6.552   0.005   5.371
 3136SOL    HW110307   6.464   6.994   5.337
 3136SOL    HW210308   6.620   7.021   5.298
 3137SOL     OW10309   7.007   1.286   4.872
 3137SOL    HW110310   6.907   1.292   4.867
 3137SOL    HW210311   0.021   1.254   4.785
 3138SOL     OW10312   5.490   1.897   4.644
 3138SOL    HW110313   5.570   1.953   4.619
 3138SOL    HW210314   5.498   1.807   4.601
 3139SOL     OW10315   4.988   6.086   5.157
 3139SOL    HW110316   4.944   6.029   5.089
 3139SOL    HW210317   5.087   6.078   5.149
 3140SOL     OW10318   6.424   5.753   6.329
 3140SOL    HW110319   6.489   5.828   6.334
 3140SOL    HW210320   6.350   5.776   6.266
 3141SOL     OW10321   0.848   5.656   0.514
 3141SOL    HW110322   0.944   5.648   0.487
 3141SOL    HW210323   0.804   5.567   0.504
 3142SOL     OW10324   3.372   0.155   6.445
 3142SOL    HW110325   3.318   0.212   6.507
 3142SOL    HW210326   3.445   0.211   6.404
 3143SOL     OW10327   0.295   1.448   1.047
 3143SOL    HW110328   0.378   1.397   1.070
 3143SOL    HW210329   0.291   1.533   1.099
 3144SOL     OW10330   1.498   3.440   6.696
 3144SOL    HW110331   1.459   3.353   6.725
 3144SOL    HW210332   1.461   3.514   6.752
 3145SOL     OW10333   3.034   5.521   4.075
 3145SOL    HW110334   3.090   5.463   4.134
 3145SOL    HW210335   3.092   5.571   4.012
 3146SOL     OW10336   2.189   0.409   3.684
 3146SOL    HW110337   2.232   0.477   3.624
 3146SOL    HW210338   2.190   0.441   3.778
 3147SOL     OW10339   3.306   4.333   0.479
 3147SOL    HW110340   3.213   4.299   0.489
 3147SOL    HW210341   3.371   4.258   0.487
 3148SOL     OW10342   3.494   5.666   4.991
 3148SOL    HW110343   3.444   5.725   5.055
 3148SOL    HW210344   3.559   5.721   4.939
 3149SOL     OW10345   3.083   6.208   6.097
 3149SOL    HW110346   3.105   6.114   6.122
 3149SOL    HW210347   3.168   6.258   6.078
 3150SOL     OW10348   0.189   0.027   4.008
 3150SOL    HW110349   0.129   0.064   4.078
 3150SOL    HW210350   0.220   6.957   4.034
 3151SOL     OW10351   3.938   7.015   0.683
 3151SOL    HW110352   3.963   0.045   0.601
 3151SOL    HW210353   4.020   6.983   0.729
 3152SOL     OW10354   1.785   4.954   6.744
 3152SOL    HW110355   1.793   4.924   6.840
 3152SOL    HW210356   1.843   5.034   6.729
 3153SOL     OW10357   0.117   4.661   2.900
 3153SOL    HW110358   0.034   4.641   2.849
 3153SOL    HW210359   0.093   4.681   2.996
 3154SOL     OW10360   5.638   2.382   6.755
 3154SOL    HW110361   5.681   2.370   6.666
 3154SOL    HW210362   5.656   2.302   6.812
 3155SOL     OW10363   3.769   6.470   0.266
 3155SOL    HW110364   3.865   6.469   0.237
 3155SOL    HW210365   3.758   6.532   0.344
 3156SOL     OW10366   3.536   3.406   3.083
 3156SOL    HW110367   3.493   3.485   3.127
 3156SOL    HW210368   3.466   3.340   3.058
 3157SOL     OW10369   1.927   3.045   4.857
 3157SOL    HW110370   1.931   3.069   4.760
 3157SOL    HW210371   2.017   3.059   4.898
 3158SOL     OW10372   4.443   6.050   1.319
 3158SOL    HW110373   4.410   6.138   1.285
 3158SOL    HW210374   4.503   6.009   1.251
 3159SOL     OW10375   5.400   4.734   0.536
 3159SOL    HW110376   5.492   4.715   0.502
 3159SOL    HW210377   5.376   4.667   0.606
 3160SOL     OW10378   5.782   4.734   0.696
 3160SOL    HW110379   5.785   4.665   0.769
 3160SOL    HW210380   5.732   4.698   0.618
 3161SOL     OW10381   0.814   1.863   3.038
 3161SOL    HW110382   0.775   1.930   2.975
 3161SOL    HW210383   0.835   1.907   3.125
 3162SOL     OW10384   6.430   0.104   6.031
 3162SOL    HW110385   6.434   0.203   6.043
 3162SOL    HW210386   6.519   0.064   6.053
 3163SOL     OW10387   1.990   4.772   5.435
 3163SOL    HW110388   1.976   4.727   5.347
 3163SOL    HW210389   1.916   4.837   5.452
 3164SOL     OW10390   5.862   5.511   6.360
 3164SOL    HW110391   5.812   5.425   6.369
 3164SOL    HW210392   5.797   5.587   6.368
 3165SOL     OW10393   0.129   2.514   1.841
 3165SOL    HW110394   0.204   2.447   1.838
 3165SOL    HW210395   0.047   2.473   1.801
 3166SOL     OW10396   4.616   3.218   6.507
 3166SOL    HW110397   4.626   3.175   6.597
 3166SOL    HW210398   4.526   3.197   6.470
 3167SOL     OW10399   0.281   3.889   1.322
 3167SOL    HW110400   0.293   3.853   1.229
 3167SOL    HW210401   0.300   3.987   1.322
 3168SOL     OW10402   5.121   3.181   0.767
 3168SOL    HW110403   5.205   3.201   0.817
 3168SOL    HW210404   5.139   3.110   0.699
 3169SOL     OW10405   1.935   2.173   5.079
 3169SOL    HW110406   2.025   2.170   5.036
 3169SOL    HW210407   1.945   2.170   5.178
 3170SOL     OW10408   4.424   0.615   5.536
 3170SOL    HW110409   4.518   0.627   5.505
 3170SOL    HW210410   4.376   0.554   5.473
 3171SOL     OW10411   6.409   0.098   3.011
 3171SOL    HW110412   6.411   0.080   3.109
 3171SOL    HW210413   6.424   0.013   2.961
 3172SOL     OW10414   5.823   0.095   5.713
 3172SOL    HW110415   5.907   0.068   5.759
 3172SOL    HW210416   5.765   0.145   5.777
 3173SOL     OW10417   2.360   1.373   1.761
 3173SOL    HW110418   2.273   1.340   1.724
 3173SOL    HW210419   2.380   1.325   1.846
 3174SOL     OW10420   1.813   3.265   6.443
 3174SOL    HW110421   1.852   3.317   6.367
 3174SOL    HW210422   1.831   3.168   6.431
 3175SOL     OW10423   6.443   6.077   0.375
 3175SOL    HW110424   6.480   6.070   0.283
 3175SOL    HW210425   6.417   6.171   0.395
 3176SOL     OW10426   1.241   5.975   6.655
 3176SOL    HW110427   1.256   5.978   6.754
 3176SOL    HW210428   1.288   6.052   6.611
 3177SOL     OW10429   1.219   7.008   4.287
 3177SOL    HW110430   1.160   6.947   4.340
 3177SOL    HW210431   1.219   6.979   4.191
 3178SOL     OW10432   2.300   3.729   0.588
 3178SOL    HW110433   2.358   3.699   0.664
 3178SOL    HW210434   2.236   3.657   0.564
 3179SOL     OW10435   1.124   2.262   3.529
 3179SOL    HW110436   1.112   2.293   3.623
 3179SOL    HW210437   1.219   2.235   3.515
 3180SOL     OW10438   5.749   1.321   6.110
 3180SOL    HW110439   5.719   1.387   6.178
 3180SOL    HW210440   5.752   1.230   6.151
 3181SOL     OW10441   1.103   1.441   2.897
 3181SOL    HW110442   1.095   1.538   2.917
 3181SOL    HW210443   1.031   1.413   2.834
 3182SOL     OW10444   1.711   4.779   5.628
 3182SOL    HW110445   1.687   4.685   5.605
 3182SOL    HW210446   1.679   4.800   5.721
 3183SOL     OW10447   5.009   2.856   1.337
 3183SOL    HW110448   5.038   2.824   1.248
 3183SOL    HW210449   5.017   2.782   1.404
 3184SOL     OW10450   0.767   2.237   3.803
 3184SOL    HW110451   0.768   2.187   3.890
 3184SOL    HW210452   0.755   2.334   3.821
 3185SOL     OW10453   0.479   6.059   6.810
 3185SOL    HW110454   0.499   6.097   6.900
 3185SOL    HW210455   0.529   5.973   6.798
 3186SOL     OW10456   3.356   0.854   1.421
 3186SOL    HW110457   3.260   0.834   1.440
 3186SOL    HW210458   3.385   0.932   1.475
 3187SOL     OW10459   2.919   4.217   0.054
 3187SOL    HW110460   2.962   4.286   0.112
 3187SOL    HW210461   2.831   4.191   0.093
 3188SOL     OW10462   4.181   0.050   3.176
 3188SOL    HW110463   4.253   0.114   3.204
 3188SOL    HW210464   4.170   0.053   3.077
 3189SOL     OW10465   6.680   6.743   2.205
 3189SOL    HW110466   6.702   6.684   2.127
 3189SOL    HW210467   6.612   6.697   2.263
 3190SOL     OW10468   0.674   6.982   0.997
 3190SOL    HW110469   0.657   0.041   1.053
 3190SOL    HW210470   0.618   6.986   0.915
 3191SOL     OW10471   2.981   0.211   0.380
 3191SOL    HW110472   3.007   0.198   0.284
 3191SOL    HW210473   2.946   0.304   0.392
 3192SOL     OW10474   5.932   1.906   3.469
 3192SOL    HW110475   5.919   1.811   3.500
 3192SOL    HW210476   5.939   1.907   3.369
 3193SOL     OW10477   4.676   4.419   0.961
 3193SOL    HW110478   4.711   4.436   1.053
 3193SOL    HW210479   4.750   4.431   0.895
 3194SOL     OW10480   1.453   4.890   5.386
 3194SOL    HW110481   1.459   4.912   5.483
 3194SOL    HW210482   1.531   4.832   5.360
 3195SOL     OW10483   0.568   3.961   3.196
 3195SOL    HW110484   0.531   3.887   3.251
 3195SOL    HW210485   0.664   3.976   3.221
 3196SOL     OW10486   0.108   6.741   5.758
 3196SOL    HW110487   0.200   6.720   5.724
 3196SOL    HW210488   0.101   6.717   5.854
 3197SOL     OW10489   0.212   4.089   4.065
 3197SOL    HW110490   0.152   4.069   4.143
 3197SOL    HW210491   0.264   4.007   4.042
 3198SOL     OW10492   5.346   6.530   0.353
 3198SOL    HW110493   5.416   6.491   0.414
 3198SOL    HW210494   5.335   6.472   0.273
 3199SOL     OW10495   3.769   1.706   3.392
 3199SOL    HW110496   3.850   1.761   3.412
 3199SOL    HW210497   3.689   1.748   3.435
 3200SOL     OW10498   0.028   2.386   0.377
 3200SOL    HW110499   0.045   2.295   0.416
 3200SOL    HW210500   0.089   2.453   0.421
 3201SOL     OW10501   4.602   4.500   3.238
 3201SOL    HW110502   4.514   4.505   3.191
 3201SOL    HW210503   4.587   4.477   3.334
 3202SOL     OW10504   1.115   6.210   1.825
 3202SOL    HW110505   1.144   6.256   1.741
 3202SOL    HW210506   1.167   6.124   1.835
 3203SOL     OW10507   5.054   0.379   1.121
 3203SOL    HW110508   5.076   0.332   1.035
 3203SOL    HW210509   4.997   0.459   1.102
 3204SOL     OW10510   6.343   6.013   2.179
 3204SOL    HW110511   6.322   6.025   2.082
 3204SOL    HW210512   6.294   6.082   2.232
 3205SOL     OW10513   1.016   4.017   3.822
 3205SOL    HW110514   0.961   3.934   3.811
 3205SOL    HW210515   1.061   4.040   3.736
 3206SOL     OW10516   1.600   6.968   0.391
 3206SOL    HW110517   1.587   6.945   0.294
 3206SOL    HW210518   1.627   0.042   0.399
 3207SOL     OW10519   1.340   1.744   2.493
 3207SOL    HW110520   1.429   1.776   2.460
 3207SOL    HW210521   1.339   1.748   2.593
 3208SOL     OW10522   6.185   0.156   4.506
 3208SOL    HW110523   6.205   0.254   4.509
 3208SOL    HW210524   6.212   0.114   4.593
 3209SOL     OW10525   2.101   0.215   2.735
 3209SOL    HW110526   2.065   0.261   2.817
 3209SOL    HW210527   2.117   0.284   2.663
 3210SOL     OW10528   0.574   5.143   1.863
 3210SOL    HW110529   0.559   5.239   1.841
 3210SOL    HW210530   0.502   5.088   1.820
 3211SOL     OW10531   0.812   4.361   2.478
 3211SOL    HW110532   0.775   4.448   2.508
 3211SOL    HW210533   0.833   4.304   2.557
 3212SOL     OW10534   5.003   2.987   5.669
 3212SOL    HW110535   5.040   3.080   5.680
 3212SOL    HW210536   5.043   2.945   5.588
 3213SOL     OW10537   5.102   0.023   1.394
 3213SOL    HW110538   5.198   0.000   1.411
 3213SOL    HW210539   5.080   0.003   1.298
 3214SOL     OW10540   4.063   4.215   6.396
 3214SOL    HW110541   3.987   4.152   6.384
 3214SOL    HW210542   4.067   4.279   6.319
 3215SOL     OW10543   6.265   1.263   0.314
 3215SOL    HW110544   6.277   1.233   0.219
 3215SOL    HW210545   6.168   1.275   0.333
 3216SOL     OW10546   5.345   6.649   4.646
 3216SOL    HW110547   5.289   6.681   4.569
 3216SOL    HW210548   5.421   6.713   4.659
 3217SOL     OW10549   6.694   4.149   0.191
 3217SOL    HW110550   6.627   4.134   0.118
 3217SOL    HW210551   6.679   4.239   0.232
 3218SOL     OW10552   3.635   1.611   1.890
 3218SOL    HW110553   3.609   1.693   1.839
 3218SOL    HW210554   3.558   1.546   1.891
 3219SOL     OW10555   0.392   0.093   3.841
 3219SOL    HW110556   0.354   0.118   3.930
 3219SOL    HW210557   0.479   0.046   3.854
 3220SOL     OW10558   6.117   3.108   6.139
 3220SOL    HW110559   6.196   3.068   6.093
 3220SOL    HW210560   6.061   3.035   6.179
 3221SOL     OW10561   4.007   0.546   2.163
 3221SOL    HW110562   3.980   0.596   2.246
 3221SOL    HW210563   3.928   0.536   2.103
 3222SOL     OW10564   6.793   4.089   2.115
 3222SOL    HW110565   6.708   4.089   2.061
 3222SOL    HW210566   6.770   4.103   2.212
 3223SOL     OW10567   2.122   4.146   3.853
 3223SOL    HW110568   2.199   4.209   3.858
 3223SOL    HW210569   2.050   4.185   3.796
 3224SOL     OW10570   2.875   5.908   1.221
 3224SOL    HW110571   2.958   5.885   1.170
 3224SOL    HW210572   2.882   6.001   1.256
 3225SOL     OW10573   1.906   2.599   0.938
 3225SOL    HW110574   1.876   2.670   1.003
 3225SOL    HW210575   1.930   2.642   0.851
 3226SOL     OW10576   0.317   0.508   3.999
 3226SOL    HW110577   0.220   0.504   4.020
 3226SOL    HW210578   0.357   0.417   4.004
 3227SOL     OW10579   2.000   2.491   5.746
 3227SOL    HW110580   2.038   2.399   5.745
 3227SOL    HW210581   1.943   2.504   5.665
 3228SOL     OW10582   4.951   3.389   4.874
 3228SOL    HW110583   4.912   3.467   4.923
 3228SOL    HW210584   5.029   3.353   4.927
 3229SOL     OW10585   4.596   1.548   5.237
 3229SOL    HW110586   4.671   1.565   5.173
 3229SOL    HW210587   4.587   1.450   5.253
 3230SOL     OW10588   1.568   0.171   3.915
 3230SOL    HW110589   1.625   0.137   3.840
 3230SOL    HW210590   1.571   0.271   3.917
 3231SOL     OW10591   4.836   4.620   0.533
 3231SOL    HW110592   4.864   4.531   0.570
 3231SOL    HW210593   4.888   4.640   0.450
 3232SOL     OW10594   1.456   4.356   2.896
 3232SOL    HW110595   1.494   4.376   2.986
 3232SOL    HW210596   1.522   4.305   2.841
 3233SOL     OW10597   1.854   4.370   0.800
 3233SOL    HW110598   1.890   4.393   0.709
 3233SOL    HW210599   1.919   4.398   0.870
 3234SOL     OW10600   6.467   2.291   5.084
 3234SOL    HW110601   6.471   2.324   4.990
 3234SOL    HW210602   6.560   2.266   5.114
 3235SOL     OW10603   5.657   0.706   2.301
 3235SOL    HW110604   5.675   0.775   2.371
 3235SOL    HW210605   5.735   0.701   2.239
 3236SOL     OW10606   0.169   2.571   1.490
 3236SOL    HW110607   0.266   2.550   1.491
 3236SOL    HW210608   0.150   2.640   1.560
 3237SOL     OW10609   3.213   6.165   4.947
 3237SOL    HW110610   3.236   6.196   4.855
 3237SOL    HW210611   3.139   6.221   4.984
 3238SOL     OW10612   6.580   5.970   6.380
 3238SOL    HW110613   6.603   5.963   6.283
 3238SOL    HW210614   6.593   6.064   6.411
 3239SOL     OW10615   0.738   6.221   5.499
 3239SOL    HW110616   0.804   6.231   5.424
 3239SOL    HW210617   0.654   6.179   5.464
 3240SOL     OW10618   0.478   2.453   4.885
 3240SOL    HW110619   0.509   2.458   4.790
 3240SOL    HW210620   0.381   2.480   4.890
 3241SOL     OW10621   4.117   6.855   4.961
 3241SOL    HW110622   4.130   6.923   4.888
 3241SOL    HW210623   4.198   6.796   4.965
 3242SOL     OW10624   3.232   0.017   0.702
 3242SOL    HW110625   3.236   0.111   0.668
 3242SOL    HW210626   3.284   0.009   0.787
 3243SOL     OW10627   3.354   5.059   1.171
 3243SOL    HW110628   3.379   4.963   1.178
 3243SOL    HW210629   3.285   5.071   1.100
 3244SOL     OW10630   1.064   6.316   5.593
 3244SOL    HW110631   1.046   6.229   5.549
 3244SOL    HW210632   1.130   6.303   5.668
 3245SOL     OW10633   3.267   2.060   5.815
 3245SOL    HW110634   3.358   2.070   5.855
 3245SOL    HW210635   3.208   2.134   5.849
 3246SOL     OW10636   5.487   6.174   3.490
 3246SOL    HW110637   5.514   6.199   3.583
 3246SOL    HW210638   5.424   6.243   3.454
 3247SOL     OW10639   6.556   3.021   5.529
 3247SOL    HW110640   6.469   2.972   5.541
 3247SOL    HW210641   6.627   2.955   5.503
 3248SOL     OW10642   4.880   3.753   2.895
 3248SOL    HW110643   4.860   3.739   2.798
 3248SOL    HW210644   4.831   3.835   2.927
 3249SOL     OW10645   3.128   4.656   5.723
 3249SOL    HW110646   3.223   4.653   5.754
 3249SOL    HW210647   3.067   4.636   5.799
 3250SOL     OW10648   4.776   5.044   1.259
 3250SOL    HW110649   4.696   5.090   1.297
 3250SOL    HW210650   4.773   4.947   1.282
 3251SOL     OW10651   3.677   0.678   3.748
 3251SOL    HW110652   3.735   0.609   3.706
 3251SOL    HW210653   3.672   0.758   3.688
 3252SOL     OW10654   3.715   1.847   3.723
 3252SOL    HW110655   3.684   1.920   3.785
 3252SOL    HW210656   3.650   1.838   3.648
 3253SOL     OW10657   4.925   4.258   1.335
 3253SOL    HW110658   4.997   4.213   1.389
 3253SOL    HW210659   4.849   4.194   1.321
 3254SOL     OW10660   6.417   4.113   2.670
 3254SOL    HW110661   6.454   4.156   2.753
 3254SOL    HW210662   6.373   4.182   2.613
 3255SOL     OW10663   3.810   5.100   0.662
 3255SOL    HW110664   3.720   5.059   0.676
 3255SOL    HW210665   3.799   5.194   0.629
 3256SOL     OW10666   6.588   6.277   5.500
 3256SOL    HW110667   6.501   6.235   5.527
 3256SOL    HW210668   6.597   6.272   5.401
 3257SOL     OW10669   2.648   1.546   1.349
 3257SOL    HW110670   2.654   1.643   1.329
 3257SOL    HW210671   2.630   1.532   1.446
 3258SOL     OW10672   4.919   6.322   1.062
 3258SOL    HW110673   4.992   6.332   0.994
 3258SOL    HW210674   4.915   6.228   1.094
 3259SOL     OW10675   5.974   5.881   3.358
 3259SOL    HW110676   5.965   5.781   3.364
 3259SOL    HW210677   5.908   5.916   3.292
 3260SOL     OW10678   2.222   1.806   1.594
 3260SOL    HW110679   2.260   1.889   1.635
 3260SOL    HW210680   2.175   1.829   1.508
 3261SOL     OW10681   4.741   6.625   3.963
 3261SOL    HW110682   4.684   6.551   3.928
 3261SOL    HW210683   4.705   6.713   3.934
 3262SOL     OW10684   4.042   1.958   4.188
 3262SOL    HW110685   4.023   1.915   4.100
 3262SOL    HW210686   4.047   1.888   4.259
 3263SOL     OW10687   3.302   4.940   3.087
 3263SOL    HW110688   3.242   4.906   3.159
 3263SOL    HW210689   3.351   5.020   3.120
 3264SOL     OW10690   5.425   5.113   6.121
 3264SOL    HW110691   5.355   5.056   6.165
 3264SOL    HW210692   5.512   5.064   6.120
 3265SOL     OW10693   5.398   0.235   5.934
 3265SOL    HW110694   5.421   0.294   6.012
 3265SOL    HW210695   5.326   0.278   5.880
 3266SOL     OW10696   1.372   2.745   6.337
 3266SOL    HW110697   1.407   2.665   6.385
 3266SOL    HW210698   1.427   2.825   6.361
 3267SOL     OW10699   5.153   2.961   1.868
 3267SOL    HW110700   5.177   2.956   1.965
 3267SOL    HW210701   5.068   2.911   1.851
 3268SOL     OW10702   1.544   5.283   6.484
 3268SOL    HW110703   1.512   5.331   6.403
 3268SOL    HW210704   1.522   5.186   6.476
 3269SOL     OW10705   4.387   3.376   0.871
 3269SOL    HW110706   4.321   3.423   0.930
 3269SOL    HW210707   4.436   3.308   0.924
 3270SOL     OW10708   6.718   5.251   3.728
 3270SOL    HW110709   6.788   5.236   3.798
 3270SOL    HW210710   6.742   5.200   3.645
 3271SOL     OW10711   4.615   0.072   1.374
 3271SOL    HW110712   4.589   0.076   1.470
 3271SOL    HW210713   4.543   0.028   1.321
 3272SOL     OW10714   4.920   6.169   6.690
 3272SOL    HW110715   5.011   6.167   6.649
 3272SOL    HW210716   4.886   6.263   6.692
 3273SOL     OW10717   1.166   0.799   3.247
 3273SOL    HW110718   1.139   0.816   3.153
 3273SOL    HW210719   1.114   0.860   3.308
 3274SOL     OW10720   2.673   1.590   6.942
 3274SOL    HW110721   2.658   1.544   0.007
 3274SOL    HW210722   2.588   1.631   6.910
 3275SOL     OW10723   4.659   0.589   6.885
 3275SOL    HW110724   4.657   0.665   6.820
 3275SOL    HW210725   4.729   0.524   6.857
 3276SOL     OW10726   1.799   6.026   6.868
 3276SOL    HW110727   1.723   6.039   6.804
 3276SOL    HW210728   1.875   6.084   6.840
 3277SOL     OW10729   6.957   6.061   6.901
 3277SOL    HW110730   6.874   6.115   6.915
 3277SOL    HW210731   6.948   5.973   6.949
 3278SOL     OW10732   0.755   0.782   6.963
 3278SOL    HW110733   0.750   0.858   6.899
 3278SOL    HW210734   0.739   0.816   0.034
 3279SOL     OW10735   2.059   6.657   1.105
 3279SOL    HW110736   2.022   6.565   1.088
 3279SOL    HW210737   2.115   6.685   1.027
 3280SOL     OW10738   2.603   6.326   3.904
 3280SOL    HW110739   2.554   6.399   3.856
 3280SOL    HW210740   2.538   6.273   3.960
 3281SOL     OW10741   1.790   6.780   0.445
 3281SOL    HW110742   1.713   6.842   0.430
 3281SOL    HW210743   1.868   6.811   0.390
 3282SOL     OW10744   2.265   5.247   2.622
 3282SOL    HW110745   2.174   5.235   2.663
 3282SOL    HW210746   2.295   5.161   2.581
 3283SOL     OW10747   2.137   6.812   3.193
 3283SOL    HW110748   2.098   6.868   3.266
 3283SOL    HW210749   2.111   6.850   3.104
 3284SOL     OW10750   1.396   5.086   5.581
 3284SOL    HW110751   1.469   5.129   5.529
 3284SOL    HW210752   1.310   5.093   5.530
 3285SOL     OW10753   0.217   2.817   3.792
 3285SOL    HW110754   0.185   2.909   3.819
 3285SOL    HW210755   0.138   2.758   3.776
 3286SOL     OW10756   4.539   4.369   6.497
 3286SOL    HW110757   4.452   4.330   6.466
 3286SOL    HW210758   4.522   4.452   6.549
 3287SOL     OW10759   6.958   3.156   1.827
 3287SOL    HW110760   6.991   3.246   1.799
 3287SOL    HW210761   6.931   3.159   1.923
 3288SOL     OW10762   0.921   6.954   6.739
 3288SOL    HW110763   0.868   6.996   6.812
 3288SOL    HW210764   1.018   6.953   6.765
 3289SOL     OW10765   1.312   6.562   4.141
 3289SOL    HW110766   1.400   6.603   4.166
 3289SOL    HW210767   1.285   6.496   4.211
 3290SOL     OW10768   0.236   4.702   3.724
 3290SOL    HW110769   0.266   4.660   3.639
 3290SOL    HW210770   0.283   4.659   3.801
 3291SOL     OW10771   1.890   1.409   2.147
 3291SOL    HW110772   1.859   1.373   2.235
 3291SOL    HW210773   1.945   1.491   2.162
 3292SOL     OW10774   0.419   5.920   4.694
 3292SOL    HW110775   0.504   5.913   4.643
 3292SOL    HW210776   0.439   5.946   4.789
 3293SOL     OW10777   5.948   0.641   3.163
 3293SOL    HW110778   6.001   0.604   3.087
 3293SOL    HW210779   5.897   0.568   3.208
 3294SOL     OW10780   0.099   6.942   0.891
 3294SOL    HW110781   0.188   6.917   0.929
 3294SOL    HW210782   0.054   7.008   0.952
 3295SOL     OW10783   1.962   2.853   6.022
 3295SOL    HW110784   2.061   2.867   6.010
 3295SOL    HW210785   1.920   2.937   6.057
 3296SOL     OW10786   0.922   6.409   2.397
 3296SOL    HW110787   0.897   6.464   2.477
 3296SOL    HW210788   1.013   6.371   2.410
 3297SOL     OW10789   3.406   1.345   5.821
 3297SOL    HW110790   3.460   1.368   5.740
 3297SOL    HW210791   3.459   1.286   5.882
 3298SOL     OW10792   0.304   4.457   2.722
 3298SOL    HW110793   0.296   4.521   2.798
 3298SOL    HW210794   0.217   4.451   2.673
 3299SOL     OW10795   0.573   1.524   4.314
 3299SOL    HW110796   0.584   1.502   4.217
 3299SOL    HW210797   0.581   1.440   4.368
 3300SOL     OW10798   0.049   0.058   4.971
 3300SOL    HW110799   0.085   0.116   4.898
 3300SOL    HW210800   0.109   0.064   5.051
 3301SOL     OW10801   6.726   3.756   2.631
 3301SOL    HW110802   6.753   3.754   2.535
 3301SOL    HW210803   6.739   3.666   2.672
 3302SOL     OW10804   0.823   6.196   5.149
 3302SOL    HW110805   0.910   6.189   5.198
 3302SOL    HW210806   0.781   6.284   5.169
 3303SOL     OW10807   2.878   3.498   3.885
 3303SOL    HW110808   2.869   3.437   3.807
 3303SOL    HW210809   2.821   3.579   3.871
 3304SOL     OW10810   1.693   0.363   3.408
 3304SOL    HW110811   1.623   0.374   3.337
 3304SOL    HW210812   1.682   0.435   3.477
 3305SOL     OW10813   1.037   3.059   0.543
 3305SOL    HW110814   0.975   3.043   0.620
 3305SOL    HW210815   0.991   3.115   0.474
 3306SOL     OW10816   1.423   2.570   1.926
 3306SOL    HW110817   1.421   2.470   1.927
 3306SOL    HW210818   1.518   2.601   1.931
 3307SOL     OW10819   0.744   0.278   6.939
 3307SOL    HW110820   0.712   0.260   6.846
 3307SOL    HW210821   0.693   0.354   6.978
 3308SOL     OW10822   4.867   6.068   1.158
 3308SOL    HW110823   4.810   5.990   1.131
 3308SOL    HW210824   4.883   6.065   1.256
 3309SOL     OW10825   1.545   4.677   2.109
 3309SOL    HW110826   1.466   4.738   2.104
 3309SOL    HW210827   1.629   4.731   2.108
 3310SOL     OW10828   1.412   6.777   2.241
 3310SOL    HW110829   1.488   6.833   2.275
 3310SOL    HW210830   1.351   6.755   2.317
 3311SOL     OW10831   4.173   5.604   0.585
 3311SOL    HW110832   4.250   5.589   0.523
 3311SOL    HW210833   4.160   5.702   0.599
 3312SOL     OW10834   1.312   2.905   6.043
 3312SOL    HW110835   1.234   2.946   5.996
 3312SOL    HW210836   1.281   2.824   6.094
 3313SOL     OW10837   6.017   6.566   4.466
 3313SOL    HW110838   6.025   6.552   4.368
 3313SOL    HW210839   6.026   6.663   4.487
 3314SOL     OW10840   0.706   4.394   6.746
 3314SOL    HW110841   0.715   4.400   6.646
 3314SOL    HW210842   0.796   4.408   6.787
 3315SOL     OW10843   6.672   2.880   3.622
 3315SOL    HW110844   6.598   2.828   3.578
 3315SOL    HW210845   6.757   2.828   3.617
 3316SOL     OW10846   4.295   0.993   0.016
 3316SOL    HW110847   4.393   1.009   0.031
 3316SOL    HW210848   4.250   1.080   7.017
 3317SOL     OW10849   4.124   2.418   1.456
 3317SOL    HW110850   4.205   2.363   1.435
 3317SOL    HW210851   4.118   2.493   1.391
 3318SOL     OW10852   2.527   5.319   6.106
 3318SOL    HW110853   2.434   5.305   6.141
 3318SOL    HW210854   2.543   5.255   6.031
 3319SOL     OW10855   6.717   6.242   6.488
 3319SOL    HW110856   6.706   6.306   6.411
 3319SOL    HW210857   6.803   6.192   6.477
 3320SOL     OW10858   0.964   0.796   0.883
 3320SOL    HW110859   0.916   0.877   0.850
 3320SOL    HW210860   0.899   0.734   0.926
 3321SOL     OW10861   3.690   3.812   4.445
 3321SOL    HW110862   3.761   3.872   4.409
 3321SOL    HW210863   3.704   3.719   4.410
 3322SOL     OW10864   4.745   2.426   2.214
 3322SOL    HW110865   4.817   2.491   2.189
 3322SOL    HW210866   4.754   2.401   2.310
 3323SOL     OW10867   2.043   4.742   0.431
 3323SOL    HW110868   1.943   4.736   0.437
 3323SOL    HW210869   2.070   4.838   0.423
 3324SOL     OW10870   6.330   3.362   1.657
 3324SOL    HW110871   6.248   3.345   1.711
 3324SOL    HW210872   6.303   3.398   1.567
 3325SOL     OW10873   0.848   5.028   5.639
 3325SOL    HW110874   0.908   4.979   5.702
 3325SOL    HW210875   0.753   5.001   5.655
 3326SOL     OW10876   5.643   0.462   2.401
 3326SOL    HW110877   5.552   0.425   2.423
 3326SOL    HW210878   5.632   0.549   2.353
 3327SOL     OW10879   5.006   6.049   1.704
 3327SOL    HW110880   5.011   5.970   1.765
 3327SOL    HW210881   4.980   6.130   1.757
 3328SOL     OW10882   6.068   6.598   4.142
 3328SOL    HW110883   6.028   6.575   4.054
 3328SOL    HW210884   6.081   6.697   4.148
 3329SOL     OW10885   5.795   0.728   5.908
 3329SOL    HW110886   5.791   0.770   5.817
 3329SOL    HW210887   5.819   0.799   5.976
 3330SOL     OW10888   6.577   6.514   2.917
 3330SOL    HW110889   6.637   6.590   2.894
 3330SOL    HW210890   6.576   6.448   2.841
 3331SOL     OW10891   1.532   3.962   2.766
 3331SOL    HW110892   1.566   4.047   2.727
 3331SOL    HW210893   1.443   3.979   2.809
 3332SOL     OW10894   3.864   5.122   0.337
 3332SOL    HW110895   3.962   5.133   0.356
 3332SOL    HW210896   3.833   5.034   0.373
 3333SOL     OW10897   1.664   3.906   0.996
 3333SOL    HW110898   1.695   3.831   0.939
 3333SOL    HW210899   1.626   3.979   0.939
 3334SOL     OW10900   1.240   2.239   2.347
 3334SOL    HW110901   1.179   2.311   2.315
 3334SOL    HW210902   1.194   2.184   2.416
 3335SOL     OW10903   3.715   4.260   5.713
 3335SOL    HW110904   3.734   4.343   5.660
 3335SOL    HW210905   3.785   4.192   5.695
 3336SOL     OW10906   3.807   5.835   5.739
 3336SOL    HW110907   3.866   5.795   5.809
 3336SOL    HW210908   3.744   5.900   5.781
 3337SOL     OW10909   3.308   2.918   3.619
 3337SOL    HW110910   3.289   2.893   3.714
 3337SOL    HW210911   3.231   2.969   3.581
 3338SOL     OW10912   2.728   3.184   1.564
 3338SOL    HW110913   2.743   3.216   1.471
 3338SOL    HW210914   2.692   3.259   1.620
 3339SOL     OW10915   0.978   6.584   6.678
 3339SOL    HW110916   0.975   6.484   6.678
 3339SOL    HW210917   0.895   6.620   6.721
 3340SOL     OW10918   4.611   1.369   6.139
 3340SOL    HW110919   4.625   1.420   6.224
 3340SOL    HW210920   4.690   1.380   6.079
 3341SOL     OW10921   1.498   4.491   1.203
 3341SOL    HW110922   1.540   4.406   1.235
 3341SOL    HW210923   1.416   4.470   1.150
 3342SOL     OW10924   5.664   6.973   1.710
 3342SOL    HW110925   5.654   0.031   1.769
 3342SOL    HW210926   5.619   6.894   1.752
 3343SOL     OW10927   3.366   5.633   0.941
 3343SOL    HW110928   3.399   5.611   1.032
 3343SOL    HW210929   3.337   5.729   0.938
 3344SOL     OW10930   1.372   3.407   1.751
 3344SOL    HW110931   1.395   3.497   1.789
 3344SOL    HW210932   1.363   3.415   1.651
 3345SOL     OW10933   5.228   5.075   1.162
 3345SOL    HW110934   5.328   5.075   1.167
 3345SOL    HW210935   5.194   4.983   1.180
 3346SOL     OW10936   1.179   0.815   6.962
 3346SOL    HW110937   1.255   0.750   6.963
 3346SOL    HW210938   1.116   0.794   0.015
 3347SOL     OW10939   0.977   4.149   5.805
 3347SOL    HW110940   1.005   4.199   5.887
 3347SOL    HW210941   1.019   4.191   5.725
 3348SOL     OW10942   3.526   4.206   5.906
 3348SOL    HW110943   3.617   4.227   5.870
 3348SOL    HW210944   3.535   4.147   5.986
 3349SOL     OW10945   1.667   5.684   1.702
 3349SOL    HW110946   1.681   5.644   1.611
 3349SOL    HW210947   1.569   5.697   1.718
 3350SOL     OW10948   2.453   5.156   5.253
 3350SOL    HW110949   2.442   5.095   5.332
 3350SOL    HW210950   2.450   5.103   5.169
 3351SOL     OW10951   5.199   6.703   1.363
 3351SOL    HW110952   5.218   6.740   1.272
 3351SOL    HW210953   5.277   6.720   1.423
 3352SOL     OW10954   5.361   1.433   6.806
 3352SOL    HW110955   5.294   1.486   6.754
 3352SOL    HW210956   5.421   1.494   6.856
 3353SOL     OW10957   3.941   0.637   6.705
 3353SOL    HW110958   3.997   0.684   6.637
 3353SOL    HW210959   3.879   0.703   6.747
 3354SOL     OW10960   2.367   2.731   0.217
 3354SOL    HW110961   2.409   2.641   0.211
 3354SOL    HW210962   2.362   2.772   0.127
 3355SOL     OW10963   1.292   0.924   4.895
 3355SOL    HW110964   1.237   0.848   4.860
 3355SOL    HW210965   1.236   0.980   4.956
 3356SOL     OW10966   3.165   1.049   6.034
 3356SOL    HW110967   3.159   0.999   5.947
 3356SOL    HW210968   3.114   1.134   6.027
 3357SOL     OW10969   2.893   3.640   3.191
 3357SOL    HW110970   2.862   3.545   3.184
 3357SOL    HW210971   2.911   3.662   3.287
 3358SOL     OW10972   0.119   2.008   1.146
 3358SOL    HW110973   0.162   1.943   1.209
 3358SOL    HW210974   0.189   2.072   1.112
 3359SOL     OW10975   1.192   6.971   4.007
 3359SOL    HW110976   1.207   0.044   3.980
 3359SOL    HW210977   1.275   6.918   3.990
 3360SOL     OW10978   1.373   5.523   4.856
 3360SOL    HW110979   1.316   5.446   4.827
 3360SOL    HW210980   1.417   5.501   4.943
 3361SOL     OW10981   6.865   6.994   4.260
 3361SOL    HW110982   6.781   6.971   4.309
 3361SOL    HW210983   6.844   0.035   4.185
 3362SOL     OW10984   3.669   0.508   4.288
 3362SOL    HW110985   3.645   0.601   4.259
 3362SOL    HW210986   3.762   0.487   4.257
 3363SOL     OW10987   4.977   3.474   0.458
 3363SOL    HW110988   5.070   3.458   0.491
 3363SOL    HW210989   4.916   3.489   0.536
 3364SOL     OW10990   1.616   3.624   1.537
 3364SOL    HW110991   1.631   3.550   1.471
 3364SOL    HW210992   1.685   3.619   1.609
 3365SOL     OW10993   1.132   2.803   2.851
 3365SOL    HW110994   1.230   2.819   2.840
 3365SOL    HW210995   1.082   2.840   2.773
 3366SOL     OW10996   5.951   2.612   3.956
 3366SOL    HW110997   5.968   2.569   4.045
 3366SOL    HW210998   5.976   2.549   3.883
 3367SOL     OW10999   3.509   2.998   3.828
 3367SOL    HW111000   3.531   2.936   3.753
 3367SOL    HW211001   3.412   2.988   3.853
 3368SOL     OW11002   2.361   0.923   3.622
 3368SOL    HW111003   2.404   0.967   3.701
 3368SOL    HW211004   2.431   0.885   3.562
 3369SOL     OW11005   4.942   2.587   1.257
 3369SOL    HW111006   5.041   2.580   1.269
 3369SOL    HW211007   4.922   2.648   1.181
 3370SOL     OW11008   0.753   5.616   2.782
 3370SOL    HW111009   0.741   5.572   2.693
 3370SOL    HW211010   0.692   5.574   2.849
 3371SOL     OW11011   2.355   2.807   1.162
 3371SOL    HW111012   2.270   2.829   1.114
 3371SOL    HW211013   2.424   2.778   1.095
 3372SOL     OW11014   5.732   2.624   3.281
 3372SOL    HW111015   5.705   2.719   3.301
 3372SOL    HW211016   5.664   2.582   3.222
 3373SOL     OW11017   6.933   4.475   0.345
 3373SOL    HW111018   6.984   4.552   0.385
 3373SOL    HW211019   6.848   4.462   0.396
 3374SOL     OW11020   1.073   5.532   4.043
 3374SOL    HW111021   1.043   5.607   4.103
 3374SOL    HW211022   1.056   5.558   3.948
 3375SOL     OW11023   0.273   6.188   5.724
 3375SOL    HW111024   0.175   6.207   5.723
 3375SOL    HW211025   0.323   6.269   5.756
 3376SOL     OW11026   3.267   3.859   4.959
 3376SOL    HW111027   3.216   3.795   4.901
 3376SOL    HW211028   3.204   3.928   4.996
 3377SOL     OW11029   0.014   5.584   4.159
 3377SOL    HW111030   0.103   5.552   4.128
 3377SOL    HW211031   6.977   5.603   4.080
 3378SOL     OW11032   1.327   5.745   0.153
 3378SOL    HW111033   1.250   5.682   0.146
 3378SOL    HW211034   1.307   5.816   0.220
 3379SOL     OW11035   5.857   4.268   4.148
 3379SOL    HW111036   5.831   4.315   4.064
 3379SOL    HW211037   5.956   4.277   4.162
 3380SOL     OW11038   2.039   5.471   1.999
 3380SOL    HW111039   2.087   5.557   1.981
 3380SOL    HW211040   2.048   5.447   2.096
 3381SOL     OW11041   2.953   4.072   6.478
 3381SOL    HW111042   3.021   3.999   6.488
 3381SOL    HW211043   2.866   4.033   6.450
 3382SOL     OW11044   0.090   4.041   6.534
 3382SOL    HW111045   0.153   4.101   6.584
 3382SOL    HW211046   0.052   3.973   6.596
 3383SOL     OW11047   2.913   5.964   0.796
 3383SOL    HW111048   2.982   6.034   0.813
 3383SOL    HW211049   2.828   6.008   0.767
 3384SOL     OW11050   2.611   2.846   6.475
 3384SOL    HW111051   2.696   2.859   6.425
 3384SOL    HW211052   2.596   2.749   6.492
 3385SOL     OW11053   5.550   2.661   4.809
 3385SOL    HW111054   5.593   2.589   4.865
 3385SOL    HW211055   5.562   2.750   4.853
 3386SOL     OW11056   0.242   5.347   5.093
 3386SOL    HW111057   0.192   5.380   5.013
 3386SOL    HW211058   0.222   5.406   5.171
 3387SOL     OW11059   6.090   0.060   2.619
 3387SOL    HW111060   6.089   0.059   2.519
 3387SOL    HW211061   6.052   0.146   2.652
 3388SOL     OW11062   0.668   4.057   0.234
 3388SOL    HW111063   0.634   4.113   0.159
 3388SOL    HW211064   0.660   3.961   0.210
 3389SOL     OW11065   6.473   5.131   5.978
 3389SOL    HW111066   6.448   5.164   5.886
 3389SOL    HW211067   6.396   5.146   6.040
 3390SOL     OW11068   3.060   5.384   0.784
 3390SOL    HW111069   3.156   5.356   0.786
 3390SOL    HW211070   3.047   5.465   0.842
 3391SOL     OW11071   5.617   4.089   5.609
 3391SOL    HW111072   5.598   4.142   5.526
 3391SOL    HW211073   5.637   3.995   5.584
 3392SOL     OW11074   5.254   6.344   5.706
 3392SOL    HW111075   5.179   6.278   5.704
 3392SOL    HW211076   5.303   6.342   5.619
 3393SOL     OW11077   3.629   0.099   0.618
 3393SOL    HW111078   3.563   0.026   0.636
 3393SOL    HW211079   3.636   0.158   0.698
 3394SOL     OW11080   2.828   5.663   1.616
 3394SOL    HW111081   2.734   5.660   1.651
 3394SOL    HW211082   2.827   5.651   1.517
 3395SOL     OW11083   1.949   6.458   3.326
 3395SOL    HW111084   1.914   6.461   3.232
 3395SOL    HW211085   2.047   6.478   3.325
 3396SOL     OW11086   4.594   0.686   4.578
 3396SOL    HW111087   4.574   0.681   4.480
 3396SOL    HW211088   4.537   0.620   4.627
 3397SOL     OW11089   2.120   6.215   1.021
 3397SOL    HW111090   2.092   6.311   1.022
 3397SOL    HW211091   2.096   6.175   0.932
 3398SOL     OW11092   6.627   1.036   6.634
 3398SOL    HW111093   6.649   1.073   6.724
 3398SOL    HW211094   6.652   1.102   6.563
 3399SOL     OW11095   0.275   5.913   2.266
 3399SOL    HW111096   0.256   5.970   2.186
 3399SOL    HW211097   0.353   5.949   2.316
 3400SOL     OW11098   3.547   3.078   5.812
 3400SOL    HW111099   3.461   3.084   5.761
 3400SOL    HW211100   3.536   3.123   5.900
 3401SOL     OW11101   6.673   3.367   4.166
 3401SOL    HW111102   6.746   3.355   4.100
 3401SOL    HW211103   6.593   3.406   4.120
 3402SOL     OW11104   5.565   3.411   0.184
 3402SOL    HW111105   5.612   3.448   0.103
 3402SOL    HW211106   5.539   3.316   0.167
 3403SOL     OW11107   5.400   6.660   4.308
 3403SOL    HW111108   5.370   6.576   4.262
 3403SOL    HW211109   5.499   6.669   4.300
 3404SOL     OW11110   5.365   5.257   3.290
 3404SOL    HW111111   5.395   5.164   3.312
 3404SOL    HW211112   5.362   5.269   3.191
 3405SOL     OW11113   4.270   5.838   1.313
 3405SOL    HW111114   4.194   5.854   1.249
 3405SOL    HW211115   4.329   5.919   1.316
 3406SOL     OW11116   4.285   5.033   1.317
 3406SOL    HW111117   4.237   5.118   1.297
 3406SOL    HW211118   4.243   4.958   1.266
 3407SOL     OW11119   1.560   2.691   0.439
 3407SOL    HW111120   1.596   2.706   0.348
 3407SOL    HW211121   1.627   2.640   0.493
 3408SOL     OW11122   3.828   6.558   3.887
 3408SOL    HW111123   3.845   6.485   3.953
 3408SOL    HW211124   3.735   6.551   3.853
 3409SOL     OW11125   4.453   1.801   6.950
 3409SOL    HW111126   4.355   1.804   6.930
 3409SOL    HW211127   4.472   1.855   0.011
 3410SOL     OW11128   6.881   0.719   2.294
 3410SOL    HW111129   6.918   0.642   2.347
 3410SOL    HW211130   6.864   0.688   2.200
 3411SOL     OW11131   5.769   3.555   6.171
 3411SOL    HW111132   5.822   3.584   6.251
 3411SOL    HW211133   5.824   3.492   6.116
 3412SOL     OW11134   5.326   2.963   3.461
 3412SOL    HW111135   5.394   3.001   3.524
 3412SOL    HW211136   5.252   3.029   3.448
 3413SOL     OW11137   0.091   2.755   1.295
 3413SOL    HW111138   0.113   2.850   1.317
 3413SOL    HW211139   0.137   2.694   1.359
 3414SOL     OW11140   3.867   2.966   1.713
 3414SOL    HW111141   3.927   2.906   1.660
 3414SOL    HW211142   3.810   3.019   1.650
 3415SOL     OW11143   2.369   1.168   6.377
 3415SOL    HW111144   2.411   1.256   6.357
 3415SOL    HW211145   2.437   1.106   6.416
 3416SOL     OW11146   5.361   6.440   5.920
 3416SOL    HW111147   5.424   6.508   5.883
 3416SOL    HW211148   5.320   6.387   5.845
 3417SOL     OW11149   5.775   0.597   2.613
 3417SOL    HW111150   5.727   0.539   2.547
 3417SOL    HW211151   5.816   0.674   2.565
 3418SOL     OW11152   3.900   5.875   0.558
 3418SOL    HW111153   3.869   5.881   0.653
 3418SOL    HW211154   3.891   5.781   0.525
 3419SOL     OW11155   3.138   4.672   5.318
 3419SOL    HW111156   3.076   4.623   5.256
 3419SOL    HW211157   3.184   4.607   5.378
 3420SOL     OW11158   4.304   0.767   1.721
 3420SOL    HW111159   4.341   0.823   1.647
 3420SOL    HW211160   4.295   0.672   1.690
 3421SOL     OW11161   0.241   1.223   4.610
 3421SOL    HW111162   0.261   1.126   4.603
 3421SOL    HW211163   0.287   1.261   4.690
 3422SOL     OW11164   3.418   5.459   1.829
 3422SOL    HW111165   3.344   5.525   1.831
 3422SOL    HW211166   3.400   5.386   1.895
 3423SOL     OW11167   2.649   4.637   6.207
 3423SOL    HW111168   2.715   4.664   6.138
 3423SOL    HW211169   2.560   4.621   6.164
 3424SOL     OW11170   5.473   6.935   2.323
 3424SOL    HW111171   5.452   6.978   2.235
 3424SOL    HW211172   5.397   6.951   2.386
 3425SOL     OW11173   5.616   3.076   6.407
 3425SOL    HW111174   5.587   2.983   6.427
 3425SOL    HW211175   5.637   3.084   6.310
 3426SOL     OW11176   6.796   5.576   6.587
 3426SOL    HW111177   6.812   5.532   6.676
 3426SOL    HW211178   6.700   5.605   6.582
 3427SOL     OW11179   1.858   1.652   6.557
 3427SOL    HW111180   1.817   1.571   6.598
 3427SOL    HW211181   1.787   1.720   6.540
 3428SOL     OW11182   4.861   0.480   4.009
 3428SOL    HW111183   4.847   0.460   4.106
 3428SOL    HW211184   4.942   0.430   3.977
 3429SOL     OW11185   4.089   6.072   0.461
 3429SOL    HW111186   4.014   6.007   0.473
 3429SOL    HW211187   4.170   6.038   0.509
 3430SOL     OW11188   3.032   4.644   6.732
 3430SOL    HW111189   3.033   4.675   6.637
 3430SOL    HW211190   2.942   4.662   6.772
 3431SOL     OW11191   1.050   4.588   2.823
 3431SOL    HW111192   1.089   4.496   2.825
 3431SOL    HW211193   1.029   4.617   2.917
 3432SOL     OW11194   0.427   5.258   6.715
 3432SOL    HW111195   0.427   5.258   6.815
 3432SOL    HW211196   0.425   5.352   6.681
 3433SOL     OW11197   0.855   0.530   0.564
 3433SOL    HW111198   0.848   0.624   0.599
 3433SOL    HW211199   0.943   0.491   0.592
 3434SOL     OW11200   4.488   2.417   2.468
 3434SOL    HW111201   4.583   2.388   2.455
 3434SOL    HW211202   4.447   2.362   2.542
 3435SOL     OW11203   1.833   2.987   1.058
 3435SOL    HW111204   1.798   2.918   1.122
 3435SOL    HW211205   1.933   2.987   1.060
 3436SOL     OW11206   4.267   6.117   5.773
 3436SOL    HW111207   4.252   6.074   5.683
 3436SOL    HW211208   4.352   6.170   5.771
 3437SOL     OW11209   1.499   6.868   0.135
 3437SOL    HW111210   1.564   6.793   0.125
 3437SOL    HW211211   1.476   6.905   0.045
 3438SOL     OW11212   2.109   4.168   0.460
 3438SOL    HW111213   2.106   4.180   0.361
 3438SOL    HW211214   2.090   4.072   0.482
 3439SOL     OW11215   2.553   6.163   1.286
 3439SOL    HW111216   2.577   6.068   1.307
 3439SOL    HW211217   2.605   6.193   1.205
 3440SOL     OW11218   3.850   3.920   5.827
 3440SOL    HW111219   3.774   3.941   5.889
 3440SOL    HW211220   3.910   3.853   5.871
 3441SOL     OW11221   6.718   5.008   4.764
 3441SOL    HW111222   6.643   5.025   4.828
 3441SOL    HW211223   6.801   5.053   4.797
 3442SOL     OW11224   1.114   1.860   0.628
 3442SOL    HW111225   1.076   1.871   0.536
 3442SOL    HW211226   1.078   1.776   0.670
 3443SOL     OW11227   0.287   5.536   2.434
 3443SOL    HW111228   0.212   5.471   2.440
 3443SOL    HW211229   0.256   5.625   2.467
 3444SOL     OW11230   1.044   4.408   6.498
 3444SOL    HW111231   1.126   4.444   6.454
 3444SOL    HW211232   1.019   4.321   6.455
 3445SOL     OW11233   5.866   5.517   4.312
 3445SOL    HW111234   5.896   5.612   4.323
 3445SOL    HW211235   5.860   5.496   4.214
 3446SOL     OW11236   5.158   1.454   0.315
 3446SOL    HW111237   5.107   1.405   0.245
 3446SOL    HW211238   5.095   1.482   0.388
 3447SOL     OW11239   5.358   1.504   5.731
 3447SOL    HW111240   5.314   1.480   5.645
 3447SOL    HW211241   5.293   1.492   5.806
 3448SOL     OW11242   0.560   5.009   5.219
 3448SOL    HW111243   0.538   4.948   5.143
 3448SOL    HW211244   0.642   4.977   5.266
 3449SOL     OW11245   1.542   3.826   5.015
 3449SOL    HW111246   1.617   3.762   5.007
 3449SOL    HW211247   1.455   3.777   5.015
 3450SOL     OW11248   2.691   6.540   2.126
 3450SOL    HW111249   2.708   6.471   2.056
 3450SOL    HW211250   2.594   6.540   2.150
 3451SOL     OW11251   1.770   1.824   0.513
 3451SOL    HW111252   1.704   1.760   0.473
 3451SOL    HW211253   1.759   1.914   0.472
 3452SOL     OW11254   4.499   1.053   6.192
 3452SOL    HW111255   4.516   1.046   6.290
 3452SOL    HW211256   4.504   1.149   6.164
 3453SOL     OW11257   4.459   6.324   5.364
 3453SOL    HW111258   4.467   6.328   5.265
 3453SOL    HW211259   4.522   6.255   5.400
 3454SOL     OW11260   1.348   2.941   3.236
 3454SOL    HW111261   1.336   3.026   3.288
 3454SOL    HW211262   1.264   2.923   3.184
 3455SOL     OW11263   1.022   4.507   6.172
 3455SOL    HW111264   1.003   4.604   6.192
 3455SOL    HW211265   1.115   4.485   6.201
 3456SOL     OW11266   4.347   5.185   3.301
 3456SOL    HW111267   4.417   5.255   3.314
 3456SOL    HW211268   4.355   5.146   3.209
 3457SOL     OW11269   3.979   4.085   0.091
 3457SOL    HW111270   3.926   4.062   0.173
 3457SOL    HW211271   3.922   4.139   0.029
 3458SOL     OW11272   4.482   1.901   1.012
 3458SOL    HW111273   4.396   1.952   1.016
 3458SOL    HW211274   4.501   1.876   0.917
 3459SOL     OW11275   6.788   6.751   2.623
 3459SOL    HW111276   6.783   6.721   2.719
 3459SOL    HW211277   6.800   6.671   2.564
 3460SOL     OW11278   4.124   1.147   5.472
 3460SOL    HW111279   4.084   1.239   5.469
 3460SOL    HW211280   4.129   1.117   5.567
 3461SOL     OW11281   4.732   4.244   3.519
 3461SOL    HW111282   4.730   4.262   3.617
 3461SOL    HW211283   4.776   4.156   3.502
 3462SOL     OW11284   1.061   4.985   6.393
 3462SOL    HW111285   0.986   5.049   6.411
 3462SOL    HW211286   1.097   4.952   6.481
 3463SOL     OW11287   5.964   4.052   0.040
 3463SOL    HW111288   5.923   4.015   6.978
 3463SOL    HW211289   5.892   4.074   0.106
 3464SOL     OW11290   0.071   4.487   3.735
 3464SOL    HW111291   0.102   4.582   3.733
 3464SOL    HW211292   0.042   4.463   3.827
 3465SOL     OW11293   0.974   2.881   1.257
 3465SOL    HW111294   0.950   2.797   1.305
 3465SOL    HW211295   1.013   2.946   1.323
 3466SOL     OW11296   6.203   3.950   3.449
 3466SOL    HW111297   6.130   3.905   3.500
 3466SOL    HW211298   6.236   3.889   3.377
 3467SOL     OW11299   1.607   2.655   6.003
 3467SOL    HW111300   1.697   2.623   5.973
 3467SOL    HW211301   1.591   2.627   6.097
 3468SOL     OW11302   4.551   5.721   1.723
 3468SOL    HW111303   4.610   5.801   1.712
 3468SOL    HW211304   4.514   5.719   1.816
 3469SOL     OW11305   5.083   4.260   0.179
 3469SOL    HW111306   5.135   4.296   0.101
 3469SOL    HW211307   5.110   4.166   0.196
 3470SOL     OW11308   6.270   5.214   0.947
 3470SOL    HW111309   6.288   5.287   0.881
 3470SOL    HW211310   6.196   5.243   1.008
 3471SOL     OW11311   4.083   6.657   4.611
 3471SOL    HW111312   4.024   6.719   4.664
 3471SOL    HW211313   4.179   6.672   4.638
 3472SOL     OW11314   4.213   0.325   5.055
 3472SOL    HW111315   4.120   0.298   5.082
 3472SOL    HW211316   4.230   0.296   4.960
 3473SOL     OW11317   4.418   6.427   4.050
 3473SOL    HW111318   4.491   6.407   3.985
 3473SOL    HW211319   4.333   6.444   4.001
 3474SOL     OW11320   4.326   4.703   0.280
 3474SOL    HW111321   4.328   4.715   0.180
 3474SOL    HW211322   4.233   4.681   0.308
 3475SOL     OW11323   1.226   5.045   5.319
 3475SOL    HW111324   1.203   5.040   5.222
 3475SOL    HW211325   1.297   4.977   5.340
 3476SOL     OW11326   4.025   1.583   3.769
 3476SOL    HW111327   3.989   1.532   3.691
 3476SOL    HW211328   3.993   1.678   3.763
 3477SOL     OW11329   4.780   5.442   2.336
 3477SOL    HW111330   4.709   5.416   2.271
 3477SOL    HW211331   4.843   5.365   2.349
 3478SOL     OW11332   3.448   4.057   0.514
 3478SOL    HW111333   3.349   4.045   0.508
 3478SOL    HW211334   3.493   3.969   0.496
 3479SOL     OW11335   1.831   0.540   0.072
 3479SOL    HW111336   1.785   0.628   0.067
 3479SOL    HW211337   1.765   0.469   0.098
 3480SOL     OW11338   1.225   6.475   4.385
 3480SOL    HW111339   1.207   6.560   4.434
 3480SOL    HW211340   1.203   6.398   4.445
 3481SOL     OW11341   2.228   5.537   0.119
 3481SOL    HW111342   2.163   5.483   0.064
 3481SOL    HW211343   2.196   5.631   0.125
 3482SOL     OW11344   0.185   2.097   1.524
 3482SOL    HW111345   0.135   2.051   1.598
 3482SOL    HW211346   0.131   2.176   1.492
 3483SOL     OW11347   3.969   0.860   0.921
 3483SOL    HW111348   3.911   0.851   1.002
 3483SOL    HW211349   3.915   0.895   0.845
 3484SOL     OW11350   3.732   4.001   3.093
 3484SOL    HW111351   3.828   3.978   3.076
 3484SOL    HW211352   3.683   4.007   3.006
 3485SOL     OW11353   6.050   2.214   5.090
 3485SOL    HW111354   6.126   2.150   5.101
 3485SOL    HW211355   6.024   2.250   5.180
 3486SOL     OW11356   5.649   0.988   3.293
 3486SOL    HW111357   5.708   1.067   3.273
 3486SOL    HW211358   5.586   0.973   3.217
 3487SOL     OW11359   1.252   6.955   0.976
 3487SOL    HW111360   1.279   0.024   1.009
 3487SOL    HW211361   1.174   6.964   0.915
 3488SOL     OW11362   6.238   4.034   5.196
 3488SOL    HW111363   6.209   4.003   5.106
 3488SOL    HW211364   6.212   4.130   5.208
 3489SOL     OW11365   3.307   5.295   6.727
 3489SOL    HW111366   3.388   5.340   6.690
 3489SOL    HW211367   3.290   5.210   6.678
 3490SOL     OW11368   4.662   3.889   0.060
 3490SOL    HW111369   4.753   3.866   0.094
 3490SOL    HW211370   4.662   3.982   0.025
 3491SOL     OW11371   5.620   2.770   5.347
 3491SOL    HW111372   5.579   2.818   5.269
 3491SOL    HW211373   5.658   2.683   5.317
 3492SOL     OW11374   6.464   4.421   6.505
 3492SOL    HW111375   6.476   4.330   6.544
 3492SOL    HW211376   6.532   4.437   6.434
 3493SOL     OW11377   6.469   4.240   1.120
 3493SOL    HW111378   6.413   4.283   1.191
 3493SOL    HW211379   6.488   4.306   1.047
 3494SOL     OW11380   3.336   6.250   1.381
 3494SOL    HW111381   3.431   6.220   1.385
 3494SOL    HW211382   3.316   6.284   1.289
 3495SOL     OW11383   5.990   4.660   6.103
 3495SOL    HW111384   5.978   4.640   6.200
 3495SOL    HW211385   5.933   4.737   6.077
 3496SOL     OW11386   0.424   6.050   1.023
 3496SOL    HW111387   0.381   6.058   0.933
 3496SOL    HW211388   0.484   6.128   1.038
 3497SOL     OW11389   3.375   0.271   5.018
 3497SOL    HW111390   3.374   0.358   5.067
 3497SOL    HW211391   3.315   0.206   5.065
 3498SOL     OW11392   0.728   1.689   0.181
 3498SOL    HW111393   0.756   1.783   0.162
 3498SOL    HW211394   0.802   1.627   0.155
 3499SOL     OW11395   6.789   3.987   4.231
 3499SOL    HW111396   6.719   3.954   4.293
 3499SOL    HW211397   6.751   4.055   4.169
 3500SOL     OW11398   6.004   2.700   0.889
 3500SOL    HW111399   6.011   2.743   0.979
 3500SOL    HW211400   6.080   2.730   0.831
 3501SOL     OW11401   0.639   5.290   3.042
 3501SOL    HW111402   0.700   5.298   2.963
 3501SOL    HW211403   0.612   5.194   3.054
 3502SOL     OW11404   1.194   5.657   1.054
 3502SOL    HW111405   1.243   5.652   0.967
 3502SOL    HW211406   1.151   5.569   1.074
 3503SOL     OW11407   3.438   6.903   3.623
 3503SOL    HW111408   3.392   6.921   3.537
 3503SOL    HW211409   3.517   6.843   3.607
 3504SOL     OW11410   1.928   3.212   2.354
 3504SOL    HW111411   1.950   3.292   2.298
 3504SOL    HW211412   1.854   3.234   2.417
 3505SOL     OW11413   4.608   6.369   4.877
 3505SOL    HW111414   4.610   6.395   4.780
 3505SOL    HW211415   4.599   6.270   4.885
 3506SOL     OW11416   0.041   4.674   2.231
 3506SOL    HW111417   6.984   4.729   2.204
 3506SOL    HW211418   0.096   4.652   2.150
 3507SOL     OW11419   6.945   0.224   6.080
 3507SOL    HW111420   6.888   0.191   6.004
 3507SOL    HW211421   6.927   0.320   6.097
 3508SOL     OW11422   6.611   4.466   6.873
 3508SOL    HW111423   6.668   4.485   6.953
 3508SOL    HW211424   6.621   4.539   6.806
 3509SOL     OW11425   5.418   6.974   6.965
 3509SOL    HW111426   5.359   0.032   6.951
 3509SOL    HW211427   5.388   6.900   6.904
 3510SOL     OW11428   2.431   1.310   2.021
 3510SOL    HW111429   2.495   1.261   1.961
 3510SOL    HW211430   2.468   1.313   2.114
 3511SOL     OW11431   1.066   1.012   4.394
 3511SOL    HW111432   1.147   0.981   4.343
 3511SOL    HW211433   1.092   1.031   4.488
 3512SOL     OW11434   3.915   3.148   1.210
 3512SOL    HW111435   3.963   3.138   1.297
 3512SOL    HW211436   3.910   3.060   1.164
 3513SOL     OW11437   6.358   4.321   1.358
 3513SOL    HW111438   6.371   4.419   1.373
 3513SOL    HW211439   6.394   4.271   1.436
 3514SOL     OW11440   2.699   5.862   2.592
 3514SOL    HW111441   2.698   5.765   2.568
 3514SOL    HW211442   2.786   5.903   2.562
 3515SOL     OW11443   3.777   5.602   3.429
 3515SOL    HW111444   3.872   5.623   3.406
 3515SOL    HW211445   3.763   5.503   3.426
 3516SOL     OW11446   1.654   1.066   0.386
 3516SOL    HW111447   1.614   1.134   0.447
 3516SOL    HW211448   1.667   0.980   0.436
 3517SOL     OW11449   0.301   0.720   6.930
 3517SOL    HW111450   0.260   0.671   7.007
 3517SOL    HW211451   0.390   0.681   6.910
 3518SOL     OW11452   4.190   3.116   6.004
 3518SOL    HW111453   4.275   3.144   6.049
 3518SOL    HW211454   4.134   3.197   5.985
 3519SOL     OW11455   3.212   0.239   0.542
 3519SOL    HW111456   3.148   0.228   0.465
 3519SOL    HW211457   3.297   0.280   0.510
 3520SOL     OW11458   3.545   4.808   1.564
 3520SOL    HW111459   3.557   4.887   1.504
 3520SOL    HW211460   3.476   4.746   1.525
 3521SOL     OW11461   6.627   1.942   5.669
 3521SOL    HW111462   6.676   1.918   5.585
 3521SOL    HW211463   6.683   2.003   5.725
 3522SOL     OW11464   2.558   0.389   0.710
 3522SOL    HW111465   2.603   0.476   0.690
 3522SOL    HW211466   2.626   0.318   0.722
 3523SOL     OW11467   2.310   4.509   4.870
 3523SOL    HW111468   2.297   4.424   4.921
 3523SOL    HW211469   2.366   4.572   4.924
 3524SOL     OW11470   2.791   1.564   3.484
 3524SOL    HW111471   2.769   1.494   3.416
 3524SOL    HW211472   2.878   1.541   3.528
 3525SOL     OW11473   1.612   3.199   3.426
 3525SOL    HW111474   1.612   3.153   3.337
 3525SOL    HW211475   1.561   3.285   3.418
 3526SOL     OW11476   3.425   6.337   3.644
 3526SOL    HW111477   3.474   6.380   3.569
 3526SOL    HW211478   3.397   6.407   3.710
 3527SOL     OW11479   5.685   3.658   0.029
 3527SOL    HW111480   5.676   3.662   6.951
 3527SOL    HW211481   5.780   3.680   0.054
 3528SOL     OW11482   1.639   6.954   4.540
 3528SOL    HW111483   1.730   6.933   4.502
 3528SOL    HW211484   1.581   6.992   4.468
 3529SOL     OW11485   3.928   5.844   0.075
 3529SOL    HW111486   3.898   5.886   0.160
 3529SOL    HW211487   4.011   5.790   0.092
 3530SOL     OW11488   1.898   6.017   3.264
 3530SOL    HW111489   1.858   6.099   3.303
 3530SOL    HW211490   1.872   5.937   3.319
 3531SOL     OW11491   4.788   4.794   6.932
 3531SOL    HW111492   4.871   4.755   6.971
 3531SOL    HW211493   4.791   4.788   6.833
 3532SOL     OW11494   2.619   6.624   0.903
 3532SOL    HW111495   2.563   6.636   0.986
 3532SOL    HW211496   2.716   6.624   0.928
 3533SOL     OW11497   1.692   0.777   3.389
 3533SOL    HW111498   1.730   0.754   3.300
 3533SOL    HW211499   1.592   0.779   3.384
 3534SOL     OW11500   5.106   6.861   4.129
 3534SOL    HW111501   5.132   6.823   4.217
 3534SOL    HW211502   5.169   6.934   4.104
 3535SOL     OW11503   4.761   5.926   0.246
 3535SOL    HW111504   4.671   5.970   0.246
 3535SOL    HW211505   4.786   5.903   0.340
 3536SOL     OW11506   1.213   3.421   2.613
 3536SOL    HW111507   1.305   3.396   2.583
 3536SOL    HW211508   1.161   3.338   2.630
 3537SOL     OW11509   3.137   5.071   2.061
 3537SOL    HW111510   3.073   4.995   2.044
 3537SOL    HW211511   3.177   5.062   2.152
 3538SOL     OW11512   4.077   0.642   3.584
 3538SOL    HW111513   4.040   0.687   3.665
 3538SOL    HW211514   4.081   0.543   3.599
 3539SOL     OW11515   4.849   5.443   4.979
 3539SOL    HW111516   4.766   5.455   5.034
 3539SOL    HW211517   4.928   5.479   5.029
 3540SOL     OW11518   4.035   4.583   6.433
 3540SOL    HW111519   4.036   4.571   6.532
 3540SOL    HW211520   4.080   4.505   6.389
 3541SOL     OW11521   0.371   2.893   2.439
 3541SOL    HW111522   0.414   2.846   2.362
 3541SOL    HW211523   0.439   2.947   2.488
 3542SOL     OW11524   5.689   1.872   0.173
 3542SOL    HW111525   5.651   1.927   0.247
 3542SOL    HW211526   5.779   1.908   0.148
 3543SOL     OW11527   6.803   3.078   4.050
 3543SOL    HW111528   6.807   3.170   4.013
 3543SOL    HW211529   6.708   3.047   4.054
 3544SOL     OW11530   3.013   4.677   5.967
 3544SOL    HW111531   2.934   4.736   5.985
 3544SOL    HW211532   3.086   4.698   6.032
 3545SOL     OW11533   3.433   6.535   1.283
 3545SOL    HW111534   3.464   6.544   1.377
 3545SOL    HW211535   3.453   6.620   1.234
 3546SOL     OW11536   6.440   4.587   1.427
 3546SOL    HW111537   6.535   4.583   1.457
 3546SOL    HW211538   6.435   4.570   1.328
 3547SOL     OW11539   1.079   3.693   4.269
 3547SOL    HW111540   1.096   3.783   4.309
 3547SOL    HW211541   1.147   3.676   4.197
 3548SOL     OW11542   6.637   0.410   5.783
 3548SOL    HW111543   6.657   0.335   5.846
 3548SOL    HW211544   6.713   0.420   5.719
 3549SOL     OW11545   2.251   6.756   6.702
 3549SOL    HW111546   2.197   6.726   6.624
 3549SOL    HW211547   2.282   6.676   6.754
 3550SOL     OW11548   5.852   1.697   5.672
 3550SOL    HW111549   5.952   1.698   5.675
 3550SOL    HW211550   5.821   1.621   5.615
 3551SOL     OW11551   5.766   1.419   5.004
 3551SOL    HW111552   5.794   1.489   5.070
 3551SOL    HW211553   5.695   1.361   5.044
 3552SOL     OW11554   0.084   0.299   3.370
 3552SOL    HW111555   0.172   0.252   3.362
 3552SOL    HW211556   0.022   0.265   3.298
 3553SOL     OW11557   5.609   6.092   6.390
 3553SOL    HW111558   5.622   6.019   6.323
 3553SOL    HW211559   5.678   6.163   6.377
 3554SOL     OW11560   5.088   4.401   6.624
 3554SOL    HW111561   5.036   4.411   6.709
 3554SOL    HW211562   5.174   4.354   6.644
 3555SOL     OW11563   2.397   1.340   5.617
 3555SOL    HW111564   2.482   1.382   5.650
 3555SOL    HW211565   2.351   1.402   5.553
 3556SOL     OW11566   6.006   1.295   0.386
 3556SOL    HW111567   6.012   1.226   0.458
 3556SOL    HW211568   5.923   1.281   0.333
 3557SOL     OW11569   4.897   6.142   1.411
 3557SOL    HW111570   4.918   6.162   1.507
 3557SOL    HW211571   4.834   6.211   1.375
 3558SOL     OW11572   4.329   5.492   2.070
 3558SOL    HW111573   4.299   5.420   2.007
 3558SOL    HW211574   4.260   5.505   2.141
 3559SOL     OW11575   3.943   6.301   6.144
 3559SOL    HW111576   3.974   6.379   6.198
 3559SOL    HW211577   3.885   6.243   6.200
 3560SOL     OW11578   2.144   5.889   4.569
 3560SOL    HW111579   2.129   5.871   4.667
 3560SOL    HW211580   2.076   5.839   4.516
 3561SOL     OW11581   3.840   3.140   6.011
 3561SOL    HW111582   3.914   3.118   5.948
 3561SOL    HW211583   3.780   3.208   5.969
 3562SOL     OW11584   3.197   1.141   0.847
 3562SOL    HW111585   3.273   1.079   0.825
 3562SOL    HW211586   3.117   1.087   0.874
 3563SOL     OW11587   0.283   2.288   6.855
 3563SOL    HW111588   0.321   2.275   6.947
 3563SOL    HW211589   0.216   2.362   6.857
 3564SOL     OW11590   6.300   3.781   3.262
 3564SOL    HW111591   6.244   3.759   3.182
 3564SOL    HW211592   6.396   3.789   3.235
 3565SOL     OW11593   4.739   6.602   4.903
 3565SOL    HW111594   4.691   6.516   4.918
 3565SOL    HW211595   4.726   6.661   4.982
 3566SOL     OW11596   0.819   1.019   5.886
 3566SOL    HW111597   0.891   1.014   5.956
 3566SOL    HW211598   0.822   0.937   5.829
 3567SOL     OW11599   0.251   4.777   6.966
 3567SOL    HW111600   0.304   4.730   0.015
 3567SOL    HW211601   0.176   4.718   6.937
 3568SOL     OW11602   3.661   4.087   5.441
 3568SOL    HW111603   3.600   4.019   5.401
 3568SOL    HW211604   3.625   4.179   5.423
 3569SOL     OW11605   1.810   0.720   3.163
 3569SOL    HW111606   1.820   0.781   3.084
 3569SOL    HW211607   1.899   0.684   3.189
 3570SOL     OW11608   6.376   1.659   4.387
 3570SOL    HW111609   6.463   1.706   4.371
 3570SOL    HW211610   6.301   1.724   4.383
 3571SOL     OW11611   6.386   5.403   4.340
 3571SOL    HW111612   6.296   5.402   4.297
 3571SOL    HW211613   6.410   5.497   4.364
 3572SOL     OW11614   5.705   0.018   5.470
 3572SOL    HW111615   5.761   0.036   5.551
 3572SOL    HW211616   5.744   0.065   5.391
 3573SOL     OW11617   0.318   2.314   1.281
 3573SOL    HW111618   0.348   2.219   1.285
 3573SOL    HW211619   0.235   2.325   1.335
 3574SOL     OW11620   6.433   3.469   0.457
 3574SOL    HW111621   6.390   3.480   0.367
 3574SOL    HW211622   6.364   3.440   0.524
 3575SOL     OW11623   6.266   0.043   2.139
 3575SOL    HW111624   6.224   0.075   2.054
 3575SOL    HW211625   6.346   7.009   2.117
 3576SOL     OW11626   0.422   1.046   0.366
 3576SOL    HW111627   0.478   0.968   0.336
 3576SOL    HW211628   0.329   1.014   0.385
 3577SOL     OW11629   2.800   5.050   6.875
 3577SOL    HW111630   2.838   5.001   6.796
 3577SOL    HW211631   2.708   5.083   6.852
 3578SOL     OW11632   3.356   4.614   1.571
 3578SOL    HW111633   3.409   4.594   1.653
 3578SOL    HW211634   3.259   4.593   1.588
 3579SOL     OW11635   1.771   3.758   5.633
 3579SOL    HW111636   1.773   3.672   5.581
 3579SOL    HW211637   1.677   3.780   5.657
 3580SOL     OW11638   5.711   2.304   0.980
 3580SOL    HW111639   5.758   2.390   1.001
 3580SOL    HW211640   5.647   2.319   0.904
 3581SOL     OW11641   6.947   0.657   2.953
 3581SOL    HW111642   6.927   0.744   2.908
 3581SOL    HW211643   6.962   0.673   3.050
 3582SOL     OW11644   0.313   7.007   5.948
 3582SOL    HW111645   0.240   7.006   6.016
 3582SOL    HW211646   0.379   6.935   5.969
 3583SOL     OW11647   0.844   6.009   1.630
 3583SOL    HW111648   0.860   5.911   1.647
 3583SOL    HW211649   0.932   6.056   1.624
 3584SOL     OW11650   5.740   0.721   5.384
 3584SOL    HW111651   5.680   0.747   5.459
 3584SOL    HW211652   5.717   0.629   5.353
 3585SOL     OW11653   2.451   4.496   3.408
 3585SOL    HW111654   2.352   4.485   3.395
 3585SOL    HW211655   2.474   4.483   3.505
 3586SOL     OW11656   1.215   1.304   6.409
 3586SOL    HW111657   1.244   1.226   6.354
 3586SOL    HW211658   1.241   1.290   6.504
 3587SOL     OW11659   3.423   6.628   6.413
 3587SOL    HW111660   3.411   6.596   6.506
 3587SOL    HW211661   3.440   6.727   6.414
 3588SOL     OW11662   2.392   2.338   5.420
 3588SOL    HW111663   2.483   2.333   5.378
 3588SOL    HW211664   2.396   2.398   5.500
 3589SOL     OW11665   3.038   6.355   4.692
 3589SOL    HW111666   2.974   6.341   4.768
 3589SOL    HW211667   3.074   6.267   4.662
 3590SOL     OW11668   1.214   5.609   6.565
 3590SOL    HW111669   1.163   5.688   6.532
 3590SOL    HW211670   1.190   5.529   6.510
 3591SOL     OW11671   5.183   1.031   5.387
 3591SOL    HW111672   5.201   1.000   5.293
 3591SOL    HW211673   5.106   1.095   5.386
 3592SOL     OW11674   5.813   2.027   2.007
 3592SOL    HW111675   5.829   2.053   2.102
 3592SOL    HW211676   5.820   1.927   1.998
 3593SOL     OW11677   1.119   5.408   4.293
 3593SOL    HW111678   1.160   5.438   4.207
 3593SOL    HW211679   1.026   5.446   4.300
 3594SOL     OW11680   4.074   1.464   4.221
 3594SOL    HW111681   4.090   1.385   4.279
 3594SOL    HW211682   4.020   1.437   4.141
 3595SOL     OW11683   2.496   6.433   5.790
 3595SOL    HW111684   2.432   6.362   5.820
 3595SOL    HW211685   2.454   6.523   5.802
 3596SOL     OW11686   0.185   3.639   3.250
 3596SOL    HW111687   0.270   3.637   3.198
 3596SOL    HW211688   0.111   3.600   3.195
 3597SOL     OW11689   4.056   0.102   4.419
 3597SOL    HW111690   3.975   0.075   4.472
 3597SOL    HW211691   4.095   0.021   4.375
 3598SOL     OW11692   1.786   0.216   6.995
 3598SOL    HW111693   1.848   0.231   6.918
 3598SOL    HW211694   1.691   0.216   6.963
 3599SOL     OW11695   0.055   1.692   4.691
 3599SOL    HW111696   6.985   1.701   4.731
 3599SOL    HW211697   0.118   1.654   4.759
 3600SOL     OW11698   6.396   6.650   1.241
 3600SOL    HW111699   6.409   6.591   1.321
 3600SOL    HW211700   6.417   6.598   1.158
 3601SOL     OW11701   6.583   3.778   6.293
 3601SOL    HW111702   6.484   3.787   6.306
 3601SOL    HW211703   6.628   3.770   6.382
 3602SOL     OW11704   3.092   2.190   1.047
 3602SOL    HW111705   3.153   2.238   0.986
 3602SOL    HW211706   3.140   2.113   1.090
 3603SOL     OW11707   3.848   4.906   4.831
 3603SOL    HW111708   3.911   4.965   4.781
 3603SOL    HW211709   3.887   4.815   4.841
 3604SOL     OW11710   6.258   4.065   3.071
 3604SOL    HW111711   6.188   4.068   3.001
 3604SOL    HW211712   6.216   4.072   3.162
 3605SOL     OW11713   6.067   1.753   6.347
 3605SOL    HW111714   5.970   1.772   6.329
 3605SOL    HW211715   6.098   1.679   6.288
 3606SOL     OW11716   2.180   3.940   3.017
 3606SOL    HW111717   2.158   3.862   3.075
 3606SOL    HW211718   2.201   4.020   3.074
 3607SOL     OW11719   4.504   0.202   6.349
 3607SOL    HW111720   4.469   0.114   6.381
 3607SOL    HW211721   4.431   0.251   6.301
 3608SOL     OW11722   0.735   3.022   3.270
 3608SOL    HW111723   0.799   3.027   3.345
 3608SOL    HW211724   0.645   2.995   3.304
 3609SOL     OW11725   0.064   0.266   3.892
 3609SOL    HW111726   0.118   0.188   3.925
 3609SOL    HW211727   0.022   0.242   3.805
 3610SOL     OW11728   1.652   5.090   5.841
 3610SOL    HW111729   1.673   5.188   5.840
 3610SOL    HW211730   1.561   5.075   5.801
 3611SOL     OW11731   4.910   5.443   5.460
 3611SOL    HW111732   4.936   5.393   5.377
 3611SOL    HW211733   4.969   5.523   5.470
 3612SOL     OW11734   2.258   5.925   1.043
 3612SOL    HW111735   2.250   5.959   1.136
 3612SOL    HW211736   2.167   5.910   1.005
 3613SOL     OW11737   5.222   5.295   6.294
 3613SOL    HW111738   5.220   5.269   6.198
 3613SOL    HW211739   5.257   5.218   6.349
 3614SOL     OW11740   3.697   2.888   4.379
 3614SOL    HW111741   3.637   2.945   4.324
 3614SOL    HW211742   3.683   2.792   4.355
 3615SOL     OW11743   5.148   6.779   6.059
 3615SOL    HW111744   5.195   6.779   6.147
 3615SOL    HW211745   5.049   6.783   6.074
 3616SOL     OW11746   6.374   0.731   4.620
 3616SOL    HW111747   6.347   0.817   4.579
 3616SOL    HW211748   6.458   0.745   4.673
 3617SOL     OW11749   0.030   1.107   0.403
 3617SOL    HW111750   0.038   1.064   0.493
 3617SOL    HW211751   0.085   1.057   0.336
 3618SOL     OW11752   3.269   6.466   6.249
 3618SOL    HW111753   3.169   6.465   6.258
 3618SOL    HW211754   3.308   6.522   6.322
 3619SOL     OW11755   5.249   3.565   3.701
 3619SOL    HW111756   5.222   3.503   3.628
 3619SOL    HW211757   5.334   3.612   3.676
 3620SOL     OW11758   5.824   1.645   5.195
 3620SOL    HW111759   5.842   1.710   5.122
 3620SOL    HW211760   5.910   1.600   5.222
 3621SOL     OW11761   1.538   2.734   5.655
 3621SOL    HW111762   1.488   2.745   5.741
 3621SOL    HW211763   1.585   2.820   5.633
 3622SOL     OW11764   0.800   3.878   0.964
 3622SOL    HW111765   0.783   3.861   1.061
 3622SOL    HW211766   0.721   3.849   0.910
 3623SOL     OW11767   6.570   4.855   4.071
 3623SOL    HW111768   6.590   4.924   4.002
 3623SOL    HW211769   6.602   4.765   4.039
 3624SOL     OW11770   2.500   0.588   1.592
 3624SOL    HW111771   2.582   0.540   1.561
 3624SOL    HW211772   2.472   0.655   1.523
 3625SOL     OW11773   0.978   2.709   4.204
 3625SOL    HW111774   1.039   2.663   4.140
 3625SOL    HW211775   0.992   2.808   4.198
 3626SOL     OW11776   2.690   4.017   5.667
 3626SOL    HW111777   2.740   4.099   5.695
 3626SOL    HW211778   2.659   4.028   5.572
 3627SOL     OW11779   3.384   3.335   3.954
 3627SOL    HW111780   3.406   3.364   4.047
 3627SOL    HW211781   3.465   3.343   3.896
 3628SOL     OW11782   2.588   6.072   4.059
 3628SOL    HW111783   2.666   6.037   4.006
 3628SOL    HW211784   2.512   6.006   4.053
 3629SOL     OW11785   5.800   3.467   5.208
 3629SOL    HW111786   5.753   3.417   5.281
 3629SOL    HW211787   5.733   3.522   5.157
 3630SOL     OW11788   5.868   0.885   4.844
 3630SOL    HW111789   5.857   0.800   4.895
 3630SOL    HW211790   5.794   0.948   4.868
 3631SOL     OW11791   2.119   0.968   3.958
 3631SOL    HW111792   2.091   1.044   3.898
 3631SOL    HW211793   2.100   0.994   4.054
 3632SOL     OW11794   4.196   6.790   5.941
 3632SOL    HW111795   4.249   6.747   6.013
 3632SOL    HW211796   4.208   6.740   5.855
 3633SOL     OW11797   1.278   2.710   5.557
 3633SOL    HW111798   1.250   2.771   5.483
 3633SOL    HW211799   1.377   2.712   5.567
 3634SOL     OW11800   3.102   5.033   6.026
 3634SOL    HW111801   3.082   5.131   6.024
 3634SOL    HW211802   3.118   5.000   5.933
 3635SOL     OW11803   2.113   1.571   4.820
 3635SOL    HW111804   2.118   1.544   4.916
 3635SOL    HW211805   2.017   1.570   4.790
 3636SOL     OW11806   1.457   6.387   0.981
 3636SOL    HW111807   1.450   6.426   1.073
 3636SOL    HW211808   1.384   6.320   0.968
 3637SOL     OW11809   4.765   0.947   1.647
 3637SOL    HW111810   4.804   0.858   1.624
 3637SOL    HW211811   4.802   0.978   1.734
 3638SOL     OW11812   6.608   4.518   3.355
 3638SOL    HW111813   6.545   4.595   3.361
 3638SOL    HW211814   6.563   4.435   3.386
 3639SOL     OW11815   2.490   6.547   0.364
 3639SOL    HW111816   2.542   6.517   0.284
 3639SOL    HW211817   2.527   6.632   0.399
 3640SOL     OW11818   2.535   0.133   1.635
 3640SOL    HW111819   2.620   0.181   1.612
 3640SOL    HW211820   2.461   0.169   1.578
 3641SOL     OW11821   1.879   0.560   4.596
 3641SOL    HW111822   1.796   0.526   4.640
 3641SOL    HW211823   1.957   0.543   4.655
 3642SOL     OW11824   6.125   6.600   2.023
 3642SOL    HW111825   6.033   6.611   2.060
 3642SOL    HW211826   6.148   6.680   1.967
 3643SOL     OW11827   3.661   5.834   4.851
 3643SOL    HW111828   3.613   5.921   4.859
 3643SOL    HW211829   3.757   5.846   4.877
 3644SOL     OW11830   6.749   6.994   1.389
 3644SOL    HW111831   6.846   6.983   1.370
 3644SOL    HW211832   6.722   0.067   1.373
 3645SOL     OW11833   4.055   5.871   3.099
 3645SOL    HW111834   4.107   5.791   3.071
 3645SOL    HW211835   3.971   5.877   3.045
 3646SOL     OW11836   0.270   5.124   4.929
 3646SOL    HW111837   0.292   5.193   4.998
 3646SOL    HW211838   0.170   5.115   4.921
 3647SOL     OW11839   2.767   2.753   1.184
 3647SOL    HW111840   2.825   2.685   1.140
 3647SOL    HW211841   2.810   2.843   1.177
 3648SOL     OW11842   3.110   6.818   3.008
 3648SOL    HW111843   3.190   6.877   3.016
 3648SOL    HW211844   3.044   6.841   3.080
 3649SOL     OW11845   3.081   2.940   1.921
 3649SOL    HW111846   2.982   2.952   1.905
 3649SOL    HW211847   3.099   2.938   2.019
 3650SOL     OW11848   5.765   6.884   1.240
 3650SOL    HW111849   5.699   6.936   1.186
 3650SOL    HW211850   5.858   6.904   1.209
 3651SOL     OW11851   1.612   6.172   2.307
 3651SOL    HW111852   1.617   6.072   2.308
 3651SOL    HW211853   1.687   6.210   2.361
 3652SOL     OW11854   4.394   5.458   2.851
 3652SOL    HW111855   4.399   5.358   2.844
 3652SOL    HW211856   4.481   5.497   2.821
 3653SOL     OW11857   6.328   2.703   4.733
 3653SOL    HW111858   6.280   2.790   4.745
 3653SOL    HW211859   6.263   2.631   4.709
 3654SOL     OW11860   1.896   6.981   1.772
 3654SOL    HW111861   1.965   6.989   1.701
 3654SOL    HW211862   1.921   0.018   1.850
 3655SOL     OW11863   6.632   1.161   3.181
 3655SOL    HW111864   6.655   1.065   3.165
 3655SOL    HW211865   6.710   1.207   3.225
 3656SOL     OW11866   2.392   1.775   3.004
 3656SOL    HW111867   2.358   1.738   3.090
 3656SOL    HW211868   2.478   1.824   3.020
 3657SOL     OW11869   4.595   5.411   2.158
 3657SOL    HW111870   4.521   5.468   2.124
 3657SOL    HW211871   4.575   5.315   2.138
 3658SOL     OW11872   2.431   5.160   5.709
 3658SOL    HW111873   2.354   5.125   5.655
 3658SOL    HW211874   2.439   5.259   5.695
 3659SOL     OW11875   1.371   3.746   0.254
 3659SOL    HW111876   1.343   3.656   0.222
 3659SOL    HW211877   1.363   3.750   0.354
 3660SOL     OW11878   4.045   4.913   0.975
 3660SOL    HW111879   4.001   5.001   0.957
 3660SOL    HW211880   4.142   4.929   0.997
 3661SOL     OW11881   5.556   1.892   1.602
 3661SOL    HW111882   5.523   1.868   1.511
 3661SOL    HW211883   5.510   1.975   1.634
 3662SOL     OW11884   1.529   6.105   4.764
 3662SOL    HW111885   1.513   6.127   4.668
 3662SOL    HW211886   1.454   6.144   4.819
 3663SOL     OW11887   1.481   3.593   5.384
 3663SOL    HW111888   1.497   3.540   5.468
 3663SOL    HW211889   1.533   3.552   5.309
 3664SOL     OW11890   3.915   6.702   2.461
 3664SOL    HW111891   3.942   6.751   2.378
 3664SOL    HW211892   3.961   6.613   2.464
 3665SOL     OW11893   1.959   1.284   5.255
 3665SOL    HW111894   1.946   1.295   5.157
 3665SOL    HW211895   1.898   1.347   5.304
 3666SOL     OW11896   0.820   4.597   4.078
 3666SOL    HW111897   0.850   4.683   4.037
 3666SOL    HW211898   0.756   4.551   4.016
 3667SOL     OW11899   0.876   1.831   6.568
 3667SOL    HW111900   0.976   1.829   6.563
 3667SOL    HW211901   0.846   1.921   6.600
 3668SOL     OW11902   2.164   6.596   1.753
 3668SOL    HW111903   2.068   6.623   1.762
 3668SOL    HW211904   2.185   6.581   1.656
 3669SOL     OW11905   5.675   1.517   3.836
 3669SOL    HW111906   5.605   1.470   3.888
 3669SOL    HW211907   5.637   1.600   3.795
 3670SOL     OW11908   2.325   5.515   6.350
 3670SOL    HW111909   2.384   5.583   6.393
 3670SOL    HW211910   2.347   5.425   6.387
 3671SOL     OW11911   2.275   0.636   3.541
 3671SOL    HW111912   2.196   0.680   3.584
 3671SOL    HW211913   2.356   0.692   3.556
 3672SOL     OW11914   6.377   0.258   0.446
 3672SOL    HW111915   6.372   0.301   0.356
 3672SOL    HW211916   6.473   0.245   0.472
 3673SOL     OW11917   4.599   0.256   6.656
 3673SOL    HW111918   4.534   0.332   6.647
 3673SOL    HW211919   4.679   0.286   6.707
 3674SOL     OW11920   1.273   6.432   0.710
 3674SOL    HW111921   1.291   6.406   0.805
 3674SOL    HW211922   1.229   6.522   0.707
 3675SOL     OW11923   1.818   2.540   4.400
 3675SOL    HW111924   1.815   2.465   4.333
 3675SOL    HW211925   1.866   2.509   4.482
 3676SOL     OW11926   1.420   4.654   2.738
 3676SOL    HW111927   1.462   4.605   2.661
 3676SOL    HW211928   1.480   4.648   2.818
 3677SOL     OW11929   6.251   0.096   3.862
 3677SOL    HW111930   6.158   0.104   3.897
 3677SOL    HW211931   6.275   0.179   3.812
 3678SOL     OW11932   1.144   1.699   3.884
 3678SOL    HW111933   1.133   1.599   3.889
 3678SOL    HW211934   1.216   1.728   3.947
 3679SOL     OW11935   6.820   0.413   1.492
 3679SOL    HW111936   6.752   0.477   1.455
 3679SOL    HW211937   6.841   0.437   1.587
 3680SOL     OW11938   5.939   4.143   4.669
 3680SOL    HW111939   5.945   4.051   4.707
 3680SOL    HW211940   5.889   4.203   4.732
 3681SOL     OW11941   5.601   6.349   4.228
 3681SOL    HW111942   5.552   6.287   4.289
 3681SOL    HW211943   5.675   6.394   4.278
 3682SOL     OW11944   0.903   2.615   6.971
 3682SOL    HW111945   0.837   2.690   6.969
 3682SOL    HW211946   0.986   2.643   6.923
 3683SOL     OW11947   5.359   6.461   3.654
 3683SOL    HW111948   5.405   6.402   3.720
 3683SOL    HW211949   5.423   6.530   3.620
 3684SOL     OW11950   1.630   3.395   0.985
 3684SOL    HW111951   1.683   3.367   0.905
 3684SOL    HW211952   1.641   3.327   1.057
 3685SOL     OW11953   5.743   6.639   6.423
 3685SOL    HW111954   5.698   6.550   6.418
 3685SOL    HW211955   5.698   6.696   6.492
 3686SOL     OW11956   6.916   4.199   1.155
 3686SOL    HW111957   6.857   4.216   1.077
 3686SOL    HW211958   6.868   4.140   1.221
 3687SOL     OW11959   3.718   1.415   0.147
 3687SOL    HW111960   3.752   1.348   0.213
 3687SOL    HW211961   3.736   1.383   0.054
 3688SOL     OW11962   6.732   3.087   0.312
 3688SOL    HW111963   6.760   3.095   0.216
 3688SOL    HW211964   6.635   3.106   0.320
 3689SOL     OW11965   2.203   6.805   3.507
 3689SOL    HW111966   2.215   6.761   3.419
 3689SOL    HW211967   2.108   6.836   3.517
 3690SOL     OW11968   4.734   5.785   5.072
 3690SOL    HW111969   4.768   5.832   4.990
 3690SOL    HW211970   4.648   5.826   5.101
 3691SOL     OW11971   2.886   2.827   6.409
 3691SOL    HW111972   2.889   2.734   6.444
 3691SOL    HW211973   2.979   2.865   6.408
 3692SOL     OW11974   0.126   6.683   6.028
 3692SOL    HW111975   0.157   6.599   6.072
 3692SOL    HW211976   0.108   6.753   6.097
 3693SOL     OW11977   1.728   1.450   3.687
 3693SOL    HW111978   1.699   1.538   3.649
 3693SOL    HW211979   1.748   1.386   3.612
 3694SOL     OW11980   1.848   5.656   3.136
 3694SOL    HW111981   1.823   5.722   3.207
 3694SOL    HW211982   1.768   5.602   3.111
 3695SOL     OW11983   1.521   2.377   1.109
 3695SOL    HW111984   1.541   2.279   1.112
 3695SOL    HW211985   1.427   2.391   1.077
 3696SOL     OW11986   3.059   6.262   5.724
 3696SOL    HW111987   3.015   6.190   5.777
 3696SOL    HW211988   3.150   6.279   5.760
 3697SOL     OW11989   5.376   0.464   3.948
 3697SOL    HW111990   5.334   0.417   3.871
 3697SOL    HW211991   5.349   0.420   4.033
 3698SOL     OW11992   3.785   0.243   6.731
 3698SOL    HW111993   3.721   0.176   6.769
 3698SOL    HW211994   3.788   0.233   6.631
 3699SOL     OW11995   0.733   4.860   1.686
 3699SOL    HW111996   0.644   4.893   1.657
 3699SOL    HW211997   0.771   4.924   1.754
 3700SOL     OW11998   0.055   0.593   3.435
 3700SOL    HW111999   0.136   0.650   3.444
 3700SOL    HW212000   0.079   0.506   3.394
 3701SOL     OW12001   5.527   0.663   3.801
 3701SOL    HW112002   5.508   0.638   3.706
 3701SOL    HW212003   5.485   0.595   3.862
 3702SOL     OW12004   5.512   1.082   5.954
 3702SOL    HW112005   5.465   0.994   5.947
 3702SOL    HW212006   5.531   1.117   5.862
 3703SOL     OW12007   3.491   4.756   0.547
 3703SOL    HW112008   3.396   4.788   0.548
 3703SOL    HW212009   3.514   4.724   0.455
 3704SOL     OW12010   2.552   6.751   1.829
 3704SOL    HW112011   2.622   6.794   1.772
 3704SOL    HW212012   2.550   6.653   1.811
 3705SOL     OW12013   6.505   1.143   3.940
 3705SOL    HW112014   6.415   1.110   3.970
 3705SOL    HW212015   6.503   1.159   3.842
 3706SOL     OW12016   3.104   1.937   3.530
 3706SOL    HW112017   3.033   1.867   3.538
 3706SOL    HW212018   3.068   2.024   3.563
 3707SOL     OW12019   4.148   2.363   5.536
 3707SOL    HW112020   4.197   2.448   5.553
 3707SOL    HW212021   4.139   2.312   5.621
 3708SOL     OW12022   6.831   0.311   6.833
 3708SOL    HW112023   6.883   0.283   6.752
 3708SOL    HW212024   6.747   0.357   6.804
 3709SOL     OW12025   5.864   0.081   0.163
 3709SOL    HW112026   5.956   0.043   0.162
 3709SOL    HW212027   5.846   0.128   0.076
 3710SOL     OW12028   0.317   4.499   0.011
 3710SOL    HW112029   0.246   4.510   0.081
 3710SOL    HW212030   0.274   4.483   6.944
 3711SOL     OW12031   0.044   5.398   2.467
 3711SOL    HW112032   6.983   5.344   2.454
 3711SOL    HW212033   0.107   5.349   2.528
 3712SOL     OW12034   1.197   0.425   6.880
 3712SOL    HW112035   1.228   0.409   6.974
 3712SOL    HW212036   1.108   0.470   6.881
 3713SOL     OW12037   3.975   4.710   5.662
 3713SOL    HW112038   4.000   4.616   5.638
 3713SOL    HW212039   4.057   4.761   5.688
 3714SOL     OW12040   4.289   1.384   5.162
 3714SOL    HW112041   4.196   1.349   5.153
 3714SOL    HW212042   4.352   1.308   5.179
 3715SOL     OW12043   5.490   4.015   4.203
 3715SOL    HW112044   5.468   3.939   4.142
 3715SOL    HW212045   5.437   4.095   4.176
 3716SOL     OW12046   0.425   1.286   4.122
 3716SOL    HW112047   0.495   1.344   4.082
 3716SOL    HW212048   0.450   1.264   4.216
 3717SOL     OW12049   6.035   0.784   0.037
 3717SOL    HW112050   5.971   0.853   0.004
 3717SOL    HW212051   5.985   0.705   0.072
 3718SOL     OW12052   0.755   5.388   7.012
 3718SOL    HW112053   0.717   5.305   0.030
 3718SOL    HW212054   0.690   5.426   6.946
 3719SOL     OW12055   3.358   4.742   0.265
 3719SOL    HW112056   3.383   4.645   0.270
 3719SOL    HW212057   3.414   4.788   0.196
 3720SOL     OW12058   0.276   1.077   5.635
 3720SOL    HW112059   0.236   1.144   5.698
 3720SOL    HW212060   0.329   1.124   5.565
 3721SOL     OW12061   4.835   3.373   0.238
 3721SOL    HW112062   4.777   3.300   0.275
 3721SOL    HW212063   4.899   3.404   0.309
 3722SOL     OW12064   5.772   5.666   1.320
 3722SOL    HW112065   5.680   5.648   1.355
 3722SOL    HW212066   5.778   5.761   1.289
 3723SOL     OW12067   4.985   0.821   0.553
 3723SOL    HW112068   4.927   0.842   0.632
 3723SOL    HW212069   4.928   0.796   0.475
 3724SOL     OW12070   0.070   4.808   5.700
 3724SOL    HW112071   7.001   4.823   5.741
 3724SOL    HW212072   0.119   4.738   5.753
 3725SOL     OW12073   5.655   6.064   0.583
 3725SOL    HW112074   5.571   6.101   0.624
 3725SOL    HW212075   5.689   6.128   0.514
 3726SOL     OW12076   6.156   2.905   1.307
 3726SOL    HW112077   6.198   2.982   1.356
 3726SOL    HW212078   6.073   2.877   1.355
 3727SOL     OW12079   2.593   2.904   5.397
 3727SOL    HW112080   2.590   2.946   5.306
 3727SOL    HW212081   2.610   2.975   5.466
 3728SOL     OW12082   0.515   3.470   6.909
 3728SOL    HW112083   0.539   3.499   7.002
 3728SOL    HW212084   0.597   3.471   6.852
 3729SOL     OW12085   0.460   2.798   3.922
 3729SOL    HW112086   0.525   2.848   3.863
 3729SOL    HW212087   0.376   2.782   3.872
 3730SOL     OW12088   2.096   0.506   0.970
 3730SOL    HW112089   2.035   0.480   0.895
 3730SOL    HW212090   2.190   0.483   0.946
 3731SOL     OW12091   3.217   5.568   6.471
 3731SOL    HW112092   3.134   5.621   6.489
 3731SOL    HW212093   3.198   5.471   6.483
 3732SOL     OW12094   2.080   3.730   4.655
 3732SOL    HW112095   2.152   3.727   4.587
 3732SOL    HW212096   2.051   3.825   4.669
 3733SOL     OW12097   3.330   3.317   1.080
 3733SOL    HW112098   3.342   3.253   1.156
 3733SOL    HW212099   3.334   3.267   0.993
 3734SOL     OW12100   4.679   0.151   4.161
 3734SOL    HW112101   4.726   0.091   4.226
 3734SOL    HW212102   4.674   0.243   4.200
 3735SOL     OW12103   3.568   1.961   1.953
 3735SOL    HW112104   3.608   1.890   2.010
 3735SOL    HW212105   3.596   2.051   1.987
 3736SOL     OW12106   4.972   0.788   5.605
 3736SOL    HW112107   5.015   0.878   5.610
 3736SOL    HW212108   4.945   0.759   5.697
 3737SOL     OW12109   3.682   6.899   3.925
 3737SOL    HW112110   3.772   6.877   3.960
 3737SOL    HW212111   3.688   6.979   3.865
 3738SOL     OW12112   0.077   0.111   4.567
 3738SOL    HW112113   0.083   0.041   4.639
 3738SOL    HW212114   0.009   0.180   4.593
 3739SOL     OW12115   1.115   3.453   1.454
 3739SOL    HW112116   1.215   3.460   1.445
 3739SOL    HW212117   1.083   3.522   1.519
 3740SOL     OW12118   5.620   0.356   6.882
 3740SOL    HW112119   5.603   0.371   6.784
 3740SOL    HW212120   5.671   0.271   6.895
 3741SOL     OW12121   3.166   2.432   6.858
 3741SOL    HW112122   3.159   2.482   6.944
 3741SOL    HW212123   3.124   2.341   6.869
 3742SOL     OW12124   3.514   3.216   5.527
 3742SOL    HW112125   3.451   3.173   5.591
 3742SOL    HW212126   3.599   3.240   5.574
 3743SOL     OW12127   1.137   5.832   6.413
 3743SOL    HW112128   1.174   5.827   6.321
 3743SOL    HW212129   1.193   5.895   6.468
 3744SOL     OW12130   6.788   5.274   2.851
 3744SOL    HW112131   6.715   5.211   2.876
 3744SOL    HW212132   6.865   5.221   2.812
 3745SOL     OW12133   5.304   5.432   1.922
 3745SOL    HW112134   5.362   5.412   2.001
 3745SOL    HW212135   5.216   5.387   1.934
 3746SOL     OW12136   4.544   1.285   1.696
 3746SOL    HW112137   4.459   1.250   1.735
 3746SOL    HW212138   4.581   1.355   1.756
 3747SOL     OW12139   2.822   0.413   0.465
 3747SOL    HW112140   2.764   0.492   0.446
 3747SOL    HW212141   2.818   0.391   0.562
 3748SOL     OW12142   5.146   0.259   1.573
 3748SOL    HW112143   5.114   0.191   1.508
 3748SOL    HW212144   5.136   0.351   1.534
 3749SOL     OW12145   1.724   0.756   4.423
 3749SOL    HW112146   1.731   0.838   4.479
 3749SOL    HW212147   1.659   0.692   4.465
 3750SOL     OW12148   6.994   4.224   6.281
 3750SOL    HW112149   0.013   4.145   6.326
 3750SOL    HW212150   6.928   4.195   6.213
 3751SOL     OW12151   1.423   4.740   1.298
 3751SOL    HW112152   1.356   4.785   1.240
 3751SOL    HW212153   1.452   4.654   1.255
 3752SOL     OW12154   4.883   5.891   6.884
 3752SOL    HW112155   4.831   5.818   6.929
 3752SOL    HW212156   4.824   5.936   6.817
 3753SOL     OW12157   0.308   0.145   3.362
 3753SOL    HW112158   0.352   0.157   3.451
 3753SOL    HW212159   0.347   0.066   3.315
 3754SOL     OW12160   3.130   1.093   1.794
 3754SOL    HW112161   3.099   1.160   1.862
 3754SOL    HW212162   3.056   1.073   1.731
 3755SOL     OW12163   2.441   5.701   4.291
 3755SOL    HW112164   2.429   5.782   4.235
 3755SOL    HW212165   2.493   5.724   4.373
 3756SOL     OW12166   1.332   6.976   0.456
 3756SOL    HW112167   1.429   6.993   0.439
 3756SOL    HW212168   1.321   6.888   0.502
 3757SOL     OW12169   0.418   4.265   0.619
 3757SOL    HW112170   0.374   4.247   0.706
 3757SOL    HW212171   0.351   4.296   0.552
 3758SOL     OW12172   1.789   6.855   3.885
 3758SOL    HW112173   1.869   6.914   3.879
 3758SOL    HW212174   1.726   6.875   3.809
 3759SOL     OW12175   5.075   0.083   3.783
 3759SOL    HW112176   5.008   0.015   3.754
 3759SOL    HW212177   5.157   0.077   3.726
 3760SOL     OW12178   1.160   1.024   3.454
 3760SOL    HW112179   1.249   1.048   3.493
 3760SOL    HW212180   1.128   1.099   3.396
 3761SOL     OW12181   4.700   1.711   5.449
 3761SOL    HW112182   4.728   1.800   5.414
 3761SOL    HW212183   4.635   1.669   5.385
 3762SOL     OW12184   0.703   2.467   4.199
 3762SOL    HW112185   0.744   2.553   4.230
 3762SOL    HW212186   0.615   2.487   4.154
 3763SOL     OW12187   0.579   5.502   6.828
 3763SOL    HW112188   0.500   5.559   6.804
 3763SOL    HW212189   0.631   5.480   6.745
 3764SOL     OW12190   3.044   1.155   2.674
 3764SOL    HW112191   3.100   1.100   2.736
 3764SOL    HW212192   2.998   1.227   2.726
 3765SOL     OW12193   5.194   2.675   2.933
 3765SOL    HW112194   5.159   2.769   2.933
 3765SOL    HW212195   5.262   2.664   3.005
 3766SOL     OW12196   1.226   2.751   2.211
 3766SOL    HW112197   1.249   2.659   2.244
 3766SOL    HW212198   1.284   2.773   2.132
 3767SOL     OW12199   1.816   6.128   5.807
 3767SOL    HW112200   1.776   6.218   5.793
 3767SOL    HW212201   1.744   6.060   5.819
 3768SOL     OW12202   1.772   6.693   2.554
 3768SOL    HW112203   1.839   6.668   2.624
 3768SOL    HW212204   1.706   6.619   2.544
 3769SOL     OW12205   4.905   5.265   4.605
 3769SOL    HW112206   4.850   5.334   4.559
 3769SOL    HW212207   4.980   5.309   4.654
 3770SOL     OW12208   3.031   0.403   1.322
 3770SOL    HW112209   3.105   0.439   1.265
 3770SOL    HW212210   3.066   0.380   1.413
 3771SOL     OW12211   6.684   5.909   5.472
 3771SOL    HW112212   6.709   5.825   5.521
 3771SOL    HW212213   6.585   5.914   5.463
 3772SOL     OW12214   1.961   6.139   1.834
 3772SOL    HW112215   2.044   6.100   1.873
 3772SOL    HW212216   1.884   6.077   1.849
 3773SOL     OW12217   4.528   5.086   6.887
 3773SOL    HW112218   4.525   5.028   6.968
 3773SOL    HW212219   4.564   5.033   6.810
 3774SOL     OW12220   7.018   4.796   1.835
 3774SOL    HW112221   0.065   4.845   1.889
 3774SOL    HW212222   0.024   4.796   1.739
 3775SOL     OW12223   5.355   5.297   4.659
 3775SOL    HW112224   5.439   5.343   4.689
 3775SOL    HW212225   5.288   5.299   4.733
 3776SOL     OW12226   4.266   2.881   6.281
 3776SOL    HW112227   4.248   2.908   6.186
 3776SOL    HW212228   4.319   2.796   6.281
 3777SOL     OW12229   2.864   5.041   3.968
 3777SOL    HW112230   2.794   5.020   4.037
 3777SOL    HW212231   2.936   4.972   3.973
 3778SOL     OW12232   3.111   4.961   6.765
 3778SOL    HW112233   3.105   4.870   6.807
 3778SOL    HW212234   3.189   5.011   6.804
 3779SOL     OW12235   6.757   4.670   6.724
 3779SOL    HW112236   6.662   4.700   6.729
 3779SOL    HW212237   6.792   4.684   6.632
 3780SOL     OW12238   6.372   3.037   1.848
 3780SOL    HW112239   6.322   3.027   1.934
 3780SOL    HW212240   6.308   3.058   1.774
 3781SOL     OW12241   1.558   6.779   5.610
 3781SOL    HW112242   1.628   6.845   5.584
 3781SOL    HW212243   1.468   6.823   5.606
 3782SOL     OW12244   3.901   5.346   7.002
 3782SOL    HW112245   3.936   5.333   0.073
 3782SOL    HW212246   3.805   5.321   6.999
 3783SOL     OW12247   4.635   4.780   5.014
 3783SOL    HW112248   4.607   4.876   5.008
 3783SOL    HW212249   4.584   4.726   4.947
 3784SOL     OW12250   5.675   3.367   5.440
 3784SOL    HW112251   5.578   3.376   5.459
 3784SOL    HW212252   5.716   3.301   5.503
 3785SOL     OW12253   1.397   2.559   2.612
 3785SOL    HW112254   1.431   2.469   2.640
 3785SOL    HW212255   1.419   2.626   2.683
 3786SOL     OW12256   2.004   3.023   5.209
 3786SOL    HW112257   1.995   2.923   5.206
 3786SOL    HW212258   2.099   3.047   5.233
 3787SOL     OW12259   4.925   6.008   4.363
 3787SOL    HW112260   4.908   6.055   4.449
 3787SOL    HW212261   4.838   5.981   4.322
 3788SOL     OW12262   5.522   3.568   5.656
 3788SOL    HW112263   5.477   3.496   5.603
 3788SOL    HW212264   5.599   3.529   5.706
 3789SOL     OW12265   1.991   3.172   1.364
 3789SOL    HW112266   1.914   3.220   1.405
 3789SOL    HW212267   1.998   3.080   1.402
 3790SOL     OW12268   0.985   6.871   1.496
 3790SOL    HW112269   1.065   6.848   1.441
 3790SOL    HW212270   1.010   6.874   1.593
 3791SOL     OW12271   5.063   0.500   4.842
 3791SOL    HW112272   5.093   0.546   4.926
 3791SOL    HW212273   4.973   0.459   4.857
 3792SOL     OW12274   6.472   6.985   3.839
 3792SOL    HW112275   6.499   6.944   3.927
 3792SOL    HW212276   6.388   0.016   3.852
 3793SOL     OW12277   4.384   4.070   0.405
 3793SOL    HW112278   4.348   4.055   0.497
 3793SOL    HW212279   4.311   4.100   0.344
 3794SOL     OW12280   1.220   5.422   6.367
 3794SOL    HW112281   1.193   5.462   6.280
 3794SOL    HW212282   1.317   5.441   6.385
 3795SOL     OW12283   3.054   6.234   1.361
 3795SOL    HW112284   3.011   6.165   1.420
 3795SOL    HW212285   3.152   6.238   1.381
 3796SOL     OW12286   5.600   0.801   6.973
 3796SOL    HW112287   5.533   0.780   6.902
 3796SOL    HW212288   5.602   0.900   6.989
 3797SOL     OW12289   0.299   2.973   1.267
 3797SOL    HW112290   0.291   2.958   1.169
 3797SOL    HW212291   0.382   2.929   1.301
 3798SOL     OW12292   1.159   5.328   3.544
 3798SOL    HW112293   1.180   5.346   3.640
 3798SOL    HW212294   1.067   5.290   3.537
 3799SOL     OW12295   6.723   0.899   3.101
 3799SOL    HW112296   6.796   0.838   3.130
 3799SOL    HW212297   6.642   0.845   3.077
 3800SOL     OW12298   5.651   2.641   2.890
 3800SOL    HW112299   5.635   2.731   2.850
 3800SOL    HW212300   5.590   2.574   2.847
 3801SOL     OW12301   5.952   1.787   0.933
 3801SOL    HW112302   5.951   1.688   0.947
 3801SOL    HW212303   6.046   1.818   0.920
 3802SOL     OW12304   6.371   3.507   2.363
 3802SOL    HW112305   6.358   3.510   2.462
 3802SOL    HW212306   6.334   3.422   2.326
 3803SOL     OW12307   4.280   4.024   5.366
 3803SOL    HW112308   4.216   4.076   5.309
 3803SOL    HW212309   4.237   3.937   5.393
 3804SOL     OW12310   3.566   6.456   3.432
 3804SOL    HW112311   3.654   6.427   3.471
 3804SOL    HW212312   3.567   6.555   3.419
 3805SOL     OW12313   2.328   2.279   6.823
 3805SOL    HW112314   2.394   2.318   6.759
 3805SOL    HW212315   2.306   2.185   6.796
 3806SOL     OW12316   2.324   4.682   1.867
 3806SOL    HW112317   2.346   4.775   1.896
 3806SOL    HW212318   2.273   4.686   1.781
 3807SOL     OW12319   0.684   4.727   3.540
 3807SOL    HW112320   0.633   4.653   3.582
 3807SOL    HW212321   0.769   4.692   3.502
 3808SOL     OW12322   3.042   6.856   5.774
 3808SOL    HW112323   3.080   6.890   5.687
 3808SOL    HW212324   2.943   6.853   5.767
 3809SOL     OW12325   5.505   1.372   1.977
 3809SOL    HW112326   5.598   1.358   1.943
 3809SOL    HW212327   5.480   1.297   2.038
 3810SOL     OW12328   4.797   2.279   2.918
 3810SOL    HW112329   4.772   2.204   2.856
 3810SOL    HW212330   4.885   2.258   2.961
 3811SOL     OW12331   6.820   5.924   5.222
 3811SOL    HW112332   6.899   5.986   5.230
 3811SOL    HW212333   6.756   5.943   5.297
 3812SOL     OW12334   4.039   5.916   6.842
 3812SOL    HW112335   4.023   5.843   6.776
 3812SOL    HW212336   4.020   5.883   6.934
 3813SOL     OW12337   5.940   3.733   0.283
 3813SOL    HW112338   5.960   3.739   0.186
 3813SOL    HW212339   5.892   3.815   0.313
 3814SOL     OW12340   0.654   0.441   5.305
 3814SOL    HW112341   0.657   0.540   5.298
 3814SOL    HW212342   0.600   0.403   5.230
 3815SOL     OW12343   5.288   3.000   6.069
 3815SOL    HW112344   5.359   2.937   6.038
 3815SOL    HW212345   5.312   3.035   6.159
 3816SOL     OW12346   6.553   6.383   0.820
 3816SOL    HW112347   6.527   6.432   0.737
 3816SOL    HW212348   6.607   6.302   0.796
 3817SOL     OW12349   4.035   3.391   1.555
 3817SOL    HW112350   4.130   3.398   1.583
 3817SOL    HW212351   3.976   3.396   1.635
 3818SOL     OW12352   4.963   5.858   2.418
 3818SOL    HW112353   5.056   5.827   2.402
 3818SOL    HW212354   4.943   5.856   2.516
 3819SOL     OW12355   6.375   3.536   3.340
 3819SOL    HW112356   6.303   3.513   3.405
 3819SOL    HW212357   6.353   3.623   3.295
 3820SOL     OW12358   3.315   6.519   5.905
 3820SOL    HW112359   3.233   6.522   5.962
 3820SOL    HW212360   3.396   6.517   5.962
 3821SOL     OW12361   2.094   0.088   0.247
 3821SOL    HW112362   2.081   0.007   0.191
 3821SOL    HW212363   2.005   0.130   0.266
 3822SOL     OW12364   4.962   6.825   2.323
 3822SOL    HW112365   4.997   6.798   2.233
 3822SOL    HW212366   4.885   6.766   2.348
 3823SOL     OW12367   5.426   6.147   4.964
 3823SOL    HW112368   5.448   6.151   4.866
 3823SOL    HW212369   5.475   6.219   5.012
 3824SOL     OW12370   2.299   2.897   0.860
 3824SOL    HW112371   2.286   2.822   0.795
 3824SOL    HW212372   2.394   2.897   0.891
 3825SOL     OW12373   0.568   5.038   5.677
 3825SOL    HW112374   0.479   5.000   5.702
 3825SOL    HW212375   0.559   5.089   5.591
 3826SOL     OW12376   5.338   3.710   3.326
 3826SOL    HW112377   5.274   3.781   3.297
 3826SOL    HW212378   5.291   3.646   3.387
 3827SOL     OW12379   0.023   2.079   6.787
 3827SOL    HW112380   0.023   2.131   6.872
 3827SOL    HW212381   0.117   2.065   6.755
 3828SOL     OW12382   3.935   3.065   4.372
 3828SOL    HW112383   3.937   2.965   4.366
 3828SOL    HW212384   3.852   3.099   4.328
 3829SOL     OW12385   0.751   3.027   1.457
 3829SOL    HW112386   0.850   3.016   1.442
 3829SOL    HW212387   0.732   3.119   1.490
 3830SOL     OW12388   5.804   0.214   3.653
 3830SOL    HW112389   5.861   0.240   3.731
 3830SOL    HW212390   5.763   0.295   3.612
 3831SOL     OW12391   4.542   2.469   3.685
 3831SOL    HW112392   4.454   2.448   3.728
 3831SOL    HW212393   4.545   2.427   3.594
 3832SOL     OW12394   6.531   0.796   3.829
 3832SOL    HW112395   6.627   0.777   3.851
 3832SOL    HW212396   6.527   0.857   3.750
 3833SOL     OW12397   1.919   3.054   5.512
 3833SOL    HW112398   1.928   3.059   5.412
 3833SOL    HW212399   1.856   2.980   5.536
 3834SOL     OW12400   5.040   4.581   1.155
 3834SOL    HW112401   4.942   4.562   1.155
 3834SOL    HW212402   5.074   4.580   1.249
 3835SOL     OW12403   4.513   5.887   5.402
 3835SOL    HW112404   4.437   5.889   5.466
 3835SOL    HW212405   4.581   5.820   5.433
 3836SOL     OW12406   6.621   6.502   4.619
 3836SOL    HW112407   6.697   6.453   4.576
 3836SOL    HW212408   6.559   6.536   4.549
 3837SOL     OW12409   4.647   4.689   5.977
 3837SOL    HW112410   4.710   4.625   6.021
 3837SOL    HW212411   4.679   4.782   5.990
 3838SOL     OW12412   6.798   0.534   4.072
 3838SOL    HW112413   6.746   0.616   4.046
 3838SOL    HW212414   6.895   0.550   4.056
 3839SOL     OW12415   4.857   0.419   3.594
 3839SOL    HW112416   4.806   0.335   3.577
 3839SOL    HW212417   4.820   0.492   3.537
 3840SOL     OW12418   3.336   1.266   6.335
 3840SOL    HW112419   3.354   1.205   6.257
 3840SOL    HW212420   3.422   1.309   6.364
 3841SOL     OW12421   5.903   4.203   3.642
 3841SOL    HW112422   5.830   4.262   3.677
 3841SOL    HW212423   5.868   4.147   3.568
 3842SOL     OW12424   1.975   4.533   5.944
 3842SOL    HW112425   1.962   4.481   6.029
 3842SOL    HW212426   2.064   4.510   5.905
 3843SOL     OW12427   5.551   2.576   6.024
 3843SOL    HW112428   5.598   2.618   6.102
 3843SOL    HW212429   5.556   2.476   6.032
 3844SOL     OW12430   6.769   0.113   0.751
 3844SOL    HW112431   6.671   0.096   0.762
 3844SOL    HW212432   6.820   0.034   0.784
 3845SOL     OW12433   2.225   6.123   0.302
 3845SOL    HW112434   2.206   6.031   0.266
 3845SOL    HW212435   2.138   6.168   0.324
 3846SOL     OW12436   0.203   3.239   2.967
 3846SOL    HW112437   0.199   3.269   2.872
 3846SOL    HW212438   0.281   3.177   2.978
 3847SOL     OW12439   0.489   1.927   6.632
 3847SOL    HW112440   0.463   1.897   6.541
 3847SOL    HW212441   0.578   1.973   6.628
 3848SOL     OW12442   6.469   4.398   1.945
 3848SOL    HW112443   6.567   4.399   1.965
 3848SOL    HW212444   6.443   4.307   1.913
 3849SOL     OW12445   0.758   4.384   6.454
 3849SOL    HW112446   0.748   4.432   6.368
 3849SOL    HW212447   0.854   4.361   6.470
 3850SOL     OW12448   2.948   2.395   1.475
 3850SOL    HW112449   2.856   2.382   1.511
 3850SOL    HW212450   2.964   2.332   1.399
 3851SOL     OW12451   0.623   6.125   2.784
 3851SOL    HW112452   0.617   6.121   2.884
 3851SOL    HW212453   0.633   6.032   2.747
 3852SOL     OW12454   1.606   0.662   4.945
 3852SOL    HW112455   1.576   0.677   4.851
 3852SOL    HW212456   1.706   0.665   4.949
 3853SOL     OW12457   2.850   0.569   3.434
 3853SOL    HW112458   2.848   0.569   3.334
 3853SOL    HW212459   2.832   0.661   3.468
 3854SOL     OW12460   0.129   2.143   2.093
 3854SOL    HW112461   0.092   2.236   2.096
 3854SOL    HW212462   0.228   2.146   2.098
 3855SOL     OW12463   3.361   6.792   6.694
 3855SOL    HW112464   3.330   6.702   6.662
 3855SOL    HW212465   3.292   6.832   6.754
 3856SOL     OW12466   0.100   2.579   6.328
 3856SOL    HW112467   0.074   2.539   6.417
 3856SOL    HW212468   0.200   2.580   6.321
 3857SOL     OW12469   2.654   0.449   5.936
 3857SOL    HW112470   2.558   0.464   5.957
 3857SOL    HW212471   2.664   0.427   5.839
 3858SOL     OW12472   4.887   1.285   4.330
 3858SOL    HW112473   4.911   1.280   4.233
 3858SOL    HW212474   4.802   1.236   4.346
 3859SOL     OW12475   6.041   6.760   1.686
 3859SOL    HW112476   5.984   6.682   1.712
 3859SOL    HW212477   6.084   6.798   1.768
 3860SOL     OW12478   1.471   0.031   4.351
 3860SOL    HW112479   1.374   0.027   4.327
 3860SOL    HW212480   1.526   0.008   4.271
 3861SOL     OW12481   2.641   5.310   1.532
 3861SOL    HW112482   2.700   5.230   1.528
 3861SOL    HW212483   2.592   5.310   1.620
 3862SOL     OW12484   1.744   1.119   4.469
 3862SOL    HW112485   1.651   1.113   4.505
 3862SOL    HW212486   1.809   1.096   4.542
 3863SOL     OW12487   3.312   0.483   0.353
 3863SOL    HW112488   3.383   0.442   0.296
 3863SOL    HW212489   3.268   0.557   0.303
 3864SOL     OW12490   1.631   0.406   4.726
 3864SOL    HW112491   1.702   0.337   4.743
 3864SOL    HW212492   1.562   0.400   4.798
 3865SOL     OW12493   5.167   1.453   0.777
 3865SOL    HW112494   5.092   1.392   0.805
 3865SOL    HW212495   5.228   1.405   0.715
 3866SOL     OW12496   2.999   1.697   6.556
 3866SOL    HW112497   2.934   1.738   6.492
 3866SOL    HW212498   3.079   1.664   6.505
 3867SOL     OW12499   0.241   3.076   2.266
 3867SOL    HW112500   0.283   3.007   2.325
 3867SOL    HW212501   0.244   3.045   2.171
 3868SOL     OW12502   4.324   0.723   0.351
 3868SOL    HW112503   4.257   0.793   0.330
 3868SOL    HW212504   4.380   0.704   0.271
 3869SOL     OW12505   4.678   1.436   3.973
 3869SOL    HW112506   4.612   1.495   3.928
 3869SOL    HW212507   4.721   1.486   4.049
 3870SOL     OW12508   0.094   0.642   5.582
 3870SOL    HW112509   0.020   0.640   5.649
 3870SOL    HW212510   0.181   0.655   5.629
 3871SOL     OW12511   2.607   5.722   4.514
 3871SOL    HW112512   2.628   5.782   4.591
 3871SOL    HW212513   2.687   5.717   4.453
 3872SOL     OW12514   3.008   3.402   5.132
 3872SOL    HW112515   3.002   3.341   5.053
 3872SOL    HW212516   3.095   3.387   5.180
 3873SOL     OW12517   3.902   1.868   0.677
 3873SOL    HW112518   3.883   1.962   0.648
 3873SOL    HW212519   3.999   1.859   0.700
 3874SOL     OW12520   2.287   1.370   0.582
 3874SOL    HW112521   2.267   1.301   0.651
 3874SOL    HW212522   2.314   1.325   0.497
 3875SOL     OW12523   0.938   2.312   6.174
 3875SOL    HW112524   0.978   2.397   6.141
 3875SOL    HW212525   0.840   2.311   6.154
 3876SOL     OW12526   3.346   5.219   2.485
 3876SOL    HW112527   3.441   5.188   2.482
 3876SOL    HW212528   3.325   5.253   2.577
 3877SOL     OW12529   0.135   1.988   6.049
 3877SOL    HW112530   0.220   2.000   5.999
 3877SOL    HW212531   0.147   1.919   6.120
 3878SOL     OW12532   5.396   1.148   4.321
 3878SOL    HW112533   5.340   1.197   4.255
 3878SOL    HW212534   5.362   1.054   4.330
 3879SOL     OW12535   5.136   5.805   0.288
 3879SOL    HW112536   5.168   5.710   0.287
 3879SOL    HW212537   5.168   5.849   0.372
 3880SOL     OW12538   4.517   4.444   4.052
 3880SOL    HW112539   4.452   4.504   4.098
 3880SOL    HW212540   4.560   4.384   4.118
 3881SOL     OW12541   1.386   3.199   0.237
 3881SOL    HW112542   1.289   3.226   0.237
 3881SOL    HW212543   1.406   3.150   0.322
 3882SOL     OW12544   0.388   1.950   5.529
 3882SOL    HW112545   0.444   2.032   5.523
 3882SOL    HW212546   0.442   1.875   5.566
 3883SOL     OW12547   4.469   5.738   3.500
 3883SOL    HW112548   4.539   5.686   3.549
 3883SOL    HW212549   4.513   5.803   3.438
 3884SOL     OW12550   0.322   3.832   2.031
 3884SOL    HW112551   0.369   3.921   2.031
 3884SOL    HW212552   0.366   3.771   2.096
 3885SOL     OW12553   4.602   5.644   2.442
 3885SOL    HW112554   4.575   5.718   2.382
 3885SOL    HW212555   4.666   5.583   2.395
 3886SOL     OW12556   2.762   6.400   5.626
 3886SOL    HW112557   2.769   6.399   5.726
 3886SOL    HW212558   2.772   6.306   5.591
 3887SOL     OW12559   1.791   5.916   1.830
 3887SOL    HW112560   1.747   5.832   1.798
 3887SOL    HW212561   1.841   5.897   1.915
 3888SOL     OW12562   5.959   4.878   3.939
 3888SOL    HW112563   5.874   4.913   3.901
 3888SOL    HW212564   5.939   4.797   3.994
 3889SOL     OW12565   5.703   4.211   0.412
 3889SOL    HW112566   5.649   4.128   0.400
 3889SOL    HW212567   5.800   4.189   0.406
 3890SOL     OW12568   5.349   2.898   4.302
 3890SOL    HW112569   5.325   2.901   4.205
 3890SOL    HW212570   5.417   2.826   4.318
 3891SOL     OW12571   4.929   5.570   3.376
 3891SOL    HW112572   5.021   5.580   3.414
 3891SOL    HW212573   4.896   5.477   3.394
 3892SOL     OW12574   6.799   2.077   1.779
 3892SOL    HW112575   6.726   2.140   1.805
 3892SOL    HW212576   6.789   1.992   1.831
 3893SOL     OW12577   4.132   3.396   2.593
 3893SOL    HW112578   4.162   3.489   2.614
 3893SOL    HW212579   4.129   3.383   2.493
 3894SOL     OW12580   4.575   0.720   5.777
 3894SOL    HW112581   4.551   0.779   5.854
 3894SOL    HW212582   4.493   0.673   5.745
 3895SOL     OW12583   0.719   0.491   4.003
 3895SOL    HW112584   0.705   0.393   4.017
 3895SOL    HW212585   0.786   0.525   4.069
 3896SOL     OW12586   1.673   1.224   6.215
 3896SOL    HW112587   1.626   1.305   6.251
 3896SOL    HW212588   1.739   1.192   6.282
 3897SOL     OW12589   4.090   6.100   1.466
 3897SOL    HW112590   4.104   6.089   1.564
 3897SOL    HW212591   4.110   6.014   1.419
 3898SOL     OW12592   3.828   3.226   0.931
 3898SOL    HW112593   3.842   3.233   1.030
 3898SOL    HW212594   3.916   3.208   0.886
 3899SOL     OW12595   3.368   0.528   5.810
 3899SOL    HW112596   3.372   0.622   5.776
 3899SOL    HW212597   3.458   0.502   5.846
 3900SOL     OW12598   4.801   3.973   3.046
 3900SOL    HW112599   4.766   4.066   3.040
 3900SOL    HW212600   4.822   3.951   3.141
 3901SOL     OW12601   2.846   0.668   6.673
 3901SOL    HW112602   2.919   0.647   6.738
 3901SOL    HW212603   2.882   0.723   6.598
 3902SOL     OW12604   5.629   2.885   2.532
 3902SOL    HW112605   5.710   2.829   2.550
 3902SOL    HW212606   5.617   2.895   2.433
 3903SOL     OW12607   3.098   4.422   6.055
 3903SOL    HW112608   3.084   4.505   6.002
 3903SOL    HW212609   3.031   4.353   6.027
 3904SOL     OW12610   1.563   0.664   0.834
 3904SOL    HW112611   1.498   0.645   0.760
 3904SOL    HW212612   1.616   0.582   0.853
 3905SOL     OW12613   6.619   6.217   5.194
 3905SOL    HW112614   6.712   6.233   5.227
 3905SOL    HW212615   6.614   6.243   5.097
 3906SOL     OW12616   6.336   6.470   4.868
 3906SOL    HW112617   6.250   6.464   4.817
 3906SOL    HW212618   6.377   6.560   4.853
 3907SOL     OW12619   6.276   2.384   3.612
 3907SOL    HW112620   6.360   2.392   3.560
 3907SOL    HW212621   6.198   2.413   3.556
 3908SOL     OW12622   2.534   4.097   6.111
 3908SOL    HW112623   2.517   4.170   6.177
 3908SOL    HW212624   2.497   4.122   6.022
 3909SOL     OW12625   5.622   5.792   3.624
 3909SOL    HW112626   5.648   5.836   3.711
 3909SOL    HW212627   5.621   5.693   3.636
 3910SOL     OW12628   3.867   3.334   2.811
 3910SOL    HW112629   3.932   3.265   2.781
 3910SOL    HW212630   3.861   3.407   2.743
 3911SOL     OW12631   6.542   2.582   5.557
 3911SOL    HW112632   6.589   2.664   5.525
 3911SOL    HW212633   6.483   2.547   5.484
 3912SOL     OW12634   5.068   2.848   6.321
 3912SOL    HW112635   5.048   2.944   6.339
 3912SOL    HW212636   5.013   2.817   6.243
 3913SOL     OW12637   1.091   6.417   1.276
 3913SOL    HW112638   1.002   6.374   1.261
 3913SOL    HW212639   1.080   6.516   1.283
 3914SOL     OW12640   3.171   5.928   5.775
 3914SOL    HW112641   3.090   5.925   5.717
 3914SOL    HW212642   3.149   5.976   5.860
 3915SOL     OW12643   6.558   6.272   1.626
 3915SOL    HW112644   6.614   6.203   1.672
 3915SOL    HW212645   6.512   6.230   1.547
 3916SOL     OW12646   0.630   0.215   3.055
 3916SOL    HW112647   0.617   0.289   3.121
 3916SOL    HW212648   0.542   0.175   3.031
 3917SOL     OW12649   2.264   0.428   0.020
 3917SOL    HW112650   2.283   0.330   0.024
 3917SOL    HW212651   2.179   0.443   6.991
 3918SOL     OW12652   5.460   3.129   0.172
 3918SOL    HW112653   5.449   3.147   0.270
 3918SOL    HW212654   5.372   3.103   0.132
 3919SOL     OW12655   3.307   6.750   0.848
 3919SOL    HW112656   3.305   6.803   0.933
 3919SOL    HW212657   3.276   6.808   0.772
 3920SOL     OW12658   2.107   1.708   6.929
 3920SOL    HW112659   2.042   1.784   6.923
 3920SOL    HW212660   2.096   1.662   7.017
 3921SOL     OW12661   1.336   3.745   1.729
 3921SOL    HW112662   1.408   3.781   1.788
 3921SOL    HW212663   1.252   3.797   1.743
 3922SOL     OW12664   1.291   5.065   1.255
 3922SOL    HW112665   1.267   5.057   1.352
 3922SOL    HW212666   1.341   5.150   1.240
 3923SOL     OW12667   6.682   0.549   1.051
 3923SOL    HW112668   6.724   0.627   1.005
 3923SOL    HW212669   6.752   0.481   1.073
 3924SOL     OW12670   6.665   5.028   4.319
 3924SOL    HW112671   6.658   4.931   4.294
 3924SOL    HW212672   6.721   5.037   4.401
 3925SOL     OW12673   1.873   5.272   1.840
 3925SOL    HW112674   1.958   5.295   1.887
 3925SOL    HW212675   1.892   5.207   1.766
 3926SOL     OW12676   3.572   5.109   2.883
 3926SOL    HW112677   3.660   5.148   2.857
 3926SOL    HW212678   3.576   5.009   2.878
 3927SOL     OW12679   0.956   3.596   6.241
 3927SOL    HW112680   0.897   3.660   6.192
 3927SOL    HW212681   0.910   3.508   6.250
 3928SOL     OW12682   6.065   5.486   6.719
 3928SOL    HW112683   6.116   5.571   6.711
 3928SOL    HW212684   6.032   5.458   6.628
 3929SOL     OW12685   0.696   1.677   4.542
 3929SOL    HW112686   0.645   1.757   4.574
 3929SOL    HW212687   0.653   1.639   4.461
 3930SOL     OW12688   2.964   1.811   4.048
 3930SOL    HW112689   2.889   1.769   4.100
 3930SOL    HW212690   3.003   1.744   3.986
 3931SOL     OW12691   5.533   0.285   2.152
 3931SOL    HW112692   5.628   0.280   2.182
 3931SOL    HW212693   5.489   0.197   2.168
 3932SOL     OW12694   1.839   1.489   4.170
 3932SOL    HW112695   1.826   1.513   4.074
 3932SOL    HW212696   1.839   1.390   4.180
 3933SOL     OW12697   0.910   0.006   5.739
 3933SOL    HW112698   0.938   0.034   5.831
 3933SOL    HW212699   0.837   6.960   5.746
 3934SOL     OW12700   5.017   6.661   6.839
 3934SOL    HW112701   4.962   6.651   6.922
 3934SOL    HW212702   5.057   6.573   6.815
 3935SOL     OW12703   4.788   0.091   0.962
 3935SOL    HW112704   4.820   0.103   1.055
 3935SOL    HW212705   4.841   0.150   0.900
 3936SOL     OW12706   0.717   4.749   2.518
 3936SOL    HW112707   0.709   4.740   2.418
 3936SOL    HW212708   0.632   4.720   2.561
 3937SOL     OW12709   0.232   1.550   2.631
 3937SOL    HW112710   0.218   1.452   2.641
 3937SOL    HW212711   0.157   1.599   2.674
 3938SOL     OW12712   0.586   2.392   3.020
 3938SOL    HW112713   0.654   2.346   2.963
 3938SOL    HW212714   0.601   2.491   3.017
 3939SOL     OW12715   2.502   2.338   1.594
 3939SOL    HW112716   2.544   2.247   1.584
 3939SOL    HW212717   2.569   2.401   1.632
 3940SOL     OW12718   4.258   3.749   1.502
 3940SOL    HW112719   4.339   3.757   1.560
 3940SOL    HW212720   4.261   3.819   1.431
 3941SOL     OW12721   4.578   3.369   6.818
 3941SOL    HW112722   4.496   3.348   6.765
 3941SOL    HW212723   4.557   3.362   6.916
 3942SOL     OW12724   6.832   0.605   0.102
 3942SOL    HW112725   6.839   0.697   0.142
 3942SOL    HW212726   6.882   0.602   0.016
 3943SOL     OW12727   6.958   3.046   4.921
 3943SOL    HW112728   0.026   3.006   4.900
 3943SOL    HW212729   6.888   3.006   4.862
 3944SOL     OW12730   5.267   1.583   4.654
 3944SOL    HW112731   5.222   1.529   4.583
 3944SOL    HW212732   5.339   1.640   4.612
 3945SOL     OW12733   0.120   0.978   0.644
 3945SOL    HW112734   0.184   0.903   0.626
 3945SOL    HW212735   0.154   1.033   0.720
 3946SOL     OW12736   3.993   4.859   3.187
 3946SOL    HW112737   4.064   4.793   3.210
 3946SOL    HW212738   3.921   4.855   3.257
 3947SOL     OW12739   6.277   4.749   6.062
 3947SOL    HW112740   6.197   4.691   6.070
 3947SOL    HW212741   6.339   4.732   6.138
 3948SOL     OW12742   6.203   3.567   0.954
 3948SOL    HW112743   6.155   3.508   1.019
 3948SOL    HW212744   6.248   3.642   1.003
 3949SOL     OW12745   5.590   6.525   3.291
 3949SOL    HW112746   5.648   6.593   3.247
 3949SOL    HW212747   5.562   6.457   3.224
 3950SOL     OW12748   2.059   6.358   0.601
 3950SOL    HW112749   1.990   6.317   0.660
 3950SOL    HW212750   2.142   6.303   0.602
 3951SOL     OW12751   5.442   6.697   1.527
 3951SOL    HW112752   5.518   6.759   1.506
 3951SOL    HW212753   5.415   6.709   1.623
 3952SOL     OW12754   5.730   2.218   0.080
 3952SOL    HW112755   5.662   2.170   0.136
 3952SOL    HW212756   5.818   2.217   0.128
 3953SOL     OW12757   4.046   3.858   2.838
 3953SOL    HW112758   4.041   3.881   2.936
 3953SOL    HW212759   4.118   3.913   2.795
 3954SOL     OW12760   4.343   4.865   5.463
 3954SOL    HW112761   4.362   4.827   5.553
 3954SOL    HW212762   4.331   4.790   5.397
 3955SOL     OW12763   4.010   1.049   4.744
 3955SOL    HW112764   4.008   0.989   4.665
 3955SOL    HW212765   4.015   0.994   4.828
 3956SOL     OW12766   2.558   1.112   1.844
 3956SOL    HW112767   2.555   1.073   1.752
 3956SOL    HW212768   2.511   1.050   1.908
 3957SOL     OW12769   3.865   0.742   4.386
 3957SOL    HW112770   3.880   0.768   4.291
 3957SOL    HW212771   3.775   0.775   4.416
 3958SOL     OW12772   5.479   0.208   5.519
 3958SOL    HW112773   5.514   0.117   5.539
 3958SOL    HW212774   5.422   0.239   5.595
 3959SOL     OW12775   4.729   5.304   0.146
 3959SOL    HW112776   4.745   5.339   0.239
 3959SOL    HW212777   4.794   5.346   0.084
 3960SOL     OW12778   5.648   1.525   4.757
 3960SOL    HW112779   5.710   1.517   4.835
 3960SOL    HW212780   5.613   1.435   4.732
 3961SOL     OW12781   5.751   6.421   3.786
 3961SOL    HW112782   5.832   6.475   3.808
 3961SOL    HW212783   5.743   6.411   3.687
 3962SOL     OW12784   6.971   5.687   5.388
 3962SOL    HW112785   6.940   5.761   5.328
 3962SOL    HW212786   0.003   5.726   5.463
 3963SOL     OW12787   4.699   6.680   2.144
 3963SOL    HW112788   4.712   6.720   2.235
 3963SOL    HW212789   4.665   6.586   2.154
 3964SOL     OW12790   5.479   2.775   3.351
 3964SOL    HW112791   5.450   2.724   3.271
 3964SOL    HW212792   5.413   2.847   3.371
 3965SOL     OW12793   4.976   3.815   4.227
 3965SOL    HW112794   4.932   3.765   4.302
 3965SOL    HW212795   4.991   3.910   4.255
 3966SOL     OW12796   2.422   6.495   6.573
 3966SOL    HW112797   2.430   6.587   6.612
 3966SOL    HW212798   2.512   6.453   6.570
 3967SOL     OW12799   2.113   4.514   3.467
 3967SOL    HW112800   2.074   4.536   3.377
 3967SOL    HW212801   2.054   4.549   3.538
 3968SOL     OW12802   3.454   0.042   0.913
 3968SOL    HW112803   3.545   0.001   0.919
 3968SOL    HW212804   3.462   0.141   0.909
 3969SOL     OW12805   0.703   5.298   2.747
 3969SOL    HW112806   0.798   5.298   2.780
 3969SOL    HW212807   0.703   5.292   2.648
 3970SOL     OW12808   4.932   6.332   1.995
 3970SOL    HW112809   4.923   6.314   1.897
 3970SOL    HW212810   4.958   6.427   2.009
 3971SOL     OW12811   2.087   6.152   3.462
 3971SOL    HW112812   2.112   6.063   3.424
 3971SOL    HW212813   1.995   6.147   3.501
 3972SOL     OW12814   1.771   3.956   0.022
 3972SOL    HW112815   1.700   3.942   6.974
 3972SOL    HW212816   1.773   3.877   0.084
 3973SOL     OW12817   1.754   5.342   1.201
 3973SOL    HW112818   1.721   5.411   1.137
 3973SOL    HW212819   1.826   5.382   1.259
 3974SOL     OW12820   2.442   1.338   5.290
 3974SOL    HW112821   2.359   1.287   5.268
 3974SOL    HW212822   2.418   1.422   5.339
 3975SOL     OW12823   6.107   2.592   6.236
 3975SOL    HW112824   6.080   2.611   6.142
 3975SOL    HW212825   6.166   2.666   6.269
 3976SOL     OW12826   2.087   5.110   2.345
 3976SOL    HW112827   2.162   5.066   2.395
 3976SOL    HW212828   2.001   5.065   2.367
 3977SOL     OW12829   0.942   3.514   6.585
 3977SOL    HW112830   0.934   3.564   6.499
 3977SOL    HW212831   1.016   3.447   6.579
 3978SOL     OW12832   6.364   4.092   3.580
 3978SOL    HW112833   6.410   4.018   3.629
 3978SOL    HW212834   6.311   4.054   3.505
 3979SOL     OW12835   3.842   6.861   6.555
 3979SOL    HW112836   3.792   6.851   6.469
 3979SOL    HW212837   3.908   6.786   6.564
 3980SOL     OW12838   5.093   5.662   6.047
 3980SOL    HW112839   5.048   5.738   6.094
 3980SOL    HW212840   5.108   5.686   5.951
 3981SOL     OW12841   4.408   6.327   0.111
 3981SOL    HW112842   4.388   6.406   0.169
 3981SOL    HW212843   4.322   6.282   0.085
 3982SOL     OW12844   2.750   6.229   3.252
 3982SOL    HW112845   2.703   6.313   3.278
 3982SOL    HW212846   2.801   6.244   3.167
 3983SOL     OW12847   3.815   5.844   4.414
 3983SOL    HW112848   3.766   5.906   4.352
 3983SOL    HW212849   3.897   5.890   4.449
 3984SOL     OW12850   6.725   2.480   3.275
 3984SOL    HW112851   6.724   2.396   3.329
 3984SOL    HW212852   6.819   2.512   3.265
 3985SOL     OW12853   4.215   4.779   6.461
 3985SOL    HW112854   4.199   4.807   6.556
 3985SOL    HW212855   4.155   4.702   6.439
 3986SOL     OW12856   5.298   0.543   2.883
 3986SOL    HW112857   5.287   0.568   2.980
 3986SOL    HW212858   5.327   0.624   2.832
 3987SOL     OW12859   3.320   5.483   4.907
 3987SOL    HW112860   3.396   5.546   4.922
 3987SOL    HW212861   3.261   5.482   4.988
 3988SOL     OW12862   3.642   5.992   0.755
 3988SOL    HW112863   3.689   6.080   0.745
 3988SOL    HW212864   3.704   5.926   0.797
 3989SOL     OW12865   5.620   2.044   0.384
 3989SOL    HW112866   5.530   2.010   0.412
 3989SOL    HW212867   5.645   2.122   0.442
 3990SOL     OW12868   6.610   1.905   2.511
 3990SOL    HW112869   6.665   1.969   2.564
 3990SOL    HW212870   6.515   1.937   2.507
 3991SOL     OW12871   6.387   0.486   3.192
 3991SOL    HW112872   6.468   0.507   3.137
 3991SOL    HW212873   6.329   0.422   3.143
 3992SOL     OW12874   3.189   1.983   1.199
 3992SOL    HW112875   3.219   1.972   1.294
 3992SOL    HW212876   3.151   1.896   1.167
 3993SOL     OW12877   0.856   2.985   1.851
 3993SOL    HW112878   0.769   2.985   1.801
 3993SOL    HW212879   0.887   2.891   1.864
 3994SOL     OW12880   2.355   6.061   4.596
 3994SOL    HW112881   2.272   6.009   4.577
 3994SOL    HW212882   2.376   6.056   4.694
 3995SOL     OW12883   1.499   2.092   4.516
 3995SOL    HW112884   1.435   2.168   4.530
 3995SOL    HW212885   1.589   2.117   4.552
 3996SOL     OW12886   6.770   6.341   4.376
 3996SOL    HW112887   6.696   6.378   4.320
 3996SOL    HW212888   6.833   6.289   4.318
 3997SOL     OW12889   4.488   0.986   4.567
 3997SOL    HW112890   4.570   0.933   4.591
 3997SOL    HW212891   4.423   0.983   4.642
 3998SOL     OW12892   4.489   1.732   3.431
 3998SOL    HW112893   4.506   1.820   3.386
 3998SOL    HW212894   4.396   1.730   3.468
 3999SOL     OW12895   5.066   2.188   4.812
 3999SOL    HW112896   5.106   2.116   4.869
 3999SOL    HW212897   4.992   2.149   4.758
 4000SOL     OW12898   4.209   6.761   4.032
 4000SOL    HW112899   4.204   6.721   4.123
 4000SOL    HW212900   4.255   6.698   3.970
 4001SOL     OW12901   1.118   2.257   4.375
 4001SOL    HW112902   1.179   2.292   4.304
 4001SOL    HW212903   1.028   2.240   4.336
 4002SOL     OW12904   2.182   4.207   2.070
 4002SOL    HW112905   2.196   4.270   2.147
 4002SOL    HW212906   2.130   4.128   2.100
 4003SOL     OW12907   3.454   1.845   5.076
 4003SOL    HW112908   3.453   1.841   5.176
 4003SOL    HW212909   3.518   1.916   5.047
 4004SOL     OW12910   6.598   1.832   5.226
 4004SOL    HW112911   6.500   1.847   5.211
 4004SOL    HW212912   6.644   1.819   5.138
 4005SOL     OW12913   5.999   4.651   4.933
 4005SOL    HW112914   6.071   4.583   4.920
 4005SOL    HW212915   5.979   4.696   4.846
 4006SOL     OW12916   3.834   5.345   2.578
 4006SOL    HW112917   3.864   5.440   2.570
 4006SOL    HW212918   3.908   5.284   2.547
 4007SOL     OW12919   6.658   1.771   6.495
 4007SOL    HW112920   6.751   1.787   6.460
 4007SOL    HW212921   6.591   1.799   6.426
 4008SOL     OW12922   2.701   2.293   4.868
 4008SOL    HW112923   2.622   2.352   4.886
 4008SOL    HW212924   2.750   2.278   4.954
 4009SOL     OW12925   3.275   3.444   2.734
 4009SOL    HW112926   3.359   3.400   2.702
 4009SOL    HW212927   3.195   3.395   2.697
 4010SOL     OW12928   1.349   2.825   6.998
 4010SOL    HW112929   1.388   2.864   6.915
 4010SOL    HW212930   1.407   2.845   0.054
 4011SOL     OW12931   0.954   2.569   0.939
 4011SOL    HW112932   0.875   2.507   0.933
 4011SOL    HW212933   1.009   2.560   0.856
 4012SOL     OW12934   5.573   2.788   3.624
 4012SOL    HW112935   5.532   2.768   3.535
 4012SOL    HW212936   5.501   2.799   3.693
 4013SOL     OW12937   4.347   2.382   3.230
 4013SOL    HW112938   4.386   2.419   3.146
 4013SOL    HW212939   4.420   2.364   3.296
 4014SOL     OW12940   5.730   6.297   2.313
 4014SOL    HW112941   5.693   6.286   2.221
 4014SOL    HW212942   5.801   6.368   2.312
 4015SOL     OW12943   4.313   3.333   0.061
 4015SOL    HW112944   4.411   3.351   0.073
 4015SOL    HW212945   4.274   3.399   7.018
 4016SOL     OW12946   3.424   6.158   5.241
 4016SOL    HW112947   3.421   6.174   5.340
 4016SOL    HW212948   3.418   6.246   5.193
 4017SOL     OW12949   5.991   6.525   6.957
 4017SOL    HW112950   6.058   6.532   0.010
 4017SOL    HW212951   5.911   6.474   6.989
 4018SOL     OW12952   1.687   6.464   0.072
 4018SOL    HW112953   1.621   6.416   0.130
 4018SOL    HW212954   1.697   6.558   0.105
 4019SOL     OW12955   4.818   5.291   3.345
 4019SOL    HW112956   4.853   5.225   3.412
 4019SOL    HW212957   4.826   5.253   3.253
 4020SOL     OW12958   5.402   1.723   5.204
 4020SOL    HW112959   5.344   1.805   5.197
 4020SOL    HW212960   5.384   1.663   5.127
 4021SOL     OW12961   4.476   4.188   7.008
 4021SOL    HW112962   4.423   4.149   6.934
 4021SOL    HW212963   4.422   4.188   0.070
 4022SOL     OW12964   5.372   0.141   0.712
 4022SOL    HW112965   5.369   0.225   0.657
 4022SOL    HW212966   5.413   0.067   0.659
 4023SOL     OW12967   6.887   0.041   5.564
 4023SOL    HW112968   6.982   0.019   5.588
 4023SOL    HW212969   6.848   0.100   5.634
 4024SOL     OW12970   4.365   4.637   4.280
 4024SOL    HW112971   4.455   4.679   4.273
 4024SOL    HW212972   4.299   4.703   4.316
 4025SOL     OW12973   1.202   4.195   3.664
 4025SOL    HW112974   1.231   4.248   3.585
 4025SOL    HW212975   1.241   4.234   3.747
 4026SOL     OW12976   4.764   6.853   5.048
 4026SOL    HW112977   4.809   6.867   4.960
 4026SOL    HW212978   4.733   6.941   5.084
 4027SOL     OW12979   3.489   4.893   2.458
 4027SOL    HW112980   3.398   4.908   2.495
 4027SOL    HW212981   3.484   4.886   2.358
 4028SOL     OW12982   2.407   5.965   3.728
 4028SOL    HW112983   2.323   5.922   3.760
 4028SOL    HW212984   2.480   5.948   3.794
 4029SOL     OW12985   2.095   3.821   3.473
 4029SOL    HW112986   2.155   3.767   3.531
 4029SOL    HW212987   2.020   3.859   3.527
 4030SOL     OW12988   1.259   1.765   6.196
 4030SOL    HW112989   1.320   1.724   6.128
 4030SOL    HW212990   1.314   1.809   6.268
 4031SOL     OW12991   5.712   5.754   3.960
 4031SOL    HW112992   5.807   5.764   3.931
 4031SOL    HW212993   5.687   5.831   4.018
 4032SOL     OW12994   3.977   6.904   5.210
 4032SOL    HW112995   4.052   6.953   5.255
 4032SOL    HW212996   4.010   6.862   5.125
 4033SOL     OW12997   3.345   3.846   5.947
 4033SOL    HW112998   3.270   3.780   5.939
 4033SOL    HW212999   3.367   3.883   5.856
 4034SOL     OW13000   5.613   2.938   5.111
 4034SOL    HW113001   5.713   2.931   5.119
 4034SOL    HW213002   5.584   2.902   5.023
 4035SOL     OW13003   0.232   5.464   1.299
 4035SOL    HW113004   0.220   5.429   1.206
 4035SOL    HW213005   0.238   5.564   1.296
 4036SOL     OW13006   0.138   6.084   2.439
 4036SOL    HW113007   0.169   6.043   2.354
 4036SOL    HW213008   0.065   6.028   2.479
 4037SOL     OW13009   6.864   3.579   5.695
 4037SOL    HW113010   6.855   3.521   5.614
 4037SOL    HW213011   6.905   3.527   5.770
 4038SOL     OW13012   6.346   5.282   3.376
 4038SOL    HW113013   6.260   5.300   3.424
 4038SOL    HW213014   6.366   5.357   3.314
 4039SOL     OW13015   3.033   5.579   1.006
 4039SOL    HW113016   2.955   5.623   0.961
 4039SOL    HW213017   3.059   5.631   1.087
 4040SOL     OW13018   3.000   6.688   0.522
 4040SOL    HW113019   2.920   6.707   0.579
 4040SOL    HW213020   3.008   6.589   0.508
 4041SOL     OW13021   0.823   6.452   2.922
 4041SOL    HW113022   0.809   6.420   3.015
 4041SOL    HW213023   0.859   6.378   2.865
 4042SOL     OW13024   5.860   6.003   2.307
 4042SOL    HW113025   5.826   6.092   2.336
 4042SOL    HW213026   5.906   5.959   2.384
 4043SOL     OW13027   6.556   3.738   1.609
 4043SOL    HW113028   6.541   3.826   1.565
 4043SOL    HW213029   6.493   3.727   1.686
 4044SOL     OW13030   5.958   5.404   2.648
 4044SOL    HW113031   5.977   5.320   2.596
 4044SOL    HW213032   6.019   5.409   2.727
 4045SOL     OW13033   2.489   4.561   5.610
 4045SOL    HW113034   2.389   4.563   5.603
 4045SOL    HW213035   2.526   4.650   5.584
 4046SOL     OW13036   7.021   3.027   0.365
 4046SOL    HW113037   6.932   3.058   0.331
 4046SOL    HW213038   7.021   2.928   0.374
 4047SOL     OW13039   2.996   3.854   2.683
 4047SOL    HW113040   2.986   3.761   2.649
 4047SOL    HW213041   2.968   3.859   2.779
 4048SOL     OW13042   4.677   2.391   0.356
 4048SOL    HW113043   4.643   2.483   0.373
 4048SOL    HW213044   4.612   2.342   0.299
 4049SOL     OW13045   6.702   0.765   6.169
 4049SOL    HW113046   6.695   0.834   6.096
 4049SOL    HW213047   6.793   0.768   6.209
 4050SOL     OW13048   3.318   0.831   2.569
 4050SOL    HW113049   3.373   0.850   2.651
 4050SOL    HW213050   3.260   0.751   2.586
 4051SOL     OW13051   1.522   4.224   1.073
 4051SOL    HW113052   1.464   4.192   1.148
 4051SOL    HW213053   1.518   4.158   0.998
 4052SOL     OW13054   1.432   6.954   1.619
 4052SOL    HW113055   1.488   6.981   1.697
 4052SOL    HW213056   1.405   6.858   1.628
 4053SOL     OW13057   3.052   5.172   3.521
 4053SOL    HW113058   2.998   5.095   3.486
 4053SOL    HW213059   3.060   5.243   3.451
 4054SOL     OW13060   5.163   1.795   6.430
 4054SOL    HW113061   5.232   1.866   6.447
 4054SOL    HW213062   5.072   1.834   6.442
 4055SOL     OW13063   4.543   3.013   0.162
 4055SOL    HW113064   4.492   2.948   0.219
 4055SOL    HW213065   4.488   3.039   0.083
 4056SOL     OW13066   4.347   2.846   0.299
 4056SOL    HW113067   4.265   2.902   0.310
 4056SOL    HW213068   4.327   2.768   0.241
 4057SOL     OW13069   6.056   2.428   0.540
 4057SOL    HW113070   6.055   2.381   0.628
 4057SOL    HW213071   5.980   2.395   0.484
 4058SOL     OW13072   0.601   1.707   3.710
 4058SOL    HW113073   0.677   1.683   3.649
 4058SOL    HW213074   0.638   1.742   3.796
 4059SOL     OW13075   6.962   2.088   5.502
 4059SOL    HW113076   0.026   2.057   5.462
 4059SOL    HW213077   6.893   2.017   5.490
 4060SOL     OW13078   3.441   5.969   5.675
 4060SOL    HW113079   3.484   5.880   5.663
 4060SOL    HW213080   3.349   5.957   5.711
 4061SOL     OW13081   2.096   2.898   1.299
 4061SOL    HW113082   2.112   2.799   1.305
 4061SOL    HW213083   2.113   2.929   1.206
 4062SOL     OW13084   3.214   6.205   2.629
 4062SOL    HW113085   3.158   6.234   2.551
 4062SOL    HW213086   3.210   6.106   2.637
 4063SOL     OW13087   2.787   5.420   6.613
 4063SOL    HW113088   2.812   5.364   6.692
 4063SOL    HW213089   2.716   5.373   6.560
 4064SOL     OW13090   6.597   6.968   4.358
 4064SOL    HW113091   6.605   0.045   4.372
 4064SOL    HW213092   6.518   6.933   4.408
 4065SOL     OW13093   0.361   4.525   5.988
 4065SOL    HW113094   0.314   4.552   5.903
 4065SOL    HW213095   0.345   4.595   6.058
 4066SOL     OW13096   5.354   5.115   1.470
 4066SOL    HW113097   5.375   5.036   1.411
 4066SOL    HW213098   5.261   5.146   1.451
 4067SOL     OW13099   5.854   0.995   1.222
 4067SOL    HW113100   5.787   0.957   1.286
 4067SOL    HW213101   5.930   1.035   1.273
 4068SOL     OW13102   5.668   0.951   4.457
 4068SOL    HW113103   5.688   0.894   4.377
 4068SOL    HW213104   5.722   1.034   4.453
 4069SOL     OW13105   6.661   6.165   0.729
 4069SOL    HW113106   6.588   6.097   0.717
 4069SOL    HW213107   6.704   6.184   0.641
 4070SOL     OW13108   0.097   3.828   2.970
 4070SOL    HW113109   0.058   3.890   3.038
 4070SOL    HW213110   0.035   3.820   2.892
 4071SOL     OW13111   2.824   0.243   4.113
 4071SOL    HW113112   2.759   0.260   4.039
 4071SOL    HW213113   2.803   0.156   4.157
 4072SOL     OW13114   0.916   6.982   4.254
 4072SOL    HW113115   0.942   0.044   4.206
 4072SOL    HW213116   0.855   6.928   4.196
 4073SOL     OW13117   2.390   5.206   2.213
 4073SOL    HW113118   2.293   5.210   2.193
 4073SOL    HW213119   2.412   5.119   2.259
 4074SOL     OW13120   0.324   3.023   0.046
 4074SOL    HW113121   0.249   3.079   0.014
 4074SOL    HW213122   0.370   2.980   6.990
 4075SOL     OW13123   5.679   0.391   3.952
 4075SOL    HW113124   5.740   0.461   3.915
 4075SOL    HW213125   5.589   0.431   3.969
 4076SOL     OW13126   1.772   2.746   3.143
 4076SOL    HW113127   1.846   2.798   3.101
 4076SOL    HW213128   1.811   2.682   3.210
 4077SOL     OW13129   3.849   0.825   0.640
 4077SOL    HW113130   3.903   0.742   0.656
 4077SOL    HW213131   3.755   0.810   0.672
 4078SOL     OW13132   4.662   4.301   2.530
 4078SOL    HW113133   4.635   4.266   2.440
 4078SOL    HW213134   4.669   4.224   2.595
 4079SOL     OW13135   5.387   0.272   4.180
 4079SOL    HW113136   5.434   0.219   4.109
 4079SOL    HW213137   5.450   0.339   4.219
 4080SOL     OW13138   3.142   3.050   3.476
 4080SOL    HW113139   3.050   3.089   3.485
 4080SOL    HW213140   3.154   3.017   3.382
 4081SOL     OW13141   2.440   1.847   0.103
 4081SOL    HW113142   2.520   1.815   0.155
 4081SOL    HW213143   2.381   1.901   0.163
 4082SOL     OW13144   0.919   1.812   5.837
 4082SOL    HW113145   1.014   1.837   5.855
 4082SOL    HW213146   0.915   1.728   5.784
 4083SOL     OW13147   6.189   5.393   2.813
 4083SOL    HW113148   6.184   5.301   2.850
 4083SOL    HW213149   6.245   5.393   2.730
 4084SOL     OW13150   5.035   6.809   2.038
 4084SOL    HW113151   5.102   6.862   1.986
 4084SOL    HW213152   4.943   6.826   2.002
 4085SOL     OW13153   2.221   4.101   2.792
 4085SOL    HW113154   2.259   4.191   2.813
 4085SOL    HW213155   2.245   4.037   2.865
 4086SOL     OW13156   5.826   5.078   4.983
 4086SOL    HW113157   5.787   5.082   5.075
 4086SOL    HW213158   5.924   5.056   4.988
 4087SOL     OW13159   2.035   0.911   2.073
 4087SOL    HW113160   2.040   0.978   1.999
 4087SOL    HW213161   1.941   0.908   2.109
 4088SOL     OW13162   6.986   1.375   5.534
 4088SOL    HW113163   6.999   1.294   5.477
 4088SOL    HW213164   6.932   1.442   5.483
 4089SOL     OW13165   1.791   0.964   2.996
 4089SOL    HW113166   1.774   0.975   2.898
 4089SOL    HW213167   1.737   1.031   3.047
 4090SOL     OW13168   3.022   2.428   5.672
 4090SOL    HW113169   3.060   2.514   5.706
 4090SOL    HW213170   3.010   2.434   5.573
 4091SOL     OW13171   3.541   6.165   2.417
 4091SOL    HW113172   3.479   6.125   2.350
 4091SOL    HW213173   3.543   6.107   2.499
 4092SOL     OW13174   5.428   1.811   6.075
 4092SOL    HW113175   5.456   1.729   6.125
 4092SOL    HW213176   5.496   1.832   6.005
 4093SOL     OW13177   5.702   3.583   2.807
 4093SOL    HW113178   5.710   3.672   2.853
 4093SOL    HW213179   5.772   3.577   2.735
 4094SOL     OW13180   6.943   6.870   0.267
 4094SOL    HW113181   6.865   6.858   0.206
 4094SOL    HW213182   6.992   6.784   0.278
 4095SOL     OW13183   1.700   5.544   1.022
 4095SOL    HW113184   1.760   5.509   0.950
 4095SOL    HW213185   1.745   5.620   1.069
 4096SOL     OW13186   0.645   0.063   6.401
 4096SOL    HW113187   0.606   0.155   6.389
 4096SOL    HW213188   0.575   7.017   6.380
 4097SOL     OW13189   0.850   3.598   5.174
 4097SOL    HW113190   0.907   3.585   5.255
 4097SOL    HW213191   0.874   3.529   5.105
 4098SOL     OW13192   1.540   6.111   2.030
 4098SOL    HW113193   1.533   6.209   2.050
 4098SOL    HW213194   1.569   6.063   2.112
 4099SOL     OW13195   6.625   3.341   5.371
 4099SOL    HW113196   6.625   3.254   5.321
 4099SOL    HW213197   6.558   3.402   5.330
 4100SOL     OW13198   2.564   0.463   3.483
 4100SOL    HW113199   2.535   0.393   3.418
 4100SOL    HW213200   2.646   0.509   3.449
 4101SOL     OW13201   6.243   5.859   6.087
 4101SOL    HW113202   6.249   5.953   6.054
 4101SOL    HW213203   6.283   5.797   6.019
 4102SOL     OW13204   1.694   5.914   0.475
 4102SOL    HW113205   1.793   5.926   0.481
 4102SOL    HW213206   1.670   5.820   0.501
 4103SOL     OW13207   2.511   5.280   2.723
 4103SOL    HW113208   2.534   5.374   2.747
 4103SOL    HW213209   2.415   5.276   2.693
 4104SOL     OW13210   1.714   6.052   5.314
 4104SOL    HW113211   1.704   5.982   5.243
 4104SOL    HW213212   1.811   6.073   5.326
 4105SOL     OW13213   3.706   6.626   1.867
 4105SOL    HW113214   3.719   6.528   1.857
 4105SOL    HW213215   3.689   6.649   1.963
 4106SOL     OW13216   1.635   0.268   2.691
 4106SOL    HW113217   1.674   0.177   2.706
 4106SOL    HW213218   1.678   0.309   2.610
 4107SOL     OW13219   1.556   1.343   0.795
 4107SOL    HW113220   1.496   1.423   0.804
 4107SOL    HW213221   1.568   1.299   0.884
 4108SOL     OW13222   6.717   6.517   5.178
 4108SOL    HW113223   6.707   6.483   5.085
 4108SOL    HW213224   6.784   6.462   5.227
 4109SOL     OW13225   4.702   6.746   4.677
 4109SOL    HW113226   4.708   6.682   4.754
 4109SOL    HW213227   4.613   6.793   4.680
 4110SOL     OW13228   4.153   3.273   0.309
 4110SOL    HW113229   4.141   3.370   0.328
 4110SOL    HW213230   4.214   3.261   0.231
 4111SOL     OW13231   6.076   4.649   3.693
 4111SOL    HW113232   6.078   4.747   3.708
 4111SOL    HW213233   6.118   4.627   3.605
 4112SOL     OW13234   3.757   6.066   5.117
 4112SOL    HW113235   3.785   6.034   5.026
 4112SOL    HW213236   3.743   6.164   5.115
 4113SOL     OW13237   4.952   5.239   5.283
 4113SOL    HW113238   4.895   5.191   5.216
 4113SOL    HW213239   5.048   5.233   5.255
 4114SOL     OW13240   0.348   0.545   2.592
 4114SOL    HW113241   0.307   0.459   2.561
 4114SOL    HW213242   0.322   0.619   2.530
 4115SOL     OW13243   3.905   5.973   4.897
 4115SOL    HW113244   3.946   5.995   4.809
 4115SOL    HW213245   3.974   5.928   4.955
 4116SOL     OW13246   6.415   3.529   4.137
 4116SOL    HW113247   6.390   3.447   4.085
 4116SOL    HW213248   6.382   3.610   4.089
 4117SOL     OW13249   0.193   1.358   2.950
 4117SOL    HW113250   0.288   1.386   2.962
 4117SOL    HW213251   0.178   1.332   2.854
 4118SOL     OW13252   1.644   0.344   1.327
 4118SOL    HW113253   1.721   0.324   1.387
 4118SOL    HW213254   1.668   0.420   1.266
 4119SOL     OW13255   0.001   0.888   5.181
 4119SOL    HW113256   7.003   0.807   5.235
 4119SOL    HW213257   6.938   0.933   5.155
 4120SOL     OW13258   2.131   0.801   6.035
 4120SOL    HW113259   2.158   0.826   6.128
 4120SOL    HW213260   2.045   0.751   6.037
 4121SOL     OW13261   6.491   0.887   1.279
 4121SOL    HW113262   6.446   0.959   1.227
 4121SOL    HW213263   6.437   0.803   1.272
 4122SOL     OW13264   0.969   5.191   3.213
 4122SOL    HW113265   0.920   5.260   3.266
 4122SOL    HW213266   0.978   5.107   3.266
 4123SOL     OW13267   5.794   4.416   1.537
 4123SOL    HW113268   5.841   4.487   1.591
 4123SOL    HW213269   5.851   4.391   1.459
 4124SOL     OW13270   6.328   0.063   0.135
 4124SOL    HW113271   6.418   0.093   0.166
 4124SOL    HW213272   6.329   0.055   0.035
 4125SOL     OW13273   6.970   2.874   6.687
 4125SOL    HW113274   6.897   2.812   6.657
 4125SOL    HW213275   6.982   2.864   6.786
 4126SOL     OW13276   1.457   4.171   4.059
 4126SOL    HW113277   1.507   4.251   4.092
 4126SOL    HW213278   1.435   4.111   4.136
 4127SOL     OW13279   4.957   2.190   3.847
 4127SOL    HW113280   4.908   2.191   3.760
 4127SOL    HW213281   5.055   2.196   3.831
 4128SOL     OW13282   6.766   2.333   6.226
 4128SOL    HW113283   6.793   2.385   6.145
 4128SOL    HW213284   6.752   2.396   6.303
 4129SOL     OW13285   3.691   0.948   1.338
 4129SOL    HW113286   3.620   1.017   1.352
 4129SOL    HW213287   3.779   0.983   1.369
 4130SOL     OW13288   5.306   2.510   0.280
 4130SOL    HW113289   5.240   2.585   0.279
 4130SOL    HW213290   5.380   2.530   0.216
 4131SOL     OW13291   4.731   6.172   4.014
 4131SOL    HW113292   4.828   6.149   4.019
 4131SOL    HW213293   4.703   6.219   4.098
 4132SOL     OW13294   6.576   4.232   2.896
 4132SOL    HW113295   6.672   4.259   2.902
 4132SOL    HW213296   6.557   4.161   2.964
 4133SOL     OW13297   5.557   6.236   3.772
 4133SOL    HW113298   5.619   6.314   3.776
 4133SOL    HW213299   5.562   6.184   3.858
 4134SOL     OW13300   1.234   3.819   0.987
 4134SOL    HW113301   1.180   3.740   1.016
 4134SOL    HW213302   1.325   3.815   1.029
 4135SOL     OW13303   6.022   1.204   0.822
 4135SOL    HW113304   6.016   1.122   0.879
 4135SOL    HW213305   6.067   1.278   0.873
 4136SOL     OW13306   0.849   4.602   0.163
 4136SOL    HW113307   0.866   4.676   0.228
 4136SOL    HW213308   0.928   4.591   0.103
 4137SOL     OW13309   0.005   2.903   5.873
 4137SOL    HW113310   6.961   2.975   5.896
 4137SOL    HW213311   6.980   2.814   5.875
 4138SOL     OW13312   5.216   0.238   6.274
 4138SOL    HW113313   5.162   0.314   6.310
 4138SOL    HW213314   5.203   0.230   6.176
 4139SOL     OW13315   1.855   4.436   2.528
 4139SOL    HW113316   1.768   4.484   2.520
 4139SOL    HW213317   1.930   4.502   2.535
 4140SOL     OW13318   2.365   0.656   6.630
 4140SOL    HW113319   2.324   0.581   6.578
 4140SOL    HW213320   2.297   0.693   6.695
 4141SOL     OW13321   5.339   0.834   5.922
 4141SOL    HW113322   5.277   0.788   5.984
 4141SOL    HW213323   5.403   0.768   5.882
 4142SOL     OW13324   6.508   6.044   1.424
 4142SOL    HW113325   6.483   5.947   1.431
 4142SOL    HW213326   6.555   6.061   1.337
 4143SOL     OW13327   6.585   4.048   6.712
 4143SOL    HW113328   6.490   4.024   6.687
 4143SOL    HW213329   6.647   4.014   6.641
 4144SOL     OW13330   4.316   0.284   1.340
 4144SOL    HW113331   4.294   0.204   1.398
 4144SOL    HW213332   4.415   0.291   1.330
 4145SOL     OW13333   5.392   0.599   1.259
 4145SOL    HW113334   5.423   0.516   1.214
 4145SOL    HW213335   5.456   0.674   1.240
 4146SOL     OW13336   4.445   0.325   2.295
 4146SOL    HW113337   4.458   0.424   2.290
 4146SOL    HW213338   4.533   0.280   2.285
 4147SOL     OW13339   4.488   4.479   6.996
 4147SOL    HW113340   4.489   4.523   0.064
 4147SOL    HW213341   4.494   4.380   7.008
 4148SOL     OW13342   2.720   1.441   6.178
 4148SOL    HW113343   2.702   1.532   6.141
 4148SOL    HW213344   2.669   1.428   6.263
 4149SOL     OW13345   1.685   3.546   6.491
 4149SOL    HW113346   1.597   3.531   6.537
 4149SOL    HW213347   1.706   3.468   6.432
 4150SOL     OW13348   6.040   1.590   0.651
 4150SOL    HW113349   5.991   1.649   0.588
 4150SOL    HW213350   6.008   1.496   0.640
 4151SOL     OW13351   2.710   5.936   4.678
 4151SOL    HW113352   2.683   6.030   4.658
 4151SOL    HW213353   2.807   5.933   4.702
 4152SOL     OW13354   2.927   4.078   1.258
 4152SOL    HW113355   2.997   4.126   1.206
 4152SOL    HW213356   2.842   4.132   1.257
 4153SOL     OW13357   6.655   6.013   1.653
 4153SOL    HW113358   6.599   6.035   1.573
 4153SOL    HW213359   6.739   5.966   1.622
 4154SOL     OW13360   0.329   6.753   4.351
 4154SOL    HW113361   0.321   6.726   4.447
 4154SOL    HW213362   0.256   6.818   4.329
 4155SOL     OW13363   5.975   0.951   1.957
 4155SOL    HW113364   5.905   0.912   1.898
 4155SOL    HW213365   6.064   0.909   1.936
 4156SOL     OW13366   0.698   4.131   5.813
 4156SOL    HW113367   0.659   4.039   5.806
 4156SOL    HW213368   0.795   4.128   5.788
 4157SOL     OW13369   5.220   5.556   0.812
 4157SOL    HW113370   5.221   5.561   0.912
 4157SOL    HW213371   5.252   5.466   0.783
 4158SOL     OW13372   6.998   2.529   0.820
 4158SOL    HW113373   6.996   2.620   0.862
 4158SOL    HW213374   6.996   2.459   0.892
 4159SOL     OW13375   3.125   0.667   4.544
 4159SOL    HW113376   3.119   0.652   4.445
 4159SOL    HW213377   3.166   0.587   4.588
 4160SOL     OW13378   1.859   0.073   5.833
 4160SOL    HW113379   1.841   0.168   5.859
 4160SOL    HW213380   1.820   0.011   5.901
 4161SOL     OW13381   3.506   2.886   3.430
 4161SOL    HW113382   3.478   2.836   3.348
 4161SOL    HW213383   3.429   2.887   3.495
 4162SOL     OW13384   5.494   5.936   1.475
 4162SOL    HW113385   5.443   5.853   1.452
 4162SOL    HW213386   5.450   5.982   1.552
 4163SOL     OW13387   3.689   5.355   1.375
 4163SOL    HW113388   3.663   5.350   1.472
 4163SOL    HW213389   3.626   5.301   1.321
 4164SOL     OW13390   5.256   1.999   6.914
 4164SOL    HW113391   5.302   2.039   6.835
 4164SOL    HW213392   5.211   1.915   6.887
 4165SOL     OW13393   3.461   1.944   4.209
 4165SOL    HW113394   3.376   1.914   4.253
 4165SOL    HW213395   3.524   1.978   4.279
 4166SOL     OW13396   6.174   2.041   2.185
 4166SOL    HW113397   6.093   2.098   2.201
 4166SOL    HW213398   6.181   2.021   2.087
 4167SOL     OW13399   3.954   5.316   4.744
 4167SOL    HW113400   3.985   5.404   4.710
 4167SOL    HW213401   3.855   5.318   4.757
 4168SOL     OW13402   5.184   4.152   6.860
 4168SOL    HW113403   5.189   4.211   6.940
 4168SOL    HW213404   5.243   4.188   6.788
 4169SOL     OW13405   5.216   3.386   6.928
 4169SOL    HW113406   5.279   3.317   6.893
 4169SOL    HW213407   5.127   3.343   6.948
 4170SOL     OW13408   1.039   2.901   5.237
 4170SOL    HW113409   0.992   2.860   5.316
 4170SOL    HW213410   1.133   2.924   5.262
 4171SOL     OW13411   0.266   1.413   6.108
 4171SOL    HW113412   0.294   1.494   6.056
 4171SOL    HW213413   0.168   1.417   6.125
 4172SOL     OW13414   2.447   2.398   6.211
 4172SOL    HW113415   2.403   2.314   6.244
 4172SOL    HW213416   2.422   2.474   6.272
 4173SOL     OW13417   5.010   1.673   5.301
 4173SOL    HW113418   5.068   1.601   5.263
 4173SOL    HW213419   4.915   1.640   5.305
 4174SOL     OW13420   3.445   6.886   4.067
 4174SOL    HW113421   3.469   6.797   4.107
 4174SOL    HW213422   3.529   6.934   4.040
 4175SOL     OW13423   1.309   4.591   6.621
 4175SOL    HW113424   1.247   4.559   6.693
 4175SOL    HW213425   1.403   4.572   6.649
 4176SOL     OW13426   4.845   0.056   5.781
 4176SOL    HW113427   4.870   0.151   5.798
 4176SOL    HW213428   4.921   7.018   5.808
 4177SOL     OW13429   4.099   5.222   2.972
 4177SOL    HW113430   4.036   5.145   2.971
 4177SOL    HW213431   4.071   5.287   3.043
 4178SOL     OW13432   3.631   6.171   1.405
 4178SOL    HW113433   3.618   6.073   1.421
 4178SOL    HW213434   3.641   6.187   1.307
 4179SOL     OW13435   4.597   2.194   6.885
 4179SOL    HW113436   4.676   2.237   6.930
 4179SOL    HW213437   4.543   2.144   6.953
 4180SOL     OW13438   3.742   3.736   0.286
 4180SOL    HW113439   3.673   3.734   0.214
 4180SOL    HW213440   3.784   3.646   0.295
 4181SOL     OW13441   5.744   6.241   5.739
 4181SOL    HW113442   5.661   6.227   5.793
 4181SOL    HW213443   5.797   6.317   5.779
 4182SOL     OW13444   0.448   6.115   5.547
 4182SOL    HW113445   0.492   6.028   5.571
 4182SOL    HW213446   0.387   6.143   5.621
 4183SOL     OW13447   4.630   1.919   0.137
 4183SOL    HW113448   4.683   1.903   0.054
 4183SOL    HW213449   4.681   1.886   0.216
 4184SOL     OW13450   3.364   5.462   3.556
 4184SOL    HW113451   3.395   5.484   3.463
 4184SOL    HW213452   3.338   5.546   3.603
 4185SOL     OW13453   4.886   3.913   3.328
 4185SOL    HW113454   4.852   3.942   3.418
 4185SOL    HW213455   4.976   3.955   3.312
 4186SOL     OW13456   1.999   5.418   6.978
 4186SOL    HW113457   1.962   5.335   7.019
 4186SOL    HW213458   1.923   5.477   6.950
 4187SOL     OW13459   2.448   4.289   6.316
 4187SOL    HW113460   2.528   4.325   6.363
 4187SOL    HW213461   2.366   4.305   6.372
 4188SOL     OW13462   5.356   0.542   6.648
 4188SOL    HW113463   5.379   0.602   6.725
 4188SOL    HW213464   5.278   0.485   6.673
 4189SOL     OW13465   4.819   5.257   3.061
 4189SOL    HW113466   4.818   5.357   3.069
 4189SOL    HW213467   4.784   5.231   2.971
 4190SOL     OW13468   6.163   6.855   1.930
 4190SOL    HW113469   6.231   6.922   1.899
 4190SOL    HW213470   6.088   6.902   1.975
 4191SOL     OW13471   4.411   2.622   6.365
 4191SOL    HW113472   4.383   2.542   6.312
 4191SOL    HW213473   4.357   2.627   6.449
 4192SOL     OW13474   1.848   3.761   6.219
 4192SOL    HW113475   1.814   3.669   6.199
 4192SOL    HW213476   1.855   3.773   6.318
 4193SOL     OW13477   6.875   0.845   0.199
 4193SOL    HW113478   6.927   0.922   0.161
 4193SOL    HW213479   6.909   0.825   0.291
 4194SOL     OW13480   5.971   0.658   6.400
 4194SOL    HW113481   5.989   0.754   6.377
 4194SOL    HW213482   5.895   0.624   6.345
 4195SOL     OW13483   2.576   6.345   0.847
 4195SOL    HW113484   2.541   6.309   0.934
 4195SOL    HW213485   2.582   6.444   0.852
 4196SOL     OW13486   0.326   2.577   3.446
 4196SOL    HW113487   0.263   2.509   3.408
 4196SOL    HW213488   0.413   2.534   3.469
 4197SOL     OW13489   3.580   1.083   0.037
 4197SOL    HW113490   3.572   1.047   6.966
 4197SOL    HW213491   3.528   1.168   0.044
 4198SOL     OW13492   6.743   2.430   2.206
 4198SOL    HW113493   6.745   2.427   2.106
 4198SOL    HW213494   6.666   2.486   2.237
 4199SOL     OW13495   0.723   3.803   6.838
 4199SOL    HW113496   0.679   3.724   6.794
 4199SOL    HW213497   0.675   3.887   6.811
 4200SOL     OW13498   4.790   1.742   3.848
 4200SOL    HW113499   4.764   1.839   3.847
 4200SOL    HW213500   4.708   1.685   3.847
 4201SOL     OW13501   5.436   6.917   4.592
 4201SOL    HW113502   5.414   7.014   4.601
 4201SOL    HW213503   5.435   6.892   4.495
 4202SOL     OW13504   4.756   4.079   1.596
 4202SOL    HW113505   4.763   4.058   1.499
 4202SOL    HW213506   4.714   4.168   1.608
 4203SOL     OW13507   5.870   4.459   5.689
 4203SOL    HW113508   5.872   4.437   5.591
 4203SOL    HW213509   5.960   4.490   5.718
 4204SOL     OW13510   1.763   4.691   6.577
 4204SOL    HW113511   1.830   4.742   6.631
 4204SOL    HW213512   1.677   4.743   6.573
 4205SOL     OW13513   4.841   6.427   6.682
 4205SOL    HW113514   4.913   6.459   6.743
 4205SOL    HW213515   4.754   6.469   6.708
 4206SOL     OW13516   2.375   1.896   4.351
 4206SOL    HW113517   2.346   1.813   4.303
 4206SOL    HW213518   2.466   1.922   4.319
 4207SOL     OW13519   1.582   2.191   2.175
 4207SOL    HW113520   1.632   2.122   2.122
 4207SOL    HW213521   1.575   2.160   2.270
 4208SOL     OW13522   2.622   2.404   3.589
 4208SOL    HW113523   2.657   2.395   3.496
 4208SOL    HW213524   2.686   2.361   3.654
 4209SOL     OW13525   6.267   5.772   2.095
 4209SOL    HW113526   6.320   5.835   2.152
 4209SOL    HW213527   6.205   5.719   2.153
 4210SOL     OW13528   2.993   4.355   5.295
 4210SOL    HW113529   2.957   4.437   5.252
 4210SOL    HW213530   3.021   4.376   5.388
 4211SOL     OW13531   3.612   2.823   5.779
 4211SOL    HW113532   3.574   2.914   5.762
 4211SOL    HW213533   3.708   2.833   5.808
 4212SOL     OW13534   1.011   2.142   3.093
 4212SOL    HW113535   0.941   2.148   3.165
 4212SOL    HW213536   1.054   2.231   3.081
 4213SOL     OW13537   3.870   0.123   4.165
 4213SOL    HW113538   3.961   0.083   4.176
 4213SOL    HW213539   3.874   0.221   4.186
 4214SOL     OW13540   6.656   6.306   3.246
 4214SOL    HW113541   6.673   6.276   3.340
 4214SOL    HW213542   6.720   6.379   3.222
 4215SOL     OW13543   5.737   0.297   5.882
 4215SOL    HW113544   5.700   0.344   5.961
 4215SOL    HW213545   5.819   0.345   5.850
 4216SOL     OW13546   2.499   5.461   2.219
 4216SOL    HW113547   2.471   5.366   2.209
 4216SOL    HW213548   2.589   5.465   2.263
 4217SOL     OW13549   1.712   0.473   3.041
 4217SOL    HW113550   1.769   0.541   3.087
 4217SOL    HW213551   1.625   0.515   3.013
 4218SOL     OW13552   3.308   1.057   2.146
 4218SOL    HW113553   3.303   1.068   2.245
 4218SOL    HW213554   3.404   1.049   2.118
 4219SOL     OW13555   3.740   5.094   3.582
 4219SOL    HW113556   3.748   5.050   3.672
 4219SOL    HW213557   3.665   5.160   3.584
 4220SOL     OW13558   6.116   2.054   1.091
 4220SOL    HW113559   6.180   2.081   1.163
 4220SOL    HW213560   6.039   2.118   1.089
 4221SOL     OW13561   0.319   6.283   0.337
 4221SOL    HW113562   0.390   6.213   0.339
 4221SOL    HW213563   0.320   6.329   0.248
 4222SOL     OW13564   5.019   3.146   4.558
 4222SOL    HW113565   5.097   3.096   4.522
 4222SOL    HW213566   5.044   3.242   4.573
 4223SOL     OW13567   3.508   4.087   2.552
 4223SOL    HW113568   3.453   4.055   2.629
 4223SOL    HW213569   3.460   4.162   2.507
 4224SOL     OW13570   4.616   4.767   4.341
 4224SOL    HW113571   4.643   4.771   4.437
 4224SOL    HW213572   4.589   4.858   4.310
 4225SOL     OW13573   1.175   1.934   5.841
 4225SOL    HW113574   1.141   2.016   5.887
 4225SOL    HW213575   1.260   1.904   5.885
 4226SOL     OW13576   6.671   4.646   4.883
 4226SOL    HW113577   6.662   4.660   4.784
 4226SOL    HW213578   6.582   4.655   4.926
 4227SOL     OW13579   4.909   5.334   1.762
 4227SOL    HW113580   4.879   5.343   1.857
 4227SOL    HW213581   4.861   5.400   1.705
 4228SOL     OW13582   1.556   4.826   3.636
 4228SOL    HW113583   1.478   4.763   3.629
 4228SOL    HW213584   1.523   4.915   3.668
 4229SOL     OW13585   5.895   6.388   5.414
 4229SOL    HW113586   5.947   6.400   5.330
 4229SOL    HW213587   5.842   6.303   5.407
 4230SOL     OW13588   0.149   1.205   2.027
 4230SOL    HW113589   0.233   1.177   2.073
 4230SOL    HW213590   0.165   1.211   1.929
 4231SOL     OW13591   0.730   0.524   6.615
 4231SOL    HW113592   0.753   0.533   6.518
 4231SOL    HW213593   0.792   0.458   6.658
 4232SOL     OW13594   1.709   5.043   3.906
 4232SOL    HW113595   1.807   5.062   3.897
 4232SOL    HW213596   1.668   5.040   3.815
 4233SOL     OW13597   4.312   5.515   2.392
 4233SOL    HW113598   4.301   5.611   2.418
 4233SOL    HW213599   4.404   5.484   2.417
 4234SOL     OW13600   3.410   5.602   5.830
 4234SOL    HW113601   3.457   5.514   5.841
 4234SOL    HW213602   3.476   5.677   5.837
 4235SOL     OW13603   6.850   5.767   6.400
 4235SOL    HW113604   6.857   5.721   6.488
 4235SOL    HW213605   6.836   5.865   6.414
 4236SOL     OW13606   0.059   5.498   3.258
 4236SOL    HW113607   7.006   5.552   3.221
 4236SOL    HW213608   0.030   5.403   3.269
 4237SOL     OW13609   6.877   4.401   3.550
 4237SOL    HW113610   6.803   4.468   3.550
 4237SOL    HW213611   6.945   4.427   3.619
 4238SOL     OW13612   3.155   5.561   2.623
 4238SOL    HW113613   3.088   5.605   2.682
 4238SOL    HW213614   3.193   5.628   2.560
 4239SOL     OW13615   4.286   1.205   3.707
 4239SOL    HW113616   4.369   1.202   3.651
 4239SOL    HW213617   4.266   1.113   3.741
 4240SOL     OW13618   5.640   6.722   1.808
 4240SOL    HW113619   5.572   6.680   1.868
 4240SOL    HW213620   5.692   6.651   1.761
 4241SOL     OW13621   6.735   4.487   0.523
 4241SOL    HW113622   6.723   4.586   0.527
 4241SOL    HW213623   6.774   4.454   0.609
 4242SOL     OW13624   3.406   2.134   3.549
 4242SOL    HW113625   3.411   2.041   3.583
 4242SOL    HW213626   3.470   2.145   3.473
 4243SOL     OW13627   3.840   1.686   2.951
 4243SOL    HW113628   3.841   1.724   2.858
 4243SOL    HW213629   3.809   1.591   2.947
 4244SOL     OW13630   3.328   2.913   4.755
 4244SOL    HW113631   3.277   2.828   4.740
 4244SOL    HW213632   3.276   2.972   4.817
 4245SOL     OW13633   6.121   0.115   6.664
 4245SOL    HW113634   6.033   0.135   6.622
 4245SOL    HW213635   6.194   0.135   6.598
 4246SOL     OW13636   0.026   4.515   6.268
 4246SOL    HW113637   6.953   4.547   6.271
 4246SOL    HW213638   0.027   4.415   6.277
 4247SOL     OW13639   0.271   5.969   5.123
 4247SOL    HW113640   0.278   6.039   5.051
 4247SOL    HW213641   0.272   5.879   5.081
 4248SOL     OW13642   2.293   4.039   6.675
 4248SOL    HW113643   2.260   3.950   6.706
 4248SOL    HW213644   2.392   4.041   6.681
 4249SOL     OW13645   5.360   4.133   5.718
 4249SOL    HW113646   5.457   4.136   5.696
 4249SOL    HW213647   5.330   4.037   5.726
 4250SOL     OW13648   1.046   4.131   3.295
 4250SOL    HW113649   1.110   4.190   3.246
 4250SOL    HW213650   1.080   4.112   3.386
 4251SOL     OW13651   5.507   5.170   0.050
 4251SOL    HW113652   5.468   5.082   0.079
 4251SOL    HW213653   5.446   5.244   0.079
 4252SOL     OW13654   6.474   5.388   5.088
 4252SOL    HW113655   6.419   5.437   5.020
 4252SOL    HW213656   6.552   5.445   5.114
 4253SOL     OW13657   3.830   5.621   2.665
 4253SOL    HW113658   3.762   5.694   2.675
 4253SOL    HW213659   3.880   5.610   2.751
 4254SOL     OW13660   2.983   3.658   1.452
 4254SOL    HW113661   2.886   3.673   1.436
 4254SOL    HW213662   3.016   3.725   1.519
 4255SOL     OW13663   0.325   2.051   4.518
 4255SOL    HW113664   0.236   2.084   4.551
 4255SOL    HW213665   0.388   2.128   4.508
 4256SOL     OW13666   2.284   0.926   2.146
 4256SOL    HW113667   2.192   0.924   2.105
 4256SOL    HW213668   2.282   0.983   2.228
 4257SOL     OW13669   4.325   2.135   5.250
 4257SOL    HW113670   4.333   2.042   5.285
 4257SOL    HW213671   4.239   2.144   5.199
 4258SOL     OW13672   4.836   6.063   3.015
 4258SOL    HW113673   4.837   6.162   3.023
 4258SOL    HW213674   4.749   6.027   3.048
 4259SOL     OW13675   1.713   3.196   1.197
 4259SOL    HW113676   1.630   3.143   1.216
 4259SOL    HW213677   1.777   3.140   1.145
 4260SOL     OW13678   4.014   5.609   4.485
 4260SOL    HW113679   3.918   5.596   4.460
 4260SOL    HW213680   4.020   5.627   4.583
 4261SOL     OW13681   1.317   1.592   3.025
 4261SOL    HW113682   1.267   1.548   2.950
 4261SOL    HW213683   1.264   1.584   3.110
 4262SOL     OW13684   0.164   6.269   6.358
 4262SOL    HW113685   0.160   6.344   6.292
 4262SOL    HW213686   0.236   6.205   6.331
 4263SOL     OW13687   4.389   4.967   6.416
 4263SOL    HW113688   4.326   4.890   6.415
 4263SOL    HW213689   4.430   4.975   6.507
 4264SOL     OW13690   0.456   0.380   1.452
 4264SOL    HW113691   0.525   0.434   1.499
 4264SOL    HW213692   0.493   0.290   1.430
 4265SOL     OW13693   1.515   1.706   0.065
 4265SOL    HW113694   1.461   1.769   0.009
 4265SOL    HW213695   1.481   1.706   0.159
 4266SOL     OW13696   3.438   4.792   1.182
 4266SOL    HW113697   3.387   4.707   1.169
 4266SOL    HW213698   3.518   4.774   1.238
 4267SOL     OW13699   1.727   4.294   5.968
 4267SOL    HW113700   1.656   4.361   5.944
 4267SOL    HW213701   1.748   4.239   5.888
 4268SOL     OW13702   2.046   0.776   0.731
 4268SOL    HW113703   2.017   0.681   0.717
 4268SOL    HW213704   1.991   0.817   0.803
 4269SOL     OW13705   2.519   4.388   0.866
 4269SOL    HW113706   2.433   4.344   0.890
 4269SOL    HW213707   2.536   4.464   0.929
 4270SOL     OW13708   3.673   2.826   6.445
 4270SOL    HW113709   3.704   2.882   6.368
 4270SOL    HW213710   3.723   2.853   6.528
 4271SOL     OW13711   1.368   0.299   0.743
 4271SOL    HW113712   1.319   0.356   0.678
 4271SOL    HW213713   1.305   0.231   0.781
 4272SOL     OW13714   0.285   3.747   3.668
 4272SOL    HW113715   0.247   3.751   3.576
 4272SOL    HW213716   0.337   3.831   3.686
 4273SOL     OW13717   6.033   6.619   3.873
 4273SOL    HW113718   5.970   6.642   3.799
 4273SOL    HW213719   6.111   6.682   3.871
 4274SOL     OW13720   2.140   0.537   3.936
 4274SOL    HW113721   2.041   0.529   3.920
 4274SOL    HW213722   2.166   0.634   3.933
 4275SOL     OW13723   0.817   7.016   6.144
 4275SOL    HW113724   0.905   6.998   6.187
 4275SOL    HW213725   0.750   0.019   6.215
 4276SOL     OW13726   2.059   4.607   2.511
 4276SOL    HW113727   2.133   4.548   2.542
 4276SOL    HW213728   2.067   4.623   2.413
 4277SOL     OW13729   0.887   5.213   5.265
 4277SOL    HW113730   0.792   5.192   5.242
 4277SOL    HW213731   0.947   5.144   5.224
 4278SOL     OW13732   1.459   6.797   6.287
 4278SOL    HW113733   1.532   6.748   6.239
 4278SOL    HW213734   1.494   6.831   6.374
 4279SOL     OW13735   3.277   5.945   4.287
 4279SOL    HW113736   3.215   5.901   4.352
 4279SOL    HW213737   3.263   6.044   4.289
 4280SOL     OW13738   5.007   2.713   3.585
 4280SOL    HW113739   5.019   2.805   3.550
 4280SOL    HW213740   4.925   2.709   3.643
 4281SOL     OW13741   2.599   4.135   5.409
 4281SOL    HW113742   2.604   4.234   5.394
 4281SOL    HW213743   2.583   4.089   5.322
 4282SOL     OW13744   0.365   2.894   0.551
 4282SOL    HW113745   0.410   2.943   0.626
 4282SOL    HW213746   0.303   2.825   0.589
 4283SOL     OW13747   2.676   0.654   4.741
 4283SOL    HW113748   2.588   0.698   4.723
 4283SOL    HW213749   2.698   0.592   4.666
 4284SOL     OW13750   0.139   1.863   3.077
 4284SOL    HW113751   0.212   1.825   3.020
 4284SOL    HW213752   0.117   1.799   3.151
 4285SOL     OW13753   0.869   5.729   4.758
 4285SOL    HW113754   0.888   5.825   4.778
 4285SOL    HW213755   0.954   5.677   4.759
 4286SOL     OW13756   4.694   6.031   6.737
 4286SOL    HW113757   4.774   6.083   6.706
 4286SOL    HW213758   4.662   6.068   6.824
 4287SOL     OW13759   3.793   6.480   5.817
 4287SOL    HW113760   3.721   6.548   5.802
 4287SOL    HW213761   3.798   6.420   5.737
 4288SOL     OW13762   0.809   6.410   3.224
 4288SOL    HW113763   0.752   6.382   3.301
 4288SOL    HW213764   0.906   6.407   3.251
 4289SOL     OW13765   6.772   3.686   0.158
 4289SOL    HW113766   6.787   3.739   0.242
 4289SOL    HW213767   6.740   3.595   0.182
 4290SOL     OW13768   2.205   1.667   3.226
 4290SOL    HW113769   2.144   1.730   3.275
 4290SOL    HW213770   2.159   1.633   3.145
 4291SOL     OW13771   6.689   4.373   1.321
 4291SOL    HW113772   6.645   4.300   1.270
 4291SOL    HW213773   6.788   4.358   1.323
 4292SOL     OW13774   5.828   5.384   5.988
 4292SOL    HW113775   5.769   5.367   6.067
 4292SOL    HW213776   5.796   5.331   5.910
 4293SOL     OW13777   0.162   2.296   6.359
 4293SOL    HW113778   0.247   2.306   6.411
 4293SOL    HW213779   0.085   2.294   6.422
 4294SOL     OW13780   4.893   2.143   5.692
 4294SOL    HW113781   4.860   2.147   5.786
 4294SOL    HW213782   4.992   2.154   5.691
 4295SOL     OW13783   3.657   6.063   5.802
 4295SOL    HW113784   3.617   6.124   5.871
 4295SOL    HW213785   3.583   6.021   5.748
 4296SOL     OW13786   2.652   1.531   2.897
 4296SOL    HW113787   2.686   1.558   2.807
 4296SOL    HW213788   2.691   1.443   2.922
 4297SOL     OW13789   5.690   0.916   0.391
 4297SOL    HW113790   5.694   0.859   0.308
 4297SOL    HW213791   5.623   0.989   0.377
 4298SOL     OW13792   2.446   5.539   1.616
 4298SOL    HW113793   2.360   5.502   1.581
 4298SOL    HW213794   2.481   5.481   1.689
 4299SOL     OW13795   0.697   4.393   5.673
 4299SOL    HW113796   0.680   4.300   5.708
 4299SOL    HW213797   0.633   4.412   5.599
 4300SOL     OW13798   5.820   6.671   5.567
 4300SOL    HW113799   5.738   6.729   5.570
 4300SOL    HW213800   5.793   6.576   5.582
 4301SOL     OW13801   2.669   1.012   0.148
 4301SOL    HW113802   2.573   0.989   0.165
 4301SOL    HW213803   2.683   1.032   0.051
 4302SOL     OW13804   1.018   6.807   6.502
 4302SOL    HW113805   1.018   6.709   6.524
 4302SOL    HW213806   0.999   6.859   6.585
 4303SOL     OW13807   6.984   4.094   1.482
 4303SOL    HW113808   6.982   4.060   1.576
 4303SOL    HW213809   6.915   4.046   1.428
 4304SOL     OW13810   3.154   2.997   4.960
 4304SOL    HW113811   3.057   2.997   4.936
 4304SOL    HW213812   3.169   2.934   5.037
 4305SOL     OW13813   6.545   1.117   4.924
 4305SOL    HW113814   6.598   1.202   4.930
 4305SOL    HW213815   6.551   1.080   4.832
 4306SOL     OW13816   6.158   5.720   6.596
 4306SOL    HW113817   6.062   5.748   6.600
 4306SOL    HW213818   6.217   5.797   6.620
 4307SOL     OW13819   5.189   3.442   0.694
 4307SOL    HW113820   5.264   3.410   0.637
 4307SOL    HW213821   5.142   3.364   0.734
 4308SOL     OW13822   3.719   0.042   5.572
 4308SOL    HW113823   3.628   0.029   5.613
 4308SOL    HW213824   3.774   6.982   5.588
 4309SOL     OW13825   1.976   0.898   1.327
 4309SOL    HW113826   1.877   0.912   1.332
 4309SOL    HW213827   1.996   0.828   1.258
 4310SOL     OW13828   1.674   0.650   2.642
 4310SOL    HW113829   1.757   0.702   2.621
 4310SOL    HW213830   1.677   0.561   2.597
 4311SOL     OW13831   0.980   5.822   4.455
 4311SOL    HW113832   0.939   5.759   4.389
 4311SOL    HW213833   0.960   5.790   4.547
 4312SOL     OW13834   1.589   6.028   1.413
 4312SOL    HW113835   1.621   6.019   1.319
 4312SOL    HW213836   1.664   6.007   1.476
 4313SOL     OW13837   5.245   0.636   1.728
 4313SOL    HW113838   5.156   0.681   1.721
 4313SOL    HW213839   5.233   0.547   1.773
 4314SOL     OW13840   5.273   3.447   2.184
 4314SOL    HW113841   5.195   3.509   2.190
 4314SOL    HW213842   5.297   3.431   2.088
 4315SOL     OW13843   2.466   1.428   2.522
 4315SOL    HW113844   2.398   1.433   2.449
 4315SOL    HW213845   2.422   1.450   2.609
 4316SOL     OW13846   0.606   0.692   2.314
 4316SOL    HW113847   0.540   0.744   2.368
 4316SOL    HW213848   0.596   0.715   2.217
 4317SOL     OW13849   4.167   0.358   3.652
 4317SOL    HW113850   4.231   0.354   3.574
 4317SOL    HW213851   4.108   0.278   3.651
 4318SOL     OW13852   5.977   2.476   4.188
 4318SOL    HW113853   6.075   2.473   4.207
 4318SOL    HW213854   5.936   2.388   4.213
 4319SOL     OW13855   2.993   3.005   5.862
 4319SOL    HW113856   3.080   3.002   5.912
 4319SOL    HW213857   3.000   2.947   5.781
 4320SOL     OW13858   0.637   5.827   3.434
 4320SOL    HW113859   0.626   5.879   3.518
 4320SOL    HW213860   0.550   5.820   3.386
 4321SOL     OW13861   0.534   0.266   5.086
 4321SOL    HW113862   0.551   0.261   4.988
 4321SOL    HW213863   0.441   0.299   5.102
 4322SOL     OW13864   5.653   1.559   1.029
 4322SOL    HW113865   5.619   1.575   1.122
 4322SOL    HW213866   5.746   1.522   1.034
 4323SOL     OW13867   7.016   2.151   3.825
 4323SOL    HW113868   0.083   2.189   3.849
 4323SOL    HW213869   0.001   2.052   3.816
 4324SOL     OW13870   5.686   2.704   6.247
 4324SOL    HW113871   5.638   2.772   6.303
 4324SOL    HW213872   5.730   2.637   6.306
 4325SOL     OW13873   1.670   2.172   6.072
 4325SOL    HW113874   1.657   2.083   6.114
 4325SOL    HW213875   1.768   2.190   6.061
 4326SOL     OW13876   6.392   2.507   5.231
 4326SOL    HW113877   6.410   2.434   5.165
 4326SOL    HW213878   6.307   2.554   5.206
 4327SOL     OW13879   5.626   0.926   3.010
 4327SOL    HW113880   5.623   0.828   2.991
 4327SOL    HW213881   5.593   0.976   2.930
 4328SOL     OW13882   5.750   4.951   0.375
 4328SOL    HW113883   5.839   4.946   0.330
 4328SOL    HW213884   5.761   4.983   0.469
 4329SOL     OW13885   4.776   1.245   6.572
 4329SOL    HW113886   4.719   1.322   6.601
 4329SOL    HW213887   4.866   1.280   6.544
 4330SOL     OW13888   0.920   0.988   6.578
 4330SOL    HW113889   0.838   0.932   6.563
 4330SOL    HW213890   0.918   1.025   6.671
 4331SOL     OW13891   5.369   2.416   6.662
 4331SOL    HW113892   5.299   2.394   6.730
 4331SOL    HW213893   5.455   2.372   6.688
 4332SOL     OW13894   5.289   3.376   1.894
 4332SOL    HW113895   5.305   3.471   1.868
 4332SOL    HW213896   5.196   3.350   1.871
 4333SOL     OW13897   6.212   1.354   5.446
 4333SOL    HW113898   6.175   1.366   5.538
 4333SOL    HW213899   6.220   1.256   5.426
 4334SOL     OW13900   4.716   6.894   1.177
 4334SOL    HW113901   4.628   6.926   1.212
 4334SOL    HW213902   4.785   6.965   1.190
 4335SOL     OW13903   4.079   4.478   5.593
 4335SOL    HW113904   4.008   4.420   5.553
 4335SOL    HW213905   4.135   4.424   5.656
 4336SOL     OW13906   1.099   6.476   5.337
 4336SOL    HW113907   1.169   6.412   5.305
 4336SOL    HW213908   1.078   6.458   5.433
 4337SOL     OW13909   0.350   5.533   0.026
 4337SOL    HW113910   0.330   5.523   6.950
 4337SOL    HW213911   0.436   5.583   0.038
 4338SOL     OW13912   5.926   5.930   3.633
 4338SOL    HW113913   5.921   5.932   3.533
 4338SOL    HW213914   5.938   6.023   3.668
 4339SOL     OW13915   6.751   1.272   6.521
 4339SOL    HW113916   6.716   1.269   6.427
 4339SOL    HW213917   6.846   1.302   6.520
 4340SOL     OW13918   4.813   3.452   1.733
 4340SOL    HW113919   4.808   3.360   1.693
 4340SOL    HW213920   4.881   3.506   1.684
 4341SOL     OW13921   0.602   3.831   0.081
 4341SOL    HW113922   0.577   3.736   0.103
 4341SOL    HW213923   0.672   3.831   0.010
 4342SOL     OW13924   6.928   1.852   2.906
 4342SOL    HW113925   7.012   1.848   2.959
 4342SOL    HW213926   6.946   1.893   2.817
 4343SOL     OW13927   2.700   2.063   1.519
 4343SOL    HW113928   2.617   2.019   1.483
 4343SOL    HW213929   2.701   2.055   1.618
 4344SOL     OW13930   1.848   3.972   2.349
 4344SOL    HW113931   1.771   4.001   2.405
 4344SOL    HW213932   1.847   3.873   2.340
 4345SOL     OW13933   2.367   1.558   6.147
 4345SOL    HW113934   2.434   1.593   6.082
 4345SOL    HW213935   2.288   1.523   6.097
 4346SOL     OW13936   6.651   3.402   0.858
 4346SOL    HW113937   6.565   3.353   0.869
 4346SOL    HW213938   6.706   3.391   0.941
 4347SOL     OW13939   5.438   5.869   2.560
 4347SOL    HW113940   5.483   5.906   2.479
 4347SOL    HW213941   5.367   5.932   2.590
 4348SOL     OW13942   1.170   4.032   6.995
 4348SOL    HW113943   1.175   3.936   0.001
 4348SOL    HW213944   1.120   4.084   0.043
 4349SOL     OW13945   6.646   0.875   1.798
 4349SOL    HW113946   6.564   0.916   1.836
 4349SOL    HW213947   6.624   0.827   1.713
 4350SOL     OW13948   4.713   0.206   3.450
 4350SOL    HW113949   4.695   0.242   3.359
 4350SOL    HW213950   4.627   0.181   3.493
 4351SOL     OW13951   2.593   6.778   0.443
 4351SOL    HW113952   2.552   6.869   0.454
 4351SOL    HW213953   2.687   6.788   0.411
 4352SOL     OW13954   6.196   1.627   2.676
 4352SOL    HW113955   6.109   1.643   2.630
 4352SOL    HW213956   6.257   1.705   2.662
 4353SOL     OW13957   3.248   5.626   1.693
 4353SOL    HW113958   3.295   5.620   1.605
 4353SOL    HW213959   3.185   5.549   1.702
 4354SOL     OW13960   2.541   0.998   1.559
 4354SOL    HW113961   2.470   1.061   1.526
 4354SOL    HW213962   2.615   0.993   1.492
 4355SOL     OW13963   4.836   0.300   0.708
 4355SOL    HW113964   4.745   0.260   0.704
 4355SOL    HW213965   4.853   0.354   0.626
 4356SOL     OW13966   3.408   3.967   0.060
 4356SOL    HW113967   3.389   4.043   7.019
 4356SOL    HW213968   3.330   3.954   0.121
 4357SOL     OW13969   6.296   0.859   6.783
 4357SOL    HW113970   6.304   0.845   6.882
 4357SOL    HW213971   6.263   0.951   6.765
 4358SOL     OW13972   6.327   1.049   0.848
 4358SOL    HW113973   6.251   0.988   0.869
 4358SOL    HW213974   6.311   1.094   0.760
 4359SOL     OW13975   5.694   3.081   4.372
 4359SOL    HW113976   5.675   3.063   4.275
 4359SOL    HW213977   5.789   3.058   4.392
 4360SOL     OW13978   2.096   3.389   0.849
 4360SOL    HW113979   2.132   3.405   0.757
 4360SOL    HW213980   2.134   3.457   0.912
 4361SOL     OW13981   5.628   1.698   2.323
 4361SOL    HW113982   5.553   1.667   2.266
 4361SOL    HW213983   5.714   1.658   2.290
 4362SOL     OW13984   5.111   4.109   3.070
 4362SOL    HW113985   5.017   4.092   3.044
 4362SOL    HW213986   5.157   4.160   2.998
 4363SOL     OW13987   5.658   0.659   6.284
 4363SOL    HW113988   5.701   0.745   6.256
 4363SOL    HW213989   5.703   0.582   6.239
 4364SOL     OW13990   3.422   3.807   4.621
 4364SOL    HW113991   3.350   3.865   4.584
 4364SOL    HW213992   3.507   3.860   4.627
 4365SOL     OW13993   4.078   1.499   0.652
 4365SOL    HW113994   3.980   1.513   0.669
 4365SOL    HW213995   4.102   1.405   0.676
 4366SOL     OW13996   5.342   4.866   0.943
 4366SOL    HW113997   5.252   4.835   0.972
 4366SOL    HW213998   5.335   4.957   0.902
 4367SOL     OW13999   6.975   6.780   0.721
 4367SOL    HW114000   0.007   6.811   0.800
 4367SOL    HW214001   6.975   6.852   0.651
 4368SOL     OW14002   4.493   4.531   1.961
 4368SOL    HW114003   4.415   4.529   1.898
 4368SOL    HW214004   4.528   4.438   1.972
 4369SOL     OW14005   3.265   5.643   1.416
 4369SOL    HW114006   3.194   5.572   1.416
 4369SOL    HW214007   3.326   5.628   1.338
 4370SOL     OW14008   5.881   4.245   2.344
 4370SOL    HW114009   5.877   4.151   2.310
 4370SOL    HW214010   5.897   4.307   2.267
 4371SOL     OW14011   0.276   2.084   2.494
 4371SOL    HW114012   0.252   2.016   2.425
 4371SOL    HW214013   0.299   2.037   2.580
 4372SOL     OW14014   4.882   6.975   3.510
 4372SOL    HW114015   4.839   0.039   3.481
 4372SOL    HW214016   4.864   6.960   3.607
 4373SOL     OW14017   6.424   1.827   6.355
 4373SOL    HW114018   6.406   1.782   6.268
 4373SOL    HW214019   6.381   1.776   6.429
 4374SOL     OW14020   3.737   1.370   1.170
 4374SOL    HW114021   3.668   1.431   1.130
 4374SOL    HW214022   3.812   1.425   1.207
 4375SOL     OW14023   3.691   6.057   4.271
 4375SOL    HW114024   3.674   6.089   4.178
 4375SOL    HW214025   3.754   6.119   4.317
 4376SOL     OW14026   6.643   1.767   4.403
 4376SOL    HW114027   6.689   1.819   4.475
 4376SOL    HW214028   6.705   1.695   4.370
 4377SOL     OW14029   6.904   4.946   6.197
 4377SOL    HW114030   6.981   4.911   6.251
 4377SOL    HW214031   6.913   4.914   6.103
 4378SOL     OW14032   3.129   1.628   3.971
 4378SOL    HW114033   3.201   1.695   3.950
 4378SOL    HW214034   3.155   1.575   4.052
 4379SOL     OW14035   3.550   2.067   5.898
 4379SOL    HW114036   3.546   2.131   5.821
 4379SOL    HW214037   3.646   2.050   5.922
 4380SOL     OW14038   0.427   2.112   3.040
 4380SOL    HW114039   0.496   2.181   3.061
 4380SOL    HW214040   0.370   2.097   3.121
 4381SOL     OW14041   1.496   6.087   6.855
 4381SOL    HW114042   1.424   6.018   6.852
 4381SOL    HW214043   1.552   6.074   6.937
 4382SOL     OW14044   0.679   4.885   4.442
 4382SOL    HW114045   0.663   4.826   4.362
 4382SOL    HW214046   0.677   4.829   4.525
 4383SOL     OW14047   6.574   3.824   0.486
 4383SOL    HW114048   6.562   3.760   0.562
 4383SOL    HW214049   6.489   3.832   0.434
 4384SOL     OW14050   5.648   6.904   3.887
 4384SOL    HW114051   5.649   6.945   3.796
 4384SOL    HW214052   5.620   6.808   3.880
 4385SOL     OW14053   4.921   1.712   5.774
 4385SOL    HW114054   4.940   1.774   5.698
 4385SOL    HW214055   4.841   1.656   5.753
 4386SOL     OW14056   1.767   3.647   5.000
 4386SOL    HW114057   1.776   3.563   4.946
 4386SOL    HW214058   1.844   3.707   4.980
 4387SOL     OW14059   5.564   1.981   0.851
 4387SOL    HW114060   5.516   2.046   0.791
 4387SOL    HW214061   5.497   1.918   0.891
 4388SOL     OW14062   4.959   3.726   0.276
 4388SOL    HW114063   4.936   3.638   0.318
 4388SOL    HW214064   4.977   3.713   0.178
 4389SOL     OW14065   1.737   2.170   0.033
 4389SOL    HW114066   1.791   2.245   0.071
 4389SOL    HW214067   1.688   2.124   0.107
 4390SOL     OW14068   0.276   1.646   0.693
 4390SOL    HW114069   0.189   1.610   0.728
 4390SOL    HW214070   0.322   1.695   0.767
 4391SOL     OW14071   0.946   5.860   0.705
 4391SOL    HW114072   0.899   5.784   0.659
 4391SOL    HW214073   0.897   5.884   0.788
 4392SOL     OW14074   0.778   3.288   5.945
 4392SOL    HW114075   0.861   3.273   5.892
 4392SOL    HW214076   0.699   3.257   5.893
 4393SOL     OW14077   5.763   0.341   1.958
 4393SOL    HW114078   5.833   0.371   2.023
 4393SOL    HW214079   5.673   0.342   2.003
 4394SOL     OW14080   0.698   0.406   2.751
 4394SOL    HW114081   0.627   0.443   2.810
 4394SOL    HW214082   0.657   0.376   2.664
 4395SOL     OW14083   1.766   4.864   2.140
 4395SOL    HW114084   1.765   4.938   2.072
 4395SOL    HW214085   1.789   4.902   2.229
 4396SOL     OW14086   3.117   0.950   2.894
 4396SOL    HW114087   3.192   1.016   2.902
 4396SOL    HW214088   3.075   0.936   2.983
 4397SOL     OW14089   3.275   1.408   4.831
 4397SOL    HW114090   3.331   1.327   4.847
 4397SOL    HW214091   3.194   1.382   4.778
 4398SOL     OW14092   1.522   3.177   5.544
 4398SOL    HW114093   1.437   3.209   5.503
 4398SOL    HW214094   1.569   3.255   5.587
 4399SOL     OW14095   2.845   6.430   1.892
 4399SOL    HW114096   2.896   6.510   1.924
 4399SOL    HW214097   2.763   6.460   1.842
 4400SOL     OW14098   1.802   5.983   4.456
 4400SOL    HW114099   1.705   5.962   4.445
 4400SOL    HW214100   1.853   5.899   4.474
 4401SOL     OW14101   2.914   6.767   6.427
 4401SOL    HW114102   2.871   6.682   6.398
 4401SOL    HW214103   2.965   6.752   6.511
 4402SOL     OW14104   2.586   0.735   2.824
 4402SOL    HW114105   2.565   0.647   2.867
 4402SOL    HW214106   2.510   0.798   2.838
 4403SOL     OW14107   0.692   5.130   1.495
 4403SOL    HW114108   0.757   5.188   1.544
 4403SOL    HW214109   0.633   5.188   1.438
 4404SOL     OW14110   0.359   6.551   6.399
 4404SOL    HW114111   0.295   6.541   6.475
 4404SOL    HW214112   0.426   6.622   6.420
 4405SOL     OW14113   1.797   5.210   2.265
 4405SOL    HW114114   1.853   5.290   2.246
 4405SOL    HW214115   1.703   5.227   2.233
 4406SOL     OW14116   6.124   3.831   2.213
 4406SOL    HW114117   6.210   3.782   2.198
 4406SOL    HW214118   6.102   3.831   2.310
 4407SOL     OW14119   5.936   6.477   1.078
 4407SOL    HW114120   5.981   6.559   1.112
 4407SOL    HW214121   5.859   6.504   1.019
 4408SOL     OW14122   3.899   0.641   0.356
 4408SOL    HW114123   3.870   0.553   0.318
 4408SOL    HW214124   3.896   0.637   0.456
 4409SOL     OW14125   2.952   0.725   3.676
 4409SOL    HW114126   2.962   0.626   3.667
 4409SOL    HW214127   2.857   0.746   3.698
 4410SOL     OW14128   0.464   0.530   0.943
 4410SOL    HW114129   0.519   0.469   0.999
 4410SOL    HW214130   0.393   0.572   1.000
 4411SOL     OW14131   4.687   4.646   5.406
 4411SOL    HW114132   4.697   4.707   5.485
 4411SOL    HW214133   4.742   4.679   5.330
 4412SOL     OW14134   4.639   6.154   1.794
 4412SOL    HW114135   4.597   6.177   1.882
 4412SOL    HW214136   4.568   6.136   1.726
 4413SOL     OW14137   4.417   5.625   3.874
 4413SOL    HW114138   4.476   5.620   3.794
 4413SOL    HW214139   4.434   5.545   3.933
 4414SOL     OW14140   5.254   3.598   1.312
 4414SOL    HW114141   5.186   3.630   1.246
 4414SOL    HW214142   5.343   3.590   1.267
 4415SOL     OW14143   1.454   3.811   1.182
 4415SOL    HW114144   1.525   3.867   1.138
 4415SOL    HW214145   1.444   3.839   1.277
 4416SOL     OW14146   5.085   2.697   4.078
 4416SOL    HW114147   5.064   2.756   4.155
 4416SOL    HW214148   5.099   2.603   4.110
 4417SOL     OW14149   0.214   4.197   1.405
 4417SOL    HW114150   0.202   4.216   1.308
 4417SOL    HW214151   0.125   4.187   1.448
 4418SOL     OW14152   6.578   0.617   5.977
 4418SOL    HW114153   6.622   0.529   5.961
 4418SOL    HW214154   6.611   0.655   6.063
 4419SOL     OW14155   6.530   5.663   6.567
 4419SOL    HW114156   6.473   5.680   6.488
 4419SOL    HW214157   6.550   5.749   6.614
 4420SOL     OW14158   4.069   1.684   0.950
 4420SOL    HW114159   4.019   1.608   0.910
 4420SOL    HW214160   4.015   1.724   1.025
 4421SOL     OW14161   1.960   2.956   0.429
 4421SOL    HW114162   1.983   3.050   0.403
 4421SOL    HW214163   2.039   2.897   0.413
 4422SOL     OW14164   6.817   3.087   5.876
 4422SOL    HW114165   6.885   3.150   5.914
 4422SOL    HW214166   6.753   3.060   5.947
 4423SOL     OW14167   6.300   4.544   4.567
 4423SOL    HW114168   6.233   4.475   4.594
 4423SOL    HW214169   6.382   4.498   4.532
 4424SOL     OW14170   4.620   5.801   2.895
 4424SOL    HW114171   4.564   5.797   2.977
 4424SOL    HW214172   4.571   5.761   2.818
 4425SOL     OW14173   0.808   5.811   1.066
 4425SOL    HW114174   0.813   5.761   1.153
 4425SOL    HW214175   0.749   5.762   1.003
 4426SOL     OW14176   0.412   0.831   4.347
 4426SOL    HW114177   0.332   0.858   4.294
 4426SOL    HW214178   0.441   0.739   4.320
 4427SOL     OW14179   2.280   5.824   2.628
 4427SOL    HW114180   2.303   5.920   2.635
 4427SOL    HW214181   2.331   5.772   2.697
 4428SOL     OW14182   6.712   5.541   3.110
 4428SOL    HW114183   6.624   5.559   3.155
 4428SOL    HW214184   6.728   5.443   3.107
 4429SOL     OW14185   2.919   6.387   3.060
 4429SOL    HW114186   2.893   6.483   3.052
 4429SOL    HW214187   3.013   6.375   3.030
 4430SOL     OW14188   5.968   3.516   5.506
 4430SOL    HW114189   5.957   3.573   5.425
 4430SOL    HW214190   5.882   3.469   5.526
 4431SOL     OW14191   3.890   6.812   4.775
 4431SOL    HW114192   3.814   6.756   4.807
 4431SOL    HW214193   3.971   6.792   4.831
 4432SOL     OW14194   0.633   3.466   5.733
 4432SOL    HW114195   0.626   3.375   5.693
 4432SOL    HW214196   0.679   3.527   5.669
 4433SOL     OW14197   0.875   0.788   4.298
 4433SOL    HW114198   0.814   0.794   4.219
 4433SOL    HW214199   0.933   0.870   4.302
 4434SOL     OW14200   6.855   0.622   2.036
 4434SOL    HW114201   6.838   0.721   2.040
 4434SOL    HW214202   6.944   0.605   1.995
 4435SOL     OW14203   2.037   3.937   0.888
 4435SOL    HW114204   1.999   3.861   0.835
 4435SOL    HW214205   2.117   3.974   0.842
 4436SOL     OW14206   4.198   2.388   1.857
 4436SOL    HW114207   4.231   2.345   1.941
 4436SOL    HW214208   4.106   2.355   1.836
 4437SOL     OW14209   6.354   4.444   7.014
 4437SOL    HW114210   6.437   4.430   6.960
 4437SOL    HW214211   6.378   4.491   0.078
 4438SOL     OW14212   4.034   1.263   5.097
 4438SOL    HW114213   3.961   1.329   5.111
 4438SOL    HW214214   4.022   1.218   5.008
 4439SOL     OW14215   2.409   5.762   2.886
 4439SOL    HW114216   2.321   5.790   2.925
 4439SOL    HW214217   2.483   5.813   2.930
 4440SOL     OW14218   1.355   4.561   5.679
 4440SOL    HW114219   1.295   4.527   5.752
 4440SOL    HW214220   1.376   4.657   5.697
 4441SOL     OW14221   6.787   2.079   0.906
 4441SOL    HW114222   6.733   2.163   0.915
 4441SOL    HW214223   6.751   2.024   0.830
 4442SOL     OW14224   1.887   4.791   1.051
 4442SOL    HW114225   1.818   4.746   1.108
 4442SOL    HW214226   1.858   4.789   0.955
 4443SOL     OW14227   0.553   5.616   6.127
 4443SOL    HW114228   0.573   5.648   6.035
 4443SOL    HW214229   0.466   5.653   6.157
 4444SOL     OW14230   5.828   5.247   0.535
 4444SOL    HW114231   5.908   5.196   0.505
 4444SOL    HW214232   5.798   5.308   0.462
 4445SOL     OW14233   1.891   4.112   0.238
 4445SOL    HW114234   1.875   4.062   0.153
 4445SOL    HW214235   1.839   4.070   0.312
 4446SOL     OW14236   4.467   1.819   2.109
 4446SOL    HW114237   4.376   1.783   2.129
 4446SOL    HW214238   4.500   1.782   2.022
 4447SOL     OW14239   4.063   5.744   5.474
 4447SOL    HW114240   3.997   5.784   5.536
 4447SOL    HW214241   4.026   5.659   5.436
 4448SOL     OW14242   3.449   6.436   2.187
 4448SOL    HW114243   3.424   6.447   2.284
 4448SOL    HW214244   3.507   6.356   2.177
 4449SOL     OW14245   3.890   2.110   5.719
 4449SOL    HW114246   3.832   2.063   5.652
 4449SOL    HW214247   3.900   2.206   5.694
 4450SOL     OW14248   2.116   6.554   0.181
 4450SOL    HW114249   2.050   6.541   0.255
 4450SOL    HW214250   2.209   6.546   0.216
 4451SOL     OW14251   4.567   5.338   3.364
 4451SOL    HW114252   4.556   5.416   3.302
 4451SOL    HW214253   4.663   5.309   3.363
 4452SOL     OW14254   5.002   5.074   3.808
 4452SOL    HW114255   5.030   5.135   3.883
 4452SOL    HW214256   4.935   5.008   3.842
 4453SOL     OW14257   0.399   4.490   0.905
 4453SOL    HW114258   0.316   4.493   0.850
 4453SOL    HW214259   0.407   4.575   0.958
 4454SOL     OW14260   1.329   2.014   0.406
 4454SOL    HW114261   1.252   2.077   0.412
 4454SOL    HW214262   1.391   2.030   0.483
 4455SOL     OW14263   1.763   0.426   4.308
 4455SOL    HW114264   1.707   0.473   4.376
 4455SOL    HW214265   1.831   0.490   4.271
 4456SOL     OW14266   1.955   6.005   4.203
 4456SOL    HW114267   1.900   5.947   4.143
 4456SOL    HW214268   1.912   6.011   4.293
 4457SOL     OW14269   0.950   1.683   4.117
 4457SOL    HW114270   0.924   1.722   4.205
 4457SOL    HW214271   0.994   1.594   4.131
 4458SOL     OW14272   1.202   3.200   6.407
 4458SOL    HW114273   1.107   3.176   6.383
 4458SOL    HW214274   1.201   3.276   6.472
 4459SOL     OW14275   0.849   3.667   3.150
 4459SOL    HW114276   0.935   3.627   3.118
 4459SOL    HW214277   0.803   3.712   3.073
 4460SOL     OW14278   6.995   2.759   4.843
 4460SOL    HW114279   0.030   2.760   4.925
 4460SOL    HW214280   0.016   2.816   4.773
 4461SOL     OW14281   2.462   0.976   1.167
 4461SOL    HW114282   2.459   1.074   1.146
 4461SOL    HW214283   2.433   0.924   1.086
 4462SOL     OW14284   6.627   3.956   2.355
 4462SOL    HW114285   6.620   4.052   2.380
 4462SOL    HW214286   6.722   3.927   2.361
 4463SOL     OW14287   5.466   1.620   6.969
 4463SOL    HW114288   5.388   1.649   0.003
 4463SOL    HW214289   5.522   1.699   6.947
 4464SOL     OW14290   0.433   3.271   1.557
 4464SOL    HW114291   0.414   3.368   1.570
 4464SOL    HW214292   0.424   3.247   1.461
 4465SOL     OW14293   4.170   5.322   1.914
 4465SOL    HW114294   4.200   5.319   1.818
 4465SOL    HW214295   4.096   5.389   1.923
 4466SOL     OW14296   0.573   3.096   2.258
 4466SOL    HW114297   0.529   3.048   2.181
 4466SOL    HW214298   0.552   3.047   2.343
 4467SOL     OW14299   5.489   4.809   2.126
 4467SOL    HW114300   5.461   4.765   2.040
 4467SOL    HW214301   5.465   4.906   2.123
 4468SOL     OW14302   1.752   2.818   1.245
 4468SOL    HW114303   1.783   2.793   1.337
 4468SOL    HW214304   1.665   2.772   1.227
 4469SOL     OW14305   2.358   5.861   1.360
 4469SOL    HW114306   2.455   5.874   1.340
 4469SOL    HW214307   2.309   5.947   1.346
 4470SOL     OW14308   0.676   0.018   2.724
 4470SOL    HW114309   0.633   6.991   2.647
 4470SOL    HW214310   0.770   0.041   2.700
 4471SOL     OW14311   0.708   0.807   6.577
 4471SOL    HW114312   0.612   0.823   6.601
 4471SOL    HW214313   0.734   0.714   6.603
 4472SOL     OW14314   1.337   2.702   0.934
 4472SOL    HW114315   1.287   2.757   1.001
 4472SOL    HW214316   1.277   2.681   0.857
 4473SOL     OW14317   0.150   2.969   4.742
 4473SOL    HW114318   0.234   2.926   4.773
 4473SOL    HW214319   0.167   3.065   4.720
 4474SOL     OW14320   2.027   6.040   0.769
 4474SOL    HW114321   2.040   5.975   0.844
 4474SOL    HW214322   2.115   6.082   0.747
 4475SOL     OW14323   0.696   3.474   0.301
 4475SOL    HW114324   0.779   3.526   0.279
 4475SOL    HW214325   0.701   3.442   0.396
 4476SOL     OW14326   5.166   1.377   3.524
 4476SOL    HW114327   5.112   1.386   3.608
 4476SOL    HW214328   5.117   1.423   3.449
 4477SOL     OW14329   0.034   1.153   4.023
 4477SOL    HW114330   6.966   1.164   3.981
 4477SOL    HW214331   0.067   1.060   4.005
 4478SOL     OW14332   1.712   0.731   1.932
 4478SOL    HW114333   1.784   0.683   1.882
 4478SOL    HW214334   1.753   0.787   2.004
 4479SOL     OW14335   2.011   2.660   6.470
 4479SOL    HW114336   1.949   2.635   6.544
 4479SOL    HW214337   1.964   2.654   6.383
 4480SOL     OW14338   0.310   6.552   3.745
 4480SOL    HW114339   0.338   6.633   3.694
 4480SOL    HW214340   0.211   6.542   3.740
 4481SOL     OW14341   2.071   3.588   6.147
 4481SOL    HW114342   2.006   3.606   6.222
 4481SOL    HW214343   2.038   3.634   6.064
 4482SOL     OW14344   2.457   0.487   1.231
 4482SOL    HW114345   2.429   0.552   1.301
 4482SOL    HW214346   2.543   0.443   1.259
 4483SOL     OW14347   1.307   3.729   0.536
 4483SOL    HW114348   1.339   3.664   0.604
 4483SOL    HW214349   1.248   3.797   0.579
 4484SOL     OW14350   3.050   0.675   6.854
 4484SOL    HW114351   3.063   0.603   6.922
 4484SOL    HW214352   3.029   0.761   6.901
 4485SOL     OW14353   0.210   3.670   4.813
 4485SOL    HW114354   0.298   3.629   4.836
 4485SOL    HW214355   0.192   3.748   4.873
 4486SOL     OW14356   5.083   4.511   3.865
 4486SOL    HW114357   5.090   4.584   3.797
 4486SOL    HW214358   5.162   4.515   3.926
 4487SOL     OW14359   0.216   3.221   6.583
 4487SOL    HW114360   0.123   3.188   6.573
 4487SOL    HW214361   0.278   3.143   6.597
 4488SOL     OW14362   6.996   3.984   3.397
 4488SOL    HW114363   0.020   3.900   3.429
 4488SOL    HW214364   6.905   3.960   3.363
 4489SOL     OW14365   3.443   5.718   6.392
 4489SOL    HW114366   3.427   5.816   6.383
 4489SOL    HW214367   3.358   5.671   6.417
 4490SOL     OW14368   5.867   1.754   1.996
 4490SOL    HW114369   5.866   1.685   2.069
 4490SOL    HW214370   5.794   1.735   1.931
 4491SOL     OW14371   0.787   4.109   2.951
 4491SOL    HW114372   0.836   4.045   3.010
 4491SOL    HW214373   0.724   4.163   3.007
 4492SOL     OW14374   6.493   1.448   2.344
 4492SOL    HW114375   6.479   1.429   2.247
 4492SOL    HW214376   6.518   1.544   2.357
 4493SOL     OW14377   5.242   1.940   5.552
 4493SOL    HW114378   5.150   1.904   5.532
 4493SOL    HW214379   5.305   1.864   5.568
 4494SOL     OW14380   1.761   0.901   2.131
 4494SOL    HW114381   1.752   0.860   2.222
 4494SOL    HW214382   1.714   0.990   2.130
 4495SOL     OW14383   4.245   6.378   0.829
 4495SOL    HW114384   4.209   6.471   0.825
 4495SOL    HW214385   4.290   6.357   0.742
 4496SOL     OW14386   2.379   6.285   6.170
 4496SOL    HW114387   2.473   6.266   6.199
 4496SOL    HW214388   2.358   6.231   6.088
 4497SOL     OW14389   4.210   0.392   5.683
 4497SOL    HW114390   4.168   0.483   5.689
 4497SOL    HW214391   4.282   0.384   5.753
 4498SOL     OW14392   0.929   5.053   4.473
 4498SOL    HW114393   0.856   4.989   4.449
 4498SOL    HW214394   1.016   5.003   4.479
 4499SOL     OW14395   6.239   0.815   2.238
 4499SOL    HW114396   6.258   0.887   2.304
 4499SOL    HW214397   6.143   0.789   2.244
 4500SOL     OW14398   3.354   6.702   0.200
 4500SOL    HW114399   3.395   6.724   0.288
 4500SOL    HW214400   3.417   6.730   0.127
 4501SOL     OW14401   6.290   0.269   2.293
 4501SOL    HW114402   6.388   0.281   2.307
 4501SOL    HW214403   6.274   0.186   2.240
 4502SOL     OW14404   1.417   4.292   6.673
 4502SOL    HW114405   1.394   4.240   6.756
 4502SOL    HW214406   1.487   4.360   6.696
 4503SOL     OW14407   4.083   1.605   2.567
 4503SOL    HW114408   4.120   1.514   2.586
 4503SOL    HW214409   4.143   1.653   2.503
 4504SOL     OW14410   1.479   2.388   4.017
 4504SOL    HW114411   1.579   2.386   4.010
 4504SOL    HW214412   1.440   2.383   3.925
 4505SOL     OW14413   6.336   3.215   3.635
 4505SOL    HW114414   6.294   3.303   3.612
 4505SOL    HW214415   6.326   3.198   3.733
 4506SOL     OW14416   4.036   3.711   0.177
 4506SOL    HW114417   3.949   3.693   0.133
 4506SOL    HW214418   4.105   3.732   0.108
 4507SOL     OW14419   6.106   2.270   2.933
 4507SOL    HW114420   6.016   2.296   2.966
 4507SOL    HW214421   6.103   2.258   2.834
 4508SOL     OW14422   6.215   4.952   0.789
 4508SOL    HW114423   6.119   4.957   0.760
 4508SOL    HW214424   6.234   5.027   0.852
 4509SOL     OW14425   5.445   1.861   2.140
 4509SOL    HW114426   5.498   1.779   2.116
 4509SOL    HW214427   5.361   1.863   2.086
 4510SOL     OW14428   5.114   1.462   4.487
 4510SOL    HW114429   5.101   1.368   4.516
 4510SOL    HW214430   5.026   1.509   4.483
 4511SOL     OW14431   0.017   4.608   6.529
 4511SOL    HW114432   0.027   4.579   6.433
 4511SOL    HW214433   0.028   4.707   6.535
 4512SOL     OW14434   3.282   3.385   5.540
 4512SOL    HW114435   3.348   3.313   5.518
 4512SOL    HW214436   3.330   3.463   5.581
 4513SOL     OW14437   0.087   0.431   0.717
 4513SOL    HW114438   0.092   0.462   0.811
 4513SOL    HW214439   0.179   0.425   0.678
 4514SOL     OW14440   4.814   4.754   6.663
 4514SOL    HW114441   4.833   4.711   6.574
 4514SOL    HW214442   4.886   4.820   6.683
 4515SOL     OW14443   4.314   0.408   6.184
 4515SOL    HW114444   4.244   0.351   6.141
 4515SOL    HW214445   4.350   0.473   6.117
 4516SOL     OW14446   3.523   2.259   5.660
 4516SOL    HW114447   3.560   2.328   5.597
 4516SOL    HW214448   3.504   2.175   5.610
 4517SOL     OW14449   3.954   0.476   4.660
 4517SOL    HW114450   3.935   0.378   4.666
 4517SOL    HW214451   3.891   0.525   4.721
 4518SOL     OW14452   0.199   0.013   0.650
 4518SOL    HW114453   0.163   7.002   0.737
 4518SOL    HW214454   0.127   0.010   0.581
 4519SOL     OW14455   5.012   6.957   6.806
 4519SOL    HW114456   5.097   6.960   6.753
 4519SOL    HW214457   4.991   6.862   6.829
 4520SOL     OW14458   4.743   4.879   5.661
 4520SOL    HW114459   4.800   4.917   5.588
 4520SOL    HW214460   4.658   4.930   5.668
 4521SOL     OW14461   4.787   2.241   4.562
 4521SOL    HW114462   4.696   2.241   4.520
 4521SOL    HW214463   4.829   2.331   4.551
 4522SOL     OW14464   6.200   3.472   3.528
 4522SOL    HW114465   6.106   3.452   3.502
 4522SOL    HW214466   6.201   3.546   3.595
 4523SOL     OW14467   6.853   3.429   6.623
 4523SOL    HW114468   6.900   3.498   6.678
 4523SOL    HW214469   6.876   3.338   6.658
 4524SOL     OW14470   1.826   3.755   1.956
 4524SOL    HW114471   1.889   3.746   2.033
 4524SOL    HW214472   1.733   3.767   1.990
 4525SOL     OW14473   3.819   2.077   5.971
 4525SOL    HW114474   3.859   2.067   5.880
 4525SOL    HW214475   3.892   2.088   6.039
 4526SOL     OW14476   1.661   0.140   5.456
 4526SOL    HW114477   1.714   0.188   5.385
 4526SOL    HW214478   1.624   0.206   5.521
 4527SOL     OW14479   0.309   1.996   2.782
 4527SOL    HW114480   0.360   2.052   2.847
 4527SOL    HW214481   0.352   1.906   2.774
 4528SOL     OW14482   5.099   0.760   4.458
 4528SOL    HW114483   5.070   0.853   4.434
 4528SOL    HW214484   5.161   0.765   4.537
 4529SOL     OW14485   2.185   2.084   4.107
 4529SOL    HW114486   2.181   1.985   4.095
 4529SOL    HW214487   2.276   2.117   4.084
 4530SOL     OW14488   3.942   4.874   6.664
 4530SOL    HW114489   3.884   4.928   6.605
 4530SOL    HW214490   3.906   4.780   6.670
 4531SOL     OW14491   2.062   0.070   5.316
 4531SOL    HW114492   2.003   0.004   5.270
 4531SOL    HW214493   2.132   0.102   5.251
 4532SOL     OW14494   6.185   1.248   2.239
 4532SOL    HW114495   6.166   1.346   2.234
 4532SOL    HW214496   6.187   1.220   2.335
 4533SOL     OW14497   2.798   6.522   1.587
 4533SOL    HW114498   2.851   6.483   1.512
 4533SOL    HW214499   2.721   6.462   1.608
 4534SOL     OW14500   6.054   1.332   4.438
 4534SOL    HW114501   6.052   1.411   4.500
 4534SOL    HW214502   6.037   1.363   4.345
 4535SOL     OW14503   1.438   0.695   6.975
 4535SOL    HW114504   1.487   0.763   0.008
 4535SOL    HW214505   1.414   0.617   0.011
 4536SOL     OW14506   3.836   1.027   5.915
 4536SOL    HW114507   3.741   1.053   5.932
 4536SOL    HW214508   3.897   1.102   5.940
 4537SOL     OW14509   3.284   3.317   2.971
 4537SOL    HW114510   3.286   3.372   2.887
 4537SOL    HW214511   3.250   3.372   3.047
 4538SOL     OW14512   0.929   2.154   0.334
 4538SOL    HW114513   1.017   2.165   0.287
 4538SOL    HW214514   0.857   2.199   0.280
 4539SOL     OW14515   0.935   5.278   4.646
 4539SOL    HW114516   0.961   5.209   4.579
 4539SOL    HW214517   0.935   5.238   4.738
 4540SOL     OW14518   1.568   1.619   0.443
 4540SOL    HW114519   1.496   1.589   0.506
 4540SOL    HW214520   1.639   1.550   0.437
 4541SOL     OW14521   3.962   3.532   6.982
 4541SOL    HW114522   4.014   3.506   6.901
 4541SOL    HW214523   3.943   3.451   0.016
 4542SOL     OW14524   0.460   1.881   6.902
 4542SOL    HW114525   0.431   1.977   6.898
 4542SOL    HW214526   0.500   1.855   6.814
 4543SOL     OW14527   4.489   1.560   0.956
 4543SOL    HW114528   4.577   1.545   1.002
 4543SOL    HW214529   4.417   1.513   1.007
 4544SOL     OW14530   4.427   6.147   0.553
 4544SOL    HW114531   4.405   6.242   0.530
 4544SOL    HW214532   4.526   6.137   0.564
 4545SOL     OW14533   2.749   3.022   5.682
 4545SOL    HW114534   2.671   3.070   5.642
 4545SOL    HW214535   2.749   3.036   5.781
 4546SOL     OW14536   4.194   0.012   6.292
 4546SOL    HW114537   4.242   0.006   6.380
 4546SOL    HW214538   4.148   6.948   6.274
 4547SOL     OW14539   0.356   0.603   0.397
 4547SOL    HW114540   0.345   0.676   0.329
 4547SOL    HW214541   0.410   0.529   0.359
 4548SOL     OW14542   3.571   1.086   2.123
 4548SOL    HW114543   3.616   1.119   2.206
 4548SOL    HW214544   3.608   0.996   2.099
 4549SOL     OW14545   6.273   3.754   4.022
 4549SOL    HW114546   6.362   3.796   4.038
 4549SOL    HW214547   6.200   3.818   4.047
 4550SOL     OW14548   2.151   5.851   5.797
 4550SOL    HW114549   2.216   5.880   5.867
 4550SOL    HW214550   2.142   5.924   5.729
 4551SOL     OW14551   3.158   2.743   6.107
 4551SOL    HW114552   3.255   2.722   6.115
 4551SOL    HW214553   3.105   2.659   6.113
 4552SOL     OW14554   5.015   0.707   6.917
 4552SOL    HW114555   4.931   0.751   6.885
 4552SOL    HW214556   5.082   0.776   6.942
 4553SOL     OW14557   0.086   6.661   0.309
 4553SOL    HW114558   0.159   6.633   0.372
 4553SOL    HW214559   0.118   6.654   0.215
 4554SOL     OW14560   5.864   6.636   3.420
 4554SOL    HW114561   5.818   6.551   3.445
 4554SOL    HW214562   5.944   6.614   3.363
 4555SOL     OW14563   0.739   0.447   1.995
 4555SOL    HW114564   0.673   0.415   1.928
 4555SOL    HW214565   0.742   0.383   2.072
 4556SOL     OW14566   5.452   4.656   4.446
 4556SOL    HW114567   5.437   4.719   4.522
 4556SOL    HW214568   5.441   4.562   4.479
 4557SOL     OW14569   6.630   4.650   4.375
 4557SOL    HW114570   6.539   4.613   4.355
 4557SOL    HW214571   6.620   4.731   4.433
 4558SOL     OW14572   0.944   4.262   4.455
 4558SOL    HW114573   0.951   4.251   4.356
 4558SOL    HW214574   1.035   4.254   4.496
 4559SOL     OW14575   0.168   2.495   4.099
 4559SOL    HW114576   0.146   2.586   4.135
 4559SOL    HW214577   0.090   2.461   4.047
 4560SOL     OW14578   6.094   4.434   3.184
 4560SOL    HW114579   6.034   4.513   3.190
 4560SOL    HW214580   6.072   4.382   3.101
 4561SOL     OW14581   4.533   2.592   4.507
 4561SOL    HW114582   4.618   2.540   4.502
 4561SOL    HW214583   4.539   2.673   4.448
 4562SOL     OW14584   4.239   0.985   0.942
 4562SOL    HW114585   4.223   1.054   1.013
 4562SOL    HW214586   4.170   0.913   0.948
 4563SOL     OW14587   1.064   4.238   1.688
 4563SOL    HW114588   1.112   4.302   1.748
 4563SOL    HW214589   0.971   4.224   1.724
 4564SOL     OW14590   1.815   4.470   2.947
 4564SOL    HW114591   1.767   4.383   2.936
 4564SOL    HW214592   1.897   4.470   2.890
 4565SOL     OW14593   2.038   0.479   5.634
 4565SOL    HW114594   2.047   0.424   5.551
 4565SOL    HW214595   2.127   0.521   5.657
 4566SOL     OW14596   0.289   4.419   3.014
 4566SOL    HW114597   0.349   4.466   3.078
 4566SOL    HW214598   0.210   4.476   2.994
 4567SOL     OW14599   6.876   0.142   0.042
 4567SOL    HW114600   6.851   0.197   6.984
 4567SOL    HW214601   6.924   0.199   0.109
 4568SOL     OW14602   0.943   4.999   3.522
 4568SOL    HW114603   0.928   5.098   3.530
 4568SOL    HW214604   0.878   4.951   3.581
 4569SOL     OW14605   1.385   2.208   3.120
 4569SOL    HW114606   1.366   2.287   3.062
 4569SOL    HW214607   1.480   2.212   3.152
 4570SOL     OW14608   5.164   5.273   1.004
 4570SOL    HW114609   5.247   5.322   0.978
 4570SOL    HW214610   5.189   5.184   1.042
 4571SOL     OW14611   1.859   4.184   5.714
 4571SOL    HW114612   1.886   4.280   5.713
 4571SOL    HW214613   1.841   4.154   5.620
 4572SOL     OW14614   4.337   3.114   1.736
 4572SOL    HW114615   4.309   3.027   1.694
 4572SOL    HW214616   4.416   3.098   1.795
 4573SOL     OW14617   2.048   4.870   0.721
 4573SOL    HW114618   2.063   4.965   0.693
 4573SOL    HW214619   1.952   4.847   0.711
 4574SOL     OW14620   4.832   0.504   1.827
 4574SOL    HW114621   4.806   0.587   1.876
 4574SOL    HW214622   4.870   0.529   1.738
 4575SOL     OW14623   6.560   1.210   5.242
 4575SOL    HW114624   6.633   1.189   5.308
 4575SOL    HW214625   6.561   1.143   5.169
 4576SOL     OW14626   3.466   3.793   6.784
 4576SOL    HW114627   3.489   3.762   6.876
 4576SOL    HW214628   3.414   3.722   6.736
 4577SOL     OW14629   0.691   1.893   1.928
 4577SOL    HW114630   0.602   1.936   1.913
 4577SOL    HW214631   0.678   1.795   1.944
 4578SOL     OW14632   2.071   0.935   3.279
 4578SOL    HW114633   2.086   0.845   3.239
 4578SOL    HW214634   2.021   0.992   3.214
 4579SOL     OW14635   4.718   0.998   3.558
 4579SOL    HW114636   4.799   0.965   3.509
 4579SOL    HW214637   4.731   0.987   3.656
 4580SOL     OW14638   1.090   1.305   1.456
 4580SOL    HW114639   1.171   1.353   1.490
 4580SOL    HW214640   1.059   1.240   1.526
 4581SOL     OW14641   2.716   0.502   1.046
 4581SOL    HW114642   2.653   0.571   1.010
 4581SOL    HW214643   2.666   0.418   1.068
 4582SOL     OW14644   6.727   0.917   3.597
 4582SOL    HW114645   6.758   0.858   3.672
 4582SOL    HW214646   6.742   1.013   3.622
 4583SOL     OW14647   1.802   6.933   6.941
 4583SOL    HW114648   1.808   0.005   6.974
 4583SOL    HW214649   1.873   6.918   6.871
 4584SOL     OW14650   0.226   1.607   3.891
 4584SOL    HW114651   0.230   1.512   3.920
 4584SOL    HW214652   0.261   1.666   3.964
 4585SOL     OW14653   1.657   3.013   2.731
 4585SOL    HW114654   1.712   2.951   2.787
 4585SOL    HW214655   1.598   3.068   2.790
 4586SOL     OW14656   6.595   5.046   5.521
 4586SOL    HW114657   6.555   5.132   5.490
 4586SOL    HW214658   6.522   4.985   5.554
 4587SOL     OW14659   4.534   3.958   5.980
 4587SOL    HW114660   4.590   3.975   6.061
 4587SOL    HW214661   4.498   3.865   5.983
 4588SOL     OW14662   3.076   4.118   6.224
 4588SOL    HW114663   3.044   4.080   6.311
 4588SOL    HW214664   3.113   4.209   6.239
 4589SOL     OW14665   5.402   6.307   2.161
 4589SOL    HW114666   5.302   6.314   2.163
 4589SOL    HW214667   5.437   6.306   2.254
 4590SOL     OW14668   2.612   5.421   1.272
 4590SOL    HW114669   2.539   5.486   1.293
 4590SOL    HW214670   2.644   5.377   1.357
 4591SOL     OW14671   2.179   0.778   4.879
 4591SOL    HW114672   2.227   0.850   4.930
 4591SOL    HW214673   2.152   0.813   4.789
 4592SOL     OW14674   2.860   2.048   3.956
 4592SOL    HW114675   2.901   1.957   3.964
 4592SOL    HW214676   2.932   2.115   3.935
 4593SOL     OW14677   1.239   5.862   4.275
 4593SOL    HW114678   1.321   5.871   4.331
 4593SOL    HW214679   1.158   5.862   4.333
 4594SOL     OW14680   1.926   6.298   4.160
 4594SOL    HW114681   1.945   6.314   4.063
 4594SOL    HW214682   1.953   6.205   4.185
 4595SOL     OW14683   5.865   2.058   6.476
 4595SOL    HW114684   5.950   2.045   6.425
 4595SOL    HW214685   5.886   2.096   6.566
 4596SOL     OW14686   1.425   1.729   2.125
 4596SOL    HW114687   1.501   1.688   2.076
 4596SOL    HW214688   1.391   1.665   2.194
 4597SOL     OW14689   2.465   6.037   0.452
 4597SOL    HW114690   2.392   6.053   0.385
 4597SOL    HW214691   2.508   5.949   0.434
 4598SOL     OW14692   0.835   3.279   0.150
 4598SOL    HW114693   0.785   3.239   0.073
 4598SOL    HW214694   0.787   3.360   0.184
 4599SOL     OW14695   3.359   6.463   2.656
 4599SOL    HW114696   3.308   6.380   2.634
 4599SOL    HW214697   3.312   6.512   2.729
 4600SOL     OW14698   6.947   6.104   6.492
 4600SOL    HW114699   7.019   6.166   6.461
 4600SOL    HW214700   6.986   6.038   6.557
 4601SOL     OW14701   1.490   0.549   5.812
 4601SOL    HW114702   1.472   0.643   5.784
 4601SOL    HW214703   1.543   0.503   5.740
 4602SOL     OW14704   3.936   1.436   6.566
 4602SOL    HW114705   3.918   1.522   6.615
 4602SOL    HW214706   3.936   1.454   6.468
 4603SOL     OW14707   4.020   6.684   1.007
 4603SOL    HW114708   3.932   6.650   1.040
 4603SOL    HW214709   4.064   6.738   1.078
 4604SOL     OW14710   0.599   0.460   3.739
 4604SOL    HW114711   0.566   0.543   3.694
 4604SOL    HW214712   0.662   0.485   3.813
 4605SOL     OW14713   4.440   0.892   1.490
 4605SOL    HW114714   4.510   0.964   1.485
 4605SOL    HW214715   4.480   0.809   1.529
 4606SOL     OW14716   6.717   6.821   5.052
 4606SOL    HW114717   6.811   6.804   5.023
 4606SOL    HW214718   6.703   6.781   5.143
 4607SOL     OW14719   2.984   1.750   1.265
 4607SOL    HW114720   2.960   1.782   1.356
 4607SOL    HW214721   2.948   1.814   1.197
 4608SOL     OW14722   6.992   2.705   5.152
 4608SOL    HW114723   6.990   2.797   5.191
 4608SOL    HW214724   0.062   2.666   5.163
 4609SOL     OW14725   5.636   5.255   6.430
 4609SOL    HW114726   5.597   5.205   6.508
 4609SOL    HW214727   5.573   5.326   6.401
 4610SOL     OW14728   5.291   5.044   6.762
 4610SOL    HW114729   5.383   5.043   6.722
 4610SOL    HW214730   5.286   5.116   6.832
 4611SOL     OW14731   6.998   1.127   6.825
 4611SOL    HW114732   0.012   1.044   6.781
 4611SOL    HW214733   0.042   1.202   6.813
 4612SOL     OW14734   2.752   0.797   3.175
 4612SOL    HW114735   2.794   0.796   3.084
 4612SOL    HW214736   2.672   0.738   3.175
 4613SOL     OW14737   1.462   5.573   2.295
 4613SOL    HW114738   1.557   5.544   2.286
 4613SOL    HW214739   1.442   5.594   2.390
 4614SOL     OW14740   0.407   4.695   2.919
 4614SOL    HW114741   0.310   4.720   2.917
 4614SOL    HW214742   0.437   4.687   3.014
 4615SOL     OW14743   1.587   4.500   6.713
 4615SOL    HW114744   1.630   4.542   6.633
 4615SOL    HW214745   1.635   4.531   6.795
 4616SOL     OW14746   1.228   4.164   6.539
 4616SOL    HW114747   1.146   4.146   6.594
 4616SOL    HW214748   1.291   4.222   6.591
 4617SOL     OW14749   0.141   3.520   3.691
 4617SOL    HW114750   0.057   3.567   3.663
 4617SOL    HW214751   0.219   3.583   3.681
 4618SOL     OW14752   2.341   4.164   5.535
 4618SOL    HW114753   2.300   4.097   5.474
 4618SOL    HW214754   2.440   4.163   5.525
 4619SOL     OW14755   4.447   5.936   6.392
 4619SOL    HW114756   4.387   5.981   6.327
 4619SOL    HW214757   4.498   5.864   6.346
 4620SOL     OW14758   0.971   4.506   1.443
 4620SOL    HW114759   0.952   4.449   1.362
 4620SOL    HW214760   1.060   4.480   1.480
 4621SOL     OW14761   3.271   0.229   2.834
 4621SOL    HW114762   3.303   0.140   2.802
 4621SOL    HW214763   3.348   0.279   2.875
 4622SOL     OW14764   5.146   0.096   0.558
 4622SOL    HW114765   5.143   0.165   0.485
 4622SOL    HW214766   5.156   0.142   0.646
 4623SOL     OW14767   3.137   4.826   2.838
 4623SOL    HW114768   3.186   4.756   2.889
 4623SOL    HW214769   3.062   4.862   2.893
 4624SOL     OW14770   5.107   1.614   1.355
 4624SOL    HW114771   5.089   1.705   1.392
 4624SOL    HW214772   5.173   1.567   1.414
 4625SOL     OW14773   1.607   6.642   1.729
 4625SOL    HW114774   1.533   6.630   1.663
 4625SOL    HW214775   1.591   6.726   1.782
 4626SOL     OW14776   4.148   3.248   1.928
 4626SOL    HW114777   4.086   3.180   1.966
 4626SOL    HW214778   4.221   3.201   1.878
 4627SOL     OW14779   6.056   0.148   5.083
 4627SOL    HW114780   6.106   0.158   4.997
 4627SOL    HW214781   6.040   0.238   5.123
 4628SOL     OW14782   6.497   4.844   2.960
 4628SOL    HW114783   6.513   4.756   3.004
 4628SOL    HW214784   6.400   4.852   2.936
 4629SOL     OW14785   1.708   5.435   0.582
 4629SOL    HW114786   1.761   5.384   0.650
 4629SOL    HW214787   1.660   5.372   0.522
 4630SOL     OW14788   1.830   3.826   1.445
 4630SOL    HW114789   1.753   3.763   1.447
 4630SOL    HW214790   1.813   3.899   1.378
 4631SOL     OW14791   6.461   1.422   2.642
 4631SOL    HW114792   6.370   1.436   2.679
 4631SOL    HW214793   6.465   1.457   2.548
 4632SOL     OW14794   2.758   4.742   3.584
 4632SOL    HW114795   2.770   4.683   3.664
 4632SOL    HW214796   2.688   4.810   3.603
 4633SOL     OW14797   5.370   2.709   4.075
 4633SOL    HW114798   5.432   2.717   3.998
 4633SOL    HW214799   5.276   2.728   4.045
 4634SOL     OW14800   3.775   2.949   4.637
 4634SOL    HW114801   3.840   2.873   4.641
 4634SOL    HW214802   3.737   2.956   4.545
 4635SOL     OW14803   4.476   6.513   2.317
 4635SOL    HW114804   4.396   6.531   2.260
 4635SOL    HW214805   4.540   6.453   2.268
 4636SOL     OW14806   1.395   6.242   6.233
 4636SOL    HW114807   1.389   6.300   6.314
 4636SOL    HW214808   1.306   6.201   6.215
 4637SOL     OW14809   2.189   2.054   3.178
 4637SOL    HW114810   2.201   1.966   3.132
 4637SOL    HW214811   2.226   2.049   3.271
 4638SOL     OW14812   3.815   4.764   0.745
 4638SOL    HW114813   3.909   4.755   0.712
 4638SOL    HW214814   3.758   4.694   0.700
 4639SOL     OW14815   4.059   2.126   2.256
 4639SOL    HW114816   4.016   2.102   2.169
 4639SOL    HW214817   4.002   2.093   2.331
 4640SOL     OW14818   6.405   2.826   1.090
 4640SOL    HW114819   6.311   2.804   1.115
 4640SOL    HW214820   6.405   2.901   1.023
 4641SOL     OW14821   1.301   5.885   4.589
 4641SOL    HW114822   1.266   5.791   4.585
 4641SOL    HW214823   1.275   5.926   4.676
 4642SOL     OW14824   6.018   1.121   5.688
 4642SOL    HW114825   5.999   1.217   5.709
 4642SOL    HW214826   6.046   1.113   5.593
 4643SOL     OW14827   0.712   1.649   0.445
 4643SOL    HW114828   0.706   1.638   0.346
 4643SOL    HW214829   0.622   1.673   0.481
 4644SOL     OW14830   1.227   0.728   0.936
 4644SOL    HW114831   1.131   0.739   0.914
 4644SOL    HW214832   1.266   0.816   0.964
 4645SOL     OW14833   6.156   2.366   4.897
 4645SOL    HW114834   6.132   2.327   4.986
 4645SOL    HW214835   6.255   2.361   4.883
 4646SOL     OW14836   1.668   4.176   2.532
 4646SOL    HW114837   1.585   4.128   2.503
 4646SOL    HW214838   1.674   4.264   2.486
 4647SOL     OW14839   2.041   6.980   2.152
 4647SOL    HW114840   2.008   6.892   2.121
 4647SOL    HW214841   2.140   6.977   2.165
 4648SOL     OW14842   2.951   1.155   4.421
 4648SOL    HW114843   2.996   1.073   4.455
 4648SOL    HW214844   2.941   1.149   4.321
 4649SOL     OW14845   5.506   1.763   0.651
 4649SOL    HW114846   5.539   1.843   0.701
 4649SOL    HW214847   5.565   1.685   0.670
 4650SOL     OW14848   4.265   5.579   0.968
 4650SOL    HW114849   4.229   5.500   0.918
 4650SOL    HW214850   4.272   5.556   1.065
 4651SOL     OW14851   0.522   3.973   6.766
 4651SOL    HW114852   0.468   3.894   6.737
 4651SOL    HW214853   0.461   4.050   6.783
 4652SOL     OW14854   6.887   0.133   5.306
 4652SOL    HW114855   6.909   0.080   5.388
 4652SOL    HW214856   6.923   0.087   5.225
 4653SOL     OW14857   6.671   5.817   0.625
 4653SOL    HW114858   6.696   5.722   0.641
 4653SOL    HW214859   6.628   5.855   0.707
 4654SOL     OW14860   0.775   1.234   5.750
 4654SOL    HW114861   0.792   1.159   5.813
 4654SOL    HW214862   0.860   1.283   5.731
 4655SOL     OW14863   4.850   3.762   2.635
 4655SOL    HW114864   4.844   3.827   2.560
 4655SOL    HW214865   4.860   3.669   2.599
 4656SOL     OW14866   5.551   0.944   1.811
 4656SOL    HW114867   5.481   0.969   1.878
 4656SOL    HW214868   5.508   0.896   1.735
 4657SOL     OW14869   3.744   1.330   2.748
 4657SOL    HW114870   3.821   1.301   2.805
 4657SOL    HW214871   3.771   1.410   2.693
 4658SOL     OW14872   1.412   1.889   6.376
 4658SOL    HW114873   1.365   1.935   6.452
 4658SOL    HW214874   1.491   1.839   6.411
 4659SOL     OW14875   2.219   4.101   0.789
 4659SOL    HW114876   2.283   4.112   0.713
 4659SOL    HW214877   2.216   4.186   0.842
 4660SOL     OW14878   0.078   4.757   4.258
 4660SOL    HW114879   0.031   4.801   4.182
 4660SOL    HW214880   0.055   4.804   4.344
 4661SOL     OW14881   0.874   1.587   5.661
 4661SOL    HW114882   0.845   1.579   5.565
 4661SOL    HW214883   0.941   1.517   5.682
 4662SOL     OW14884   2.703   0.369   5.665
 4662SOL    HW114885   2.688   0.272   5.645
 4662SOL    HW214886   2.794   0.381   5.705
 4663SOL     OW14887   0.480   6.939   0.415
 4663SOL    HW114888   0.389   6.933   0.457
 4663SOL    HW214889   0.472   6.973   0.321
 4664SOL     OW14890   6.181   6.339   6.181
 4664SOL    HW114891   6.092   6.358   6.223
 4664SOL    HW214892   6.243   6.415   6.200
 4665SOL     OW14893   0.069   0.422   2.922
 4665SOL    HW114894   0.166   0.434   2.946
 4665SOL    HW214895   0.020   0.508   2.933
 4666SOL     OW14896   1.571   2.938   5.977
 4666SOL    HW114897   1.618   2.850   5.967
 4666SOL    HW214898   1.480   2.923   6.015
 4667SOL     OW14899   6.350   2.979   0.882
 4667SOL    HW114900   6.290   3.054   0.856
 4667SOL    HW214901   6.445   3.002   0.859
 4668SOL     OW14902   4.423   1.689   5.005
 4668SOL    HW114903   4.415   1.684   5.105
 4668SOL    HW214904   4.520   1.687   4.979
 4669SOL     OW14905   5.300   6.980   6.342
 4669SOL    HW114906   5.254   0.044   6.318
 4669SOL    HW214907   5.332   6.935   6.259
 4670SOL     OW14908   7.004   3.649   6.463
 4670SOL    HW114909   6.989   3.664   6.561
 4670SOL    HW214910   6.966   3.726   6.412
 4671SOL     OW14911   6.939   2.791   2.264
 4671SOL    HW114912   6.994   2.741   2.197
 4671SOL    HW214913   6.988   2.792   2.352
 4672SOL     OW14914   2.620   3.643   6.892
 4672SOL    HW114915   2.594   3.547   6.884
 4672SOL    HW214916   2.666   3.658   6.979
 4673SOL     OW14917   5.760   0.808   1.011
 4673SOL    HW114918   5.844   0.855   0.984
 4673SOL    HW214919   5.702   0.870   1.065
 4674SOL     OW14920   0.966   3.060   0.829
 4674SOL    HW114921   1.062   3.054   0.858
 4674SOL    HW214922   0.908   3.014   0.895
 4675SOL     OW14923   1.850   6.138   6.090
 4675SOL    HW114924   1.833   6.121   5.993
 4675SOL    HW214925   1.901   6.223   6.100
 4676SOL     OW14926   0.492   5.820   4.415
 4676SOL    HW114927   0.559   5.782   4.478
 4676SOL    HW214928   0.400   5.808   4.452
 4677SOL     OW14929   4.062   6.732   0.027
 4677SOL    HW114930   4.013   6.809   0.068
 4677SOL    HW214931   4.017   6.646   0.051
 4678SOL     OW14932   2.354   4.619   0.113
 4678SOL    HW114933   2.363   4.540   0.052
 4678SOL    HW214934   2.316   4.589   0.200
 4679SOL     OW14935   2.565   6.743   5.180
 4679SOL    HW114936   2.468   6.761   5.164
 4679SOL    HW214937   2.575   6.671   5.249
 4680SOL     OW14938   0.595   5.080   0.284
 4680SOL    HW114939   0.631   5.076   0.191
 4680SOL    HW214940   0.605   4.991   0.327
 4681SOL     OW14941   6.407   5.882   4.753
 4681SOL    HW114942   6.483   5.842   4.805
 4681SOL    HW214943   6.342   5.810   4.727
 4682SOL     OW14944   2.495   6.968   0.573
 4682SOL    HW114945   2.584   7.012   0.583
 4682SOL    HW214946   2.476   6.911   0.653
 4683SOL     OW14947   0.623   4.989   3.348
 4683SOL    HW114948   0.607   5.071   3.403
 4683SOL    HW214949   0.577   4.911   3.390
 4684SOL     OW14950   1.498   1.097   4.968
 4684SOL    HW114951   1.577   1.072   4.911
 4684SOL    HW214952   1.425   1.030   4.955
 4685SOL     OW14953   5.144   4.781   4.694
 4685SOL    HW114954   5.208   4.735   4.756
 4685SOL    HW214955   5.181   4.871   4.671
 4686SOL     OW14956   4.729   5.758   0.027
 4686SOL    HW114957   4.637   5.763   7.009
 4686SOL    HW214958   4.738   5.827   0.099
 4687SOL     OW14959   4.706   6.585   4.448
 4687SOL    HW114960   4.709   6.651   4.523
 4687SOL    HW214961   4.693   6.633   4.361
 4688SOL     OW14962   0.177   1.899   0.320
 4688SOL    HW114963   0.142   1.861   0.235
 4688SOL    HW214964   0.117   1.974   0.350
 4689SOL     OW14965   1.537   5.250   4.695
 4689SOL    HW114966   1.442   5.252   4.726
 4689SOL    HW214967   1.559   5.159   4.660
 4690SOL     OW14968   2.193   1.661   0.883
 4690SOL    HW114969   2.264   1.619   0.827
 4690SOL    HW214970   2.103   1.645   0.842
 4691SOL     OW14971   3.443   4.464   0.263
 4691SOL    HW114972   3.402   4.422   0.344
 4691SOL    HW214973   3.541   4.445   0.262
 4692SOL     OW14974   0.596   6.001   3.656
 4692SOL    HW114975   0.505   5.959   3.658
 4692SOL    HW214976   0.591   6.094   3.693
 4693SOL     OW14977   0.859   0.771   2.562
 4693SOL    HW114978   0.846   0.715   2.480
 4693SOL    HW214979   0.861   0.711   2.642
 4694SOL     OW14980   1.034   0.793   5.618
 4694SOL    HW114981   1.065   0.806   5.712
 4694SOL    HW214982   1.028   0.696   5.598
 4695SOL     OW14983   3.040   3.051   2.407
 4695SOL    HW114984   3.004   3.142   2.385
 4695SOL    HW214985   3.013   3.026   2.500
 4696SOL     OW14986   6.264   3.365   0.635
 4696SOL    HW114987   6.300   3.346   0.727
 4696SOL    HW214988   6.166   3.382   0.641
 4697SOL     OW14989   1.016   5.937   6.873
 4697SOL    HW114990   1.040   5.844   6.846
 4697SOL    HW214991   0.971   5.983   6.796
 4698SOL     OW14992   6.238   3.285   2.295
 4698SOL    HW114993   6.181   3.362   2.268
 4698SOL    HW214994   6.192   3.232   2.366
 4699SOL     OW14995   6.906   6.296   3.093
 4699SOL    HW114996   6.827   6.258   3.046
 4699SOL    HW214997   6.895   6.395   3.104
 4700SOL     OW14998   4.984   6.689   0.089
 4700SOL    HW114999   5.073   6.732   0.075
 4700SOL    HW215000   4.996   6.603   0.139
 4701SOL     OW15001   0.973   0.570   6.936
 4701SOL    HW115002   0.984   0.610   6.845
 4701SOL    HW215003   0.915   0.630   6.992
 4702SOL     OW15004   2.363   3.747   0.252
 4702SOL    HW115005   2.414   3.661   0.248
 4702SOL    HW215006   2.407   3.809   0.317
 4703SOL     OW15007   0.654   0.712   2.046
 4703SOL    HW115008   0.720   0.787   2.053
 4703SOL    HW215009   0.694   0.638   1.992
 4704SOL     OW15010   4.785   0.052   6.871
 4704SOL    HW115011   4.864   7.013   6.863
 4704SOL    HW215012   4.793   0.105   6.956
 4705SOL     OW15013   3.887   3.978   4.320
 4705SOL    HW115014   3.848   4.052   4.375
 4705SOL    HW215015   3.865   3.994   4.224
 4706SOL     OW15016   5.164   4.545   0.262
 4706SOL    HW115017   5.089   4.507   0.316
 4706SOL    HW215018   5.186   4.482   0.187
 4707SOL     OW15019   3.014   5.315   1.081
 4707SOL    HW115020   3.024   5.412   1.058
 4707SOL    HW215021   3.018   5.261   0.997
 4708SOL     OW15022   1.549   3.233   2.273
 4708SOL    HW115023   1.473   3.259   2.213
 4708SOL    HW215024   1.634   3.267   2.234
 4709SOL     OW15025   2.513   4.535   0.642
 4709SOL    HW115026   2.519   4.481   0.726
 4709SOL    HW215027   2.601   4.580   0.625
 4710SOL     OW15028   5.265   3.022   1.357
 4710SOL    HW115029   5.186   2.992   1.303
 4710SOL    HW215030   5.250   3.001   1.453
 4711SOL     OW15031   2.895   6.904   3.178
 4711SOL    HW115032   2.856   6.933   3.266
 4711SOL    HW215033   2.896   6.982   3.116
 4712SOL     OW15034   2.003   4.389   6.793
 4712SOL    HW115035   1.926   4.325   6.799
 4712SOL    HW215036   2.078   4.346   6.743
 4713SOL     OW15037   1.831   5.773   0.789
 4713SOL    HW115038   1.738   5.755   0.757
 4713SOL    HW215039   1.896   5.756   0.714
 4714SOL     OW15040   3.704   2.313   1.281
 4714SOL    HW115041   3.612   2.279   1.302
 4714SOL    HW215042   3.707   2.412   1.299
 4715SOL     OW15043   4.928   3.673   4.738
 4715SOL    HW115044   4.882   3.761   4.727
 4715SOL    HW215045   4.889   3.625   4.816
 4716SOL     OW15046   2.748   5.207   0.245
 4716SOL    HW115047   2.749   5.109   0.262
 4716SOL    HW215048   2.681   5.228   0.173
 4717SOL     OW15049   2.230   5.282   4.211
 4717SOL    HW115050   2.173   5.351   4.256
 4717SOL    HW215051   2.177   5.198   4.200
 4718SOL     OW15052   5.394   0.798   6.813
 4718SOL    HW115053   5.304   0.836   6.832
 4718SOL    HW215054   5.448   0.863   6.759
 4719SOL     OW15055   4.734   2.839   1.532
 4719SOL    HW115056   4.714   2.806   1.439
 4719SOL    HW215057   4.693   2.930   1.544
 4720SOL     OW15058   3.065   1.243   3.503
 4720SOL    HW115059   3.156   1.202   3.501
 4720SOL    HW215060   3.072   1.338   3.534
 4721SOL     OW15061   1.599   1.744   1.204
 4721SOL    HW115062   1.666   1.774   1.272
 4721SOL    HW215063   1.508   1.779   1.228
 4722SOL     OW15064   3.538   0.453   2.665
 4722SOL    HW115065   3.544   0.386   2.591
 4722SOL    HW215066   3.547   0.407   2.753
 4723SOL     OW15067   3.152   0.088   5.109
 4723SOL    HW115068   3.167   0.114   5.204
 4723SOL    HW215069   3.172   7.012   5.097
 4724SOL     OW15070   4.761   4.786   1.289
 4724SOL    HW115071   4.753   4.756   1.384
 4724SOL    HW215072   4.732   4.712   1.228
 4725SOL     OW15073   6.295   5.686   2.455
 4725SOL    HW115074   6.248   5.651   2.373
 4725SOL    HW215075   6.390   5.653   2.455
 4726SOL     OW15076   6.979   6.551   4.890
 4726SOL    HW115077   6.976   6.574   4.793
 4726SOL    HW215078   6.962   6.633   4.945
 4727SOL     OW15079   6.376   6.478   1.006
 4727SOL    HW115080   6.435   6.432   0.939
 4727SOL    HW215081   6.299   6.521   0.959
 4728SOL     OW15082   6.677   0.883   7.012
 4728SOL    HW115083   6.629   0.797   0.010
 4728SOL    HW215084   6.744   0.901   0.063
 4729SOL     OW15085   2.923   0.986   0.657
 4729SOL    HW115086   2.972   1.035   0.585
 4729SOL    HW215087   2.865   1.050   0.707
 4730SOL     OW15088   1.864   0.600   5.792
 4730SOL    HW115089   1.856   0.700   5.785
 4730SOL    HW215090   1.934   0.568   5.729
 4731SOL     OW15091   5.000   1.893   6.709
 4731SOL    HW115092   5.034   1.816   6.762
 4731SOL    HW215093   4.940   1.860   6.636
 4732SOL     OW15094   0.423   1.002   0.068
 4732SOL    HW115095   0.463   1.092   0.086
 4732SOL    HW215096   0.414   0.989   6.991
 4733SOL     OW15097   6.847   3.645   3.487
 4733SOL    HW115098   6.748   3.636   3.475
 4733SOL    HW215099   6.869   3.642   3.585
 4734SOL     OW15100   5.641   4.634   5.710
 4734SOL    HW115101   5.577   4.626   5.786
 4734SOL    HW215102   5.705   4.558   5.712
 4735SOL     OW15103   0.284   4.187   3.744
 4735SOL    HW115104   0.214   4.117   3.756
 4735SOL    HW215105   0.252   4.256   3.679
 4736SOL     OW15106   1.857   0.258   1.504
 4736SOL    HW115107   1.904   0.344   1.523
 4736SOL    HW215108   1.912   0.182   1.538
 4737SOL     OW15109   3.305   5.035   1.717
 4737SOL    HW115110   3.396   5.077   1.716
 4737SOL    HW215111   3.237   5.101   1.687
 4738SOL     OW15112   0.363   6.236   2.496
 4738SOL    HW115113   0.278   6.194   2.464
 4738SOL    HW215114   0.441   6.179   2.467
 4739SOL     OW15115   4.295   6.722   1.432
 4739SOL    HW115116   4.346   6.730   1.518
 4739SOL    HW215117   4.202   6.693   1.451
 4740SOL     OW15118   0.335   2.184   4.111
 4740SOL    HW115119   0.310   2.156   4.018
 4740SOL    HW215120   0.377   2.275   4.108
 4741SOL     OW15121   3.900   3.751   1.844
 4741SOL    HW115122   3.892   3.706   1.933
 4741SOL    HW215123   3.997   3.769   1.825
 4742SOL     OW15124   4.466   0.899   0.848
 4742SOL    HW115125   4.387   0.930   0.901
 4742SOL    HW215126   4.436   0.839   0.775
 4743SOL     OW15127   1.686   6.255   0.985
 4743SOL    HW115128   1.598   6.301   0.972
 4743SOL    HW215129   1.756   6.305   0.933
 4744SOL     OW15130   1.803   5.992   1.577
 4744SOL    HW115131   1.809   5.951   1.668
 4744SOL    HW215132   1.845   6.082   1.578
 4745SOL     OW15133   1.732   3.408   0.205
 4745SOL    HW115134   1.756   3.366   0.117
 4745SOL    HW215135   1.697   3.338   0.267
 4746SOL     OW15136   5.078   5.587   4.350
 4746SOL    HW115137   5.097   5.505   4.295
 4746SOL    HW215138   5.074   5.667   4.290
 4747SOL     OW15139   3.324   0.449   6.897
 4747SOL    HW115140   3.302   0.375   6.833
 4747SOL    HW215141   3.421   0.470   6.892
 4748SOL     OW15142   1.818   0.027   2.285
 4748SOL    HW115143   1.832   0.031   2.384
 4748SOL    HW215144   1.906   0.015   2.239
 4749SOL     OW15145   2.145   1.585   1.163
 4749SOL    HW115146   2.153   1.578   1.063
 4749SOL    HW215147   2.160   1.495   1.204
 4750SOL     OW15148   4.402   3.230   6.160
 4750SOL    HW115149   4.389   3.192   6.252
 4750SOL    HW215150   4.464   3.171   6.108
 4751SOL     OW15151   4.378   1.119   2.450
 4751SOL    HW115152   4.396   1.075   2.362
 4751SOL    HW215153   4.462   1.119   2.504
 4752SOL     OW15154   5.835   1.654   6.965
 4752SOL    HW115155   5.760   1.719   6.955
 4752SOL    HW215156   5.804   1.574   7.017
 4753SOL     OW15157   2.250   6.275   5.131
 4753SOL    HW115158   2.339   6.320   5.140
 4753SOL    HW215159   2.212   6.256   5.221
 4754SOL     OW15160   5.211   4.448   0.008
 4754SOL    HW115161   5.277   4.508   6.983
 4754SOL    HW215162   5.119   4.466   6.996
 4755SOL     OW15163   0.953   1.416   0.976
 4755SOL    HW115164   1.038   1.372   0.947
 4755SOL    HW215165   0.927   1.382   1.066
 4756SOL     OW15166   6.942   3.770   5.503
 4756SOL    HW115167   6.906   3.733   5.588
 4756SOL    HW215168   0.017   3.793   5.514
 4757SOL     OW15169   1.945   3.208   0.352
 4757SOL    HW115170   2.003   3.277   0.307
 4757SOL    HW215171   1.895   3.251   0.427
 4758SOL     OW15172   2.532   4.926   2.877
 4758SOL    HW115173   2.596   5.002   2.867
 4758SOL    HW215174   2.449   4.959   2.923
 4759SOL     OW15175   0.831   6.126   2.373
 4759SOL    HW115176   0.810   6.215   2.413
 4759SOL    HW215177   0.821   6.130   2.274
 4760SOL     OW15178   1.708   6.460   1.199
 4760SOL    HW115179   1.680   6.546   1.241
 4760SOL    HW215180   1.655   6.385   1.238
 4761SOL     OW15181   4.914   6.559   1.732
 4761SOL    HW115182   4.854   6.594   1.660
 4761SOL    HW215183   5.005   6.542   1.694
 4762SOL     OW15184   1.464   0.576   3.034
 4762SOL    HW115185   1.437   0.673   3.035
 4762SOL    HW215186   1.426   0.532   2.953
 4763SOL     OW15187   5.495   5.393   2.156
 4763SOL    HW115188   5.581   5.345   2.141
 4763SOL    HW215189   5.512   5.491   2.162
 4764SOL     OW15190   4.767   2.913   6.904
 4764SOL    HW115191   4.864   2.937   6.909
 4764SOL    HW215192   4.736   2.881   6.994
 4765SOL     OW15193   4.201   1.819   5.956
 4765SOL    HW115194   4.242   1.907   5.981
 4765SOL    HW215195   4.138   1.832   5.880
 4766SOL     OW15196   0.913   0.890   4.646
 4766SOL    HW115197   0.853   0.816   4.615
 4766SOL    HW215198   0.957   0.932   4.566
 4767SOL     OW15199   1.955   4.617   3.643
 4767SOL    HW115200   1.897   4.555   3.696
 4767SOL    HW215201   1.926   4.711   3.660
 4768SOL     OW15202   4.693   2.199   6.259
 4768SOL    HW115203   4.687   2.152   6.347
 4768SOL    HW215204   4.752   2.279   6.267
 4769SOL     OW15205   1.898   3.068   0.668
 4769SOL    HW115206   1.952   3.055   0.584
 4769SOL    HW215207   1.807   3.031   0.655
 4770SOL     OW15208   6.852   1.628   3.171
 4770SOL    HW115209   6.928   1.593   3.115
 4770SOL    HW215210   6.790   1.681   3.113
 4771SOL     OW15211   2.264   0.367   4.125
 4771SOL    HW115212   2.217   0.347   4.211
 4771SOL    HW215213   2.215   0.438   4.075
 4772SOL     OW15214   2.504   4.482   3.024
 4772SOL    HW115215   2.573   4.416   2.994
 4772SOL    HW215216   2.515   4.568   2.974
 4773SOL     OW15217   2.912   5.357   4.944
 4773SOL    HW115218   2.972   5.326   4.870
 4773SOL    HW215219   2.834   5.295   4.952
 4774SOL     OW15220   0.841   4.139   0.891
 4774SOL    HW115221   0.824   4.045   0.919
 4774SOL    HW215222   0.765   4.197   0.922
 4775SOL     OW15223   5.613   5.133   4.810
 4775SOL    HW115224   5.606   5.227   4.779
 4775SOL    HW215225   5.699   5.121   4.861
 4776SOL     OW15226   0.031   1.598   5.255
 4776SOL    HW115227   0.100   1.556   5.314
 4776SOL    HW215228   6.964   1.597   5.301
 4777SOL     OW15229   1.708   6.723   3.194
 4777SOL    HW115230   1.715   6.704   3.292
 4777SOL    HW215231   1.613   6.712   3.166
 4778SOL     OW15232   1.999   0.265   6.766
 4778SOL    HW115233   2.004   0.362   6.789
 4778SOL    HW215234   2.092   0.228   6.757
 4779SOL     OW15235   4.927   1.098   4.732
 4779SOL    HW115236   4.873   1.013   4.733
 4779SOL    HW215237   4.869   1.174   4.762
 4780SOL     OW15238   4.827   3.131   4.806
 4780SOL    HW115239   4.810   3.212   4.862
 4780SOL    HW215240   4.859   3.159   4.716
 4781SOL     OW15241   1.764   5.565   1.942
 4781SOL    HW115242   1.745   5.595   1.848
 4781SOL    HW215243   1.846   5.508   1.942
 4782SOL     OW15244   0.857   5.997   3.496
 4782SOL    HW115245   0.826   5.925   3.434
 4782SOL    HW215246   0.778   6.049   3.529
 4783SOL     OW15247   0.498   3.430   6.490
 4783SOL    HW115248   0.401   3.453   6.480
 4783SOL    HW215249   0.552   3.486   6.427
 4784SOL     OW15250   5.418   2.888   0.383
 4784SOL    HW115251   5.422   2.984   0.409
 4784SOL    HW215252   5.327   2.867   0.348
 4785SOL     OW15253   0.675   0.237   4.078
 4785SOL    HW115254   0.633   0.162   4.027
 4785SOL    HW215255   0.752   0.201   4.130
 4786SOL     OW15256   1.389   5.456   0.232
 4786SOL    HW115257   1.436   5.539   0.261
 4786SOL    HW215258   1.432   5.377   0.275
 4787SOL     OW15259   5.401   0.995   4.922
 4787SOL    HW115260   5.361   1.041   4.843
 4787SOL    HW215261   5.501   1.001   4.917
 4788SOL     OW15262   6.602   5.749   1.248
 4788SOL    HW115263   6.504   5.748   1.226
 4788SOL    HW215264   6.655   5.767   1.166
 4789SOL     OW15265   6.459   0.573   2.689
 4789SOL    HW115266   6.503   0.636   2.753
 4789SOL    HW215267   6.376   0.535   2.730
 4790SOL     OW15268   6.747   1.993   4.616
 4790SOL    HW115269   6.812   1.935   4.664
 4790SOL    HW215270   6.789   2.082   4.597
 4791SOL     OW15271   0.478   0.516   6.784
 4791SOL    HW115272   0.551   0.534   6.718
 4791SOL    HW215273   0.435   0.428   6.764
 4792SOL     OW15274   0.807   4.124   1.795
 4792SOL    HW115275   0.763   4.042   1.832
 4792SOL    HW215276   0.819   4.191   1.869
 4793SOL     OW15277   0.692   3.750   5.383
 4793SOL    HW115278   0.730   3.697   5.307
 4793SOL    HW215279   0.636   3.824   5.346
 4794SOL     OW15280   5.113   1.638   5.966
 4794SOL    HW115281   5.062   1.667   5.885
 4794SOL    HW215282   5.157   1.717   6.007
 4795SOL     OW15283   0.170   1.015   6.573
 4795SOL    HW115284   0.093   0.965   6.534
 4795SOL    HW215285   0.218   1.064   6.501
 4796SOL     OW15286   4.983   1.351   5.700
 4796SOL    HW115287   5.029   1.400   5.625
 4796SOL    HW215288   4.955   1.261   5.668
 4797SOL     OW15289   2.494   5.375   5.472
 4797SOL    HW115290   2.555   5.297   5.489
 4797SOL    HW215291   2.405   5.340   5.441
 4798SOL     OW15292   3.145   6.170   0.451
 4798SOL    HW115293   3.064   6.125   0.491
 4798SOL    HW215294   3.123   6.203   0.360
 4799SOL     OW15295   3.287   3.177   0.460
 4799SOL    HW115296   3.273   3.140   0.368
 4799SOL    HW215297   3.273   3.276   0.458
 4800SOL     OW15298   0.973   4.846   0.317
 4800SOL    HW115299   1.053   4.809   0.365
 4800SOL    HW215300   0.988   4.942   0.294
 4801SOL     OW15301   4.636   2.386   3.120
 4801SOL    HW115302   4.673   2.353   3.033
 4801SOL    HW215303   4.707   2.382   3.190
 4802SOL     OW15304   0.011   0.692   4.827
 4802SOL    HW115305   6.951   0.654   4.870
 4802SOL    HW215306   0.053   0.623   4.767
 4803SOL     OW15307   5.007   3.978   5.638
 4803SOL    HW115308   4.915   4.002   5.606
 4803SOL    HW215309   5.070   4.053   5.621
 4804SOL     OW15310   5.168   2.334   0.908
 4804SOL    HW115311   5.137   2.240   0.902
 4804SOL    HW215312   5.245   2.341   0.971
 4805SOL     OW15313   5.473   1.311   6.387
 4805SOL    HW115314   5.555   1.271   6.428
 4805SOL    HW215315   5.444   1.391   6.439
 4806SOL     OW15316   1.079   2.397   3.091
 4806SOL    HW115317   1.044   2.479   3.047
 4806SOL    HW215318   1.178   2.407   3.105
 4807SOL     OW15319   0.126   4.475   6.740
 4807SOL    HW115320   0.071   4.400   6.776
 4807SOL    HW215321   0.076   4.521   6.666
 4808SOL     OW15322   3.846   5.973   2.549
 4808SOL    HW115323   3.868   5.982   2.452
 4808SOL    HW215324   3.910   6.027   2.603
 4809SOL     OW15325   3.065   3.788   1.127
 4809SOL    HW115326   3.027   3.809   1.217
 4809SOL    HW215327   2.994   3.746   1.070
 4810SOL     OW15328   1.656   5.657   4.414
 4810SOL    HW115329   1.603   5.584   4.459
 4810SOL    HW215330   1.660   5.640   4.316
 4811SOL     OW15331   3.560   3.232   4.381
 4811SOL    HW115332   3.570   3.306   4.448
 4811SOL    HW215333   3.483   3.174   4.408
 4812SOL     OW15334   2.420   6.468   2.208
 4812SOL    HW115335   2.336   6.516   2.182
 4812SOL    HW215336   2.428   6.465   2.307
 4813SOL     OW15337   0.654   2.800   4.777
 4813SOL    HW115338   0.647   2.752   4.690
 4813SOL    HW215339   0.687   2.737   4.848
 4814SOL     OW15340   6.648   2.590   1.005
 4814SOL    HW115341   6.568   2.649   1.002
 4814SOL    HW215342   6.708   2.618   1.080
 4815SOL     OW15343   6.477   4.083   2.100
 4815SOL    HW115344   6.448   4.154   2.164
 4815SOL    HW215345   6.474   3.994   2.145
 4816SOL     OW15346   2.966   0.610   2.489
 4816SOL    HW115347   2.890   0.588   2.428
 4816SOL    HW215348   3.052   0.608   2.438
 4817SOL     OW15349   4.123   2.424   0.553
 4817SOL    HW115350   4.148   2.520   0.568
 4817SOL    HW215351   4.055   2.396   0.621
 4818SOL     OW15352   4.636   6.389   4.618
 4818SOL    HW115353   4.679   6.463   4.566
 4818SOL    HW215354   4.620   6.311   4.557
 4819SOL     OW15355   2.956   0.914   7.015
 4819SOL    HW115356   2.892   0.989   7.000
 4819SOL    HW215357   2.925   0.859   0.071
 4820SOL     OW15358   6.796   4.211   1.848
 4820SOL    HW115359   6.847   4.127   1.829
 4820SOL    HW215360   6.750   4.241   1.765
 4821SOL     OW15361   6.931   5.864   1.512
 4821SOL    HW115362   6.916   5.939   1.447
 4821SOL    HW215363   7.015   5.881   1.563
 4822SOL     OW15364   0.603   3.456   1.287
 4822SOL    HW115365   0.605   3.554   1.267
 4822SOL    HW215366   0.695   3.426   1.314
 4823SOL     OW15367   0.363   1.516   3.111
 4823SOL    HW115368   0.422   1.435   3.112
 4823SOL    HW215369   0.337   1.538   3.205
 4824SOL     OW15370   5.507   1.655   2.571
 4824SOL    HW115371   5.572   1.658   2.647
 4824SOL    HW215372   5.549   1.697   2.490
 4825SOL     OW15373   1.179   3.331   4.188
 4825SOL    HW115374   1.097   3.368   4.145
 4825SOL    HW215375   1.154   3.289   4.276
 4826SOL     OW15376   6.584   0.131   0.208
 4826SOL    HW115377   6.606   0.112   0.303
 4826SOL    HW215378   6.627   0.217   0.180
 4827SOL     OW15379   5.103   1.691   6.927
 4827SOL    HW115380   5.109   1.661   0.001
 4827SOL    HW215381   5.117   1.613   6.866
 4828SOL     OW15382   5.115   3.324   6.413
 4828SOL    HW115383   5.090   3.410   6.369
 4828SOL    HW215384   5.163   3.342   6.499
 4829SOL     OW15385   3.437   0.476   5.188
 4829SOL    HW115386   3.408   0.545   5.255
 4829SOL    HW215387   3.510   0.420   5.228
 4830SOL     OW15388   4.527   5.448   4.684
 4830SOL    HW115389   4.487   5.478   4.597
 4830SOL    HW215390   4.609   5.502   4.704
 4831SOL     OW15391   5.929   2.188   6.695
 4831SOL    HW115392   5.939   2.263   6.630
 4831SOL    HW215393   5.999   2.197   6.766
 4832SOL     OW15394   1.571   2.966   6.390
 4832SOL    HW115395   1.643   2.933   6.451
 4832SOL    HW215396   1.612   3.003   6.307
 4833SOL     OW15397   6.496   1.717   3.440
 4833SOL    HW115398   6.415   1.717   3.381
 4833SOL    HW215399   6.516   1.624   3.469
 4834SOL     OW15400   6.080   0.473   2.974
 4834SOL    HW115401   6.127   0.396   3.017
 4834SOL    HW215402   6.147   0.540   2.943
 4835SOL     OW15403   1.680   1.701   6.185
 4835SOL    HW115404   1.670   1.641   6.265
 4835SOL    HW215405   1.764   1.677   6.136
 4836SOL     OW15406   5.599   3.244   2.339
 4836SOL    HW115407   5.624   3.160   2.292
 4836SOL    HW215408   5.663   3.317   2.314
 4837SOL     OW15409   0.628   4.955   0.964
 4837SOL    HW115410   0.592   5.037   0.920
 4837SOL    HW215411   0.702   4.917   0.909
 4838SOL     OW15412   2.353   6.119   2.661
 4838SOL    HW115413   2.419   6.150   2.730
 4838SOL    HW215414   2.264   6.106   2.704
 4839SOL     OW15415   0.928   0.092   6.415
 4839SOL    HW115416   0.836   0.059   6.434
 4839SOL    HW215417   0.982   0.019   6.373
 4840SOL     OW15418   6.504   5.825   5.867
 4840SOL    HW115419   6.447   5.751   5.901
 4840SOL    HW215420   6.594   5.789   5.842
 4841SOL     OW15421   2.174   6.058   1.262
 4841SOL    HW115422   2.138   6.109   1.183
 4841SOL    HW215423   2.098   6.011   1.307
 4842SOL     OW15424   3.487   6.835   1.502
 4842SOL    HW115425   3.524   6.919   1.541
 4842SOL    HW215426   3.556   6.762   1.509
 4843SOL     OW15427   1.379   3.649   6.848
 4843SOL    HW115428   1.288   3.674   6.814
 4843SOL    HW215429   1.429   3.731   6.875
 4844SOL     OW15430   1.069   1.552   5.066
 4844SOL    HW115431   1.119   1.518   4.986
 4844SOL    HW215432   0.976   1.578   5.038
 4845SOL     OW15433   5.980   5.854   3.890
 4845SOL    HW115434   5.932   5.930   3.935
 4845SOL    HW215435   5.985   5.872   3.792
 4846SOL     OW15436   0.344   5.043   6.508
 4846SOL    HW115437   0.291   5.127   6.522
 4846SOL    HW215438   0.376   5.009   6.596
 4847SOL     OW15439   4.626   2.620   4.797
 4847SOL    HW115440   4.547   2.624   4.735
 4847SOL    HW215441   4.693   2.555   4.762
 4848SOL     OW15442   2.605   2.792   1.685
 4848SOL    HW115443   2.623   2.796   1.587
 4848SOL    HW215444   2.554   2.873   1.713
 4849SOL     OW15445   2.195   6.888   5.808
 4849SOL    HW115446   2.184   6.984   5.782
 4849SOL    HW215447   2.116   6.835   5.776
 4850SOL     OW15448   3.573   6.731   3.275
 4850SOL    HW115449   3.654   6.733   3.216
 4850SOL    HW215450   3.602   6.733   3.371
 4851SOL     OW15451   5.005   1.290   5.368
 4851SOL    HW115452   4.950   1.230   5.426
 4851SOL    HW215453   4.966   1.293   5.276
 4852SOL     OW15454   2.036   1.925   1.924
 4852SOL    HW115455   2.033   1.838   1.875
 4852SOL    HW215456   2.131   1.947   1.947
 4853SOL     OW15457   3.862   1.810   2.259
 4853SOL    HW115458   3.901   1.732   2.211
 4853SOL    HW215459   3.768   1.824   2.229
 4854SOL     OW15460   3.785   0.004   6.897
 4854SOL    HW115461   3.765   6.943   6.845
 4854SOL    HW215462   3.863   0.052   6.856
 4855SOL     OW15463   6.912   2.615   2.892
 4855SOL    HW115464   6.923   2.531   2.946
 4855SOL    HW215465   6.923   2.694   2.951
 4856SOL     OW15466   0.797   4.284   2.007
 4856SOL    HW115467   0.718   4.338   1.978
 4856SOL    HW215468   0.785   4.257   2.103
 4857SOL     OW15469   0.250   0.829   5.768
 4857SOL    HW115470   0.339   0.785   5.779
 4857SOL    HW215471   0.263   0.926   5.747
 4858SOL     OW15472   1.620   0.441   3.918
 4858SOL    HW115473   1.651   0.464   4.011
 4858SOL    HW215474   1.564   0.516   3.883
 4859SOL     OW15475   3.588   5.794   5.938
 4859SOL    HW115476   3.530   5.874   5.948
 4859SOL    HW215477   3.670   5.805   5.995
 4860SOL     OW15478   3.124   4.547   0.505
 4860SOL    HW115479   3.168   4.635   0.486
 4860SOL    HW215480   3.189   4.473   0.492
 4861SOL     OW15481   4.328   4.209   6.464
 4861SOL    HW115482   4.360   4.115   6.453
 4861SOL    HW215483   4.236   4.217   6.426
 4862SOL     OW15484   0.739   6.991   0.553
 4862SOL    HW115485   0.783   6.910   0.593
 4862SOL    HW215486   0.648   6.967   0.520
 4863SOL     OW15487   4.931   4.237   6.438
 4863SOL    HW115488   4.984   4.308   6.485
 4863SOL    HW215489   4.990   4.158   6.420
 4864SOL     OW15490   3.577   1.353   4.205
 4864SOL    HW115491   3.598   1.362   4.107
 4864SOL    HW215492   3.619   1.428   4.255
 4865SOL     OW15493   1.363   6.854   5.162
 4865SOL    HW115494   1.284   6.914   5.174
 4865SOL    HW215495   1.384   6.845   5.065
 4866SOL     OW15496   6.637   4.385   6.260
 4866SOL    HW115497   6.610   4.291   6.275
 4866SOL    HW215498   6.702   4.390   6.184
 4867SOL     OW15499   4.626   1.065   2.803
 4867SOL    HW115500   4.669   1.068   2.893
 4867SOL    HW215501   4.603   1.157   2.773
 4868SOL     OW15502   6.714   4.749   0.496
 4868SOL    HW115503   6.633   4.800   0.469
 4868SOL    HW215504   6.794   4.785   0.447
 4869SOL     OW15505   0.889   1.793   1.109
 4869SOL    HW115506   0.911   1.862   1.040
 4869SOL    HW215507   0.805   1.746   1.084
 4870SOL     OW15508   0.324   6.820   0.972
 4870SOL    HW115509   0.396   6.866   0.920
 4870SOL    HW215510   0.337   6.721   0.967
 4871SOL     OW15511   1.211   1.702   3.291
 4871SOL    HW115512   1.203   1.800   3.272
 4871SOL    HW215513   1.151   1.679   3.367
 4872SOL     OW15514   5.969   0.163   3.246
 4872SOL    HW115515   5.891   0.133   3.191
 4872SOL    HW215516   6.011   0.083   3.290
 4873SOL     OW15517   6.877   5.409   4.373
 4873SOL    HW115518   6.942   5.334   4.382
 4873SOL    HW215519   6.896   5.459   4.288
 4874SOL     OW15520   4.877   3.479   2.857
 4874SOL    HW115521   4.875   3.560   2.916
 4874SOL    HW215522   4.958   3.424   2.879
 4875SOL     OW15523   5.944   5.928   5.080
 4875SOL    HW115524   5.880   5.988   5.127
 4875SOL    HW215525   5.985   5.977   5.003
 4876SOL     OW15526   0.193   0.786   2.130
 4876SOL    HW115527   0.179   0.688   2.143
 4876SOL    HW215528   0.152   0.814   2.043
 4877SOL     OW15529   0.210   1.287   6.812
 4877SOL    HW115530   0.232   1.384   6.807
 4877SOL    HW215531   0.254   1.247   6.893
 4878SOL     OW15532   6.488   3.472   3.083
 4878SOL    HW115533   6.424   3.503   3.013
 4878SOL    HW215534   6.451   3.492   3.173
 4879SOL     OW15535   5.302   0.646   3.143
 4879SOL    HW115536   5.275   0.705   3.220
 4879SOL    HW215537   5.362   0.573   3.177
 4880SOL     OW15538   6.990   2.828   6.399
 4880SOL    HW115539   0.002   2.908   6.350
 4880SOL    HW215540   0.008   2.745   6.360
 4881SOL     OW15541   0.982   3.513   1.733
 4881SOL    HW115542   1.019   3.511   1.826
 4881SOL    HW215543   0.883   3.496   1.736
 4882SOL     OW15544   5.260   1.911   4.512
 4882SOL    HW115545   5.286   1.971   4.437
 4882SOL    HW215546   5.337   1.901   4.574
 4883SOL     OW15547   5.703   4.472   0.321
 4883SOL    HW115548   5.693   4.375   0.343
 4883SOL    HW215549   5.788   4.487   0.270
 4884SOL     OW15550   2.050   1.064   1.863
 4884SOL    HW115551   2.046   1.151   1.913
 4884SOL    HW215552   2.100   1.078   1.777
 4885SOL     OW15553   1.240   5.073   0.292
 4885SOL    HW115554   1.238   5.039   0.198
 4885SOL    HW215555   1.252   4.996   0.355
 4886SOL     OW15556   3.212   0.615   2.354
 4886SOL    HW115557   3.235   0.539   2.292
 4886SOL    HW215558   3.248   0.700   2.316
 4887SOL     OW15559   4.409   5.529   0.458
 4887SOL    HW115560   4.381   5.433   0.447
 4887SOL    HW215561   4.484   5.549   0.396
 4888SOL     OW15562   4.615   0.042   3.100
 4888SOL    HW115563   4.539   0.077   3.156
 4888SOL    HW215564   4.693   0.103   3.108
 4889SOL     OW15565   6.105   3.003   4.017
 4889SOL    HW115566   6.094   3.102   4.008
 4889SOL    HW215567   6.050   2.957   3.947
 4890SOL     OW15568   6.580   1.791   4.889
 4890SOL    HW115569   6.568   1.887   4.864
 4890SOL    HW215570   6.492   1.744   4.883
 4891SOL     OW15571   2.660   6.168   0.169
 4891SOL    HW115572   2.643   6.170   0.267
 4891SOL    HW215573   2.579   6.200   0.120
 4892SOL     OW15574   5.364   5.226   2.819
 4892SOL    HW115575   5.313   5.146   2.849
 4892SOL    HW215576   5.403   5.207   2.729
 4893SOL     OW15577   1.438   3.206   1.296
 4893SOL    HW115578   1.413   3.246   1.385
 4893SOL    HW215579   1.368   3.229   1.229
 4894SOL     OW15580   4.596   5.820   0.874
 4894SOL    HW115581   4.568   5.741   0.819
 4894SOL    HW215582   4.670   5.869   0.827
 4895SOL     OW15583   6.926   3.681   5.247
 4895SOL    HW115584   6.998   3.726   5.193
 4895SOL    HW215585   6.931   3.711   5.342
 4896SOL     OW15586   2.728   5.166   5.044
 4896SOL    HW115587   2.706   5.233   5.115
 4896SOL    HW215588   2.742   5.076   5.085
 4897SOL     OW15589   2.281   1.027   4.971
 4897SOL    HW115590   2.290   1.101   4.904
 4897SOL    HW215591   2.249   1.065   5.058
 4898SOL     OW15592   4.844   1.991   4.464
 4898SOL    HW115593   4.851   2.084   4.498
 4898SOL    HW215594   4.819   1.930   4.539
 4899SOL     OW15595   6.301   6.062   1.933
 4899SOL    HW115596   6.266   6.002   1.860
 4899SOL    HW215597   6.277   6.157   1.912
 4900SOL     OW15598   3.793   5.866   6.081
 4900SOL    HW115599   3.807   5.805   6.159
 4900SOL    HW215600   3.882   5.899   6.049
 4901SOL     OW15601   1.754   0.670   6.787
 4901SOL    HW115602   1.754   0.709   6.878
 4901SOL    HW215603   1.666   0.688   6.743
 4902SOL     OW15604   3.205   0.141   5.404
 4902SOL    HW115605   3.271   0.129   5.479
 4902SOL    HW215606   3.155   0.226   5.418
 4903SOL     OW15607   5.179   3.653   2.784
 4903SOL    HW115608   5.210   3.644   2.689
 4903SOL    HW215609   5.079   3.652   2.787
 4904SOL     OW15610   1.678   0.462   1.720
 4904SOL    HW115611   1.760   0.511   1.748
 4904SOL    HW215612   1.702   0.367   1.698
 4905SOL     OW15613   2.594   0.692   2.539
 4905SOL    HW115614   2.597   0.734   2.630
 4905SOL    HW215615   2.548   0.754   2.475
 4906SOL     OW15616   5.414   3.743   4.704
 4906SOL    HW115617   5.445   3.708   4.615
 4906SOL    HW215618   5.369   3.670   4.755
 4907SOL     OW15619   3.458   2.184   6.948
 4907SOL    HW115620   3.443   2.256   6.881
 4907SOL    HW215621   3.371   2.160   6.991
 4908SOL     OW15622   3.441   6.905   6.387
 4908SOL    HW115623   3.367   6.952   6.339
 4908SOL    HW215624   3.477   6.964   6.459
 4909SOL     OW15625   4.807   5.505   4.464
 4909SOL    HW115626   4.729   5.547   4.417
 4909SOL    HW215627   4.892   5.537   4.422
 4910SOL     OW15628   3.935   1.935   6.853
 4910SOL    HW115629   3.894   1.954   6.942
 4910SOL    HW215630   3.874   1.969   6.781
 4911SOL     OW15631   6.598   4.625   3.107
 4911SOL    HW115632   6.599   4.584   3.198
 4911SOL    HW215633   6.542   4.568   3.046
 4912SOL     OW15634   5.771   2.571   4.341
 4912SOL    HW115635   5.827   2.597   4.420
 4912SOL    HW215636   5.831   2.547   4.265
 4913SOL     OW15637   0.713   4.271   5.291
 4913SOL    HW115638   0.650   4.346   5.269
 4913SOL    HW215639   0.800   4.309   5.321
 4914SOL     OW15640   3.962   6.798   3.934
 4914SOL    HW115641   3.930   6.703   3.933
 4914SOL    HW215642   4.056   6.801   3.967
 4915SOL     OW15643   3.925   6.001   5.544
 4915SOL    HW115644   3.887   5.947   5.619
 4915SOL    HW215645   3.937   6.096   5.573
 4916SOL     OW15646   5.348   2.199   4.039
 4916SOL    HW115647   5.259   2.156   4.023
 4916SOL    HW215648   5.350   2.289   3.996
 4917SOL     OW15649   4.364   6.325   6.242
 4917SOL    HW115650   4.309   6.312   6.324
 4917SOL    HW215651   4.460   6.335   6.268
 4918SOL     OW15652   5.577   5.532   3.668
 4918SOL    HW115653   5.547   5.444   3.705
 4918SOL    HW215654   5.585   5.526   3.569
 4919SOL     OW15655   3.761   3.771   2.125
 4919SOL    HW115656   3.820   3.850   2.140
 4919SOL    HW215657   3.816   3.687   2.128
 4920SOL     OW15658   6.009   0.940   6.031
 4920SOL    HW115659   6.103   0.970   6.013
 4920SOL    HW215660   5.951   0.961   5.953
 4921SOL     OW15661   6.944   6.689   1.581
 4921SOL    HW115662   6.970   6.702   1.677
 4921SOL    HW215663   6.964   6.772   1.530
 4922SOL     OW15664   4.390   1.719   5.760
 4922SOL    HW115665   4.326   1.737   5.835
 4922SOL    HW215666   4.380   1.790   5.690
 4923SOL     OW15667   4.113   1.498   1.701
 4923SOL    HW115668   4.034   1.438   1.716
 4923SOL    HW215669   4.153   1.480   1.612
 4924SOL     OW15670   2.511   1.333   4.850
 4924SOL    HW115671   2.411   1.322   4.842
 4924SOL    HW215672   2.533   1.430   4.851
 4925SOL     OW15673   4.858   5.670   3.655
 4925SOL    HW115674   4.881   5.609   3.579
 4925SOL    HW215675   4.911   5.755   3.646
 4926SOL     OW15676   5.909   3.081   1.749
 4926SOL    HW115677   5.848   3.056   1.674
 4926SOL    HW215678   5.899   3.015   1.824
 4927SOL     OW15679   2.650   1.515   0.200
 4927SOL    HW115680   2.727   1.468   0.242
 4927SOL    HW215681   2.646   1.610   0.233
 4928SOL     OW15682   6.796   1.527   0.846
 4928SOL    HW115683   6.753   1.501   0.759
 4928SOL    HW215684   6.792   1.626   0.857
 4929SOL     OW15685   6.848   0.170   4.839
 4929SOL    HW115686   6.925   0.115   4.870
 4929SOL    HW215687   6.801   0.209   4.918
 4930SOL     OW15688   4.498   5.666   2.705
 4930SOL    HW115689   4.399   5.657   2.712
 4930SOL    HW215690   4.526   5.647   2.611
 4931SOL     OW15691   5.983   6.906   1.091
 4931SOL    HW115692   6.023   6.815   1.084
 4931SOL    HW215693   5.965   6.941   0.999
 4932SOL     OW15694   3.323   3.725   2.758
 4932SOL    HW115695   3.297   3.629   2.768
 4932SOL    HW215696   3.355   3.742   2.665
 4933SOL     OW15697   1.485   0.407   5.009
 4933SOL    HW115698   1.574   0.362   5.009
 4933SOL    HW215699   1.498   0.506   5.016
 4934SOL     OW15700   3.209   6.545   2.940
 4934SOL    HW115701   3.161   6.623   2.981
 4934SOL    HW215702   3.307   6.552   2.960
 4935SOL     OW15703   6.818   0.510   4.960
 4935SOL    HW115704   6.746   0.564   5.004
 4935SOL    HW215705   6.802   0.413   4.978
 4936SOL     OW15706   4.683   2.461   0.841
 4936SOL    HW115707   4.609   2.487   0.903
 4936SOL    HW215708   4.711   2.367   0.860
 4937SOL     OW15709   4.326   2.568   5.466
 4937SOL    HW115710   4.275   2.645   5.428
 4937SOL    HW215711   4.424   2.585   5.454
 4938SOL     OW15712   3.842   4.168   6.885
 4938SOL    HW115713   3.773   4.195   6.818
 4938SOL    HW215714   3.908   4.106   6.842
 4939SOL     OW15715   4.371   3.917   6.435
 4939SOL    HW115716   4.451   3.859   6.420
 4939SOL    HW215717   4.322   3.929   6.349
 4940SOL     OW15718   2.347   5.674   3.829
 4940SOL    HW115719   2.268   5.688   3.769
 4940SOL    HW215720   2.349   5.578   3.859
 4941SOL     OW15721   5.721   0.555   0.974
 4941SOL    HW115722   5.812   0.514   0.972
 4941SOL    HW215723   5.730   0.655   0.975
 4942SOL     OW15724   4.775   2.504   6.338
 4942SOL    HW115725   4.817   2.496   6.247
 4942SOL    HW215726   4.752   2.599   6.356
 4943SOL     OW15727   5.770   2.922   0.972
 4943SOL    HW115728   5.718   3.006   0.983
 4943SOL    HW215729   5.856   2.929   1.021
 4944SOL     OW15730   1.965   3.715   2.202
 4944SOL    HW115731   2.008   3.667   2.278
 4944SOL    HW215732   2.007   3.805   2.191
 4945SOL     OW15733   7.021   5.943   4.183
 4945SOL    HW115734   7.013   5.871   4.252
 4945SOL    HW215735   0.038   5.905   4.099
 4946SOL     OW15736   0.098   4.002   1.957
 4946SOL    HW115737   0.047   3.965   2.035
 4946SOL    HW215738   0.191   3.965   1.959
 4947SOL     OW15739   6.110   0.807   0.762
 4947SOL    HW115740   6.045   0.733   0.744
 4947SOL    HW215741   6.156   0.832   0.677
 4948SOL     OW15742   2.351   1.635   2.778
 4948SOL    HW115743   2.334   1.676   2.868
 4948SOL    HW215744   2.382   1.706   2.715
 4949SOL     OW15745   5.448   2.275   4.777
 4949SOL    HW115746   5.479   2.330   4.855
 4949SOL    HW215747   5.368   2.318   4.736
 4950SOL     OW15748   3.280   5.333   4.685
 4950SOL    HW115749   3.180   5.329   4.673
 4950SOL    HW215750   3.300   5.385   4.768
 4951SOL     OW15751   4.367   1.740   4.356
 4951SOL    HW115752   4.269   1.759   4.352
 4951SOL    HW215753   4.391   1.713   4.449
 4952SOL     OW15754   6.833   4.526   4.240
 4952SOL    HW115755   6.756   4.554   4.298
 4952SOL    HW215756   6.906   4.490   4.298
 4953SOL     OW15757   1.169   4.797   1.765
 4953SOL    HW115758   1.242   4.729   1.769
 4953SOL    HW215759   1.088   4.763   1.812
 4954SOL     OW15760   6.472   6.130   6.730
 4954SOL    HW115761   6.426   6.156   6.645
 4954SOL    HW215762   6.547   6.194   6.748
 4955SOL     OW15763   1.971   0.499   1.485
 4955SOL    HW115764   1.992   0.590   1.521
 4955SOL    HW215765   1.933   0.508   1.393
 4956SOL     OW15766   6.217   6.407   3.462
 4956SOL    HW115767   6.215   6.324   3.517
 4956SOL    HW215768   6.124   6.433   3.438
 4957SOL     OW15769   1.742   5.862   3.795
 4957SOL    HW115770   1.704   5.934   3.736
 4957SOL    HW215771   1.707   5.773   3.766
 4958SOL     OW15772   6.727   6.923   0.031
 4958SOL    HW115773   6.750   6.878   6.967
 4958SOL    HW215774   6.779   7.007   0.041
 4959SOL     OW15775   0.422   2.104   0.069
 4959SOL    HW115776   0.415   2.172   0.142
 4959SOL    HW215777   0.382   2.018   0.100
 4960SOL     OW15778   3.881   6.833   5.818
 4960SOL    HW115779   3.920   6.856   5.729
 4960SOL    HW215780   3.948   6.780   5.871
 4961SOL     OW15781   5.381   0.413   5.384
 4961SOL    HW115782   5.359   0.479   5.455
 4961SOL    HW215783   5.420   0.331   5.426
 4962SOL     OW15784   6.821   2.579   2.653
 4962SOL    HW115785   6.890   2.520   2.612
 4962SOL    HW215786   6.856   2.617   2.739
 4963SOL     OW15787   6.778   4.619   1.223
 4963SOL    HW115788   6.740   4.532   1.253
 4963SOL    HW215789   6.852   4.602   1.157
 4964SOL     OW15790   3.289   6.306   3.134
 4964SOL    HW115791   3.381   6.313   3.171
 4964SOL    HW215792   3.223   6.323   3.207
 4965SOL     OW15793   0.105   6.211   4.477
 4965SOL    HW115794   0.118   6.310   4.474
 4965SOL    HW215795   0.181   6.165   4.432
 4966SOL     OW15796   4.539   5.323   4.971
 4966SOL    HW115797   4.584   5.399   5.019
 4966SOL    HW215798   4.571   5.320   4.876
 4967SOL     OW15799   5.533   1.670   6.688
 4967SOL    HW115800   5.601   1.604   6.657
 4967SOL    HW215801   5.559   1.705   6.778
 4968SOL     OW15802   4.938   3.952   6.986
 4968SOL    HW115803   4.950   3.987   6.893
 4968SOL    HW215804   4.969   4.021   0.030
 4969SOL     OW15805   1.836   1.808   1.371
 4969SOL    HW115806   1.935   1.809   1.357
 4969SOL    HW215807   1.816   1.762   1.458
 4970SOL     OW15808   1.823   2.484   5.946
 4970SOL    HW115809   1.898   2.487   5.880
 4970SOL    HW215810   1.781   2.393   5.945
 4971SOL     OW15811   6.694   5.544   3.784
 4971SOL    HW115812   6.613   5.583   3.741
 4971SOL    HW215813   6.692   5.444   3.776
 4972SOL     OW15814   1.685   2.245   5.175
 4972SOL    HW115815   1.773   2.206   5.151
 4972SOL    HW215816   1.647   2.293   5.096
 4973SOL     OW15817   5.155   5.750   2.960
 4973SOL    HW115818   5.187   5.685   2.891
 4973SOL    HW215819   5.229   5.812   2.985
 4974SOL     OW15820   4.046   6.683   6.697
 4974SOL    HW115821   4.142   6.692   6.668
 4974SOL    HW215822   4.017   6.768   6.741
 4975SOL     OW15823   3.726   6.629   0.475
 4975SOL    HW115824   3.734   6.727   0.457
 4975SOL    HW215825   3.814   6.594   0.506
 4976SOL     OW15826   2.725   0.751   4.442
 4976SOL    HW115827   2.760   0.777   4.352
 4976SOL    HW215828   2.721   0.832   4.501
 4977SOL     OW15829   3.360   2.996   0.662
 4977SOL    HW115830   3.345   3.060   0.586
 4977SOL    HW215831   3.432   2.931   0.637
 4978SOL     OW15832   6.167   4.373   6.283
 4978SOL    HW115833   6.167   4.402   6.379
 4978SOL    HW215834   6.247   4.413   6.237
 4979SOL     OW15835   2.084   2.306   3.921
 4979SOL    HW115836   2.086   2.225   3.979
 4979SOL    HW215837   2.133   2.380   3.965
 4980SOL     OW15838   1.905   4.637   3.233
 4980SOL    HW115839   1.823   4.649   3.177
 4980SOL    HW215840   1.956   4.557   3.201
 4981SOL     OW15841   5.398   6.074   5.293
 4981SOL    HW115842   5.357   6.035   5.211
 4981SOL    HW215843   5.446   6.002   5.343
 4982SOL     OW15844   2.637   1.994   6.946
 4982SOL    HW115845   2.626   2.061   6.873
 4982SOL    HW215846   2.547   1.956   6.968
 4983SOL     OW15847   6.606   2.725   4.810
 4983SOL    HW115848   6.506   2.715   4.808
 4983SOL    HW215849   6.644   2.692   4.723
 4984SOL     OW15850   5.073   4.294   3.282
 4984SOL    HW115851   5.067   4.221   3.214
 4984SOL    HW215852   4.984   4.339   3.289
 4985SOL     OW15853   5.912   4.023   2.173
 4985SOL    HW115854   5.820   3.994   2.145
 4985SOL    HW215855   5.974   3.945   2.170
 4986SOL     OW15856   4.317   4.621   3.121
 4986SOL    HW115857   4.286   4.659   3.208
 4986SOL    HW215858   4.261   4.658   3.046
 4987SOL     OW15859   0.621   3.303   0.550
 4987SOL    HW115860   0.633   3.229   0.484
 4987SOL    HW215861   0.657   3.274   0.639
 4988SOL     OW15862   1.932   2.149   5.370
 4988SOL    HW115863   1.846   2.115   5.408
 4988SOL    HW215864   1.964   2.227   5.423
 4989SOL     OW15865   0.077   1.276   1.194
 4989SOL    HW115866   0.041   1.361   1.233
 4989SOL    HW215867   0.174   1.287   1.174
 4990SOL     OW15868   1.530   2.150   6.528
 4990SOL    HW115869   1.517   2.184   6.435
 4990SOL    HW215870   1.442   2.131   6.570
 4991SOL     OW15871   2.582   1.985   5.657
 4991SOL    HW115872   2.621   1.898   5.628
 4991SOL    HW215873   2.644   2.060   5.631
 4992SOL     OW15874   4.281   6.403   4.761
 4992SOL    HW115875   4.220   6.349   4.820
 4992SOL    HW215876   4.370   6.358   4.755
 4993SOL     OW15877   1.504   6.408   4.376
 4993SOL    HW115878   1.512   6.327   4.435
 4993SOL    HW215879   1.409   6.441   4.378
 4994SOL     OW15880   0.314   6.712   3.110
 4994SOL    HW115881   0.405   6.753   3.109
 4994SOL    HW215882   0.316   6.625   3.060
 4995SOL     OW15883   5.850   2.929   5.658
 4995SOL    HW115884   5.821   3.024   5.646
 4995SOL    HW215885   5.773   2.868   5.643
 4996SOL     OW15886   0.697   1.427   3.280
 4996SOL    HW115887   0.748   1.347   3.250
 4996SOL    HW215888   0.701   1.498   3.209
 4997SOL     OW15889   0.028   2.568   3.768
 4997SOL    HW115890   0.116   2.519   3.771
 4997SOL    HW215891   6.986   2.527   3.833
 4998SOL     OW15892   0.850   5.814   5.534
 4998SOL    HW115893   0.755   5.785   5.522
 4998SOL    HW215894   0.892   5.762   5.609
 4999SOL     OW15895   6.190   4.324   0.965
 4999SOL    HW115896   6.149   4.414   0.975
 4999SOL    HW215897   6.132   4.255   1.008
 5000SOL     OW15898   6.359   5.041   4.143
 5000SOL    HW115899   6.328   5.021   4.050
 5000SOL    HW215900   6.454   5.009   4.153
 5001SOL     OW15901   5.030   3.861   5.300
 5001SOL    HW115902   5.091   3.935   5.272
 5001SOL    HW215903   5.040   3.844   5.398
 5002SOL     OW15904   1.710   2.444   1.602
 5002SOL    HW115905   1.793   2.388   1.596
 5002SOL    HW215906   1.699   2.477   1.696
 5003SOL     OW15907   6.535   5.079   3.879
 5003SOL    HW115908   6.514   5.139   3.955
 5003SOL    HW215909   6.590   5.129   3.811
 5004SOL     OW15910   2.226   4.537   5.814
 5004SOL    HW115911   2.306   4.593   5.836
 5004SOL    HW215912   2.219   4.525   5.715
 5005SOL     OW15913   4.858   1.865   0.350
 5005SOL    HW115914   4.927   1.869   0.278
 5005SOL    HW215915   4.862   1.949   0.404
 5006SOL     OW15916   5.287   4.585   2.549
 5006SOL    HW115917   5.299   4.592   2.450
 5006SOL    HW215918   5.317   4.495   2.580
 5007SOL     OW15919   4.408   0.707   5.016
 5007SOL    HW115920   4.459   0.642   5.071
 5007SOL    HW215921   4.350   0.763   5.076
 5008SOL     OW15922   6.376   1.135   3.659
 5008SOL    HW115923   6.302   1.197   3.633
 5008SOL    HW215924   6.366   1.048   3.611
 5009SOL     OW15925   2.470   6.234   2.078
 5009SOL    HW115926   2.443   6.237   1.982
 5009SOL    HW215927   2.448   6.321   2.122
 5010SOL     OW15928   3.458   3.488   5.943
 5010SOL    HW115929   3.460   3.403   5.996
 5010SOL    HW215930   3.422   3.562   5.999
 5011SOL     OW15931   1.580   2.119   3.611
 5011SOL    HW115932   1.498   2.133   3.555
 5011SOL    HW215933   1.651   2.074   3.557
 5012SOL     OW15934   5.797   3.327   6.949
 5012SOL    HW115935   5.751   3.413   6.970
 5012SOL    HW215936   5.809   3.274   0.011
 5013SOL     OW15937   4.763   2.006   5.370
 5013SOL    HW115938   4.831   2.078   5.382
 5013SOL    HW215939   4.729   2.007   5.276
 5014SOL     OW15940   0.331   5.530   6.710
 5014SOL    HW115941   0.356   5.533   6.613
 5014SOL    HW215942   0.250   5.471   6.722
 5015SOL     OW15943   5.066   1.782   3.925
 5015SOL    HW115944   4.969   1.763   3.916
 5015SOL    HW215945   5.099   1.828   3.843
 5016SOL     OW15946   2.907   6.052   2.179
 5016SOL    HW115947   2.907   5.973   2.117
 5016SOL    HW215948   2.813   6.072   2.208
 5017SOL     OW15949   0.897   2.173   1.608
 5017SOL    HW115950   0.905   2.094   1.669
 5017SOL    HW215951   0.974   2.173   1.544
 5018SOL     OW15952   6.971   4.605   3.362
 5018SOL    HW115953   6.932   4.683   3.411
 5018SOL    HW215954   6.942   4.520   3.406
 5019SOL     OW15955   2.189   5.449   5.312
 5019SOL    HW115956   2.137   5.516   5.365
 5019SOL    HW215957   2.150   5.443   5.220
 5020SOL     OW15958   4.192   5.000   6.661
 5020SOL    HW115959   4.209   5.070   6.592
 5020SOL    HW215960   4.098   4.965   6.650
 5021SOL     OW15961   1.968   4.432   5.670
 5021SOL    HW115962   2.045   4.369   5.683
 5021SOL    HW215963   1.988   4.519   5.715
 5022SOL     OW15964   2.067   3.878   0.425
 5022SOL    HW115965   2.031   3.878   0.332
 5022SOL    HW215966   2.163   3.851   0.424
 5023SOL     OW15967   0.487   3.251   4.780
 5023SOL    HW115968   0.391   3.243   4.754
 5023SOL    HW215969   0.531   3.162   4.776
 5024SOL     OW15970   4.738   3.833   5.388
 5024SOL    HW115971   4.643   3.812   5.364
 5024SOL    HW215972   4.760   3.793   5.477
 5025SOL     OW15973   6.113   0.611   4.265
 5025SOL    HW115974   6.123   0.711   4.270
 5025SOL    HW215975   6.018   0.587   4.285
 5026SOL     OW15976   0.984   5.466   2.547
 5026SOL    HW115977   1.021   5.559   2.554
 5026SOL    HW215978   1.037   5.405   2.606
 5027SOL     OW15979   1.282   5.934   3.486
 5027SOL    HW115980   1.281   5.892   3.576
 5027SOL    HW215981   1.219   6.012   3.484
 5028SOL     OW15982   0.829   6.887   2.970
 5028SOL    HW115983   0.866   6.871   2.878
 5028SOL    HW215984   0.824   6.985   2.987
 5029SOL     OW15985   6.812   0.746   3.836
 5029SOL    HW115986   6.852   0.669   3.787
 5029SOL    HW215987   6.878   0.781   3.903
 5030SOL     OW15988   1.131   6.263   7.002
 5030SOL    HW115989   1.095   6.239   0.070
 5030SOL    HW215990   1.228   6.286   7.010
 5031SOL     OW15991   5.781   0.633   6.845
 5031SOL    HW115992   5.740   0.552   6.803
 5031SOL    HW215993   5.713   0.678   6.903
 5032SOL     OW15994   1.315   5.158   2.223
 5032SOL    HW115995   1.297   5.150   2.321
 5032SOL    HW215996   1.295   5.251   2.194
 5033SOL     OW15997   0.534   4.490   4.528
 5033SOL    HW115998   0.585   4.413   4.567
 5033SOL    HW215999   0.450   4.504   4.581
 5034SOL     OW16000   6.870   3.441   6.334
 5034SOL    HW116001   6.922   3.520   6.364
 5034SOL    HW216002   6.852   3.381   6.412
 5035SOL     OW16003   6.782   3.994   1.309
 5035SOL    HW116004   6.698   3.983   1.362
 5035SOL    HW216005   6.784   3.926   1.236
 5036SOL     OW16006   1.620   1.138   2.116
 5036SOL    HW116007   1.548   1.207   2.108
 5036SOL    HW216008   1.703   1.182   2.151
 5037SOL     OW16009   4.936   3.499   2.605
 5037SOL    HW116010   4.892   3.498   2.694
 5037SOL    HW216011   4.974   3.409   2.585
 5038SOL     OW16012   3.243   5.938   5.360
 5038SOL    HW116013   3.276   5.852   5.399
 5038SOL    HW216014   3.296   6.014   5.399
 5039SOL     OW16015   1.900   2.371   3.058
 5039SOL    HW116016   1.874   2.415   3.144
 5039SOL    HW216017   1.988   2.407   3.026
 5040SOL     OW16018   3.141   3.220   5.856
 5040SOL    HW116019   3.097   3.310   5.846
 5040SOL    HW216020   3.070   3.149   5.858
 5041SOL     OW16021   6.934   5.422   0.747
 5041SOL    HW116022   6.842   5.440   0.711
 5041SOL    HW216023   7.000   5.422   0.672
 5042SOL     OW16024   5.911   1.365   5.708
 5042SOL    HW116025   5.888   1.425   5.786
 5042SOL    HW216026   5.871   1.404   5.625
 5043SOL     OW16027   5.136   6.157   4.277
 5043SOL    HW116028   5.058   6.109   4.318
 5043SOL    HW216029   5.179   6.215   4.346
 5044SOL     OW16030   6.067   4.403   2.037
 5044SOL    HW116031   6.017   4.317   2.033
 5044SOL    HW216032   6.004   4.479   2.018
 5045SOL     OW16033   6.092   2.975   5.567
 5045SOL    HW116034   6.105   3.063   5.612
 5045SOL    HW216035   6.005   2.935   5.597
 5046SOL     OW16036   3.984   3.411   5.986
 5046SOL    HW116037   4.002   3.360   6.070
 5046SOL    HW216038   3.892   3.391   5.953
 5047SOL     OW16039   0.504   1.466   2.146
 5047SOL    HW116040   0.529   1.371   2.164
 5047SOL    HW216041   0.421   1.489   2.197
 5048SOL     OW16042   5.869   3.352   1.154
 5048SOL    HW116043   5.864   3.375   1.251
 5048SOL    HW216044   5.829   3.426   1.100
 5049SOL     OW16045   1.483   1.765   1.673
 5049SOL    HW116046   1.449   1.750   1.580
 5049SOL    HW216047   1.448   1.852   1.708
 5050SOL     OW16048   1.913   4.533   0.134
 5050SOL    HW116049   1.989   4.596   0.151
 5050SOL    HW216050   1.902   4.472   0.213
 5051SOL     OW16051   2.703   3.983   6.397
 5051SOL    HW116052   2.688   3.990   6.298
 5051SOL    HW216053   2.620   3.952   6.442
 5052SOL     OW16054   5.769   2.969   0.533
 5052SOL    HW116055   5.762   2.899   0.604
 5052SOL    HW216056   5.829   2.937   0.460
 5053SOL     OW16057   1.426   4.117   1.338
 5053SOL    HW116058   1.342   4.160   1.370
 5053SOL    HW216059   1.435   4.026   1.379
 5054SOL     OW16060   3.824   6.275   5.643
 5054SOL    HW116061   3.777   6.209   5.703
 5054SOL    HW216062   3.767   6.291   5.562
 5055SOL     OW16063   1.295   0.916   4.319
 5055SOL    HW116064   1.261   0.856   4.246
 5055SOL    HW216065   1.348   0.990   4.278
 5056SOL     OW16066   3.270   2.476   6.045
 5056SOL    HW116067   3.363   2.499   6.017
 5056SOL    HW216068   3.214   2.458   5.964
 5057SOL     OW16069   0.233   4.193   3.145
 5057SOL    HW116070   0.237   4.278   3.093
 5057SOL    HW216071   0.294   4.126   3.103
 5058SOL     OW16072   3.463   1.717   0.820
 5058SOL    HW116073   3.372   1.742   0.853
 5058SOL    HW216074   3.458   1.692   0.724
 5059SOL     OW16075   5.317   1.892   2.396
 5059SOL    HW116076   5.232   1.854   2.361
 5059SOL    HW216077   5.387   1.888   2.325
 5060SOL     OW16078   6.845   3.149   5.552
 5060SOL    HW116079   6.763   3.093   5.553
 5060SOL    HW216080   6.826   3.236   5.506
 5061SOL     OW16081   3.956   3.007   5.774
 5061SOL    HW116082   3.957   2.941   5.849
 5061SOL    HW216083   4.048   3.014   5.735
 5062SOL     OW16084   5.495   1.258   3.300
 5062SOL    HW116085   5.423   1.190   3.285
 5062SOL    HW216086   5.474   1.341   3.249
 5063SOL     OW16087   0.395   2.041   1.387
 5063SOL    HW116088   0.304   2.028   1.425
 5063SOL    HW216089   0.457   2.074   1.458
 5064SOL     OW16090   5.772   4.923   1.739
 5064SOL    HW116091   5.823   4.900   1.656
 5064SOL    HW216092   5.682   4.957   1.714
 5065SOL     OW16093   2.565   1.838   2.388
 5065SOL    HW116094   2.521   1.858   2.475
 5065SOL    HW216095   2.627   1.912   2.364
 5066SOL     OW16096   1.689   5.396   2.848
 5066SOL    HW116097   1.656   5.460   2.917
 5066SOL    HW216098   1.777   5.428   2.812
 5067SOL     OW16099   5.562   2.544   1.284
 5067SOL    HW116100   5.500   2.623   1.285
 5067SOL    HW216101   5.542   2.485   1.362
 5068SOL     OW16102   1.039   6.118   1.089
 5068SOL    HW116103   1.050   6.026   1.125
 5068SOL    HW216104   1.016   6.181   1.163
 5069SOL     OW16105   4.506   5.027   5.753
 5069SOL    HW116106   4.569   5.030   5.831
 5069SOL    HW216107   4.412   5.036   5.786
 5070SOL     OW16108   6.547   3.471   6.443
 5070SOL    HW116109   6.624   3.459   6.506
 5070SOL    HW216110   6.580   3.473   6.349
 5071SOL     OW16111   2.799   5.980   3.177
 5071SOL    HW116112   2.758   6.063   3.215
 5071SOL    HW216113   2.835   5.999   3.086
 5072SOL     OW16114   1.036   1.409   2.205
 5072SOL    HW116115   1.056   1.429   2.109
 5072SOL    HW216116   0.971   1.333   2.211
 5073SOL     OW16117   1.787   1.265   3.498
 5073SOL    HW116118   1.839   1.335   3.449
 5073SOL    HW216119   1.826   1.175   3.479
 5074SOL     OW16120   3.662   2.017   1.473
 5074SOL    HW116121   3.709   1.934   1.503
 5074SOL    HW216122   3.636   2.072   1.552
 5075SOL     OW16123   6.149   2.682   0.517
 5075SOL    HW116124   6.093   2.599   0.512
 5075SOL    HW216125   6.178   2.697   0.611
 5076SOL     OW16126   0.017   0.914   5.877
 5076SOL    HW116127   0.103   0.896   5.830
 5076SOL    HW216128   0.025   0.890   5.974
 5077SOL     OW16129   0.448   4.509   3.885
 5077SOL    HW116130   0.539   4.467   3.880
 5077SOL    HW216131   0.387   4.451   3.937
 5078SOL     OW16132   6.167   2.256   3.335
 5078SOL    HW116133   6.079   2.269   3.380
 5078SOL    HW216134   6.171   2.164   3.295
 5079SOL     OW16135   1.887   4.162   4.850
 5079SOL    HW116136   1.938   4.127   4.929
 5079SOL    HW216137   1.829   4.238   4.879
 5080SOL     OW16138   6.415   5.888   0.107
 5080SOL    HW116139   6.374   5.944   0.035
 5080SOL    HW216140   6.514   5.903   0.108
 5081SOL     OW16141   2.460   4.880   5.366
 5081SOL    HW116142   2.524   4.825   5.419
 5081SOL    HW216143   2.374   4.889   5.416
 5082SOL     OW16144   5.884   6.629   2.135
 5082SOL    HW116145   5.790   6.635   2.102
 5082SOL    HW216146   5.896   6.545   2.188
 5083SOL     OW16147   0.958   7.019   3.301
 5083SOL    HW116148   0.881   6.984   3.247
 5083SOL    HW216149   0.927   0.073   3.358
 5084SOL     OW16150   3.817   5.146   5.739
 5084SOL    HW116151   3.843   5.196   5.656
 5084SOL    HW216152   3.814   5.048   5.718
 5085SOL     OW16153   0.389   4.288   5.723
 5085SOL    HW116154   0.437   4.307   5.637
 5085SOL    HW216155   0.444   4.321   5.799
 5086SOL     OW16156   0.709   4.561   2.190
 5086SOL    HW116157   0.794   4.582   2.237
 5086SOL    HW216158   0.699   4.621   2.111
 5087SOL     OW16159   0.297   5.254   1.647
 5087SOL    HW116160   0.379   5.288   1.693
 5087SOL    HW216161   0.234   5.330   1.630
 5088SOL     OW16162   4.480   4.893   2.237
 5088SOL    HW116163   4.453   4.983   2.200
 5088SOL    HW216164   4.473   4.825   2.165
 5089SOL     OW16165   5.538   6.593   5.767
 5089SOL    HW116166   5.542   6.631   5.675
 5089SOL    HW216167   5.589   6.651   5.830
 5090SOL     OW16168   2.261   6.352   4.591
 5090SOL    HW116169   2.274   6.278   4.658
 5090SOL    HW216170   2.239   6.313   4.502
 5091SOL     OW16171   6.609   5.885   6.124
 5091SOL    HW116172   6.687   5.823   6.115
 5091SOL    HW216173   6.549   5.874   6.045
 5092SOL     OW16174   4.104   3.249   4.246
 5092SOL    HW116175   4.051   3.173   4.284
 5092SOL    HW216176   4.110   3.322   4.313
 5093SOL     OW16177   3.225   2.188   3.763
 5093SOL    HW116178   3.285   2.186   3.683
 5093SOL    HW216179   3.131   2.205   3.733
 5094SOL     OW16180   2.053   6.016   5.168
 5094SOL    HW116181   2.037   5.920   5.187
 5094SOL    HW216182   2.152   6.034   5.167
 5095SOL     OW16183   0.042   1.183   3.182
 5095SOL    HW116184   6.978   1.233   3.194
 5095SOL    HW216185   0.107   1.240   3.132
 5096SOL     OW16186   6.342   3.164   6.355
 5096SOL    HW116187   6.428   3.216   6.353
 5096SOL    HW216188   6.345   3.099   6.431
 5097SOL     OW16189   1.107   1.198   5.531
 5097SOL    HW116190   1.195   1.198   5.484
 5097SOL    HW216191   1.045   1.134   5.485
 5098SOL     OW16192   2.940   2.028   0.773
 5098SOL    HW116193   2.925   1.973   0.691
 5098SOL    HW216194   3.038   2.045   0.785
 5099SOL     OW16195   2.193   5.578   2.559
 5099SOL    HW116196   2.217   5.674   2.577
 5099SOL    HW216197   2.242   5.519   2.622
 5100SOL     OW16198   5.538   3.778   1.986
 5100SOL    HW116199   5.459   3.717   1.982
 5100SOL    HW216200   5.614   3.732   2.031
 5101SOL     OW16201   3.068   1.713   5.199
 5101SOL    HW116202   2.994   1.764   5.243
 5101SOL    HW216203   3.080   1.625   5.247
 5102SOL     OW16204   5.707   4.524   4.802
 5102SOL    HW116205   5.729   4.621   4.793
 5102SOL    HW216206   5.680   4.487   4.713
 5103SOL     OW16207   0.537   0.413   5.948
 5103SOL    HW116208   0.463   0.359   5.988
 5103SOL    HW216209   0.595   0.449   6.020
 5104SOL     OW16210   4.109   3.609   3.508
 5104SOL    HW116211   4.122   3.567   3.597
 5104SOL    HW216212   4.052   3.551   3.451
 5105SOL     OW16213   4.077   3.166   6.864
 5105SOL    HW116214   4.058   3.191   6.958
 5105SOL    HW216215   3.998   3.119   6.825
 5106SOL     OW16216   3.760   1.273   1.475
 5106SOL    HW116217   3.810   1.195   1.436
 5106SOL    HW216218   3.785   1.356   1.426
 5107SOL     OW16219   6.254   5.265   0.165
 5107SOL    HW116220   6.236   5.285   0.261
 5107SOL    HW216221   6.192   5.319   0.108
 5108SOL     OW16222   4.039   4.567   1.336
 5108SOL    HW116223   4.026   4.501   1.262
 5108SOL    HW216224   4.009   4.657   1.306
 5109SOL     OW16225   1.363   2.529   2.341
 5109SOL    HW116226   1.297   2.453   2.333
 5109SOL    HW216227   1.370   2.556   2.437
 5110SOL     OW16228   3.824   6.289   4.880
 5110SOL    HW116229   3.921   6.281   4.900
 5110SOL    HW216230   3.794   6.212   4.825
 5111SOL     OW16231   1.796   5.794   5.490
 5111SOL    HW116232   1.864   5.865   5.511
 5111SOL    HW216233   1.716   5.836   5.447
 5112SOL     OW16234   1.231   4.801   2.857
 5112SOL    HW116235   1.319   4.764   2.829
 5112SOL    HW216236   1.158   4.740   2.827
 5113SOL     OW16237   1.822   4.100   0.868
 5113SOL    HW116238   1.843   4.192   0.836
 5113SOL    HW216239   1.905   4.044   0.868
 5114SOL     OW16240   4.294   4.598   1.457
 5114SOL    HW116241   4.350   4.671   1.418
 5114SOL    HW216242   4.209   4.590   1.405
 5115SOL     OW16243   1.513   4.634   0.437
 5115SOL    HW116244   1.522   4.666   0.532
 5115SOL    HW216245   1.430   4.579   0.428
 5116SOL     OW16246   0.025   6.237   4.927
 5116SOL    HW116247   0.120   6.206   4.923
 5116SOL    HW216248   0.018   6.330   4.891
 5117SOL     OW16249   0.147   3.059   3.337
 5117SOL    HW116250   0.125   3.053   3.240
 5117SOL    HW216251   0.158   3.155   3.363
 5118SOL     OW16252   4.036   5.495   6.787
 5118SOL    HW116253   3.983   5.438   6.850
 5118SOL    HW216254   4.129   5.506   6.823
 5119SOL     OW16255   5.884   1.812   0.465
 5119SOL    HW116256   5.949   1.786   0.394
 5119SOL    HW216257   5.792   1.811   0.428
 5120SOL     OW16258   5.721   6.499   5.993
 5120SOL    HW116259   5.816   6.493   5.962
 5120SOL    HW216260   5.697   6.595   6.007
 5121SOL     OW16261   1.480   3.169   7.009
 5121SOL    HW116262   1.425   3.170   0.071
 5121SOL    HW216263   1.577   3.179   0.011
 5122SOL     OW16264   4.188   4.733   3.327
 5122SOL    HW116265   4.103   4.733   3.380
 5122SOL    HW216266   4.248   4.807   3.360
 5123SOL     OW16267   4.727   2.234   1.700
 5123SOL    HW116268   4.671   2.199   1.625
 5123SOL    HW216269   4.691   2.201   1.787
 5124SOL     OW16270   0.674   6.124   4.615
 5124SOL    HW116271   0.751   6.098   4.558
 5124SOL    HW216272   0.678   6.074   4.702
 5125SOL     OW16273   6.164   2.448   3.884
 5125SOL    HW116274   6.197   2.427   3.792
 5125SOL    HW216275   6.126   2.365   3.925
 5126SOL     OW16276   2.376   0.828   1.898
 5126SOL    HW116277   2.323   0.839   1.982
 5126SOL    HW216278   2.446   0.758   1.911
 5127SOL     OW16279   2.417   6.586   6.920
 5127SOL    HW116280   2.423   6.625   7.012
 5127SOL    HW216281   2.321   6.570   6.897
 5128SOL     OW16282   4.669   6.643   1.264
 5128SOL    HW116283   4.730   6.573   1.226
 5128SOL    HW216284   4.690   6.731   1.223
 5129SOL     OW16285   6.173   5.994   0.446
 5129SOL    HW116286   6.270   6.014   0.432
 5129SOL    HW216287   6.118   6.068   0.407
 5130SOL     OW16288   5.954   4.724   2.850
 5130SOL    HW116289   5.915   4.728   2.943
 5130SOL    HW216290   5.948   4.631   2.815
 5131SOL     OW16291   2.325   2.774   2.623
 5131SOL    HW116292   2.335   2.709   2.698
 5131SOL    HW216293   2.342   2.867   2.656
 5132SOL     OW16294   2.589   5.898   5.394
 5132SOL    HW116295   2.596   5.873   5.298
 5132SOL    HW216296   2.571   5.996   5.403
 5133SOL     OW16297   3.635   6.305   5.445
 5133SOL    HW116298   3.664   6.263   5.360
 5133SOL    HW216299   3.550   6.356   5.430
 5134SOL     OW16300   6.353   3.976   6.599
 5134SOL    HW116301   6.312   3.885   6.600
 5134SOL    HW216302   6.285   4.044   6.625
 5135SOL     OW16303   6.636   1.947   4.168
 5135SOL    HW116304   6.725   1.989   4.152
 5135SOL    HW216305   6.639   1.893   4.253
 5136SOL     OW16306   3.525   2.157   6.294
 5136SOL    HW116307   3.523   2.257   6.286
 5136SOL    HW216308   3.472   2.116   6.220
 5137SOL     OW16309   3.595   3.332   0.254
 5137SOL    HW116310   3.518   3.282   0.295
 5137SOL    HW216311   3.665   3.267   0.225
 5138SOL     OW16312   2.303   3.852   5.630
 5138SOL    HW116313   2.207   3.873   5.648
 5138SOL    HW216314   2.330   3.892   5.542
 5139SOL     OW16315   0.705   7.009   3.611
 5139SOL    HW116316   0.708   0.084   3.587
 5139SOL    HW216317   0.637   6.962   3.555
 5140SOL     OW16318   2.909   2.963   1.553
 5140SOL    HW116319   2.892   2.870   1.584
 5140SOL    HW216320   2.823   3.014   1.553
 5141SOL     OW16321   1.133   4.263   6.019
 5141SOL    HW116322   1.172   4.189   6.073
 5141SOL    HW216323   1.058   4.305   6.070
 5142SOL     OW16324   5.855   3.393   2.251
 5142SOL    HW116325   5.943   3.440   2.242
 5142SOL    HW216326   5.827   3.356   2.162
 5143SOL     OW16327   6.882   5.284   5.226
 5143SOL    HW116328   6.802   5.224   5.219
 5143SOL    HW216329   6.934   5.279   5.140
 5144SOL     OW16330   1.879   1.920   4.917
 5144SOL    HW116331   1.898   2.005   4.966
 5144SOL    HW216332   1.831   1.856   4.978
 5145SOL     OW16333   3.113   5.607   5.838
 5145SOL    HW116334   3.210   5.629   5.838
 5145SOL    HW216335   3.062   5.679   5.883
 5146SOL     OW16336   2.420   5.051   0.523
 5146SOL    HW116337   2.401   4.953   0.513
 5146SOL    HW216338   2.518   5.066   0.530
 5147SOL     OW16339   0.077   5.204   6.497
 5147SOL    HW116340   7.000   5.205   6.506
 5147SOL    HW216341   0.102   5.202   6.400
 5148SOL     OW16342   0.277   0.782   0.583
 5148SOL    HW116343   0.296   0.719   0.508
 5148SOL    HW216344   0.342   0.765   0.658
 5149SOL     OW16345   6.937   0.328   5.703
 5149SOL    HW116346   7.012   0.393   5.699
 5149SOL    HW216347   6.929   0.290   5.795
 5150SOL     OW16348   1.772   5.316   5.165
 5150SOL    HW116349   1.708   5.374   5.216
 5150SOL    HW216350   1.841   5.373   5.122
 5151SOL     OW16351   4.093   1.045   5.712
 5151SOL    HW116352   4.062   1.093   5.794
 5151SOL    HW216353   4.020   0.987   5.677
 5152SOL     OW16354   0.352   4.720   0.264
 5152SOL    HW116355   0.440   4.718   0.217
 5152SOL    HW216356   0.359   4.773   0.348
 5153SOL     OW16357   1.996   2.489   1.199
 5153SOL    HW116358   1.995   2.511   1.102
 5153SOL    HW216359   1.908   2.452   1.226
 5154SOL     OW16360   1.530   4.766   4.940
 5154SOL    HW116361   1.478   4.697   4.990
 5154SOL    HW216362   1.593   4.720   4.877
 5155SOL     OW16363   3.792   0.608   2.850
 5155SOL    HW116364   3.744   0.521   2.856
 5155SOL    HW216365   3.889   0.594   2.869
 5156SOL     OW16366   5.350   3.186   5.842
 5156SOL    HW116367   5.417   3.116   5.820
 5156SOL    HW216368   5.285   3.151   5.910
 5157SOL     OW16369   5.972   2.183   4.261
 5157SOL    HW116370   5.998   2.174   4.358
 5157SOL    HW216371   5.882   2.141   4.247
 5158SOL     OW16372   3.602   0.719   0.744
 5158SOL    HW116373   3.592   0.686   0.838
 5158SOL    HW216374   3.528   0.682   0.688
 5159SOL     OW16375   2.087   3.349   4.864
 5159SOL    HW116376   2.070   3.388   4.954
 5159SOL    HW216377   2.127   3.258   4.874
 5160SOL     OW16378   2.765   2.305   3.848
 5160SOL    HW116379   2.845   2.300   3.908
 5160SOL    HW216380   2.689   2.254   3.889
 5161SOL     OW16381   1.955   3.366   6.213
 5161SOL    HW116382   2.051   3.365   6.184
 5161SOL    HW216383   1.900   3.317   6.146
 5162SOL     OW16384   6.444   5.161   4.455
 5162SOL    HW116385   6.533   5.136   4.417
 5162SOL    HW216386   6.403   5.233   4.400
 5163SOL     OW16387   5.273   4.261   1.436
 5163SOL    HW116388   5.280   4.288   1.340
 5163SOL    HW216389   5.226   4.332   1.488
 5164SOL     OW16390   6.411   6.201   4.859
 5164SOL    HW116391   6.352   6.155   4.925
 5164SOL    HW216392   6.382   6.297   4.851
 5165SOL     OW16393   5.583   3.369   4.936
 5165SOL    HW116394   5.558   3.388   4.842
 5165SOL    HW216395   5.596   3.454   4.986
 5166SOL     OW16396   1.701   0.217   2.058
 5166SOL    HW116397   1.778   0.235   1.997
 5166SOL    HW216398   1.729   0.154   2.130
 5167SOL     OW16399   2.294   0.191   6.032
 5167SOL    HW116400   2.281   0.174   6.130
 5167SOL    HW216401   2.365   0.130   5.997
 5168SOL     OW16402   3.637   2.084   2.754
 5168SOL    HW116403   3.733   2.103   2.777
 5168SOL    HW216404   3.627   2.082   2.654
 5169SOL     OW16405   4.042   4.252   6.662
 5169SOL    HW116406   4.130   4.217   6.694
 5169SOL    HW216407   4.034   4.240   6.563
 5170SOL     OW16408   4.226   5.231   4.214
 5170SOL    HW116409   4.146   5.258   4.267
 5170SOL    HW216410   4.197   5.186   4.130
 5171SOL     OW16411   2.420   4.913   5.083
 5171SOL    HW116412   2.397   4.884   5.176
 5171SOL    HW216413   2.338   4.949   5.039
 5172SOL     OW16414   1.516   4.798   6.467
 5172SOL    HW116415   1.512   4.892   6.500
 5172SOL    HW216416   1.470   4.792   6.378
 5173SOL     OW16417   0.156   2.564   5.434
 5173SOL    HW116418   0.189   2.594   5.344
 5173SOL    HW216419   0.099   2.482   5.424
 5174SOL     OW16420   2.223   5.210   5.947
 5174SOL    HW116421   2.214   5.143   6.021
 5174SOL    HW216422   2.283   5.173   5.876
 5175SOL     OW16423   0.311   5.722   6.235
 5175SOL    HW116424   0.293   5.795   6.302
 5175SOL    HW216425   0.273   5.636   6.269
 5176SOL     OW16426   5.290   3.952   6.397
 5176SOL    HW116427   5.295   3.970   6.495
 5176SOL    HW216428   5.376   3.912   6.366
 5177SOL     OW16429   5.471   5.757   6.247
 5177SOL    HW116430   5.485   5.692   6.172
 5177SOL    HW216431   5.373   5.760   6.269
 5178SOL     OW16432   2.966   3.531   0.944
 5178SOL    HW116433   2.869   3.543   0.926
 5178SOL    HW216434   2.987   3.434   0.953
 5179SOL     OW16435   3.375   6.410   5.159
 5179SOL    HW116436   3.412   6.450   5.242
 5179SOL    HW216437   3.277   6.427   5.154
 5180SOL     OW16438   3.622   1.827   0.342
 5180SOL    HW116439   3.619   1.811   0.243
 5180SOL    HW216440   3.715   1.855   0.368
 5181SOL     OW16441   2.949   6.001   2.485
 5181SOL    HW116442   2.924   5.958   2.398
 5181SOL    HW216443   2.987   6.092   2.468
 5182SOL     OW16444   4.714   4.062   1.321
 5182SOL    HW116445   4.768   4.032   1.243
 5182SOL    HW216446   4.621   4.083   1.292
 5183SOL     OW16447   3.985   0.920   3.683
 5183SOL    HW116448   4.008   0.975   3.763
 5183SOL    HW216449   3.888   0.931   3.661
 5184SOL     OW16450   1.332   2.453   3.005
 5184SOL    HW116451   1.400   2.515   3.044
 5184SOL    HW216452   1.367   2.416   2.918
 5185SOL     OW16453   3.938   0.077   1.084
 5185SOL    HW116454   3.844   0.070   1.049
 5185SOL    HW216455   3.940   0.145   1.158
 5186SOL     OW16456   5.007   4.351   0.444
 5186SOL    HW116457   5.052   4.316   0.362
 5186SOL    HW216458   4.932   4.290   0.470
 5187SOL     OW16459   4.852   2.617   4.283
 5187SOL    HW116460   4.943   2.658   4.286
 5187SOL    HW216461   4.829   2.595   4.188
 5188SOL     OW16462   0.877   1.784   3.855
 5188SOL    HW116463   0.908   1.834   3.774
 5188SOL    HW216464   0.955   1.734   3.895
 5189SOL     OW16465   4.272   6.277   6.505
 5189SOL    HW116466   4.217   6.240   6.579
 5189SOL    HW216467   4.362   6.302   6.540
 5190SOL     OW16468   2.326   2.681   2.109
 5190SOL    HW116469   2.412   2.687   2.060
 5190SOL    HW216470   2.257   2.638   2.050
 5191SOL     OW16471   4.916   0.076   2.397
 5191SOL    HW116472   4.944   7.002   2.392
 5191SOL    HW216473   4.834   0.090   2.341
 5192SOL     OW16474   6.049   3.859   1.428
 5192SOL    HW116475   6.122   3.914   1.469
 5192SOL    HW216476   5.969   3.858   1.489
 5193SOL     OW16477   3.910   4.890   2.242
 5193SOL    HW116478   3.869   4.950   2.173
 5193SOL    HW216479   3.974   4.827   2.198
 5194SOL     OW16480   5.344   1.001   0.490
 5194SOL    HW116481   5.253   0.990   0.451
 5194SOL    HW216482   5.343   0.972   0.586
 5195SOL     OW16483   6.976   6.793   5.022
 5195SOL    HW116484   7.015   6.877   4.985
 5195SOL    HW216485   0.006   6.765   5.103
 5196SOL     OW16486   6.751   3.610   3.100
 5196SOL    HW116487   6.731   3.682   3.167
 5196SOL    HW216488   6.669   3.557   3.082
 5197SOL     OW16489   3.816   5.575   5.389
 5197SOL    HW116490   3.746   5.579   5.460
 5197SOL    HW216491   3.826   5.665   5.346
 5198SOL     OW16492   3.982   1.829   5.295
 5198SOL    HW116493   4.043   1.881   5.236
 5198SOL    HW216494   3.924   1.770   5.239
 5199SOL     OW16495   6.881   5.692   1.312
 5199SOL    HW116496   6.784   5.710   1.302
 5199SOL    HW216497   6.916   5.741   1.391
 5200SOL     OW16498   6.915   0.303   4.620
 5200SOL    HW116499   6.868   0.275   4.704
 5200SOL    HW216500   6.875   0.388   4.586
 5201SOL     OW16501   6.133   4.571   5.691
 5201SOL    HW116502   6.212   4.592   5.749
 5201SOL    HW216503   6.165   4.544   5.600
 5202SOL     OW16504   3.522   2.697   6.220
 5202SOL    HW116505   3.455   2.648   6.276
 5202SOL    HW216506   3.613   2.688   6.261
 5203SOL     OW16507   1.064   0.874   6.372
 5203SOL    HW116508   1.034   0.934   6.447
 5203SOL    HW216509   1.161   0.854   6.383
 5204SOL     OW16510   1.919   0.597   1.808
 5204SOL    HW116511   1.948   0.620   1.715
 5204SOL    HW216512   1.998   0.569   1.862
 5205SOL     OW16513   0.161   0.302   1.529
 5205SOL    HW116514   0.253   0.319   1.492
 5205SOL    HW216515   0.103   0.381   1.510
 5206SOL     OW16516   0.657   4.832   4.170
 5206SOL    HW116517   0.628   4.831   4.074
 5206SOL    HW216518   0.672   4.738   4.201
 5207SOL     OW16519   5.065   0.012   5.124
 5207SOL    HW116520   4.980   0.002   5.176
 5207SOL    HW216521   5.057   0.090   5.062
 5208SOL     OW16522   0.028   2.207   0.007
 5208SOL    HW116523   6.957   2.196   0.041
 5208SOL    HW216524   0.092   2.211   0.084
 5209SOL     OW16525   5.052   6.401   3.185
 5209SOL    HW116526   5.107   6.326   3.146
 5209SOL    HW216527   4.985   6.364   3.248
 5210SOL     OW16528   5.816   4.391   1.191
 5210SOL    HW116529   5.900   4.350   1.226
 5210SOL    HW216530   5.837   4.479   1.148
 5211SOL     OW16531   5.442   3.306   5.604
 5211SOL    HW116532   5.404   3.256   5.526
 5211SOL    HW216533   5.414   3.262   5.689
 5212SOL     OW16534   6.967   4.155   0.082
 5212SOL    HW116535   7.005   4.086   0.143
 5212SOL    HW216536   6.868   4.161   0.096
 5213SOL     OW16537   3.463   2.883   3.153
 5213SOL    HW116538   3.403   2.868   3.074
 5213SOL    HW216539   3.558   2.888   3.123
 5214SOL     OW16540   5.498   3.649   6.132
 5214SOL    HW116541   5.589   3.607   6.139
 5214SOL    HW216542   5.432   3.582   6.098
 5215SOL     OW16543   0.170   5.588   5.228
 5215SOL    HW116544   0.082   5.628   5.251
 5215SOL    HW216545   0.226   5.580   5.311
 5216SOL     OW16546   6.329   4.022   1.184
 5216SOL    HW116547   6.391   4.075   1.126
 5216SOL    HW216548   6.284   4.083   1.249
 5217SOL     OW16549   4.300   6.789   2.857
 5217SOL    HW116550   4.210   6.828   2.878
 5217SOL    HW216551   4.351   6.852   2.798
 5218SOL     OW16552   5.698   6.730   0.399
 5218SOL    HW116553   5.786   6.709   0.442
 5218SOL    HW216554   5.713   6.754   0.303
 5219SOL     OW16555   3.365   1.571   5.112
 5219SOL    HW116556   3.410   1.489   5.075
 5219SOL    HW216557   3.354   1.638   5.039
 5220SOL     OW16558   2.221   4.997   4.679
 5220SOL    HW116559   2.307   4.997   4.730
 5220SOL    HW216560   2.174   4.909   4.693
 5221SOL     OW16561   5.119   5.836   1.208
 5221SOL    HW116562   5.099   5.839   1.306
 5221SOL    HW216563   5.131   5.929   1.174
 5222SOL     OW16564   6.885   3.898   2.401
 5222SOL    HW116565   6.912   3.973   2.462
 5222SOL    HW216566   6.960   3.880   2.337
 5223SOL     OW16567   6.969   2.771   1.001
 5223SOL    HW116568   6.894   2.801   1.060
 5223SOL    HW216569   0.026   2.746   1.056
 5224SOL     OW16570   1.317   1.479   4.537
 5224SOL    HW116571   1.386   1.464   4.608
 5224SOL    HW216572   1.228   1.447   4.568
 5225SOL     OW16573   6.956   2.374   5.463
 5225SOL    HW116574   6.982   2.278   5.465
 5225SOL    HW216575   6.861   2.384   5.492
 5226SOL     OW16576   0.146   6.462   4.350
 5226SOL    HW116577   0.125   6.381   4.294
 5226SOL    HW216578   0.063   6.518   4.359
 5227SOL     OW16579   0.989   3.212   5.753
 5227SOL    HW116580   0.978   3.250   5.661
 5227SOL    HW216581   1.086   3.210   5.778
 5228SOL     OW16582   1.213   1.941   4.909
 5228SOL    HW116583   1.284   1.893   4.961
 5228SOL    HW216584   1.157   1.875   4.860
 5229SOL     OW16585   3.806   2.024   6.619
 5229SOL    HW116586   3.713   1.998   6.591
 5229SOL    HW216587   3.823   2.119   6.591
 5230SOL     OW16588   6.647   6.927   1.650
 5230SOL    HW116589   6.565   6.971   1.613
 5230SOL    HW216590   6.717   6.921   1.579
 5231SOL     OW16591   6.179   3.577   1.996
 5231SOL    HW116592   6.266   3.626   1.988
 5231SOL    HW216593   6.171   3.512   1.920
 5232SOL     OW16594   1.668   1.799   5.688
 5232SOL    HW116595   1.628   1.888   5.712
 5232SOL    HW216596   1.623   1.764   5.606
 5233SOL     OW16597   3.230   6.954   3.407
 5233SOL    HW116598   3.220   6.856   3.426
 5233SOL    HW216599   3.151   7.003   3.442
 5234SOL     OW16600   2.804   2.547   6.498
 5234SOL    HW116601   2.724   2.574   6.552
 5234SOL    HW216602   2.775   2.499   6.416
 5235SOL     OW16603   2.274   2.491   1.565
 5235SOL    HW116604   2.355   2.435   1.585
 5235SOL    HW216605   2.296   2.558   1.494
 5236SOL     OW16606   3.175   5.054   2.325
 5236SOL    HW116607   3.261   5.087   2.365
 5236SOL    HW216608   3.105   5.125   2.333
 5237SOL     OW16609   2.023   1.517   2.445
 5237SOL    HW116610   2.065   1.606   2.424
 5237SOL    HW216611   1.924   1.528   2.452
 5238SOL     OW16612   6.695   0.407   2.649
 5238SOL    HW116613   6.634   0.487   2.646
 5238SOL    HW216614   6.664   0.344   2.720
 5239SOL     OW16615   2.847   4.166   0.729
 5239SOL    HW116616   2.859   4.087   0.790
 5239SOL    HW216617   2.935   4.214   0.720
 5240SOL     OW16618   2.276   4.182   5.989
 5240SOL    HW116619   2.310   4.116   5.922
 5240SOL    HW216620   2.348   4.248   6.011
 5241SOL     OW16621   1.936   6.519   3.634
 5241SOL    HW116622   1.968   6.586   3.700
 5241SOL    HW216623   2.013   6.483   3.582
 5242SOL     OW16624   4.401   6.552   5.529
 5242SOL    HW116625   4.393   6.468   5.474
 5242SOL    HW216626   4.369   6.534   5.622
 5243SOL     OW16627   2.847   5.329   3.993
 5243SOL    HW116628   2.899   5.246   4.011
 5243SOL    HW216629   2.899   5.409   4.025
 5244SOL     OW16630   4.571   1.098   6.457
 5244SOL    HW116631   4.643   1.149   6.505
 5244SOL    HW216632   4.519   1.044   6.524
 5245SOL     OW16633   2.937   3.804   2.315
 5245SOL    HW116634   3.001   3.833   2.387
 5245SOL    HW216635   2.888   3.884   2.280
 5246SOL     OW16636   6.303   3.592   6.403
 5246SOL    HW116637   6.397   3.565   6.425
 5246SOL    HW216638   6.251   3.512   6.372
 5247SOL     OW16639   4.709   1.365   5.756
 5247SOL    HW116640   4.683   1.457   5.726
 5247SOL    HW216641   4.808   1.358   5.760
 5248SOL     OW16642   4.773   1.027   3.819
 5248SOL    HW116643   4.865   1.061   3.836
 5248SOL    HW216644   4.708   1.072   3.882
 5249SOL     OW16645   6.658   5.437   0.904
 5249SOL    HW116646   6.636   5.340   0.900
 5249SOL    HW216647   6.682   5.462   0.998
 5250SOL     OW16648   1.941   5.352   0.966
 5250SOL    HW116649   1.926   5.327   1.062
 5250SOL    HW216650   1.999   5.433   0.961
 5251SOL     OW16651   0.937   4.625   6.661
 5251SOL    HW116652   0.984   4.605   6.575
 5251SOL    HW216653   1.003   4.633   6.735
 5252SOL     OW16654   3.621   5.499   3.183
 5252SOL    HW116655   3.670   5.415   3.206
 5252SOL    HW216656   3.676   5.554   3.120
 5253SOL     OW16657   0.443   6.280   4.730
 5253SOL    HW116658   0.409   6.323   4.646
 5253SOL    HW216659   0.517   6.216   4.707
 5254SOL     OW16660   4.517   6.380   2.830
 5254SOL    HW116661   4.495   6.429   2.746
 5254SOL    HW216662   4.602   6.416   2.868
 5255SOL     OW16663   6.934   1.061   6.249
 5255SOL    HW116664   6.906   1.131   6.184
 5255SOL    HW216665   6.986   0.990   6.202
 5256SOL     OW16666   4.620   1.793   2.772
 5256SOL    HW116667   4.633   1.737   2.690
 5256SOL    HW216668   4.539   1.851   2.759
 5257SOL     OW16669   4.857   1.551   6.753
 5257SOL    HW116670   4.792   1.482   6.722
 5257SOL    HW216671   4.811   1.617   6.812
 5258SOL     OW16672   5.521   1.566   5.423
 5258SOL    HW116673   5.436   1.515   5.441
 5258SOL    HW216674   5.507   1.627   5.345
 5259SOL     OW16675   5.368   6.042   4.178
 5259SOL    HW116676   5.332   6.124   4.224
 5259SOL    HW216677   5.295   5.998   4.127
 5260SOL     OW16678   1.935   6.247   1.602
 5260SOL    HW116679   1.932   6.346   1.592
 5260SOL    HW216680   1.932   6.223   1.700
 5261SOL     OW16681   6.309   4.825   6.851
 5261SOL    HW116682   6.346   4.902   6.799
 5261SOL    HW216683   6.365   4.812   6.933
 5262SOL     OW16684   1.949   2.205   1.823
 5262SOL    HW116685   1.901   2.257   1.893
 5262SOL    HW216686   1.972   2.114   1.859
 5263SOL     OW16687   1.556   6.218   3.256
 5263SOL    HW116688   1.466   6.246   3.290
 5263SOL    HW216689   1.545   6.177   3.165
 5264SOL     OW16690   0.123   2.776   2.444
 5264SOL    HW116691   0.200   2.840   2.437
 5264SOL    HW216692   0.155   2.683   2.427
 5265SOL     OW16693   0.204   5.937   5.813
 5265SOL    HW116694   0.149   5.974   5.888
 5265SOL    HW216695   0.244   6.013   5.762
 5266SOL     OW16696   1.531   0.091   5.809
 5266SOL    HW116697   1.627   0.086   5.780
 5266SOL    HW216698   1.525   0.140   5.895
 5267SOL     OW16699   5.799   1.759   4.606
 5267SOL    HW116700   5.786   1.739   4.508
 5267SOL    HW216701   5.740   1.699   4.660
 5268SOL     OW16702   5.478   0.438   6.122
 5268SOL    HW116703   5.448   0.504   6.191
 5268SOL    HW216704   5.574   0.415   6.138
 5269SOL     OW16705   1.389   0.363   4.427
 5269SOL    HW116706   1.294   0.331   4.432
 5269SOL    HW216707   1.450   0.287   4.449
 5270SOL     OW16708   0.786   1.802   6.304
 5270SOL    HW116709   0.814   1.809   6.400
 5270SOL    HW216710   0.864   1.773   6.249
 5271SOL     OW16711   1.192   5.911   5.219
 5271SOL    HW116712   1.169   5.849   5.295
 5271SOL    HW216713   1.285   5.945   5.231
 5272SOL     OW16714   4.393   0.677   6.424
 5272SOL    HW116715   4.316   0.690   6.361
 5272SOL    HW216716   4.472   0.642   6.373
 5273SOL     OW16717   2.479   1.007   3.319
 5273SOL    HW116718   2.453   1.075   3.250
 5273SOL    HW216719   2.531   1.053   3.392
 5274SOL     OW16720   5.634   4.619   1.444
 5274SOL    HW116721   5.577   4.676   1.502
 5274SOL    HW216722   5.641   4.527   1.483
 5275SOL     OW16723   4.847   1.460   6.029
 5275SOL    HW116724   4.912   1.396   6.070
 5275SOL    HW216725   4.897   1.528   5.974
 5276SOL     OW16726   3.714   6.357   1.784
 5276SOL    HW116727   3.711   6.375   1.685
 5276SOL    HW216728   3.625   6.325   1.815
 5277SOL     OW16729   2.060   3.476   1.765
 5277SOL    HW116730   2.118   3.466   1.846
 5277SOL    HW216731   2.017   3.388   1.744
 5278SOL     OW16732   3.528   3.377   2.023
 5278SOL    HW116733   3.543   3.387   2.121
 5278SOL    HW216734   3.443   3.327   2.007
 5279SOL     OW16735   1.689   6.157   2.696
 5279SOL    HW116736   1.605   6.146   2.643
 5279SOL    HW216737   1.700   6.253   2.722
 5280SOL     OW16738   4.036   0.898   4.503
 5280SOL    HW116739   3.978   0.832   4.455
 5280SOL    HW216740   4.119   0.914   4.451
 5281SOL     OW16741   6.941   2.406   3.984
 5281SOL    HW116742   6.960   2.309   3.971
 5281SOL    HW216743   6.843   2.422   3.975
 5282SOL     OW16744   4.761   2.384   1.243
 5282SOL    HW116745   4.789   2.292   1.271
 5282SOL    HW216746   4.836   2.448   1.261
 5283SOL     OW16747   4.841   4.571   6.109
 5283SOL    HW116748   4.941   4.563   6.101
 5283SOL    HW216749   4.808   4.501   6.172
 5284SOL     OW16750   5.053   2.849   4.310
 5284SOL    HW116751   5.139   2.900   4.316
 5284SOL    HW216752   5.025   2.820   4.402
 5285SOL     OW16753   4.117   6.584   2.726
 5285SOL    HW116754   4.101   6.562   2.822
 5285SOL    HW216755   4.205   6.631   2.717
 5286SOL     OW16756   2.120   5.179   1.983
 5286SOL    HW116757   2.088   5.267   2.019
 5286SOL    HW216758   2.056   5.107   2.009
 5287SOL     OW16759   1.274   1.157   2.388
 5287SOL    HW116760   1.241   1.214   2.463
 5287SOL    HW216761   1.350   1.101   2.420
 5288SOL     OW16762   4.181   6.974   0.806
 5288SOL    HW116763   4.241   6.927   0.870
 5288SOL    HW216764   4.226   6.983   0.718
 5289SOL     OW16765   1.524   6.310   1.357
 5289SOL    HW116766   1.529   6.211   1.342
 5289SOL    HW216767   1.522   6.329   1.455
 5290SOL     OW16768   5.305   5.712   6.858
 5290SOL    HW116769   5.368   5.672   6.924
 5290SOL    HW216770   5.232   5.760   6.906
 5291SOL     OW16771   1.084   5.611   0.102
 5291SOL    HW116772   1.068   5.682   0.170
 5291SOL    HW216773   1.089   5.653   0.011
 5292SOL     OW16774   5.324   1.863   0.953
 5292SOL    HW116775   5.309   1.865   1.052
 5292SOL    HW216776   5.275   1.786   0.914
 5293SOL     OW16777   2.088   1.558   4.292
 5293SOL    HW116778   2.064   1.637   4.348
 5293SOL    HW216779   2.011   1.534   4.233
 5294SOL     OW16780   3.833   2.387   6.359
 5294SOL    HW116781   3.880   2.358   6.443
 5294SOL    HW216782   3.737   2.405   6.379
 5295SOL     OW16783   6.650   1.429   2.825
 5295SOL    HW116784   6.690   1.520   2.831
 5295SOL    HW216785   6.584   1.427   2.750
 5296SOL     OW16786   0.234   2.843   6.607
 5296SOL    HW116787   0.266   2.750   6.590
 5296SOL    HW216788   0.134   2.846   6.604
 5297SOL     OW16789   0.788   2.494   1.990
 5297SOL    HW116790   0.840   2.413   1.964
 5297SOL    HW216791   0.818   2.572   1.935
 5298SOL     OW16792   1.460   4.635   1.790
 5298SOL    HW116793   1.444   4.557   1.850
 5298SOL    HW216794   1.524   4.698   1.834
 5299SOL     OW16795   3.457   0.240   0.424
 5299SOL    HW116796   3.525   0.228   0.496
 5299SOL    HW216797   3.500   0.279   0.343
 5300SOL     OW16798   6.858   4.751   3.559
 5300SOL    HW116799   6.780   4.810   3.537
 5300SOL    HW216800   6.858   4.732   3.657
 5301SOL     OW16801   6.206   0.577   6.860
 5301SOL    HW116802   6.244   0.654   6.911
 5301SOL    HW216803   6.263   0.558   6.780
 5302SOL     OW16804   0.040   3.992   3.772
 5302SOL    HW116805   0.052   3.897   3.742
 5302SOL    HW216806   7.012   3.995   3.859
 5303SOL     OW16807   1.646   4.589   3.320
 5303SOL    HW116808   1.642   4.688   3.335
 5303SOL    HW216809   1.740   4.562   3.303
 5304SOL     OW16810   4.590   2.487   5.718
 5304SOL    HW116811   4.650   2.556   5.678
 5304SOL    HW216812   4.505   2.530   5.748
 5305SOL     OW16813   3.207   1.837   4.988
 5305SOL    HW116814   3.150   1.792   5.057
 5305SOL    HW216815   3.303   1.833   5.016
 5306SOL     OW16816   2.694   6.880   3.664
 5306SOL    HW116817   2.600   6.883   3.699
 5306SOL    HW216818   2.757   6.901   3.738
 5307SOL     OW16819   5.221   6.836   0.113
 5307SOL    HW116820   5.203   6.897   0.190
 5307SOL    HW216821   5.301   6.868   0.063
 5308SOL     OW16822   6.827   1.479   1.908
 5308SOL    HW116823   6.804   1.486   2.005
 5308SOL    HW216824   6.812   1.385   1.877
 5309SOL     OW16825   4.067   3.496   5.055
 5309SOL    HW116826   4.112   3.433   4.992
 5309SOL    HW216827   3.997   3.447   5.107
 5310SOL     OW16828   5.136   2.788   0.257
 5310SOL    HW116829   5.051   2.824   0.217
 5310SOL    HW216830   5.114   2.731   0.336
 5311SOL     OW16831   6.910   6.448   0.281
 5311SOL    HW116832   6.964   6.528   0.309
 5311SOL    HW216833   6.893   6.390   0.361
 5312SOL     OW16834   0.381   3.293   1.250
 5312SOL    HW116835   0.475   3.327   1.256
 5312SOL    HW216836   0.382   3.195   1.231
 5313SOL     OW16837   0.349   6.612   0.410
 5313SOL    HW116838   0.377   6.620   0.314
 5313SOL    HW216839   0.358   6.516   0.439
 5314SOL     OW16840   3.529   5.274   1.146
 5314SOL    HW116841   3.563   5.257   1.053
 5314SOL    HW216842   3.474   5.196   1.176
 5315SOL     OW16843   5.788   1.360   1.966
 5315SOL    HW116844   5.814   1.361   1.870
 5315SOL    HW216845   5.820   1.275   2.008
 5316SOL     OW16846   5.293   5.540   4.566
 5316SOL    HW116847   5.332   5.448   4.558
 5316SOL    HW216848   5.204   5.543   4.521
 5317SOL     OW16849   6.738   5.044   1.832
 5317SOL    HW116850   6.652   5.001   1.806
 5317SOL    HW216851   6.743   5.135   1.791
 5318SOL     OW16852   6.832   2.351   3.658
 5318SOL    HW116853   6.791   2.330   3.747
 5318SOL    HW216854   6.924   2.313   3.654
 5319SOL     OW16855   3.312   5.991   3.129
 5319SOL    HW116856   3.311   5.975   3.031
 5319SOL    HW216857   3.299   6.088   3.148
 5320SOL     OW16858   6.688   2.746   6.919
 5320SOL    HW116859   6.704   2.842   6.942
 5320SOL    HW216860   6.613   2.711   6.976
 5321SOL     OW16861   2.780   4.322   6.428
 5321SOL    HW116862   2.849   4.363   6.368
 5321SOL    HW216863   2.816   4.237   6.467
 5322SOL     OW16864   2.383   6.170   0.079
 5322SOL    HW116865   2.295   6.190   0.036
 5322SOL    HW216866   2.369   6.154   0.177
 5323SOL     OW16867   5.646   3.216   0.565
 5323SOL    HW116868   5.685   3.250   0.651
 5323SOL    HW216869   5.678   3.123   0.548
 5324SOL     OW16870   4.401   3.025   1.369
 5324SOL    HW116871   4.457   3.001   1.289
 5324SOL    HW216872   4.380   3.123   1.366
 5325SOL     OW16873   3.326   6.173   5.494
 5325SOL    HW116874   3.352   6.145   5.586
 5325SOL    HW216875   3.252   6.240   5.499
 5326SOL     OW16876   6.961   0.515   2.660
 5326SOL    HW116877   6.990   0.495   2.753
 5326SOL    HW216878   6.867   0.483   2.647
 5327SOL     OW16879   6.353   0.466   4.283
 5327SOL    HW116880   6.341   0.476   4.382
 5327SOL    HW216881   6.274   0.504   4.235
 5328SOL     OW16882   3.396   5.001   6.790
 5328SOL    HW116883   3.414   4.908   6.822
 5328SOL    HW216884   3.370   4.999   6.693
 5329SOL     OW16885   0.550   5.796   6.728
 5329SOL    HW116886   0.585   5.788   6.635
 5329SOL    HW216887   0.626   5.791   6.793
 5330SOL     OW16888   4.111   4.964   0.358
 5330SOL    HW116889   4.031   4.911   0.385
 5330SOL    HW216890   4.194   4.917   0.386
 5331SOL     OW16891   5.692   1.176   6.510
 5331SOL    HW116892   5.692   1.111   6.587
 5331SOL    HW216893   5.765   1.151   6.446
 5332SOL     OW16894   6.233   2.562   6.595
 5332SOL    HW116895   6.180   2.525   6.672
 5332SOL    HW216896   6.270   2.487   6.541
 5333SOL     OW16897   0.862   0.311   3.807
 5333SOL    HW116898   0.922   0.232   3.801
 5333SOL    HW216899   0.810   0.307   3.893
 5334SOL     OW16900   2.958   6.044   1.507
 5334SOL    HW116901   3.016   5.964   1.491
 5334SOL    HW216902   2.875   6.016   1.555
 5335SOL     OW16903   0.082   5.386   1.795
 5335SOL    HW116904   0.131   5.318   1.849
 5335SOL    HW216905   7.009   5.358   1.782
 5336SOL     OW16906   1.649   3.424   5.253
 5336SOL    HW116907   1.741   3.463   5.247
 5336SOL    HW216908   1.650   3.330   5.220
 5337SOL     OW16909   6.689   2.346   0.897
 5337SOL    HW116910   6.666   2.434   0.939
 5337SOL    HW216911   6.672   2.351   0.799
 5338SOL     OW16912   0.042   3.647   0.686
 5338SOL    HW116913   0.133   3.635   0.726
 5338SOL    HW216914   7.021   3.557   0.674
 5339SOL     OW16915   5.289   3.060   3.139
 5339SOL    HW116916   5.383   3.085   3.162
 5339SOL    HW216917   5.271   2.968   3.171
 5340SOL     OW16918   4.828   3.107   1.180
 5340SOL    HW116919   4.897   3.172   1.213
 5340SOL    HW216920   4.832   3.023   1.234
 5341SOL     OW16921   4.918   4.755   3.527
 5341SOL    HW116922   4.907   4.693   3.605
 5341SOL    HW216923   4.846   4.824   3.529
 5342SOL     OW16924   6.319   5.657   4.994
 5342SOL    HW116925   6.293   5.671   4.898
 5342SOL    HW216926   6.285   5.569   5.025
 5343SOL     OW16927   3.345   3.320   6.837
 5343SOL    HW116928   3.394   3.407   6.839
 5343SOL    HW216929   3.398   3.253   6.786
 5344SOL     OW16930   6.478   2.213   6.739
 5344SOL    HW116931   6.431   2.139   6.691
 5344SOL    HW216932   6.502   2.183   6.832
 5345SOL     OW16933   3.452   1.158   0.349
 5345SOL    HW116934   3.487   1.152   0.255
 5345SOL    HW216935   3.372   1.099   0.359
 5346SOL     OW16936   2.183   6.252   3.191
 5346SOL    HW116937   2.120   6.243   3.268
 5346SOL    HW216938   2.220   6.162   3.168
 5347SOL     OW16939   6.010   1.478   5.308
 5347SOL    HW116940   6.024   1.439   5.217
 5347SOL    HW216941   6.085   1.451   5.368
 5348SOL     OW16942   4.552   2.891   5.786
 5348SOL    HW116943   4.566   2.831   5.864
 5348SOL    HW216944   4.510   2.977   5.817
 5349SOL     OW16945   0.642   4.309   0.461
 5349SOL    HW116946   0.714   4.247   0.492
 5349SOL    HW216947   0.563   4.301   0.522
 5350SOL     OW16948   1.248   6.601   6.315
 5350SOL    HW116949   1.279   6.581   6.408
 5350SOL    HW216950   1.314   6.661   6.270
 5351SOL     OW16951   0.397   5.830   3.976
 5351SOL    HW116952   0.474   5.814   4.037
 5351SOL    HW216953   0.373   5.927   3.977
 5352SOL     OW16954   0.697   2.402   6.066
 5352SOL    HW116955   0.688   2.431   5.971
 5352SOL    HW216956   0.649   2.466   6.126
 5353SOL     OW16957   2.935   6.429   3.578
 5353SOL    HW116958   2.998   6.361   3.615
 5353SOL    HW216959   2.911   6.495   3.649
 5354SOL     OW16960   3.617   5.827   1.977
 5354SOL    HW116961   3.605   5.757   2.048
 5354SOL    HW216962   3.528   5.850   1.937
 5355SOL     OW16963   5.394   5.199   5.461
 5355SOL    HW116964   5.424   5.287   5.499
 5355SOL    HW216965   5.456   5.127   5.492
 5356SOL     OW16966   0.889   0.101   1.453
 5356SOL    HW116967   0.936   0.016   1.477
 5356SOL    HW216968   0.813   0.117   1.516
 5357SOL     OW16969   6.334   3.628   2.647
 5357SOL    HW116970   6.387   3.708   2.673
 5357SOL    HW216971   6.365   3.548   2.698
 5358SOL     OW16972   5.929   1.104   6.373
 5358SOL    HW116973   5.977   1.036   6.428
 5358SOL    HW216974   5.991   1.179   6.350
 5359SOL     OW16975   2.815   2.325   6.676
 5359SOL    HW116976   2.856   2.413   6.651
 5359SOL    HW216977   2.748   2.339   6.748
 5360SOL     OW16978   5.934   5.416   2.991
 5360SOL    HW116979   5.994   5.477   2.938
 5360SOL    HW216980   5.853   5.466   3.020
 5361SOL     OW16981   1.588   3.731   2.891
 5361SOL    HW116982   1.566   3.812   2.837
 5361SOL    HW216983   1.665   3.683   2.848
 5362SOL     OW16984   6.049   1.220   3.663
 5362SOL    HW116985   5.990   1.160   3.610
 5362SOL    HW216986   6.027   1.213   3.760
 5363SOL     OW16987   6.127   5.034   4.736
 5363SOL    HW116988   6.106   5.017   4.832
 5363SOL    HW216989   6.209   4.984   4.710
 5364SOL     OW16990   4.423   2.564   1.500
 5364SOL    HW116991   4.407   2.471   1.468
 5364SOL    HW216992   4.419   2.566   1.600
 5365SOL     OW16993   3.422   3.599   5.673
 5365SOL    HW116994   3.335   3.644   5.653
 5365SOL    HW216995   3.425   3.575   5.770
 5366SOL     OW16996   0.555   5.233   3.488
 5366SOL    HW116997   0.475   5.268   3.439
 5366SOL    HW216998   0.527   5.194   3.576
 5367SOL     OW16999   6.285   6.096   1.223
 5367SOL    HW117000   6.227   6.166   1.181
 5367SOL    HW217001   6.339   6.137   1.296
 5368SOL     OW17002   6.948   5.988   4.879
 5368SOL    HW117003   7.017   5.935   4.929
 5368SOL    HW217004   6.966   6.085   4.890
 5369SOL     OW17005   4.020   6.915   2.859
 5369SOL    HW117006   3.940   6.933   2.917
 5369SOL    HW217007   4.031   6.990   2.794
 5370SOL     OW17008   2.583   3.060   0.789
 5370SOL    HW117009   2.575   3.024   0.696
 5370SOL    HW217010   2.659   3.016   0.836
 5371SOL     OW17011   6.093   5.332   3.515
 5371SOL    HW117012   6.095   5.426   3.551
 5371SOL    HW217013   5.998   5.301   3.509
 5372SOL     OW17014   0.982   0.199   4.136
 5372SOL    HW117015   1.067   0.148   4.126
 5372SOL    HW217016   1.002   0.297   4.136
 5373SOL     OW17017   3.958   6.915   0.231
 5373SOL    HW117018   3.983   7.008   0.207
 5373SOL    HW217019   3.875   6.916   0.287
 5374SOL     OW17020   1.184   4.254   1.452
 5374SOL    HW117021   1.195   4.352   1.432
 5374SOL    HW217022   1.124   4.242   1.531
 5375SOL     OW17023   2.895   4.878   5.144
 5375SOL    HW117024   2.908   4.873   5.243
 5375SOL    HW217025   2.876   4.786   5.108
 5376SOL     OW17026   0.793   0.721   1.743
 5376SOL    HW117027   0.863   0.789   1.760
 5376SOL    HW217028   0.836   0.631   1.729
 5377SOL     OW17029   0.979   2.716   1.856
 5377SOL    HW117030   0.942   2.727   1.948
 5377SOL    HW217031   1.078   2.728   1.858
 5378SOL     OW17032   5.703   6.749   3.145
 5378SOL    HW117033   5.778   6.760   3.079
 5378SOL    HW217034   5.700   6.828   3.205
 5379SOL     OW17035   2.531   2.469   4.531
 5379SOL    HW117036   2.463   2.418   4.585
 5379SOL    HW217037   2.598   2.405   4.493
 5380SOL     OW17038   5.281   6.649   1.772
 5380SOL    HW117039   5.226   6.581   1.724
 5380SOL    HW217040   5.341   6.604   1.838
 5381SOL     OW17041   3.141   2.169   2.627
 5381SOL    HW117042   3.164   2.074   2.651
 5381SOL    HW217043   3.148   2.227   2.708
 5382SOL     OW17044   5.074   0.582   2.673
 5382SOL    HW117045   5.147   0.533   2.722
 5382SOL    HW217046   5.111   0.665   2.633
 5383SOL     OW17047   2.685   3.876   5.263
 5383SOL    HW117048   2.597   3.901   5.224
 5383SOL    HW217049   2.755   3.939   5.231
 5384SOL     OW17050   4.889   6.528   5.879
 5384SOL    HW117051   4.856   6.451   5.824
 5384SOL    HW217052   4.949   6.494   5.951
 5385SOL     OW17053   3.531   3.778   0.467
 5385SOL    HW117054   3.592   3.798   0.391
 5385SOL    HW217055   3.581   3.727   0.538
 5386SOL     OW17056   4.550   4.462   3.505
 5386SOL    HW117057   4.559   4.499   3.598
 5386SOL    HW217058   4.584   4.368   3.504
 5387SOL     OW17059   0.942   2.391   4.028
 5387SOL    HW117060   0.982   2.303   4.053
 5387SOL    HW217061   0.852   2.401   4.070
 5388SOL     OW17062   6.765   6.273   3.541
 5388SOL    HW117063   6.708   6.192   3.524
 5388SOL    HW217064   6.839   6.249   3.604
 5389SOL     OW17065   5.516   1.660   4.510
 5389SOL    HW117066   5.505   1.645   4.412
 5389SOL    HW217067   5.564   1.582   4.550
 5390SOL     OW17068   5.997   3.008   3.519
 5390SOL    HW117069   5.937   2.928   3.515
 5390SOL    HW217070   6.030   3.030   3.427
 5391SOL     OW17071   4.250   2.664   0.614
 5391SOL    HW117072   4.328   2.711   0.573
 5391SOL    HW217073   4.169   2.722   0.609
 5392SOL     OW17074   5.313   0.915   4.234
 5392SOL    HW117075   5.263   0.934   4.150
 5392SOL    HW217076   5.323   0.816   4.245
 5393SOL     OW17077   3.896   2.175   2.816
 5393SOL    HW117078   3.985   2.128   2.815
 5393SOL    HW217079   3.893   2.237   2.895
 5394SOL     OW17080   0.047   2.799   3.047
 5394SOL    HW117081   0.062   2.896   3.067
 5394SOL    HW217082   0.033   2.749   3.132
 5395SOL     OW17083   0.179   0.889   1.195
 5395SOL    HW117084   0.186   0.898   1.295
 5395SOL    HW217085   0.095   0.842   1.172
 5396SOL     OW17086   4.265   2.562   0.139
 5396SOL    HW117087   4.170   2.590   0.125
 5396SOL    HW217088   4.324   2.616   0.080
 5397SOL     OW17089   0.625   6.902   2.463
 5397SOL    HW117090   0.684   6.976   2.431
 5397SOL    HW217091   0.529   6.926   2.448
 5398SOL     OW17092   5.893   2.315   3.101
 5398SOL    HW117093   5.823   2.246   3.123
 5398SOL    HW217094   5.870   2.401   3.146
 5399SOL     OW17095   2.535   2.899   0.017
 5399SOL    HW117096   2.548   2.996   7.016
 5399SOL    HW217097   2.449   2.867   6.998
 5400SOL     OW17098   5.693   2.611   1.043
 5400SOL    HW117099   5.728   2.697   1.007
 5400SOL    HW217100   5.663   2.623   1.138
 5401SOL     OW17101   4.845   3.552   1.342
 5401SOL    HW117102   4.799   3.464   1.358
 5401SOL    HW217103   4.793   3.605   1.275
 5402SOL     OW17104   1.629   6.156   1.779
 5402SOL    HW117105   1.704   6.091   1.768
 5402SOL    HW217106   1.589   6.146   1.869
 5403SOL     OW17107   6.039   2.140   5.636
 5403SOL    HW117108   6.000   2.166   5.724
 5403SOL    HW217109   6.135   2.114   5.649
 5404SOL     OW17110   4.746   6.274   0.590
 5404SOL    HW117111   4.770   6.354   0.646
 5404SOL    HW217112   4.830   6.235   0.552
 5405SOL     OW17113   6.668   5.156   6.380
 5405SOL    HW117114   6.578   5.195   6.397
 5405SOL    HW217115   6.671   5.122   6.286
 5406SOL     OW17116   2.191   1.151   5.228
 5406SOL    HW117117   2.233   1.108   5.308
 5406SOL    HW217118   2.102   1.189   5.253
 5407SOL     OW17119   2.574   0.993   2.681
 5407SOL    HW117120   2.661   1.016   2.637
 5407SOL    HW217121   2.570   1.036   2.772
 5408SOL     OW17122   1.644   2.102   4.265
 5408SOL    HW117123   1.545   2.093   4.261
 5408SOL    HW217124   1.682   2.028   4.320
 5409SOL     OW17125   0.362   3.737   2.940
 5409SOL    HW117126   0.265   3.745   2.963
 5409SOL    HW217127   0.413   3.707   3.020
 5410SOL     OW17128   6.043   1.762   0.241
 5410SOL    HW117129   6.041   1.676   0.191
 5410SOL    HW217130   6.104   1.827   0.195
 5411SOL     OW17131   3.528   5.296   1.621
 5411SOL    HW117132   3.483   5.302   1.532
 5411SOL    HW217133   3.492   5.367   1.681
 5412SOL     OW17134   1.363   2.453   5.945
 5412SOL    HW117135   1.405   2.366   5.920
 5412SOL    HW217136   1.422   2.528   5.915
 5413SOL     OW17137   6.745   5.309   5.642
 5413SOL    HW117138   6.769   5.272   5.731
 5413SOL    HW217139   6.827   5.316   5.585
 5414SOL     OW17140   5.665   5.733   6.442
 5414SOL    HW117141   5.618   5.656   6.486
 5414SOL    HW217142   5.611   5.765   6.364
 5415SOL     OW17143   1.836   1.491   6.899
 5415SOL    HW117144   1.787   1.435   6.966
 5415SOL    HW217145   1.840   1.585   6.931
 5416SOL     OW17146   3.994   5.649   5.894
 5416SOL    HW117147   4.026   5.643   5.989
 5416SOL    HW217148   4.016   5.564   5.846
 5417SOL     OW17149   5.414   0.036   2.086
 5417SOL    HW117150   5.511   0.045   2.065
 5417SOL    HW217151   5.368   7.010   2.011
 5418SOL     OW17152   0.655   3.277   5.404
 5418SOL    HW117153   0.603   3.209   5.456
 5418SOL    HW217154   0.601   3.360   5.393
 5419SOL     OW17155   3.960   1.643   6.104
 5419SOL    HW117156   4.046   1.688   6.128
 5419SOL    HW217157   3.955   1.630   6.005
 5420SOL     OW17158   2.550   1.781   1.254
 5420SOL    HW117159   2.487   1.829   1.316
 5420SOL    HW217160   2.499   1.749   1.174
 5421SOL     OW17161   4.342   4.747   1.718
 5421SOL    HW117162   4.350   4.759   1.619
 5421SOL    HW217163   4.331   4.650   1.739
 5422SOL     OW17164   2.311   6.611   2.764
 5422SOL    HW117165   2.319   6.627   2.863
 5422SOL    HW217166   2.399   6.579   2.729
 5423SOL     OW17167   4.343   0.110   2.150
 5423SOL    HW117168   4.411   0.038   2.167
 5423SOL    HW217169   4.368   0.192   2.203
 5424SOL     OW17170   3.536   3.461   5.064
 5424SOL    HW117171   3.469   3.495   5.130
 5424SOL    HW217172   3.510   3.369   5.035
 5425SOL     OW17173   0.949   4.772   5.259
 5425SOL    HW117174   0.932   4.837   5.184
 5425SOL    HW217175   1.047   4.752   5.263
 5426SOL     OW17176   0.835   4.347   0.246
 5426SOL    HW117177   0.749   4.317   0.288
 5426SOL    HW217178   0.830   4.445   0.227
 5427SOL     OW17179   4.188   1.807   6.905
 5427SOL    HW117180   4.097   1.838   6.880
 5427SOL    HW217181   4.200   1.811   7.004
 5428SOL     OW17182   4.161   5.624   2.988
 5428SOL    HW117183   4.150   5.616   2.889
 5428SOL    HW217184   4.255   5.598   3.013
 5429SOL     OW17185   2.367   6.724   3.850
 5429SOL    HW117186   2.282   6.754   3.893
 5429SOL    HW217187   2.387   6.783   3.772
 5430SOL     OW17188   1.396   4.459   5.405
 5430SOL    HW117189   1.379   4.474   5.503
 5430SOL    HW217190   1.491   4.432   5.392
 5431SOL     OW17191   5.146   4.457   1.570
 5431SOL    HW117192   5.074   4.408   1.620
 5431SOL    HW217193   5.228   4.461   1.626
 5432SOL     OW17194   0.217   5.038   6.075
 5432SOL    HW117195   0.292   4.979   6.044
 5432SOL    HW217196   0.155   5.056   5.999
 5433SOL     OW17197   2.724   0.466   1.326
 5433SOL    HW117198   2.762   0.536   1.386
 5433SOL    HW217199   2.757   0.480   1.232
 5434SOL     OW17200   5.202   5.813   4.530
 5434SOL    HW117201   5.186   5.838   4.435
 5434SOL    HW217202   5.237   5.720   4.535
 5435SOL     OW17203   6.554   3.750   7.001
 5435SOL    HW117204   6.635   3.735   0.037
 5435SOL    HW217205   6.503   3.829   0.013
 5436SOL     OW17206   1.251   4.497   1.361
 5436SOL    HW117207   1.321   4.563   1.333
 5436SOL    HW217208   1.226   4.440   1.283
 5437SOL     OW17209   3.564   6.305   6.372
 5437SOL    HW117210   3.574   6.401   6.348
 5437SOL    HW217211   3.625   6.249   6.315
 5438SOL     OW17212   5.543   6.775   2.633
 5438SOL    HW117213   5.535   6.702   2.565
 5438SOL    HW217214   5.569   6.860   2.588
 5439SOL     OW17215   1.474   3.838   1.478
 5439SOL    HW117216   1.538   3.762   1.482
 5439SOL    HW217217   1.404   3.827   1.547
 5440SOL     OW17218   6.336   6.781   4.349
 5440SOL    HW117219   6.292   6.856   4.300
 5440SOL    HW217220   6.346   6.805   4.446
 5441SOL     OW17221   5.673   1.074   4.912
 5441SOL    HW117222   5.642   1.138   4.843
 5441SOL    HW217223   5.667   1.116   5.003
 5442SOL     OW17224   2.749   0.548   6.269
 5442SOL    HW117225   2.759   0.648   6.271
 5442SOL    HW217226   2.755   0.512   6.362
 5443SOL     OW17227   5.753   0.738   3.372
 5443SOL    HW117228   5.767   0.837   3.369
 5443SOL    HW217229   5.798   0.696   3.294
 5444SOL     OW17230   1.006   0.989   6.127
 5444SOL    HW117231   1.087   1.034   6.089
 5444SOL    HW217232   1.018   0.978   6.226
 5445SOL     OW17233   5.752   6.513   4.938
 5445SOL    HW117234   5.799   6.594   4.975
 5445SOL    HW217235   5.787   6.493   4.847
 5446SOL     OW17236   2.011   5.246   5.653
 5446SOL    HW117237   2.107   5.257   5.627
 5446SOL    HW217238   2.003   5.176   5.724
 5447SOL     OW17239   6.563   2.000   1.155
 5447SOL    HW117240   6.534   1.997   1.250
 5447SOL    HW217241   6.652   1.955   1.145
 5448SOL     OW17242   6.232   4.699   1.999
 5448SOL    HW117243   6.142   4.662   2.024
 5448SOL    HW217244   6.265   4.653   1.917
 5449SOL     OW17245   2.265   0.046   2.399
 5449SOL    HW117246   2.293   7.009   2.323
 5449SOL    HW217247   2.184   0.007   2.443
 5450SOL     OW17248   4.786   5.702   1.967
 5450SOL    HW117249   4.837   5.677   2.049
 5450SOL    HW217250   4.723   5.629   1.943
 5451SOL     OW17251   1.116   6.004   3.881
 5451SOL    HW117252   1.051   6.032   3.810
 5451SOL    HW217253   1.087   5.918   3.921
 5452SOL     OW17254   2.148   3.908   2.630
 5452SOL    HW117255   2.179   3.980   2.692
 5452SOL    HW217256   2.154   3.941   2.535
 5453SOL     OW17257   5.979   4.772   4.337
 5453SOL    HW117258   5.893   4.808   4.374
 5453SOL    HW217259   6.046   4.846   4.328
 5454SOL     OW17260   5.740   3.829   2.514
 5454SOL    HW117261   5.739   3.740   2.468
 5454SOL    HW217262   5.665   3.834   2.580
 5455SOL     OW17263   2.317   2.009   3.425
 5455SOL    HW117264   2.415   1.998   3.441
 5455SOL    HW217265   2.275   2.054   3.503
 5456SOL     OW17266   5.092   2.587   0.915
 5456SOL    HW117267   5.008   2.601   0.966
 5456SOL    HW217268   5.106   2.490   0.899
 5457SOL     OW17269   6.632   1.732   0.335
 5457SOL    HW117270   6.578   1.789   0.273
 5457SOL    HW217271   6.633   1.638   0.301
 5458SOL     OW17272   5.980   5.255   5.523
 5458SOL    HW117273   6.060   5.273   5.466
 5458SOL    HW217274   6.008   5.250   5.619
 5459SOL     OW17275   2.371   3.761   5.309
 5459SOL    HW117276   2.419   3.845   5.283
 5459SOL    HW217277   2.298   3.742   5.243
 5460SOL     OW17278   0.507   0.553   1.720
 5460SOL    HW117279   0.471   0.598   1.801
 5460SOL    HW217280   0.516   0.455   1.737
 5461SOL     OW17281   5.730   1.454   6.687
 5461SOL    HW117282   5.703   1.381   6.751
 5461SOL    HW217283   5.829   1.464   6.688
 5462SOL     OW17284   5.142   5.353   6.631
 5462SOL    HW117285   5.126   5.447   6.602
 5462SOL    HW217286   5.211   5.311   6.572
 5463SOL     OW17287   2.261   5.321   6.671
 5463SOL    HW117288   2.355   5.318   6.707
 5463SOL    HW217289   2.200   5.360   6.739
 5464SOL     OW17290   1.924   5.464   4.227
 5464SOL    HW117291   1.907   5.412   4.310
 5464SOL    HW217292   2.003   5.524   4.241
 5465SOL     OW17293   0.691   0.833   4.894
 5465SOL    HW117294   0.767   0.828   4.828
 5465SOL    HW217295   0.671   0.742   4.929
 5466SOL     OW17296   4.755   2.372   5.289
 5466SOL    HW117297   4.708   2.372   5.377
 5466SOL    HW217298   4.835   2.313   5.295
 5467SOL     OW17299   5.884   3.459   3.984
 5467SOL    HW117300   5.824   3.409   4.047
 5467SOL    HW217301   5.832   3.530   3.937
 5468SOL     OW17302   0.899   2.676   1.428
 5468SOL    HW117303   0.808   2.666   1.469
 5468SOL    HW217304   0.914   2.602   1.362
 5469SOL     OW17305   4.200   2.048   3.815
 5469SOL    HW117306   4.149   2.105   3.879
 5469SOL    HW217307   4.231   1.965   3.862
 5470SOL     OW17308   2.940   4.764   3.965
 5470SOL    HW117309   2.955   4.771   3.867
 5470SOL    HW217310   3.027   4.779   4.013
 5471SOL     OW17311   5.560   0.612   3.500
 5471SOL    HW117312   5.580   0.514   3.497
 5471SOL    HW217313   5.625   0.661   3.442
 5472SOL     OW17314   2.509   4.374   6.799
 5472SOL    HW117315   2.489   4.436   6.723
 5472SOL    HW217316   2.579   4.415   6.858
 5473SOL     OW17317   2.767   4.889   2.100
 5473SOL    HW117318   2.756   4.924   2.008
 5473SOL    HW217319   2.785   4.790   2.096
 5474SOL     OW17320   1.315   4.906   1.520
 5474SOL    HW117321   1.339   4.832   1.458
 5474SOL    HW217322   1.285   4.869   1.608
 5475SOL     OW17323   0.624   0.825   5.568
 5475SOL    HW117324   0.600   0.917   5.537
 5475SOL    HW217325   0.548   0.786   5.620
 5476SOL     OW17326   1.915   0.750   4.962
 5476SOL    HW117327   1.901   0.721   5.057
 5476SOL    HW217328   2.001   0.711   4.928
 5477SOL     OW17329   1.969   3.579   2.456
 5477SOL    HW117330   1.989   3.619   2.545
 5477SOL    HW217331   1.880   3.611   2.423
 5478SOL     OW17332   6.225   3.670   5.869
 5478SOL    HW117333   6.176   3.745   5.825
 5478SOL    HW217334   6.306   3.706   5.916
 5479SOL     OW17335   4.886   3.078   3.908
 5479SOL    HW117336   4.904   3.175   3.923
 5479SOL    HW217337   4.839   3.041   3.988
 5480SOL     OW17338   1.249   3.133   4.754
 5480SOL    HW117339   1.212   3.206   4.812
 5480SOL    HW217340   1.348   3.127   4.768
 5481SOL     OW17341   4.519   1.335   6.945
 5481SOL    HW117342   4.526   1.256   7.006
 5481SOL    HW217343   4.483   1.413   6.995
 5482SOL     OW17344   5.198   4.251   2.861
 5482SOL    HW117345   5.105   4.281   2.840
 5482SOL    HW217346   5.263   4.292   2.797
 5483SOL     OW17347   6.361   2.275   0.205
 5483SOL    HW117348   6.313   2.233   0.282
 5483SOL    HW217349   6.376   2.206   0.134
 5484SOL     OW17350   6.348   0.458   5.756
 5484SOL    HW117351   6.448   0.460   5.760
 5484SOL    HW217352   6.320   0.392   5.686
 5485SOL     OW17353   2.949   0.920   3.925
 5485SOL    HW117354   3.028   0.870   3.889
 5485SOL    HW217355   2.877   0.922   3.856
 5486SOL     OW17356   0.964   0.554   3.449
 5486SOL    HW117357   0.965   0.525   3.545
 5486SOL    HW217358   0.894   0.624   3.436
 5487SOL     OW17359   4.815   4.997   0.983
 5487SOL    HW117360   4.801   5.049   1.067
 5487SOL    HW217361   4.750   4.922   0.979
 5488SOL     OW17362   5.097   0.969   5.785
 5488SOL    HW117363   5.167   0.900   5.806
 5488SOL    HW217364   5.019   0.956   5.847
 5489SOL     OW17365   0.427   3.669   2.215
 5489SOL    HW117366   0.517   3.667   2.171
 5489SOL    HW217367   0.369   3.597   2.176
 5490SOL     OW17368   3.211   1.877   6.389
 5490SOL    HW117369   3.267   1.892   6.308
 5490SOL    HW217370   3.235   1.789   6.431
 5491SOL     OW17371   6.875   5.758   2.689
 5491SOL    HW117372   6.830   5.668   2.687
 5491SOL    HW217373   6.820   5.824   2.638
 5492SOL     OW17374   0.999   1.126   4.927
 5492SOL    HW117375   0.964   1.053   4.867
 5492SOL    HW217376   1.020   1.207   4.872
 5493SOL     OW17377   3.588   1.842   1.075
 5493SOL    HW117378   3.559   1.803   0.987
 5493SOL    HW217379   3.626   1.770   1.132
 5494SOL     OW17380   5.090   3.007   2.381
 5494SOL    HW117381   5.135   3.096   2.369
 5494SOL    HW217382   5.048   3.003   2.471
 5495SOL     OW17383   3.800   2.965   3.837
 5495SOL    HW117384   3.789   2.963   3.738
 5495SOL    HW217385   3.723   3.016   3.878
 5496SOL     OW17386   5.020   5.806   1.834
 5496SOL    HW117387   4.936   5.791   1.886
 5496SOL    HW217388   5.050   5.719   1.794
 5497SOL     OW17389   5.806   0.167   0.617
 5497SOL    HW117390   5.745   0.166   0.538
 5497SOL    HW217391   5.757   0.200   0.698
 5498SOL     OW17392   4.837   1.499   4.478
 5498SOL    HW117393   4.746   1.527   4.447
 5498SOL    HW217394   4.872   1.427   4.419
 5499SOL     OW17395   0.220   0.711   5.106
 5499SOL    HW117396   0.288   0.780   5.081
 5499SOL    HW217397   0.128   0.751   5.102
 5500SOL     OW17398   2.195   6.607   0.665
 5500SOL    HW117399   2.129   6.537   0.638
 5500SOL    HW217400   2.286   6.567   0.674
 5501SOL     OW17401   3.227   0.556   2.624
 5501SOL    HW117402   3.321   0.523   2.627
 5501SOL    HW217403   3.193   0.551   2.530
 5502SOL     OW17404   4.543   3.491   0.692
 5502SOL    HW117405   4.554   3.583   0.731
 5502SOL    HW217406   4.484   3.437   0.752
 5503SOL     OW17407   0.374   6.761   4.049
 5503SOL    HW117408   0.462   6.719   4.027
 5503SOL    HW217409   0.351   6.744   4.145
 5504SOL     OW17410   2.946   2.182   4.766
 5504SOL    HW117411   3.018   2.234   4.812
 5504SOL    HW217412   2.856   2.212   4.800
 5505SOL     OW17413   3.226   4.853   0.592
 5505SOL    HW117414   3.158   4.841   0.665
 5505SOL    HW217415   3.260   4.947   0.594
 5506SOL     OW17416   0.483   6.664   5.750
 5506SOL    HW117417   0.414   6.667   5.679
 5506SOL    HW217418   0.546   6.588   5.733
 5507SOL     OW17419   3.053   5.078   5.542
 5507SOL    HW117420   2.978   5.122   5.493
 5507SOL    HW217421   3.130   5.063   5.480
 5508SOL     OW17422   0.995   0.446   5.454
 5508SOL    HW117423   0.977   0.348   5.463
 5508SOL    HW217424   0.999   0.471   5.358
 5509SOL     OW17425   6.607   7.018   6.673
 5509SOL    HW117426   6.560   6.938   6.636
 5509SOL    HW217427   6.548   0.044   6.738
 5510SOL     OW17428   6.591   0.290   6.506
 5510SOL    HW117429   6.616   0.202   6.546
 5510SOL    HW217430   6.674   0.344   6.491
 5511SOL     OW17431   0.096   2.795   1.642
 5511SOL    HW117432   0.108   2.867   1.574
 5511SOL    HW217433   0.047   2.831   1.721
 5512SOL     OW17434   6.440   0.862   0.227
 5512SOL    HW117435   6.494   0.945   0.230
 5512SOL    HW217436   6.482   0.792   0.286
 5513SOL     OW17437   2.607   5.939   5.124
 5513SOL    HW117438   2.605   5.877   5.045
 5513SOL    HW217439   2.652   6.024   5.097
 5514SOL     OW17440   6.194   5.809   3.573
 5514SOL    HW117441   6.120   5.870   3.601
 5514SOL    HW217442   6.271   5.864   3.539
 5515SOL     OW17443   6.845   4.219   3.052
 5515SOL    HW117444   6.861   4.122   3.035
 5515SOL    HW217445   6.833   4.234   3.150
 5516SOL     OW17446   1.152   2.157   0.192
 5516SOL    HW117447   1.127   2.217   0.116
 5516SOL    HW217448   1.157   2.063   0.159
 5517SOL     OW17449   2.819   1.010   2.569
 5517SOL    HW117450   2.868   0.931   2.532
 5517SOL    HW217451   2.885   1.073   2.612
 5518SOL     OW17452   5.536   4.165   5.368
 5518SOL    HW117453   5.608   4.230   5.343
 5518SOL    HW217454   5.519   4.102   5.292
 5519SOL     OW17455   5.295   3.910   2.837
 5519SOL    HW117456   5.232   3.833   2.833
 5519SOL    HW217457   5.252   3.990   2.795
 5520SOL     OW17458   1.835   2.334   0.948
 5520SOL    HW117459   1.804   2.298   1.036
 5520SOL    HW217460   1.837   2.434   0.951
 5521SOL     OW17461   5.208   5.294   6.877
 5521SOL    HW117462   5.284   5.349   6.913
 5521SOL    HW217463   5.194   5.315   6.781
 5522SOL     OW17464   2.264   2.197   2.113
 5522SOL    HW117465   2.310   2.146   2.040
 5522SOL    HW217466   2.325   2.269   2.146
 5523SOL     OW17467   3.580   0.036   1.627
 5523SOL    HW117468   3.566   7.015   1.717
 5523SOL    HW217469   3.506   0.100   1.609
 5524SOL     OW17470   6.203   6.108   6.021
 5524SOL    HW117471   6.205   6.205   6.042
 5524SOL    HW217472   6.109   6.074   6.026
 5525SOL     OW17473   6.474   5.745   3.293
 5525SOL    HW117474   6.520   5.744   3.382
 5525SOL    HW217475   6.377   5.765   3.306
 5526SOL     OW17476   4.738   2.891   4.888
 5526SOL    HW117477   4.763   2.980   4.850
 5526SOL    HW217478   4.676   2.844   4.825
 5527SOL     OW17479   2.007   3.736   6.976
 5527SOL    HW117480   1.921   3.712   6.931
 5527SOL    HW217481   2.051   3.810   6.925
 5528SOL     OW17482   6.571   3.261   2.932
 5528SOL    HW117483   6.575   3.162   2.946
 5528SOL    HW217484   6.518   3.304   3.005
 5529SOL     OW17485   1.402   0.935   3.965
 5529SOL    HW117486   1.443   0.992   4.036
 5529SOL    HW217487   1.328   0.880   4.004
 5530SOL     OW17488   6.431   2.937   0.182
 5530SOL    HW117489   6.440   2.880   0.263
 5530SOL    HW217490   6.349   2.993   0.189
 5531SOL     OW17491   1.958   3.036   0.124
 5531SOL    HW117492   1.992   2.946   0.151
 5531SOL    HW217493   1.959   3.098   0.202
 5532SOL     OW17494   2.358   2.192   1.214
 5532SOL    HW117495   2.412   2.160   1.137
 5532SOL    HW217496   2.337   2.289   1.203
 5533SOL     OW17497   3.648   0.446   0.649
 5533SOL    HW117498   3.740   0.485   0.651
 5533SOL    HW217499   3.640   0.376   0.720
 5534SOL     OW17500   0.275   4.055   5.304
 5534SOL    HW117501   0.338   4.048   5.226
 5534SOL    HW217502   0.300   4.133   5.361
 5535SOL     OW17503   5.674   3.897   3.671
 5535SOL    HW117504   5.670   3.934   3.579
 5535SOL    HW217505   5.610   3.947   3.730
 5536SOL     OW17506   2.917   0.687   4.093
 5536SOL    HW117507   2.834   0.737   4.117
 5536SOL    HW217508   2.973   0.741   4.030
 5537SOL     OW17509   3.998   0.912   4.990
 5537SOL    HW117510   3.969   0.822   5.021
 5537SOL    HW217511   4.058   0.953   5.059
 5538SOL     OW17512   5.535   2.006   2.674
 5538SOL    HW117513   5.507   2.083   2.617
 5538SOL    HW217514   5.454   1.954   2.702
 5539SOL     OW17515   2.527   0.152   6.855
 5539SOL    HW117516   2.572   0.068   6.826
 5539SOL    HW217517   2.485   0.138   6.945
 5540SOL     OW17518   5.592   6.806   5.562
 5540SOL    HW117519   5.493   6.795   5.561
 5540SOL    HW217520   5.617   6.889   5.511
 5541SOL     OW17521   4.356   3.064   7.002
 5541SOL    HW117522   4.321   3.153   0.010
 5541SOL    HW217523   4.284   3.015   6.952
 5542SOL     OW17524   4.819   4.541   0.233
 5542SOL    HW117525   4.845   4.445   0.229
 5542SOL    HW217526   4.720   4.548   0.250
 5543SOL     OW17527   1.022   0.363   6.420
 5543SOL    HW117528   1.094   0.354   6.489
 5543SOL    HW217529   0.975   0.276   6.408
 5544SOL     OW17530   3.862   4.875   0.439
 5544SOL    HW117531   3.874   4.910   0.532
 5544SOL    HW217532   3.815   4.787   0.442
 5545SOL     OW17533   5.047   0.899   3.156
 5545SOL    HW117534   5.106   0.830   3.199
 5545SOL    HW217535   5.071   0.908   3.060
 5546SOL     OW17536   7.018   5.157   4.376
 5546SOL    HW117537   0.084   5.127   4.414
 5546SOL    HW217538   6.944   5.126   4.435
 5547SOL     OW17539   5.180   2.001   4.965
 5547SOL    HW117540   5.148   1.915   4.925
 5547SOL    HW217541   5.279   2.005   4.961
 5548SOL     OW17542   0.565   4.240   4.993
 5548SOL    HW117543   0.634   4.277   4.932
 5548SOL    HW217544   0.590   4.147   5.019
 5549SOL     OW17545   3.503   3.381   0.529
 5549SOL    HW117546   3.449   3.303   0.561
 5549SOL    HW217547   3.599   3.368   0.554
 5550SOL     OW17548   2.387   4.282   1.891
 5550SOL    HW117549   2.450   4.349   1.931
 5550SOL    HW217550   2.324   4.250   1.962
 5551SOL     OW17551   2.032   5.080   2.681
 5551SOL    HW117552   2.069   4.999   2.635
 5551SOL    HW217553   1.932   5.077   2.677
 5552SOL     OW17554   0.896   0.392   0.122
 5552SOL    HW117555   0.938   0.429   0.039
 5552SOL    HW217556   0.832   0.319   0.096
 5553SOL     OW17557   5.418   0.398   0.029
 5553SOL    HW117558   5.347   0.328   0.015
 5553SOL    HW217559   5.499   0.374   6.998
 5554SOL     OW17560   6.718   2.301   1.588
 5554SOL    HW117561   6.711   2.250   1.502
 5554SOL    HW217562   6.646   2.272   1.650
 5555SOL     OW17563   1.209   5.055   1.832
 5555SOL    HW117564   1.309   5.056   1.831
 5555SOL    HW217565   1.176   4.962   1.817
 5556SOL     OW17566   6.944   0.949   4.537
 5556SOL    HW117567   6.984   0.978   4.624
 5556SOL    HW217568   6.914   1.029   4.485
 5557SOL     OW17569   3.855   6.099   3.239
 5557SOL    HW117570   3.954   6.097   3.252
 5557SOL    HW217571   3.832   6.058   3.151
 5558SOL     OW17572   4.765   4.236   0.004
 5558SOL    HW117573   4.808   4.224   6.936
 5558SOL    HW217574   4.668   4.257   7.014
 5559SOL     OW17575   3.684   1.060   2.686
 5559SOL    HW117576   3.749   0.987   2.708
 5559SOL    HW217577   3.728   1.148   2.700
 5560SOL     OW17578   0.071   5.286   3.856
 5560SOL    HW117579   0.047   5.225   3.931
 5560SOL    HW217580   0.100   5.374   3.893
 5561SOL     OW17581   3.821   6.883   3.434
 5561SOL    HW117582   3.800   6.972   3.395
 5561SOL    HW217583   3.882   6.894   3.513
 5562SOL     OW17584   3.726   3.636   0.621
 5562SOL    HW117585   3.812   3.674   0.656
 5562SOL    HW217586   3.746   3.563   0.556
 5563SOL     OW17587   2.508   4.594   2.473
 5563SOL    HW117588   2.596   4.626   2.436
 5563SOL    HW217589   2.448   4.568   2.397
 5564SOL     OW17590   4.733   0.065   6.312
 5564SOL    HW117591   4.638   0.096   6.319
 5564SOL    HW217592   4.772   0.056   6.403
 5565SOL     OW17593   3.613   1.527   6.054
 5565SOL    HW117594   3.643   1.438   6.090
 5565SOL    HW217595   3.669   1.552   5.976
 5566SOL     OW17596   1.245   4.886   5.933
 5566SOL    HW117597   1.163   4.868   5.879
 5566SOL    HW217598   1.222   4.945   6.010
 5567SOL     OW17599   0.606   4.690   0.145
 5567SOL    HW117600   0.703   4.668   0.158
 5567SOL    HW217601   0.582   4.679   0.049
 5568SOL     OW17602   4.782   4.780   1.575
 5568SOL    HW117603   4.806   4.877   1.570
 5568SOL    HW217604   4.861   4.728   1.609
 5569SOL     OW17605   2.421   2.567   2.801
 5569SOL    HW117606   2.422   2.566   2.901
 5569SOL    HW217607   2.457   2.480   2.767
 5570SOL     OW17608   6.853   3.731   1.669
 5570SOL    HW117609   6.757   3.751   1.652
 5570SOL    HW217610   6.896   3.699   1.584
 5571SOL     OW17611   6.661   4.835   1.085
 5571SOL    HW117612   6.576   4.806   1.041
 5571SOL    HW217613   6.694   4.762   1.145
 5572SOL     OW17614   1.698   4.374   4.907
 5572SOL    HW117615   1.621   4.371   4.843
 5572SOL    HW217616   1.666   4.351   4.999
 5573SOL     OW17617   3.437   4.910   3.941
 5573SOL    HW117618   3.517   4.865   3.903
 5573SOL    HW217619   3.449   5.009   3.939
 5574SOL     OW17620   0.855   1.924   5.107
 5574SOL    HW117621   0.930   1.990   5.101
 5574SOL    HW217622   0.872   1.862   5.184
 5575SOL     OW17623   0.217   0.224   1.778
 5575SOL    HW117624   0.279   0.146   1.766
 5575SOL    HW217625   0.195   0.263   1.688
 5576SOL     OW17626   1.573   5.207   3.359
 5576SOL    HW117627   1.505   5.184   3.428
 5576SOL    HW217628   1.530   5.207   3.268
 5577SOL     OW17629   1.738   3.008   6.175
 5577SOL    HW117630   1.778   3.098   6.158
 5577SOL    HW217631   1.676   2.985   6.099
 5578SOL     OW17632   3.639   4.127   3.791
 5578SOL    HW117633   3.570   4.076   3.843
 5578SOL    HW217634   3.615   4.224   3.792
 5579SOL     OW17635   6.513   2.995   2.168
 5579SOL    HW117636   6.509   3.084   2.123
 5579SOL    HW217637   6.602   2.952   2.150
 5580SOL     OW17638   5.805   1.950   5.558
 5580SOL    HW117639   5.869   2.024   5.580
 5580SOL    HW217640   5.839   1.864   5.596
 5581SOL     OW17641   1.242   2.858   6.635
 5581SOL    HW117642   1.262   2.791   6.563
 5581SOL    HW217643   1.328   2.887   6.677
 5582SOL     OW17644   2.696   2.681   5.990
 5582SOL    HW117645   2.604   2.654   6.016
 5582SOL    HW217646   2.719   2.644   5.900
 5583SOL     OW17647   5.738   0.148   0.926
 5583SOL    HW117648   5.666   0.206   0.886
 5583SOL    HW217649   5.767   0.187   1.014
 5584SOL     OW17650   1.689   3.439   4.432
 5584SOL    HW117651   1.721   3.506   4.499
 5584SOL    HW217652   1.747   3.444   4.350
 5585SOL     OW17653   5.282   5.104   1.928
 5585SOL    HW117654   5.237   5.170   1.989
 5585SOL    HW217655   5.380   5.102   1.948
 5586SOL     OW17656   0.706   4.863   0.413
 5586SOL    HW117657   0.802   4.843   0.395
 5586SOL    HW217658   0.656   4.778   0.427
 5587SOL     OW17659   6.471   0.400   6.260
 5587SOL    HW117660   6.506   0.489   6.290
 5587SOL    HW217661   6.483   0.333   6.333
 5588SOL     OW17662   3.555   6.771   1.241
 5588SOL    HW117663   3.534   6.792   1.337
 5588SOL    HW217664   3.576   6.855   1.192
 5589SOL     OW17665   6.497   4.849   5.894
 5589SOL    HW117666   6.415   4.822   5.944
 5589SOL    HW217667   6.507   4.948   5.897
 5590SOL     OW17668   6.116   5.463   3.183
 5590SOL    HW117669   6.210   5.462   3.149
 5590SOL    HW217670   6.053   5.432   3.111
 5591SOL     OW17671   5.300   1.385   1.698
 5591SOL    HW117672   5.348   1.411   1.782
 5591SOL    HW217673   5.296   1.285   1.691
 5592SOL     OW17674   0.554   4.645   3.139
 5592SOL    HW117675   0.640   4.685   3.109
 5592SOL    HW217676   0.503   4.713   3.193
 5593SOL     OW17677   0.589   3.677   0.556
 5593SOL    HW117678   0.670   3.650   0.607
 5593SOL    HW217679   0.538   3.596   0.528
 5594SOL     OW17680   6.526   1.948   5.971
 5594SOL    HW117681   6.606   1.919   6.025
 5594SOL    HW217682   6.551   1.952   5.875
 5595SOL     OW17683   0.746   2.219   0.162
 5595SOL    HW117684   0.737   2.266   0.074
 5595SOL    HW217685   0.656   2.211   0.205
 5596SOL     OW17686   3.283   5.714   3.665
 5596SOL    HW117687   3.224   5.758   3.596
 5596SOL    HW217688   3.361   5.773   3.684
 5597SOL     OW17689   4.977   3.354   2.283
 5597SOL    HW117690   4.962   3.278   2.220
 5597SOL    HW217691   4.966   3.440   2.234
 5598SOL     OW17692   5.189   0.923   5.104
 5598SOL    HW117693   5.258   0.953   5.038
 5598SOL    HW217694   5.185   0.823   5.105
 5599SOL     OW17695   1.135   0.534   3.230
 5599SOL    HW117696   1.063   0.497   3.288
 5599SOL    HW217697   1.144   0.633   3.246
 5600SOL     OW17698   1.854   2.689   5.235
 5600SOL    HW117699   1.823   2.706   5.142
 5600SOL    HW217700   1.954   2.696   5.240
 5601SOL     OW17701   2.541   0.848   5.872
 5601SOL    HW117702   2.461   0.802   5.835
 5601SOL    HW217703   2.536   0.946   5.851
 5602SOL     OW17704   1.475   0.745   0.433
 5602SOL    HW117705   1.413   0.701   0.498
 5602SOL    HW217706   1.569   0.718   0.453
 5603SOL     OW17707   6.021   4.837   5.649
 5603SOL    HW117708   6.053   4.745   5.670
 5603SOL    HW217709   6.025   4.853   5.551
 5604SOL     OW17710   5.729   1.491   5.907
 5604SOL    HW117711   5.749   1.446   5.994
 5604SOL    HW217712   5.697   1.423   5.841
 5605SOL     OW17713   1.276   2.071   6.614
 5605SOL    HW117714   1.212   2.143   6.585
 5605SOL    HW217715   1.223   1.994   6.649
 5606SOL     OW17716   5.810   0.098   3.002
 5606SOL    HW117717   5.846   0.115   2.910
 5606SOL    HW217718   5.733   0.159   3.019
 5607SOL     OW17719   6.008   0.502   0.969
 5607SOL    HW117720   6.019   0.566   0.893
 5607SOL    HW217721   6.026   0.409   0.936
 5608SOL     OW17722   3.839   6.589   5.283
 5608SOL    HW117723   3.813   6.494   5.264
 5608SOL    HW217724   3.933   6.591   5.318
 5609SOL     OW17725   1.123   5.451   5.452
 5609SOL    HW117726   1.096   5.547   5.440
 5609SOL    HW217727   1.045   5.397   5.483
 5610SOL     OW17728   4.614   0.539   6.314
 5610SOL    HW117729   4.695   0.565   6.367
 5610SOL    HW217730   4.597   0.442   6.326
 5611SOL     OW17731   1.974   4.468   3.904
 5611SOL    HW117732   2.024   4.444   3.987
 5611SOL    HW217733   1.878   4.483   3.927
 5612SOL     OW17734   2.824   6.796   4.827
 5612SOL    HW117735   2.801   6.876   4.773
 5612SOL    HW217736   2.906   6.753   4.790
 5613SOL     OW17737   3.772   5.151   1.600
 5613SOL    HW117738   3.728   5.222   1.655
 5613SOL    HW217739   3.866   5.177   1.580
 5614SOL     OW17740   4.832   2.052   4.029
 5614SOL    HW117741   4.732   2.053   4.024
 5614SOL    HW217742   4.869   2.106   3.954
 5615SOL     OW17743   1.714   1.461   1.707
 5615SOL    HW117744   1.720   1.406   1.623
 5615SOL    HW217745   1.725   1.557   1.684
 5616SOL     OW17746   1.869   0.266   4.794
 5616SOL    HW117747   1.910   0.193   4.849
 5616SOL    HW217748   1.865   0.237   4.698
 5617SOL     OW17749   0.706   0.707   5.328
 5617SOL    HW117750   0.701   0.745   5.421
 5617SOL    HW217751   0.714   0.782   5.262
 5618SOL     OW17752   6.983   4.510   3.121
 5618SOL    HW117753   6.957   4.547   3.210
 5618SOL    HW217754   6.912   4.448   3.088
 5619SOL     OW17755   2.061   3.951   5.107
 5619SOL    HW117756   2.149   3.984   5.072
 5619SOL    HW217757   2.045   3.857   5.075
 5620SOL     OW17758   4.311   1.313   6.741
 5620SOL    HW117759   4.265   1.401   6.741
 5620SOL    HW217760   4.393   1.317   6.798
 5621SOL     OW17761   2.431   2.158   6.340
 5621SOL    HW117762   2.516   2.163   6.391
 5621SOL    HW217763   2.407   2.062   6.324
 5622SOL     OW17764   5.451   0.624   5.163
 5622SOL    HW117765   5.464   0.554   5.234
 5622SOL    HW217766   5.473   0.714   5.201
 5623SOL     OW17767   0.686   5.992   0.273
 5623SOL    HW117768   0.647   6.004   0.365
 5623SOL    HW217769   0.678   5.896   0.246
 5624SOL     OW17770   0.414   4.061   2.106
 5624SOL    HW117771   0.474   4.047   2.185
 5624SOL    HW217772   0.443   4.142   2.056
 5625SOL     OW17773   6.306   2.380   5.720
 5625SOL    HW117774   6.286   2.284   5.737
 5625SOL    HW217775   6.244   2.416   5.651
 5626SOL     OW17776   4.987   6.109   4.020
 5626SOL    HW117777   5.055   6.085   3.952
 5626SOL    HW217778   5.033   6.128   4.107
 5627SOL     OW17779   1.071   6.523   1.016
 5627SOL    HW117780   1.092   6.471   1.099
 5627SOL    HW217781   1.005   6.472   0.961
 5628SOL     OW17782   1.637   1.616   4.332
 5628SOL    HW117783   1.700   1.566   4.273
 5628SOL    HW217784   1.561   1.651   4.277
 5629SOL     OW17785   3.721   2.910   3.093
 5629SOL    HW117786   3.748   2.893   2.998
 5629SOL    HW217787   3.752   3.001   3.120
 5630SOL     OW17788   6.710   4.218   1.558
 5630SOL    HW117789   6.808   4.203   1.568
 5630SOL    HW217790   6.691   4.256   1.467
 5631SOL     OW17791   5.476   1.438   6.028
 5631SOL    HW117792   5.517   1.505   5.966
 5631SOL    HW217793   5.500   1.346   5.999
 5632SOL     OW17794   2.728   2.662   6.945
 5632SOL    HW117795   2.774   2.595   7.004
 5632SOL    HW217796   2.708   2.745   6.997
 5633SOL     OW17797   0.210   3.062   5.505
 5633SOL    HW117798   0.121   3.015   5.511
 5633SOL    HW217799   0.272   3.007   5.449
 5634SOL     OW17800   5.364   5.956   4.691
 5634SOL    HW117801   5.432   5.900   4.739
 5634SOL    HW217802   5.300   5.896   4.643
 5635SOL     OW17803   3.556   1.790   5.705
 5635SOL    HW117804   3.579   1.886   5.724
 5635SOL    HW217805   3.457   1.777   5.712
 5636SOL     OW17806   3.903   6.448   4.575
 5636SOL    HW117807   3.985   6.504   4.591
 5636SOL    HW217808   3.877   6.403   4.661
 5637SOL     OW17809   6.192   0.257   3.083
 5637SOL    HW117810   6.247   0.182   3.046
 5637SOL    HW217811   6.119   0.220   3.140
 5638SOL     OW17812   5.989   3.688   6.992
 5638SOL    HW117813   5.981   3.614   6.924
 5638SOL    HW217814   6.084   3.720   6.994
 5639SOL     OW17815   3.805   0.375   0.215
 5639SOL    HW117816   3.849   0.439   0.151
 5639SOL    HW217817   3.868   0.299   0.234
 5640SOL     OW17818   1.751   0.027   2.684
 5640SOL    HW117819   1.677   6.983   2.694
 5640SOL    HW217820   1.825   0.004   2.748
 5641SOL     OW17821   6.196   5.690   4.304
 5641SOL    HW117822   6.206   5.593   4.280
 5641SOL    HW217823   6.281   5.723   4.344
 5642SOL     OW17824   1.966   2.149   0.255
 5642SOL    HW117825   1.994   2.245   0.260
 5642SOL    HW217826   2.046   2.091   0.238
 5643SOL     OW17827   5.351   2.030   6.408
 5643SOL    HW117828   5.317   1.994   6.321
 5643SOL    HW217829   5.439   1.987   6.430
 5644SOL     OW17830   2.769   0.708   5.922
 5644SOL    HW117831   2.751   0.611   5.941
 5644SOL    HW217832   2.691   0.748   5.875
 5645SOL     OW17833   5.647   3.761   4.869
 5645SOL    HW117834   5.710   3.698   4.822
 5645SOL    HW217835   5.560   3.763   4.821
 5646SOL     OW17836   1.195   4.336   2.789
 5646SOL    HW117837   1.200   4.325   2.690
 5646SOL    HW217838   1.288   4.340   2.827
 5647SOL     OW17839   5.905   6.659   2.713
 5647SOL    HW117840   5.873   6.750   2.742
 5647SOL    HW217841   5.948   6.666   2.623
 5648SOL     OW17842   4.824   6.073   3.627
 5648SOL    HW117843   4.777   6.051   3.542
 5648SOL    HW217844   4.876   5.993   3.657
 5649SOL     OW17845   1.073   6.736   4.090
 5649SOL    HW117846   1.100   6.823   4.048
 5649SOL    HW217847   1.154   6.692   4.130
 5650SOL     OW17848   6.551   4.080   6.106
 5650SOL    HW117849   6.549   4.099   6.007
 5650SOL    HW217850   6.461   4.098   6.145
 5651SOL     OW17851   2.850   1.184   0.274
 5651SOL    HW117852   2.915   1.183   0.198
 5651SOL    HW217853   2.769   1.131   0.249
 5652SOL     OW17854   0.337   5.854   2.767
 5652SOL    HW117855   0.407   5.870   2.837
 5652SOL    HW217856   0.254   5.904   2.791
 5653SOL     OW17857   0.368   0.009   2.413
 5653SOL    HW117858   0.313   0.082   2.455
 5653SOL    HW217859   0.324   7.002   2.328
 5654SOL     OW17860   2.972   6.086   5.255
 5654SOL    HW117861   3.023   6.154   5.202
 5654SOL    HW217862   3.016   6.072   5.343
 5655SOL     OW17863   5.272   2.609   5.151
 5655SOL    HW117864   5.256   2.708   5.144
 5655SOL    HW217865   5.192   2.560   5.114
 5656SOL     OW17866   6.691   3.450   0.270
 5656SOL    HW117867   6.651   3.400   0.193
 5656SOL    HW217868   6.626   3.452   0.346
 5657SOL     OW17869   5.422   5.652   4.787
 5657SOL    HW117870   5.378   5.624   4.702
 5657SOL    HW217871   5.521   5.659   4.771
 5658SOL     OW17872   2.529   3.135   5.586
 5658SOL    HW117873   2.540   3.200   5.510
 5658SOL    HW217874   2.461   3.170   5.650
 5659SOL     OW17875   2.431   4.330   0.036
 5659SOL    HW117876   2.507   4.283   0.082
 5659SOL    HW217877   2.447   4.330   6.959
 5660SOL     OW17878   4.550   0.290   5.483
 5660SOL    HW117879   4.602   0.369   5.514
 5660SOL    HW217880   4.546   0.222   5.556
 5661SOL     OW17881   0.645   5.719   5.870
 5661SOL    HW117882   0.609   5.812   5.875
 5661SOL    HW217883   0.634   5.684   5.777
 5662SOL     OW17884   2.921   6.462   1.343
 5662SOL    HW117885   2.991   6.534   1.348
 5662SOL    HW217886   2.966   6.373   1.337
 5663SOL     OW17887   1.211   3.441   5.671
 5663SOL    HW117888   1.256   3.400   5.750
 5663SOL    HW217889   1.221   3.540   5.674
 5664SOL     OW17890   4.606   4.796   4.624
 5664SOL    HW117891   4.693   4.826   4.664
 5664SOL    HW217892   4.579   4.709   4.665
 5665SOL     OW17893   1.929   1.597   0.815
 5665SOL    HW117894   1.901   1.501   0.809
 5665SOL    HW217895   1.891   1.637   0.899
 5666SOL     OW17896   6.091   2.679   4.965
 5666SOL    HW117897   6.169   2.742   4.974
 5666SOL    HW217898   6.080   2.654   4.869
 5667SOL     OW17899   2.768   4.708   4.218
 5667SOL    HW117900   2.820   4.737   4.138
 5667SOL    HW217901   2.818   4.731   4.301
 5668SOL     OW17902   4.860   3.870   3.995
 5668SOL    HW117903   4.899   3.858   4.087
 5668SOL    HW217904   4.847   3.780   3.953
 5669SOL     OW17905   5.285   4.550   6.095
 5669SOL    HW117906   5.339   4.466   6.084
 5669SOL    HW217907   5.342   4.629   6.075
 5670SOL     OW17908   1.562   2.773   3.757
 5670SOL    HW117909   1.587   2.867   3.732
 5670SOL    HW217910   1.643   2.715   3.755
 5671SOL     OW17911   6.639   5.283   3.275
 5671SOL    HW117912   6.548   5.282   3.315
 5671SOL    HW217913   6.634   5.254   3.179
 5672SOL     OW17914   5.079   3.009   4.937
 5672SOL    HW117915   5.010   3.056   4.882
 5672SOL    HW217916   5.145   2.964   4.877
 5673SOL     OW17917   1.058   1.901   0.350
 5673SOL    HW117918   0.971   1.914   0.303
 5673SOL    HW217919   1.131   1.949   0.301
 5674SOL     OW17920   2.148   5.372   5.020
 5674SOL    HW117921   2.148   5.272   5.022
 5674SOL    HW217922   2.193   5.404   4.937
 5675SOL     OW17923   2.635   2.451   1.040
 5675SOL    HW117924   2.581   2.456   0.956
 5675SOL    HW217925   2.732   2.449   1.016
 5676SOL     OW17926   3.665   1.279   1.933
 5676SOL    HW117927   3.652   1.183   1.958
 5676SOL    HW217928   3.575   1.320   1.914
 5677SOL     OW17929   0.505   1.711   6.375
 5677SOL    HW117930   0.570   1.715   6.299
 5677SOL    HW217931   0.424   1.764   6.351
 5678SOL     OW17932   3.534   2.083   2.243
 5678SOL    HW117933   3.453   2.140   2.233
 5678SOL    HW217934   3.610   2.123   2.192
 5679SOL     OW17935   0.153   4.407   5.590
 5679SOL    HW117936   0.081   4.338   5.601
 5679SOL    HW217937   0.239   4.370   5.625
 5680SOL     OW17938   0.282   5.716   4.989
 5680SOL    HW117939   0.236   5.651   5.049
 5680SOL    HW217940   0.241   5.712   4.898
 5681SOL     OW17941   1.510   3.855   3.843
 5681SOL    HW117942   1.438   3.919   3.873
 5681SOL    HW217943   1.592   3.869   3.899
 5682SOL     OW17944   2.165   4.463   1.326
 5682SOL    HW117945   2.157   4.455   1.425
 5682SOL    HW217946   2.142   4.375   1.283
 5683SOL     OW17947   6.878   0.455   6.195
 5683SOL    HW117948   6.835   0.486   6.279
 5683SOL    HW217949   6.897   0.534   6.136
 5684SOL     OW17950   2.188   3.102   4.931
 5684SOL    HW117951   2.255   3.087   5.004
 5684SOL    HW217952   2.203   3.036   4.858
 5685SOL     OW17953   2.563   1.273   2.304
 5685SOL    HW117954   2.662   1.284   2.294
 5685SOL    HW217955   2.532   1.319   2.387
 5686SOL     OW17956   5.205   5.420   6.039
 5686SOL    HW117957   5.150   5.502   6.055
 5686SOL    HW217958   5.147   5.339   6.046
 5687SOL     OW17959   2.357   6.917   6.054
 5687SOL    HW117960   2.342   6.843   6.121
 5687SOL    HW217961   2.287   6.912   5.983
 5688SOL     OW17962   2.000   1.856   3.082
 5688SOL    HW117963   2.046   1.844   2.994
 5688SOL    HW217964   1.947   1.940   3.081
 5689SOL     OW17965   0.592   2.654   1.473
 5689SOL    HW117966   0.573   2.658   1.375
 5689SOL    HW217967   0.539   2.581   1.514
 5690SOL     OW17968   3.231   5.209   6.967
 5690SOL    HW117969   3.268   5.231   6.877
 5690SOL    HW217970   3.304   5.216   0.013
 5691SOL     OW17971   4.573   2.333   3.445
 5691SOL    HW117972   4.654   2.370   3.400
 5691SOL    HW217973   4.587   2.236   3.465
 5692SOL     OW17974   6.183   4.392   1.686
 5692SOL    HW117975   6.202   4.295   1.698
 5692SOL    HW217976   6.263   4.446   1.714
 5693SOL     OW17977   4.268   0.331   1.745
 5693SOL    HW117978   4.192   0.365   1.799
 5693SOL    HW217979   4.316   0.259   1.795
 5694SOL     OW17980   0.565   0.294   1.786
 5694SOL    HW117981   0.571   0.231   1.708
 5694SOL    HW217982   0.540   0.243   1.868
 5695SOL     OW17983   2.853   1.140   1.894
 5695SOL    HW117984   2.843   1.175   1.801
 5695SOL    HW217985   2.762   1.131   1.937
 5696SOL     OW17986   0.398   0.280   4.066
 5696SOL    HW117987   0.350   0.271   4.153
 5696SOL    HW217988   0.496   0.270   4.080
 5697SOL     OW17989   6.715   2.339   6.873
 5697SOL    HW117990   6.643   2.371   6.811
 5697SOL    HW217991   6.678   2.331   6.966
 5698SOL     OW17992   3.391   2.085   4.628
 5698SOL    HW117993   3.363   2.002   4.579
 5698SOL    HW217994   3.348   2.086   4.719
 5699SOL     OW17995   2.148   3.066   2.391
 5699SOL    HW117996   2.233   3.118   2.377
 5699SOL    HW217997   2.071   3.129   2.400
 5700SOL     OW17998   6.548   0.225   2.814
 5700SOL    HW117999   6.484   0.212   2.890
 5700SOL    HW218000   6.566   0.137   2.770
 5701SOL     OW18001   1.302   0.976   0.596
 5701SOL    HW118002   1.359   0.945   0.520
 5701SOL    HW218003   1.211   1.001   0.561
 5702SOL     OW18004   1.932   6.847   4.744
 5702SOL    HW118005   2.006   6.847   4.677
 5702SOL    HW218006   1.901   6.753   4.760
 5703SOL     OW18007   0.348   2.904   6.078
 5703SOL    HW118008   0.329   2.952   5.993
 5703SOL    HW218009   0.377   2.971   6.148
 5704SOL     OW18010   3.761   5.261   4.409
 5704SOL    HW118011   3.744   5.330   4.480
 5704SOL    HW218012   3.711   5.178   4.431
 5705SOL     OW18013   6.367   0.766   5.597
 5705SOL    HW118014   6.316   0.819   5.665
 5705SOL    HW218015   6.459   0.746   5.632
 5706SOL     OW18016   5.121   1.900   1.465
 5706SOL    HW118017   5.179   1.888   1.546
 5706SOL    HW218018   5.040   1.952   1.490
 5707SOL     OW18019   6.070   5.280   1.114
 5707SOL    HW118020   6.052   5.374   1.145
 5707SOL    HW218021   6.071   5.219   1.193
 5708SOL     OW18022   5.072   6.066   2.021
 5708SOL    HW118023   4.976   6.036   2.021
 5708SOL    HW218024   5.124   6.009   1.957
 5709SOL     OW18025   0.292   2.891   2.709
 5709SOL    HW118026   0.195   2.913   2.700
 5709SOL    HW218027   0.318   2.826   2.638
 5710SOL     OW18028   4.590   1.485   0.375
 5710SOL    HW118029   4.561   1.581   0.370
 5710SOL    HW218030   4.527   1.434   0.434
 5711SOL     OW18031   4.818   1.658   2.593
 5711SOL    HW118032   4.786   1.569   2.560
 5711SOL    HW218033   4.825   1.721   2.515
 5712SOL     OW18034   5.840   6.070   0.026
 5712SOL    HW118035   5.764   6.125   7.013
 5712SOL    HW218036   5.927   6.111   7.020
 5713SOL     OW18037   1.687   0.919   0.827
 5713SOL    HW118038   1.620   0.993   0.820
 5713SOL    HW218039   1.640   0.832   0.841
 5714SOL     OW18040   6.293   0.065   0.704
 5714SOL    HW118041   6.220   0.011   0.661
 5714SOL    HW218042   6.343   0.115   0.634
 5715SOL     OW18043   0.187   6.848   1.607
 5715SOL    HW118044   0.160   6.878   1.698
 5715SOL    HW218045   0.218   6.926   1.554
 5716SOL     OW18046   0.466   4.683   5.190
 5716SOL    HW118047   0.467   4.583   5.186
 5716SOL    HW218048   0.401   4.718   5.122
 5717SOL     OW18049   0.426   5.576   3.533
 5717SOL    HW118050   0.517   5.598   3.496
 5717SOL    HW218051   0.382   5.508   3.474
 5718SOL     OW18052   1.031   4.063   6.719
 5718SOL    HW118053   0.991   4.012   6.642
 5718SOL    HW218054   1.036   4.003   6.799
 5719SOL     OW18055   2.835   3.712   0.508
 5719SOL    HW118056   2.775   3.745   0.581
 5719SOL    HW218057   2.804   3.622   0.478
 5720SOL     OW18058   3.655   5.181   5.964
 5720SOL    HW118059   3.717   5.178   5.886
 5720SOL    HW218060   3.621   5.089   5.982
 5721SOL     OW18061   2.087   2.796   0.213
 5721SOL    HW118062   2.057   2.734   0.140
 5721SOL    HW218063   2.181   2.774   0.239
 5722SOL     OW18064   1.873   0.228   6.364
 5722SOL    HW118065   1.912   0.311   6.324
 5722SOL    HW218066   1.872   0.238   6.464
 5723SOL     OW18067   4.262   3.309   0.625
 5723SOL    HW118068   4.346   3.288   0.576
 5723SOL    HW218069   4.283   3.356   0.710
 5724SOL     OW18070   5.712   2.087   5.996
 5724SOL    HW118071   5.687   2.051   5.907
 5724SOL    HW218072   5.760   2.017   6.049
 5725SOL     OW18073   6.819   4.331   5.110
 5725SOL    HW118074   6.751   4.399   5.135
 5725SOL    HW218075   6.847   4.280   5.192
 5726SOL     OW18076   5.140   4.293   2.147
 5726SOL    HW118077   5.235   4.322   2.142
 5726SOL    HW218078   5.080   4.372   2.128
 5727SOL     OW18079   1.243   2.761   4.985
 5727SOL    HW118080   1.160   2.737   4.934
 5727SOL    HW218081   1.253   2.699   5.063
 5728SOL     OW18082   3.320   6.828   5.575
 5728SOL    HW118083   3.234   6.831   5.523
 5728SOL    HW218084   3.324   6.744   5.628
 5729SOL     OW18085   2.422   2.006   4.613
 5729SOL    HW118086   2.520   2.001   4.598
 5729SOL    HW218087   2.374   1.984   4.527
 5730SOL     OW18088   6.280   4.251   4.861
 5730SOL    HW118089   6.377   4.259   4.841
 5730SOL    HW218090   6.228   4.254   4.776
 5731SOL     OW18091   0.549   6.514   2.794
 5731SOL    HW118092   0.577   6.571   2.717
 5731SOL    HW218093   0.627   6.498   2.854
 5732SOL     OW18094   6.401   0.768   3.248
 5732SOL    HW118095   6.474   0.768   3.317
 5732SOL    HW218096   6.376   0.674   3.226
 5733SOL     OW18097   2.844   0.964   4.981
 5733SOL    HW118098   2.837   1.063   4.986
 5733SOL    HW218099   2.758   0.926   4.947
 5734SOL     OW18100   1.730   6.675   3.456
 5734SOL    HW118101   1.635   6.680   3.488
 5734SOL    HW218102   1.786   6.626   3.522
 5735SOL     OW18103   2.983   0.846   1.264
 5735SOL    HW118104   2.895   0.855   1.218
 5735SOL    HW218105   3.056   0.843   1.195
 5736SOL     OW18106   1.440   5.122   0.617
 5736SOL    HW118107   1.391   5.039   0.642
 5736SOL    HW218108   1.533   5.119   0.653
 5737SOL     OW18109   5.731   3.986   0.168
 5737SOL    HW118110   5.695   4.011   0.079
 5737SOL    HW218111   5.655   3.969   0.231
 5738SOL     OW18112   0.635   4.663   4.719
 5738SOL    HW118113   0.610   4.616   4.803
 5738SOL    HW218114   0.597   4.613   4.641
 5739SOL     OW18115   0.796   2.900   1.036
 5739SOL    HW118116   0.836   2.903   1.127
 5739SOL    HW218117   0.745   2.815   1.024
 5740SOL     OW18118   4.067   4.747   6.899
 5740SOL    HW118119   4.044   4.809   6.824
 5740SOL    HW218120   3.990   4.741   6.962
 5741SOL     OW18121   0.264   3.117   1.761
 5741SOL    HW118122   0.208   3.068   1.694
 5741SOL    HW218123   0.333   3.171   1.713
 5742SOL     OW18124   0.408   5.813   3.708
 5742SOL    HW118125   0.429   5.795   3.805
 5742SOL    HW218126   0.412   5.727   3.657
 5743SOL     OW18127   1.522   6.251   5.380
 5743SOL    HW118128   1.570   6.338   5.383
 5743SOL    HW218129   1.585   6.180   5.348
 5744SOL     OW18130   5.893   0.120   1.405
 5744SOL    HW118131   5.804   0.165   1.404
 5744SOL    HW218132   5.882   0.027   1.443
 5745SOL     OW18133   1.194   3.218   3.318
 5745SOL    HW118134   1.186   3.161   3.399
 5745SOL    HW218135   1.102   3.240   3.284
 5746SOL     OW18136   6.623   4.181   6.916
 5746SOL    HW118137   6.620   4.280   6.904
 5746SOL    HW218138   6.618   4.136   6.827
 5747SOL     OW18139   0.921   6.373   3.624
 5747SOL    HW118140   0.961   6.284   3.604
 5747SOL    HW218141   0.975   6.420   3.694
 5748SOL     OW18142   1.826   0.137   3.722
 5748SOL    HW118143   1.781   0.106   3.638
 5748SOL    HW218144   1.842   0.236   3.718
 5749SOL     OW18145   1.671   1.233   3.100
 5749SOL    HW118146   1.708   1.323   3.078
 5749SOL    HW218147   1.669   1.222   3.200
 5750SOL     OW18148   5.983   6.443   2.308
 5750SOL    HW118149   5.981   6.402   2.399
 5750SOL    HW218150   6.079   6.458   2.281
 5751SOL     OW18151   0.811   3.010   5.946
 5751SOL    HW118152   0.732   3.030   5.888
 5751SOL    HW218153   0.836   3.092   5.998
 5752SOL     OW18154   1.201   1.572   6.406
 5752SOL    HW118155   1.214   1.473   6.399
 5752SOL    HW218156   1.222   1.615   6.318
 5753SOL     OW18157   4.586   1.773   0.434
 5753SOL    HW118158   4.666   1.793   0.377
 5753SOL    HW218159   4.504   1.813   0.393
 5754SOL     OW18160   5.997   5.655   0.087
 5754SOL    HW118161   6.067   5.701   0.141
 5754SOL    HW218162   5.978   5.565   0.126
 5755SOL     OW18163   3.351   3.704   1.527
 5755SOL    HW118164   3.368   3.638   1.600
 5755SOL    HW218165   3.285   3.772   1.559
 5756SOL     OW18166   6.937   6.200   4.207
 5756SOL    HW118167   6.873   6.215   4.131
 5756SOL    HW218168   6.983   6.112   4.194
 5757SOL     OW18169   6.768   6.274   2.337
 5757SOL    HW118170   6.822   6.247   2.258
 5757SOL    HW218171   6.681   6.226   2.337
 5758SOL     OW18172   2.632   1.496   5.645
 5758SOL    HW118173   2.630   1.585   5.601
 5758SOL    HW218174   2.692   1.499   5.725
 5759SOL     OW18175   0.746   1.499   5.927
 5759SOL    HW118176   0.774   1.537   5.839
 5759SOL    HW218177   0.682   1.423   5.911
 5760SOL     OW18178   6.694   6.103   1.061
 5760SOL    HW118179   6.765   6.168   1.035
 5760SOL    HW218180   6.726   6.010   1.043
 5761SOL     OW18181   4.732   0.481   4.809
 5761SOL    HW118182   4.741   0.543   4.732
 5761SOL    HW218183   4.671   0.405   4.784
 5762SOL     OW18184   5.844   6.225   1.182
 5762SOL    HW118185   5.889   6.309   1.152
 5762SOL    HW218186   5.751   6.247   1.213
 5763SOL     OW18187   2.494   1.039   0.630
 5763SOL    HW118188   2.486   1.104   0.554
 5763SOL    HW218189   2.403   1.004   0.652
 5764SOL     OW18190   4.377   3.104   6.413
 5764SOL    HW118191   4.330   3.090   6.500
 5764SOL    HW218192   4.381   3.017   6.363
 5765SOL     OW18193   6.509   5.542   0.002
 5765SOL    HW118194   6.491   5.533   0.100
 5765SOL    HW218195   6.455   5.617   6.986
 5766SOL     OW18196   2.821   1.146   3.445
 5766SOL    HW118197   2.915   1.161   3.474
 5766SOL    HW218198   2.785   1.230   3.404
 5767SOL     OW18199   5.359   0.096   0.302
 5767SOL    HW118200   5.426   0.129   0.236
 5767SOL    HW218201   5.385   0.004   0.333
 5768SOL     OW18202   6.498   6.927   2.036
 5768SOL    HW118203   6.544   6.885   1.957
 5768SOL    HW218204   6.567   6.966   2.097
 5769SOL     OW18205   1.963   4.859   3.403
 5769SOL    HW118206   2.055   4.888   3.377
 5769SOL    HW218207   1.952   4.761   3.385
 5770SOL     OW18208   5.475   2.373   1.783
 5770SOL    HW118209   5.382   2.343   1.800
 5770SOL    HW218210   5.539   2.303   1.814
 5771SOL     OW18211   1.169   1.365   1.212
 5771SOL    HW118212   1.172   1.318   1.300
 5771SOL    HW218213   1.115   1.449   1.221
 5772SOL     OW18214   6.517   5.309   5.507
 5772SOL    HW118215   6.606   5.315   5.552
 5772SOL    HW218216   6.520   5.360   5.421
 5773SOL     OW18217   5.702   5.659   4.705
 5773SOL    HW118218   5.707   5.744   4.652
 5773SOL    HW218219   5.775   5.658   4.773
 5774SOL     OW18220   2.525   4.894   2.251
 5774SOL    HW118221   2.549   4.902   2.348
 5774SOL    HW218222   2.596   4.842   2.203
 5775SOL     OW18223   0.756   0.825   0.619
 5775SOL    HW118224   0.671   0.817   0.671
 5775SOL    HW218225   0.740   0.878   0.536
 5776SOL     OW18226   4.853   1.145   5.539
 5776SOL    HW118227   4.819   1.113   5.450
 5776SOL    HW218228   4.784   1.129   5.609
 5777SOL     OW18229   5.946   6.945   4.999
 5777SOL    HW118230   6.009   7.016   5.032
 5777SOL    HW218231   5.865   6.989   4.960
 5778SOL     OW18232   2.784   6.954   3.907
 5778SOL    HW118233   2.770   6.874   3.966
 5778SOL    HW218234   2.879   6.984   3.913
 5779SOL     OW18235   4.120   6.912   1.121
 5779SOL    HW118236   4.089   6.917   1.216
 5779SOL    HW218237   4.062   6.970   1.064
 5780SOL     OW18238   6.242   4.094   0.566
 5780SOL    HW118239   6.265   4.017   0.624
 5780SOL    HW218240   6.294   4.089   0.481
 5781SOL     OW18241   3.427   4.294   5.247
 5781SOL    HW118242   3.339   4.303   5.294
 5781SOL    HW218243   3.488   4.367   5.275
 5782SOL     OW18244   4.171   1.499   3.281
 5782SOL    HW118245   4.127   1.587   3.259
 5782SOL    HW218246   4.125   1.458   3.359
 5783SOL     OW18247   3.180   5.943   2.649
 5783SOL    HW118248   3.085   5.953   2.619
 5783SOL    HW218249   3.230   5.887   2.583
 5784SOL     OW18250   1.378   6.184   0.650
 5784SOL    HW118251   1.314   6.117   0.687
 5784SOL    HW218252   1.339   6.276   0.658
 5785SOL     OW18253   2.268   2.593   6.388
 5785SOL    HW118254   2.182   2.640   6.409
 5785SOL    HW218255   2.263   2.499   6.423
 5786SOL     OW18256   0.672   1.991   5.841
 5786SOL    HW118257   0.761   1.964   5.877
 5786SOL    HW218258   0.661   2.090   5.849
 5787SOL     OW18259   0.541   2.660   4.544
 5787SOL    HW118260   0.602   2.674   4.466
 5787SOL    HW218261   0.522   2.562   4.553
 5788SOL     OW18262   0.455   2.019   1.895
 5788SOL    HW118263   0.380   1.956   1.874
 5788SOL    HW218264   0.437   2.063   1.983
 5789SOL     OW18265   2.654   6.509   0.109
 5789SOL    HW118266   2.612   6.450   0.040
 5789SOL    HW218267   2.753   6.509   0.098
 5790SOL     OW18268   0.033   6.569   2.895
 5790SOL    HW118269   0.067   6.662   2.910
 5790SOL    HW218270   0.105   6.503   2.915
 5791SOL     OW18271   4.273   0.607   1.188
 5791SOL    HW118272   4.178   0.597   1.217
 5791SOL    HW218273   4.305   0.699   1.209
 5792SOL     OW18274   5.137   2.272   2.486
 5792SOL    HW118275   5.066   2.251   2.553
 5792SOL    HW218276   5.173   2.364   2.503
 5793SOL     OW18277   3.921   1.736   0.228
 5793SOL    HW118278   3.906   1.825   0.269
 5793SOL    HW218279   3.859   1.724   0.150
 5794SOL     OW18280   3.102   6.004   0.043
 5794SOL    HW118281   3.103   5.904   0.050
 5794SOL    HW218282   3.183   6.035   7.014
 5795SOL     OW18283   1.123   0.435   0.925
 5795SOL    HW118284   1.031   0.457   0.958
 5795SOL    HW218285   1.173   0.520   0.907
 5796SOL     OW18286   4.853   0.686   5.846
 5796SOL    HW118287   4.766   0.733   5.835
 5796SOL    HW218288   4.838   0.598   5.891
 5797SOL     OW18289   6.766   2.165   0.313
 5797SOL    HW118290   6.741   2.259   0.289
 5797SOL    HW218291   6.740   2.103   0.239
 5798SOL     OW18292   1.998   2.803   4.621
 5798SOL    HW118293   1.902   2.823   4.644
 5798SOL    HW218294   2.011   2.704   4.616
 5799SOL     OW18295   2.783   0.206   3.554
 5799SOL    HW118296   2.747   0.269   3.485
 5799SOL    HW218297   2.728   0.212   3.637
 5800SOL     OW18298   1.156   6.331   2.070
 5800SOL    HW118299   1.162   6.283   2.157
 5800SOL    HW218300   1.129   6.268   1.998
 5801SOL     OW18301   1.622   1.909   2.846
 5801SOL    HW118302   1.578   1.898   2.757
 5801SOL    HW218303   1.557   1.886   2.918
 5802SOL     OW18304   6.794   6.699   2.892
 5802SOL    HW118305   6.877   6.645   2.894
 5802SOL    HW218306   6.811   6.788   2.934
 5803SOL     OW18307   0.755   6.874   4.061
 5803SOL    HW118308   0.815   6.798   4.035
 5803SOL    HW218309   0.692   6.843   4.132
 5804SOL     OW18310   6.188   1.685   3.658
 5804SOL    HW118311   6.184   1.744   3.577
 5804SOL    HW218312   6.095   1.656   3.683
 5805SOL     OW18313   1.135   2.760   1.548
 5805SOL    HW118314   1.049   2.719   1.518
 5805SOL    HW218315   1.181   2.697   1.611
 5806SOL     OW18316   6.649   3.785   2.051
 5806SOL    HW118317   6.676   3.871   2.095
 5806SOL    HW218318   6.731   3.731   2.032
 5807SOL     OW18319   1.518   1.472   1.893
 5807SOL    HW118320   1.577   1.451   1.815
 5807SOL    HW218321   1.424   1.483   1.860
 5808SOL     OW18322   6.744   0.160   5.856
 5808SOL    HW118323   6.706   0.112   5.935
 5808SOL    HW218324   6.691   0.137   5.774
 5809SOL     OW18325   0.222   3.570   4.554
 5809SOL    HW118326   0.198   3.605   4.644
 5809SOL    HW218327   0.145   3.518   4.517
 5810SOL     OW18328   1.313   6.628   5.312
 5810SOL    HW118329   1.226   6.579   5.305
 5810SOL    HW218330   1.319   6.696   5.240
 5811SOL     OW18331   3.524   4.906   0.110
 5811SOL    HW118332   3.503   4.974   0.181
 5811SOL    HW218333   3.523   4.950   0.020
 5812SOL     OW18334   6.746   3.802   6.073
 5812SOL    HW118335   6.703   3.810   6.163
 5812SOL    HW218336   6.763   3.706   6.052
 5813SOL     OW18337   6.226   4.827   1.216
 5813SOL    HW118338   6.133   4.859   1.202
 5813SOL    HW218339   6.291   4.901   1.197
 5814SOL     OW18340   5.308   1.461   2.806
 5814SOL    HW118341   5.295   1.454   2.707
 5814SOL    HW218342   5.233   1.414   2.853
 5815SOL     OW18343   6.180   3.644   4.921
 5815SOL    HW118344   6.194   3.629   5.019
 5815SOL    HW218345   6.240   3.583   4.869
 5816SOL     OW18346   6.560   4.472   0.973
 5816SOL    HW118347   6.535   4.496   0.880
 5816SOL    HW218348   6.499   4.519   1.037
 5817SOL     OW18349   6.480   2.581   4.257
 5817SOL    HW118350   6.504   2.676   4.278
 5817SOL    HW218351   6.554   2.520   4.286
 5818SOL     OW18352   2.504   6.933   4.071
 5818SOL    HW118353   2.462   6.859   4.018
 5818SOL    HW218354   2.476   6.926   4.166
 5819SOL     OW18355   3.860   4.162   0.827
 5819SOL    HW118356   3.950   4.120   0.838
 5819SOL    HW218357   3.864   4.231   0.755
 5820SOL     OW18358   0.594   6.660   2.572
 5820SOL    HW118359   0.534   6.608   2.512
 5820SOL    HW218360   0.610   6.751   2.534
 5821SOL     OW18361   6.476   6.522   2.403
 5821SOL    HW118362   6.511   6.465   2.477
 5821SOL    HW218363   6.426   6.600   2.442
 5822SOL     OW18364   0.644   4.445   2.914
 5822SOL    HW118365   0.573   4.513   2.934
 5822SOL    HW218366   0.660   4.389   2.996
 5823SOL     OW18367   2.549   6.224   4.902
 5823SOL    HW118368   2.465   6.169   4.898
 5823SOL    HW218369   2.551   6.288   4.825
 5824SOL     OW18370   2.233   5.545   2.288
 5824SOL    HW118371   2.228   5.552   2.387
 5824SOL    HW218372   2.329   5.538   2.259
 5825SOL     OW18373   4.120   1.951   5.029
 5825SOL    HW118374   4.049   1.933   4.962
 5825SOL    HW218375   4.209   1.953   4.984
 5826SOL     OW18376   1.347   6.435   5.027
 5826SOL    HW118377   1.264   6.485   5.003
 5826SOL    HW218378   1.427   6.495   5.014
 5827SOL     OW18379   2.065   3.702   2.827
 5827SOL    HW118380   2.102   3.767   2.760
 5827SOL    HW218381   2.107   3.718   2.916
 5828SOL     OW18382   4.444   6.957   4.957
 5828SOL    HW118383   4.421   6.862   4.935
 5828SOL    HW218384   4.414   6.977   5.050
 5829SOL     OW18385   2.349   0.932   2.961
 5829SOL    HW118386   2.315   1.009   2.908
 5829SOL    HW218387   2.272   0.873   2.987
 5830SOL     OW18388   4.343   5.228   4.459
 5830SOL    HW118389   4.300   5.243   4.370
 5830SOL    HW218390   4.431   5.274   4.462
 5831SOL     OW18391   2.145   1.377   4.630
 5831SOL    HW118392   2.047   1.357   4.622
 5831SOL    HW218393   2.158   1.466   4.673
 5832SOL     OW18394   2.230   4.856   3.964
 5832SOL    HW118395   2.217   4.907   3.879
 5832SOL    HW218396   2.201   4.761   3.950
 5833SOL     OW18397   2.936   4.814   0.974
 5833SOL    HW118398   2.892   4.809   1.064
 5833SOL    HW218399   2.966   4.907   0.957
 5834SOL     OW18400   5.975   1.960   6.056
 5834SOL    HW118401   6.002   1.878   6.006
 5834SOL    HW218402   6.040   1.975   6.131
 5835SOL     OW18403   4.277   1.331   3.963
 5835SOL    HW118404   4.178   1.343   3.953
 5835SOL    HW218405   4.314   1.290   3.880
 5836SOL     OW18406   5.020   4.846   1.353
 5836SOL    HW118407   4.925   4.832   1.324
 5836SOL    HW218408   5.022   4.906   1.433
 5837SOL     OW18409   2.796   4.658   0.379
 5837SOL    HW118410   2.895   4.654   0.394
 5837SOL    HW218411   2.762   4.567   0.354
 5838SOL     OW18412   3.034   3.012   0.510
 5838SOL    HW118413   3.034   2.918   0.476
 5838SOL    HW218414   3.127   3.049   0.510
 5839SOL     OW18415   2.527   1.317   1.556
 5839SOL    HW118416   2.463   1.293   1.484
 5839SOL    HW218417   2.477   1.338   1.640
 5840SOL     OW18418   6.798   3.869   2.863
 5840SOL    HW118419   6.749   3.820   2.936
 5840SOL    HW218420   6.785   3.821   2.776
 5841SOL     OW18421   4.963   2.042   0.534
 5841SOL    HW118422   4.867   2.066   0.549
 5841SOL    HW218423   4.985   1.957   0.582
 5842SOL     OW18424   3.878   2.136   2.555
 5842SOL    HW118425   3.798   2.187   2.523
 5842SOL    HW218426   3.910   2.175   2.641
 5843SOL     OW18427   3.047   3.298   1.100
 5843SOL    HW118428   3.146   3.288   1.092
 5843SOL    HW218429   3.026   3.349   1.184
 5844SOL     OW18430   0.083   5.379   4.845
 5844SOL    HW118431   0.161   5.389   4.783
 5844SOL    HW218432   0.036   5.293   4.827
 5845SOL     OW18433   2.102   6.109   2.799
 5845SOL    HW118434   2.052   6.041   2.852
 5845SOL    HW218435   2.083   6.201   2.836
 5846SOL     OW18436   0.466   4.643   5.679
 5846SOL    HW118437   0.395   4.713   5.687
 5846SOL    HW218438   0.553   4.679   5.712
 5847SOL     OW18439   1.900   4.371   6.156
 5847SOL    HW118440   1.947   4.283   6.161
 5847SOL    HW218441   1.811   4.359   6.113
 5848SOL     OW18442   2.924   6.161   1.914
 5848SOL    HW118443   2.915   6.116   2.003
 5848SOL    HW218444   2.874   6.247   1.915
 5849SOL     OW18445   2.925   5.883   6.515
 5849SOL    HW118446   2.941   5.908   6.610
 5849SOL    HW218447   2.903   5.786   6.510
 5850SOL     OW18448   5.659   2.198   1.856
 5850SOL    HW118449   5.728   2.139   1.898
 5850SOL    HW218450   5.703   2.258   1.790
 5851SOL     OW18451   1.089   3.313   5.277
 5851SOL    HW118452   1.126   3.249   5.210
 5851SOL    HW218453   1.123   3.405   5.257
 5852SOL     OW18454   4.408   4.677   2.776
 5852SOL    HW118455   4.311   4.697   2.786
 5852SOL    HW218456   4.422   4.622   2.694
 5853SOL     OW18457   4.153   5.168   0.123
 5853SOL    HW118458   4.149   5.076   0.162
 5853SOL    HW218459   4.206   5.166   0.038
 5854SOL     OW18460   2.800   4.575   5.422
 5854SOL    HW118461   2.868   4.540   5.487
 5854SOL    HW218462   2.838   4.574   5.330
 5855SOL     OW18463   1.638   1.990   4.783
 5855SOL    HW118464   1.725   1.958   4.820
 5855SOL    HW218465   1.628   2.088   4.801
 5856SOL     OW18466   0.646   0.284   2.510
 5856SOL    HW118467   0.640   0.185   2.527
 5856SOL    HW218468   0.637   0.301   2.412
 5857SOL     OW18469   5.870   5.317   6.809
 5857SOL    HW118470   5.952   5.344   6.759
 5857SOL    HW218471   5.893   5.300   6.905
 5858SOL     OW18472   2.951   1.369   2.784
 5858SOL    HW118473   3.014   1.444   2.801
 5858SOL    HW218474   2.898   1.389   2.701
 5859SOL     OW18475   5.549   5.134   2.002
 5859SOL    HW118476   5.571   5.188   1.921
 5859SOL    HW218477   5.631   5.125   2.059
 5860SOL     OW18478   1.709   3.452   2.167
 5860SOL    HW118479   1.806   3.429   2.174
 5860SOL    HW218480   1.675   3.426   2.076
 5861SOL     OW18481   5.516   0.049   5.238
 5861SOL    HW118482   5.527   6.977   5.204
 5861SOL    HW218483   5.602   0.098   5.226
 5862SOL     OW18484   6.752   5.009   2.375
 5862SOL    HW118485   6.720   4.929   2.425
 5862SOL    HW218486   6.755   4.989   2.278
 5863SOL     OW18487   3.801   0.249   5.881
 5863SOL    HW118488   3.785   0.157   5.917
 5863SOL    HW218489   3.844   0.242   5.791
 5864SOL     OW18490   3.454   3.465   3.390
 5864SOL    HW118491   3.476   3.544   3.447
 5864SOL    HW218492   3.539   3.419   3.363
 5865SOL     OW18493   5.865   6.382   1.428
 5865SOL    HW118494   5.875   6.466   1.375
 5865SOL    HW218495   5.895   6.304   1.374
 5866SOL     OW18496   3.424   3.621   3.790
 5866SOL    HW118497   3.472   3.688   3.734
 5866SOL    HW218498   3.441   3.638   3.887
 5867SOL     OW18499   4.400   1.364   0.592
 5867SOL    HW118500   4.386   1.278   0.543
 5867SOL    HW218501   4.430   1.344   0.686
 5868SOL     OW18502   1.047   1.143   1.015
 5868SOL    HW118503   0.976   1.113   0.951
 5868SOL    HW218504   1.004   1.188   1.093
 5869SOL     OW18505   2.326   5.157   3.062
 5869SOL    HW118506   2.327   5.255   3.045
 5869SOL    HW218507   2.380   5.136   3.143
 5870SOL     OW18508   4.337   6.724   4.665
 5870SOL    HW118509   4.374   6.816   4.651
 5870SOL    HW218510   4.354   6.668   4.584
 5871SOL     OW18511   3.866   3.402   3.592
 5871SOL    HW118512   3.956   3.399   3.637
 5871SOL    HW218513   3.852   3.317   3.541
 5872SOL     OW18514   3.109   5.799   1.177
 5872SOL    HW118515   3.182   5.828   1.116
 5872SOL    HW218516   3.130   5.828   1.270
 5873SOL     OW18517   4.136   6.177   1.740
 5873SOL    HW118518   4.170   6.262   1.701
 5873SOL    HW218519   4.200   6.144   1.809
 5874SOL     OW18520   6.882   4.067   4.828
 5874SOL    HW118521   6.837   4.139   4.776
 5874SOL    HW218522   6.827   3.983   4.824
 5875SOL     OW18523   3.901   2.318   1.065
 5875SOL    HW118524   3.818   2.300   1.118
 5875SOL    HW218525   3.956   2.235   1.061
 5876SOL     OW18526   3.406   2.933   2.639
 5876SOL    HW118527   3.471   3.009   2.644
 5876SOL    HW218528   3.414   2.889   2.549
 5877SOL     OW18529   5.289   4.290   1.774
 5877SOL    HW118530   5.230   4.210   1.784
 5877SOL    HW218531   5.371   4.278   1.830
 5878SOL     OW18532   1.115   3.776   2.212
 5878SOL    HW118533   1.199   3.722   2.208
 5878SOL    HW218534   1.047   3.729   2.268
 5879SOL     OW18535   2.107   4.304   4.402
 5879SOL    HW118536   2.033   4.338   4.460
 5879SOL    HW218537   2.191   4.296   4.456
 5880SOL     OW18538   2.898   5.210   6.257
 5880SOL    HW118539   2.977   5.242   6.308
 5880SOL    HW218540   2.919   5.210   6.159
 5881SOL     OW18541   1.700   6.474   3.943
 5881SOL    HW118542   1.644   6.417   4.003
 5881SOL    HW218543   1.796   6.465   3.969
 5882SOL     OW18544   4.680   0.407   2.879
 5882SOL    HW118545   4.775   0.433   2.864
 5882SOL    HW218546   4.664   0.315   2.842
 5883SOL     OW18547   1.410   2.996   5.010
 5883SOL    HW118548   1.447   3.020   4.920
 5883SOL    HW218549   1.364   2.907   5.004
 5884SOL     OW18550   0.079   1.038   2.758
 5884SOL    HW118551   0.109   0.943   2.763
 5884SOL    HW218552   0.014   1.057   2.831
 5885SOL     OW18553   5.162   6.890   0.399
 5885SOL    HW118554   5.252   6.847   0.409
 5885SOL    HW218555   5.159   6.975   0.451
 5886SOL     OW18556   5.806   1.436   6.409
 5886SOL    HW118557   5.801   1.533   6.436
 5886SOL    HW218558   5.765   1.380   6.481
 5887SOL     OW18559   3.807   6.160   2.923
 5887SOL    HW118560   3.865   6.160   2.841
 5887SOL    HW218561   3.799   6.067   2.958
 5888SOL     OW18562   6.828   6.494   2.475
 5888SOL    HW118563   6.776   6.428   2.421
 5888SOL    HW218564   6.847   6.456   2.566
 5889SOL     OW18565   2.970   0.090   6.795
 5889SOL    HW118566   2.969   0.147   6.713
 5889SOL    HW218567   2.892   0.114   6.853
 5890SOL     OW18568   4.013   4.958   6.159
 5890SOL    HW118569   4.039   5.032   6.098
 5890SOL    HW218570   3.952   4.895   6.111
 5891SOL     OW18571   1.254   3.409   6.061
 5891SOL    HW118572   1.281   3.324   6.107
 5891SOL    HW218573   1.299   3.487   6.106
 5892SOL     OW18574   1.938   6.086   2.575
 5892SOL    HW118575   2.000   6.097   2.653
 5892SOL    HW218576   1.849   6.127   2.597
 5893SOL     OW18577   1.713   2.398   2.610
 5893SOL    HW118578   1.711   2.496   2.626
 5893SOL    HW218579   1.787   2.357   2.664
 5894SOL     OW18580   1.474   3.670   4.206
 5894SOL    HW118581   1.511   3.580   4.225
 5894SOL    HW218582   1.545   3.728   4.166
 5895SOL     OW18583   5.617   4.373   2.987
 5895SOL    HW118584   5.666   4.431   3.053
 5895SOL    HW218585   5.548   4.319   3.034
 5896SOL     OW18586   5.078   2.846   5.904
 5896SOL    HW118587   5.144   2.898   5.958
 5896SOL    HW218588   5.048   2.901   5.826
 5897SOL     OW18589   4.190   5.363   0.834
 5897SOL    HW118590   4.209   5.322   0.745
 5897SOL    HW218591   4.178   5.291   0.903
 5898SOL     OW18592   2.798   6.658   3.062
 5898SOL    HW118593   2.866   6.715   3.108
 5898SOL    HW218594   2.748   6.713   2.995
 5899SOL     OW18595   5.081   0.845   3.738
 5899SOL    HW118596   5.067   0.941   3.763
 5899SOL    HW218597   4.992   0.798   3.737
 5900SOL     OW18598   3.843   5.051   2.028
 5900SOL    HW118599   3.750   5.021   2.005
 5900SOL    HW218600   3.899   5.052   1.945
 5901SOL     OW18601   2.952   6.022   4.455
 5901SOL    HW118602   2.905   6.044   4.369
 5901SOL    HW218603   2.916   5.936   4.491
 5902SOL     OW18604   6.060   2.579   0.149
 5902SOL    HW118605   6.107   2.494   0.127
 5902SOL    HW218606   6.118   2.635   0.209
 5903SOL     OW18607   0.179   2.449   6.010
 5903SOL    HW118608   0.114   2.393   6.061
 5903SOL    HW218609   0.256   2.393   5.980
 5904SOL     OW18610   1.890   2.702   2.135
 5904SOL    HW118611   1.979   2.747   2.136
 5904SOL    HW218612   1.827   2.754   2.077
 5905SOL     OW18613   0.276   4.385   2.232
 5905SOL    HW118614   0.214   4.339   2.296
 5905SOL    HW218615   0.357   4.418   2.282
 5906SOL     OW18616   0.336   0.390   2.907
 5906SOL    HW118617   0.367   0.371   3.001
 5906SOL    HW218618   0.321   0.305   2.858
 5907SOL     OW18619   2.437   0.512   2.906
 5907SOL    HW118620   2.341   0.495   2.930
 5907SOL    HW218621   2.457   0.471   2.817
 5908SOL     OW18622   0.741   2.574   5.791
 5908SOL    HW118623   0.651   2.611   5.815
 5908SOL    HW218624   0.755   2.584   5.692
 5909SOL     OW18625   6.139   4.638   6.976
 5909SOL    HW118626   6.191   4.560   7.010
 5909SOL    HW218627   6.203   4.708   6.942
 5910SOL     OW18628   1.151   1.410   3.846
 5910SOL    HW118629   1.124   1.371   3.758
 5910SOL    HW218630   1.133   1.343   3.919
 5911SOL     OW18631   6.693   5.962   0.118
 5911SOL    HW118632   6.741   6.034   0.067
 5911SOL    HW218633   6.710   5.974   0.216
 5912SOL     OW18634   0.617   0.288   3.544
 5912SOL    HW118635   0.520   0.265   3.541
 5912SOL    HW218636   0.635   0.345   3.624
 5913SOL     OW18637   6.801   2.807   1.204
 5913SOL    HW118638   6.882   2.765   1.244
 5913SOL    HW218639   6.724   2.797   1.267
 5914SOL     OW18640   0.846   6.781   0.984
 5914SOL    HW118641   0.787   6.862   0.983
 5914SOL    HW218642   0.791   6.700   1.005
 5915SOL     OW18643   4.085   0.610   5.329
 5915SOL    HW118644   4.096   0.511   5.345
 5915SOL    HW218645   3.991   0.637   5.351
 5916SOL     OW18646   1.424   0.465   2.357
 5916SOL    HW118647   1.436   0.425   2.266
 5916SOL    HW218648   1.374   0.551   2.349
 5917SOL     OW18649   3.073   2.741   0.443
 5917SOL    HW118650   3.135   2.749   0.364
 5917SOL    HW218651   3.006   2.670   0.425
 5918SOL     OW18652   3.290   6.840   3.840
 5918SOL    HW118653   3.352   6.846   3.919
 5918SOL    HW218654   3.343   6.826   3.757
 5919SOL     OW18655   2.920   3.296   4.324
 5919SOL    HW118656   2.968   3.360   4.264
 5919SOL    HW218657   2.828   3.280   4.290
 5920SOL     OW18658   0.787   0.773   5.791
 5920SOL    HW118659   0.725   0.764   5.713
 5920SOL    HW218660   0.842   0.691   5.800
 5921SOL     OW18661   2.639   4.782   0.080
 5921SOL    HW118662   2.569   4.722   0.041
 5921SOL    HW218663   2.656   4.756   0.175
 5922SOL     OW18664   5.272   2.082   2.605
 5922SOL    HW118665   5.317   2.015   2.547
 5922SOL    HW218666   5.228   2.152   2.549
 5923SOL     OW18667   6.204   0.689   2.834
 5923SOL    HW118668   6.286   0.747   2.838
 5923SOL    HW218669   6.122   0.747   2.836
 5924SOL     OW18670   6.657   6.529   3.585
 5924SOL    HW118671   6.559   6.535   3.603
 5924SOL    HW218672   6.683   6.433   3.574
 5925SOL     OW18673   4.805   0.848   0.775
 5925SOL    HW118674   4.774   0.761   0.813
 5925SOL    HW218675   4.856   0.899   0.844
 5926SOL     OW18676   5.557   3.052   3.165
 5926SOL    HW118677   5.555   2.957   3.194
 5926SOL    HW218678   5.651   3.079   3.143
 5927SOL     OW18679   0.569   6.324   1.462
 5927SOL    HW118680   0.616   6.236   1.463
 5927SOL    HW218681   0.632   6.395   1.495
 5928SOL     OW18682   3.027   0.228   0.120
 5928SOL    HW118683   3.072   0.156   0.067
 5928SOL    HW218684   2.933   0.239   0.090
 5929SOL     OW18685   1.290   0.992   0.994
 5929SOL    HW118686   1.352   1.036   1.057
 5929SOL    HW218687   1.206   1.045   0.986
 5930SOL     OW18688   1.069   4.263   2.095
 5930SOL    HW118689   0.988   4.277   2.039
 5930SOL    HW218690   1.066   4.171   2.135
 5931SOL     OW18691   4.638   5.984   3.818
 5931SOL    HW118692   4.706   6.013   3.750
 5931SOL    HW218693   4.657   6.029   3.905
 5932SOL     OW18694   3.482   6.501   0.412
 5932SOL    HW118695   3.478   6.508   0.313
 5932SOL    HW218696   3.543   6.571   0.449
 5933SOL     OW18697   6.474   5.678   4.426
 5933SOL    HW118698   6.558   5.684   4.372
 5933SOL    HW218699   6.492   5.629   4.511
 5934SOL     OW18700   2.722   3.649   0.134
 5934SOL    HW118701   2.750   3.743   0.114
 5934SOL    HW218702   2.771   3.616   0.214
 5935SOL     OW18703   0.949   0.165   5.509
 5935SOL    HW118704   0.940   0.129   5.603
 5935SOL    HW218705   1.036   0.136   5.471
 5936SOL     OW18706   3.495   2.988   2.365
 5936SOL    HW118707   3.458   2.955   2.278
 5936SOL    HW218708   3.517   3.085   2.357
 5937SOL     OW18709   0.655   3.149   0.355
 5937SOL    HW118710   0.587   3.103   0.298
 5937SOL    HW218711   0.735   3.173   0.299
 5938SOL     OW18712   0.853   3.781   4.083
 5938SOL    HW118713   0.906   3.862   4.108
 5938SOL    HW218714   0.891   3.701   4.130
 5939SOL     OW18715   4.463   1.129   5.530
 5939SOL    HW118716   4.471   1.101   5.626
 5939SOL    HW218717   4.393   1.201   5.522
 5940SOL     OW18718   5.085   4.950   1.823
 5940SOL    HW118719   5.161   5.008   1.854
 5940SOL    HW218720   5.034   4.918   1.902
 5941SOL     OW18721   0.475   1.887   3.346
 5941SOL    HW118722   0.443   1.873   3.439
 5941SOL    HW218723   0.416   1.954   3.300
 5942SOL     OW18724   4.997   2.488   6.537
 5942SOL    HW118725   4.985   2.420   6.609
 5942SOL    HW218726   4.917   2.487   6.476
 5943SOL     OW18727   1.697   4.663   1.183
 5943SOL    HW118728   1.607   4.622   1.166
 5943SOL    HW218729   1.744   4.613   1.256
 5944SOL     OW18730   6.239   3.944   5.965
 5944SOL    HW118731   6.332   3.906   5.972
 5944SOL    HW218732   6.227   4.014   6.035
 5945SOL     OW18733   6.644   6.515   4.180
 5945SOL    HW118734   6.670   6.578   4.107
 5945SOL    HW218735   6.593   6.565   4.250
 5946SOL     OW18736   1.996   3.368   6.840
 5946SOL    HW118737   2.016   3.300   6.769
 5946SOL    HW218738   1.897   3.382   6.845
 5947SOL     OW18739   3.716   3.379   4.573
 5947SOL    HW118740   3.748   3.461   4.620
 5947SOL    HW218741   3.730   3.299   4.633
 5948SOL     OW18742   4.754   3.837   1.713
 5948SOL    HW118743   4.802   3.785   1.643
 5948SOL    HW218744   4.754   3.934   1.688
 5949SOL     OW18745   1.298   4.335   3.413
 5949SOL    HW118746   1.360   4.273   3.365
 5949SOL    HW218747   1.247   4.390   3.347
 5950SOL     OW18748   2.571   6.696   4.292
 5950SOL    HW118749   2.569   6.655   4.201
 5950SOL    HW218750   2.485   6.745   4.309
 5951SOL     OW18751   6.624   3.200   6.302
 5951SOL    HW118752   6.673   3.120   6.266
 5951SOL    HW218753   6.649   3.281   6.250
 5952SOL     OW18754   3.890   4.030   1.801
 5952SOL    HW118755   3.880   3.934   1.830
 5952SOL    HW218756   3.808   4.081   1.827
 5953SOL     OW18757   6.587   3.422   6.133
 5953SOL    HW118758   6.534   3.380   6.059
 5953SOL    HW218759   6.668   3.465   6.095
 5954SOL     OW18760   2.137   4.900   3.709
 5954SOL    HW118761   2.040   4.881   3.698
 5954SOL    HW218762   2.183   4.889   3.621
 5955SOL     OW18763   3.764   3.133   0.104
 5955SOL    HW118764   3.724   3.047   0.138
 5955SOL    HW218765   3.810   3.115   0.016
 5956SOL     OW18766   4.486   2.796   6.080
 5956SOL    HW118767   4.555   2.863   6.107
 5956SOL    HW218768   4.522   2.704   6.096
 5957SOL     OW18769   6.282   2.110   3.736
 5957SOL    HW118770   6.346   2.052   3.686
 5957SOL    HW218771   6.262   2.192   3.682
 5958SOL     OW18772   2.499   6.215   2.870
 5958SOL    HW118773   2.469   6.156   2.945
 5958SOL    HW218774   2.531   6.302   2.906
 5959SOL     OW18775   5.610   3.563   3.296
 5959SOL    HW118776   5.614   3.478   3.244
 5959SOL    HW218777   5.524   3.567   3.348
 5960SOL     OW18778   5.903   0.422   6.608
 5960SOL    HW118779   5.804   0.416   6.597
 5960SOL    HW218780   5.941   0.489   6.545
 5961SOL     OW18781   3.252   2.160   4.033
 5961SOL    HW118782   3.339   2.114   4.048
 5961SOL    HW218783   3.244   2.185   3.936
 5962SOL     OW18784   4.524   4.523   0.251
 5962SOL    HW118785   4.452   4.579   0.294
 5962SOL    HW218786   4.520   4.430   0.287
 5963SOL     OW18787   1.476   4.295   0.592
 5963SOL    HW118788   1.516   4.345   0.668
 5963SOL    HW218789   1.523   4.208   0.580
 5964SOL     OW18790   1.987   0.395   2.943
 5964SOL    HW118791   1.893   0.372   2.969
 5964SOL    HW218792   1.986   0.474   2.882
 5965SOL     OW18793   2.422   0.568   0.985
 5965SOL    HW118794   2.419   0.530   1.077
 5965SOL    HW218795   2.380   0.504   0.920
 5966SOL     OW18796   2.439   1.999   4.870
 5966SOL    HW118797   2.525   2.038   4.906
 5966SOL    HW218798   2.439   2.005   4.770
 5967SOL     OW18799   4.497   2.332   5.502
 5967SOL    HW118800   4.519   2.383   5.585
 5967SOL    HW218801   4.550   2.246   5.500
 5968SOL     OW18802   6.241   1.964   3.008
 5968SOL    HW118803   6.212   1.979   3.102
 5968SOL    HW218804   6.324   2.018   2.990
 5969SOL     OW18805   5.128   6.970   1.106
 5969SOL    HW118806   5.074   6.943   1.026
 5969SOL    HW218807   5.209   6.913   1.112
 5970SOL     OW18808   6.560   2.490   0.360
 5970SOL    HW118809   6.478   2.488   0.418
 5970SOL    HW218810   6.639   2.460   0.413
 5971SOL     OW18811   6.755   5.489   3.509
 5971SOL    HW118812   6.784   5.476   3.414
 5971SOL    HW218813   6.828   5.458   3.570
 5972SOL     OW18814   5.969   4.898   1.146
 5972SOL    HW118815   5.907   4.969   1.114
 5972SOL    HW218816   5.916   4.818   1.175
 5973SOL     OW18817   3.290   1.090   2.406
 5973SOL    HW118818   3.339   1.006   2.426
 5973SOL    HW218819   3.342   1.168   2.442
 5974SOL     OW18820   6.136   0.917   4.858
 5974SOL    HW118821   6.037   0.911   4.867
 5974SOL    HW218822   6.167   1.009   4.881
 5975SOL     OW18823   4.552   5.156   1.411
 5975SOL    HW118824   4.537   5.199   1.500
 5975SOL    HW218825   4.465   5.120   1.376
 5976SOL     OW18826   1.197   4.381   5.236
 5976SOL    HW118827   1.233   4.350   5.148
 5976SOL    HW218828   1.271   4.389   5.302
 5977SOL     OW18829   6.753   5.470   1.153
 5977SOL    HW118830   6.800   5.537   1.211
 5977SOL    HW218831   6.765   5.379   1.193
 5978SOL     OW18832   2.922   3.799   6.183
 5978SOL    HW118833   3.011   3.840   6.162
 5978SOL    HW218834   2.935   3.701   6.201
 5979SOL     OW18835   6.140   6.669   1.108
 5979SOL    HW118836   6.179   6.676   1.017
 5979SOL    HW218837   6.214   6.658   1.175
 5980SOL     OW18838   3.103   2.695   0.736
 5980SOL    HW118839   3.112   2.780   0.788
 5980SOL    HW218840   3.131   2.710   0.642
 5981SOL     OW18841   2.954   2.554   1.195
 5981SOL    HW118842   3.051   2.566   1.220
 5981SOL    HW218843   2.913   2.485   1.254
 5982SOL     OW18844   5.232   2.529   1.236
 5982SOL    HW118845   5.292   2.507   1.159
 5982SOL    HW218846   5.277   2.595   1.296
 5983SOL     OW18847   6.865   1.365   3.251
 5983SOL    HW118848   6.859   1.340   3.348
 5983SOL    HW218849   6.844   1.463   3.241
 5984SOL     OW18850   6.010   6.133   2.955
 5984SOL    HW118851   5.936   6.075   2.923
 5984SOL    HW218852   5.974   6.222   2.981
 5985SOL     OW18853   0.169   4.046   2.622
 5985SOL    HW118854   0.205   3.967   2.573
 5985SOL    HW218855   0.244   4.095   2.666
 5986SOL     OW18856   3.895   3.468   3.196
 5986SOL    HW118857   3.863   3.560   3.221
 5986SOL    HW218858   3.960   3.436   3.265
 5987SOL     OW18859   6.803   5.985   4.345
 5987SOL    HW118860   6.855   5.981   4.260
 5987SOL    HW218861   6.865   6.001   4.422
 5988SOL     OW18862   1.199   2.915   0.389
 5988SOL    HW118863   1.127   2.955   0.445
 5988SOL    HW218864   1.176   2.926   0.292
 5989SOL     OW18865   1.943   6.776   5.702
 5989SOL    HW118866   1.935   6.687   5.657
 5989SOL    HW218867   1.859   6.828   5.688
 5990SOL     OW18868   2.394   4.059   1.699
 5990SOL    HW118869   2.467   4.082   1.635
 5990SOL    HW218870   2.403   4.116   1.781
 5991SOL     OW18871   5.734   1.420   0.586
 5991SOL    HW118872   5.762   1.385   0.675
 5991SOL    HW218873   5.705   1.516   0.596
 5992SOL     OW18874   2.635   4.949   3.429
 5992SOL    HW118875   2.612   5.018   3.498
 5992SOL    HW218876   2.558   4.885   3.420
 5993SOL     OW18877   5.430   2.182   0.707
 5993SOL    HW118878   5.360   2.173   0.636
 5993SOL    HW218879   5.410   2.261   0.764
 5994SOL     OW18880   0.262   3.589   0.195
 5994SOL    HW118881   0.222   3.567   0.284
 5994SOL    HW218882   0.188   3.599   0.128
 5995SOL     OW18883   5.492   3.275   1.253
 5995SOL    HW118884   5.528   3.296   1.343
 5995SOL    HW218885   5.467   3.178   1.248
 5996SOL     OW18886   3.028   0.189   2.196
 5996SOL    HW118887   2.989   0.240   2.119
 5996SOL    HW218888   2.972   0.109   2.215
 5997SOL     OW18889   6.187   0.484   3.923
 5997SOL    HW118890   6.256   0.459   3.856
 5997SOL    HW218891   6.218   0.565   3.974
 5998SOL     OW18892   6.036   6.046   6.417
 5998SOL    HW118893   6.127   6.005   6.415
 5998SOL    HW218894   5.999   6.044   6.510
 5999SOL     OW18895   5.459   3.619   1.149
 5999SOL    HW118896   5.394   3.639   1.075
 5999SOL    HW218897   5.524   3.550   1.118
 6000SOL     OW18898   0.890   4.831   1.076
 6000SOL    HW118899   0.900   4.928   1.097
 6000SOL    HW218900   0.887   4.819   0.977
 6001SOL     OW18901   6.834   5.728   5.031
 6001SOL    HW118902   6.838   5.803   5.098
 6001SOL    HW218903   6.842   5.765   4.939
 6002SOL     OW18904   5.415   4.720   4.764
 6002SOL    HW118905   5.461   4.804   4.734
 6002SOL    HW218906   5.438   4.702   4.860
 6003SOL     OW18907   2.638   2.264   5.304
 6003SOL    HW118908   2.648   2.170   5.271
 6003SOL    HW218909   2.698   2.325   5.252
 6004SOL     OW18910   5.360   3.344   5.126
 6004SOL    HW118911   5.436   3.334   5.062
 6004SOL    HW218912   5.382   3.416   5.192
 6005SOL     OW18913   3.873   3.984   0.336
 6005SOL    HW118914   3.967   3.978   0.370
 6005SOL    HW218915   3.834   3.892   0.332
 6006SOL     OW18916   3.227   6.309   6.832
 6006SOL    HW118917   3.130   6.292   6.814
 6006SOL    HW218918   3.238   6.341   6.926
 6007SOL     OW18919   2.761   6.606   5.025
 6007SOL    HW118920   2.831   6.665   4.985
 6007SOL    HW218921   2.701   6.660   5.084
 6008SOL     OW18922   1.989   4.283   6.471
 6008SOL    HW118923   1.995   4.192   6.431
 6008SOL    HW218924   1.898   4.320   6.457
 6009SOL     OW18925   3.557   5.475   2.732
 6009SOL    HW118926   3.495   5.438   2.800
 6009SOL    HW218927   3.624   5.406   2.705
 6010SOL     OW18928   0.159   4.629   5.056
 6010SOL    HW118929   0.213   4.704   5.015
 6010SOL    HW218930   0.064   4.637   5.027
 6011SOL     OW18931   5.202   1.878   3.283
 6011SOL    HW118932   5.251   1.817   3.220
 6011SOL    HW218933   5.155   1.949   3.231
 6012SOL     OW18934   6.496   1.162   6.104
 6012SOL    HW118935   6.443   1.189   6.184
 6012SOL    HW218936   6.458   1.207   6.023
 6013SOL     OW18937   5.709   1.364   2.447
 6013SOL    HW118938   5.799   1.367   2.492
 6013SOL    HW218939   5.650   1.434   2.487
 6014SOL     OW18940   3.525   3.750   4.080
 6014SOL    HW118941   3.490   3.738   4.173
 6014SOL    HW218942   3.620   3.717   4.076
 6015SOL     OW18943   6.097   6.851   4.130
 6015SOL    HW118944   6.003   6.872   4.105
 6015SOL    HW218945   6.142   6.933   4.165
 6016SOL     OW18946   4.386   2.259   4.898
 6016SOL    HW118947   4.318   2.294   4.964
 6016SOL    HW218948   4.408   2.164   4.921
 6017SOL     OW18949   1.445   1.783   5.055
 6017SOL    HW118950   1.516   1.837   5.100
 6017SOL    HW218951   1.393   1.733   5.124
 6018SOL     OW18952   2.868   1.557   3.861
 6018SOL    HW118953   2.962   1.589   3.874
 6018SOL    HW218954   2.855   1.471   3.911
 6019SOL     OW18955   6.805   4.604   6.321
 6019SOL    HW118956   6.764   4.689   6.287
 6019SOL    HW218957   6.738   4.530   6.313
 6020SOL     OW18958   0.645   5.442   5.433
 6020SOL    HW118959   0.608   5.409   5.346
 6020SOL    HW218960   0.726   5.498   5.415
 6021SOL     OW18961   5.476   0.445   3.215
 6021SOL    HW118962   5.548   0.400   3.162
 6021SOL    HW218963   5.495   0.434   3.312
 6022SOL     OW18964   6.442   2.803   1.574
 6022SOL    HW118965   6.413   2.897   1.561
 6022SOL    HW218966   6.365   2.741   1.556
 6023SOL     OW18967   4.728   6.753   2.426
 6023SOL    HW118968   4.672   6.835   2.439
 6023SOL    HW218969   4.709   6.686   2.498
 6024SOL     OW18970   0.268   5.780   6.817
 6024SOL    HW118971   0.362   5.799   6.790
 6024SOL    HW218972   0.247   5.683   6.800
 6025SOL     OW18973   3.135   0.812   5.516
 6025SOL    HW118974   3.080   0.886   5.479
 6025SOL    HW218975   3.075   0.740   5.550
 6026SOL     OW18976   5.748   5.638   3.195
 6026SOL    HW118977   5.816   5.614   3.264
 6026SOL    HW218978   5.750   5.736   3.179
 6027SOL     OW18979   5.702   5.002   6.274
 6027SOL    HW118980   5.739   4.952   6.352
 6027SOL    HW218981   5.686   5.097   6.299
 6028SOL     OW18982   5.913   6.096   6.033
 6028SOL    HW118983   5.840   6.082   5.966
 6028SOL    HW218984   5.881   6.068   6.124
 6029SOL     OW18985   3.176   1.902   2.702
 6029SOL    HW118986   3.256   1.851   2.734
 6029SOL    HW218987   3.121   1.844   2.642
 6030SOL     OW18988   6.193   3.341   4.886
 6030SOL    HW118989   6.143   3.341   4.972
 6030SOL    HW218990   6.133   3.310   4.812
 6031SOL     OW18991   6.858   6.594   4.406
 6031SOL    HW118992   6.836   6.499   4.383
 6031SOL    HW218993   6.862   6.649   4.322
 6032SOL     OW18994   3.475   6.848   2.947
 6032SOL    HW118995   3.487   6.748   2.949
 6032SOL    HW218996   3.463   6.882   3.041
 6033SOL     OW18997   1.002   1.476   2.632
 6033SOL    HW118998   0.928   1.447   2.571
 6033SOL    HW218999   1.034   1.566   2.603
 6034SOL     OW19000   0.619   0.268   0.398
 6034SOL    HW119001   0.631   0.170   0.415
 6034SOL    HW219002   0.685   0.319   0.453
 6035SOL     OW19003   2.353   0.314   2.487
 6035SOL    HW119004   2.306   0.226   2.482
 6035SOL    HW219005   2.322   0.373   2.413
 6036SOL     OW19006   6.317   3.106   0.554
 6036SOL    HW119007   6.315   3.204   0.571
 6036SOL    HW219008   6.382   3.062   0.615
 6037SOL     OW19009   4.621   1.119   5.801
 6037SOL    HW119010   4.645   1.216   5.792
 6037SOL    HW219011   4.522   1.110   5.810
 6038SOL     OW19012   1.672   1.300   5.954
 6038SOL    HW119013   1.687   1.398   5.944
 6038SOL    HW219014   1.672   1.276   6.051
 6039SOL     OW19015   3.990   3.177   3.836
 6039SOL    HW119016   4.030   3.206   3.923
 6039SOL    HW219017   3.934   3.095   3.851
 6040SOL     OW19018   0.823   2.066   0.588
 6040SOL    HW119019   0.844   2.099   0.496
 6040SOL    HW219020   0.735   2.103   0.617
 6041SOL     OW19021   0.521   3.022   5.002
 6041SOL    HW119022   0.601   3.026   4.943
 6041SOL    HW219023   0.549   3.003   5.096
 6042SOL     OW19024   2.636   5.879   3.518
 6042SOL    HW119025   2.594   5.906   3.604
 6042SOL    HW219026   2.722   5.928   3.505
 6043SOL     OW19027   2.187   6.614   2.241
 6043SOL    HW119028   2.146   6.575   2.323
 6043SOL    HW219029   2.134   6.694   2.213
 6044SOL     OW19030   0.216   3.248   0.490
 6044SOL    HW119031   0.170   3.161   0.469
 6044SOL    HW219032   0.196   3.274   0.585
 6045SOL     OW19033   5.293   1.000   3.973
 6045SOL    HW119034   5.291   0.901   3.957
 6045SOL    HW219035   5.378   1.038   3.934
 6046SOL     OW19036   3.618   3.476   2.735
 6046SOL    HW119037   3.579   3.555   2.687
 6046SOL    HW219038   3.648   3.504   2.826
 6047SOL     OW19039   0.086   1.429   0.201
 6047SOL    HW119040   0.035   1.464   0.122
 6047SOL    HW219041   0.025   1.424   0.280
 6048SOL     OW19042   5.856   5.911   2.929
 6048SOL    HW119043   5.924   5.840   2.909
 6048SOL    HW219044   5.770   5.889   2.885
 6049SOL     OW19045   5.157   4.997   6.226
 6049SOL    HW119046   5.110   4.916   6.194
 6049SOL    HW219047   5.132   5.016   6.321
 6050SOL     OW19048   2.710   5.274   3.096
 6050SOL    HW119049   2.690   5.371   3.088
 6050SOL    HW219050   2.715   5.233   3.005
 6051SOL     OW19051   0.592   1.216   2.521
 6051SOL    HW119052   0.496   1.222   2.490
 6051SOL    HW219053   0.638   1.144   2.468
 6052SOL     OW19054   5.426   5.360   0.419
 6052SOL    HW119055   5.330   5.389   0.411
 6052SOL    HW219056   5.439   5.273   0.373
 6053SOL     OW19057   4.023   2.363   6.578
 6053SOL    HW119058   4.089   2.400   6.644
 6053SOL    HW219059   4.069   2.294   6.521
 6054SOL     OW19060   4.264   3.774   0.678
 6054SOL    HW119061   4.349   3.767   0.729
 6054SOL    HW219062   4.279   3.744   0.583
 6055SOL     OW19063   3.131   4.175   1.452
 6055SOL    HW119064   3.046   4.144   1.410
 6055SOL    HW219065   3.126   4.162   1.551
 6056SOL     OW19066   5.322   5.740   3.299
 6056SOL    HW119067   5.346   5.824   3.347
 6056SOL    HW219068   5.319   5.758   3.200
 6057SOL     OW19069   5.788   1.078   3.733
 6057SOL    HW119070   5.723   1.007   3.760
 6057SOL    HW219071   5.753   1.126   3.652
 6058SOL     OW19072   0.003   2.466   5.769
 6058SOL    HW119073   0.086   2.461   5.824
 6058SOL    HW219074   0.026   2.453   5.672
 6059SOL     OW19075   3.801   2.506   6.995
 6059SOL    HW119076   3.823   2.413   6.967
 6059SOL    HW219077   3.740   2.547   6.927
 6060SOL     OW19078   2.216   2.532   0.527
 6060SOL    HW119079   2.214   2.585   0.611
 6060SOL    HW219080   2.255   2.587   0.453
 6061SOL     OW19081   3.071   4.060   6.922
 6061SOL    HW119082   3.095   3.973   6.967
 6061SOL    HW219083   3.015   4.115   6.984
 6062SOL     OW19084   2.161   2.134   6.216
 6062SOL    HW119085   2.084   2.185   6.177
 6062SOL    HW219086   2.219   2.197   6.267
 6063SOL     OW19087   4.770   3.840   6.335
 6063SOL    HW119088   4.711   3.907   6.290
 6063SOL    HW219089   4.806   3.879   6.420
 6064SOL     OW19090   5.449   6.192   0.703
 6064SOL    HW119091   5.364   6.174   0.654
 6064SOL    HW219092   5.433   6.189   0.801
 6065SOL     OW19093   2.599   6.295   1.596
 6065SOL    HW119094   2.647   6.240   1.527
 6065SOL    HW219095   2.530   6.352   1.551
 6066SOL     OW19096   5.702   5.800   2.346
 6066SOL    HW119097   5.753   5.757   2.420
 6066SOL    HW219098   5.750   5.883   2.317
 6067SOL     OW19099   0.105   5.809   5.580
 6067SOL    HW119100   0.141   5.843   5.667
 6067SOL    HW219101   0.177   5.813   5.510
 6068SOL     OW19102   4.797   1.877   4.721
 6068SOL    HW119103   4.736   1.810   4.764
 6068SOL    HW219104   4.780   1.968   4.759
 6069SOL     OW19105   0.416   4.847   5.957
 6069SOL    HW119106   0.369   4.843   5.869
 6069SOL    HW219107   0.496   4.787   5.954
 6070SOL     OW19108   2.730   1.171   0.703
 6070SOL    HW119109   2.709   1.187   0.800
 6070SOL    HW219110   2.648   1.134   0.658
 6071SOL     OW19111   6.020   0.587   6.115
 6071SOL    HW119112   6.111   0.591   6.158
 6071SOL    HW219113   6.016   0.653   6.040
 6072SOL     OW19114   6.515   3.117   6.996
 6072SOL    HW119115   6.456   3.067   0.037
 6072SOL    HW219116   6.514   3.214   7.019
 6073SOL     OW19117   4.623   3.771   1.055
 6073SOL    HW119118   4.659   3.680   1.075
 6073SOL    HW219119   4.527   3.765   1.029
 6074SOL     OW19120   0.954   6.259   2.770
 6074SOL    HW119121   0.964   6.161   2.787
 6074SOL    HW219122   0.896   6.273   2.689
 6075SOL     OW19123   6.042   0.158   6.952
 6075SOL    HW119124   6.096   0.220   6.895
 6075SOL    HW219125   6.081   0.066   6.948
 6076SOL     OW19126   0.638   6.554   3.732
 6076SOL    HW119127   0.540   6.544   3.716
 6076SOL    HW219128   0.675   6.623   3.670
 6077SOL     OW19129   4.898   5.806   2.675
 6077SOL    HW119130   4.800   5.825   2.682
 6077SOL    HW219131   4.947   5.857   2.745
 6078SOL     OW19132   4.894   4.459   0.750
 6078SOL    HW119133   4.907   4.539   0.809
 6078SOL    HW219134   4.982   4.432   0.712
 6079SOL     OW19135   3.436   2.035   0.399
 6079SOL    HW119136   3.364   2.023   0.468
 6079SOL    HW219137   3.451   1.949   0.351
 6080SOL     OW19138   0.274   3.459   5.668
 6080SOL    HW119139   0.253   3.547   5.711
 6080SOL    HW219140   0.211   3.445   5.591
 6081SOL     OW19141   1.871   4.020   3.574
 6081SOL    HW119142   1.830   4.027   3.483
 6081SOL    HW219143   1.887   4.111   3.611
 6082SOL     OW19144   5.295   1.349   1.280
 6082SOL    HW119145   5.327   1.348   1.185
 6082SOL    HW219146   5.224   1.280   1.292
 6083SOL     OW19147   5.082   6.852   6.440
 6083SOL    HW119148   5.119   6.774   6.491
 6083SOL    HW219149   5.157   6.900   6.394
 6084SOL     OW19150   6.327   5.089   3.181
 6084SOL    HW119151   6.391   5.015   3.201
 6084SOL    HW219152   6.321   5.151   3.259
 6085SOL     OW19153   0.818   6.746   0.719
 6085SOL    HW119154   0.828   6.759   0.818
 6085SOL    HW219155   0.749   6.677   0.701
 6086SOL     OW19156   3.185   3.524   0.000
 6086SOL    HW119157   3.198   3.508   6.924
 6086SOL    HW219158   3.271   3.506   0.048
 6087SOL     OW19159   4.377   6.678   0.672
 6087SOL    HW119160   4.402   6.756   0.729
 6087SOL    HW219161   4.277   6.670   0.669
 6088SOL     OW19162   4.375   6.068   2.441
 6088SOL    HW119163   4.305   6.071   2.369
 6088SOL    HW219164   4.361   6.144   2.505
 6089SOL     OW19165   6.496   3.944   2.975
 6089SOL    HW119166   6.406   3.966   3.013
 6089SOL    HW219167   6.485   3.907   2.883
 6090SOL     OW19168   3.864   5.864   5.315
 6090SOL    HW119169   3.796   5.928   5.280
 6090SOL    HW219170   3.910   5.905   5.394
 6091SOL     OW19171   0.504   1.946   2.349
 6091SOL    HW119172   0.550   1.978   2.432
 6091SOL    HW219173   0.405   1.954   2.361
 6092SOL     OW19174   2.768   7.008   1.417
 6092SOL    HW119175   2.732   6.915   1.429
 6092SOL    HW219176   2.700   0.043   1.371
 6093SOL     OW19177   2.496   2.639   1.903
 6093SOL    HW119178   2.453   2.555   1.871
 6093SOL    HW219179   2.521   2.695   1.824
 6094SOL     OW19180   0.738   6.670   5.447
 6094SOL    HW119181   0.811   6.729   5.413
 6094SOL    HW219182   0.772   6.617   5.525
 6095SOL     OW19183   5.331   5.238   2.316
 6095SOL    HW119184   5.346   5.257   2.413
 6095SOL    HW219185   5.390   5.298   2.262
 6096SOL     OW19186   5.024   6.008   2.814
 6096SOL    HW119187   5.089   6.069   2.860
 6096SOL    HW219188   4.931   6.028   2.847
 6097SOL     OW19189   2.828   5.156   2.377
 6097SOL    HW119190   2.891   5.225   2.414
 6097SOL    HW219191   2.796   5.186   2.287
 6098SOL     OW19192   6.371   0.586   5.393
 6098SOL    HW119193   6.470   0.569   5.384
 6098SOL    HW219194   6.355   0.648   5.469
 6099SOL     OW19195   3.952   0.273   5.657
 6099SOL    HW119196   4.045   0.298   5.686
 6099SOL    HW219197   3.956   0.191   5.600
 6100SOL     OW19198   0.512   5.694   5.197
 6100SOL    HW119199   0.553   5.608   5.168
 6100SOL    HW219200   0.439   5.719   5.133
 6101SOL     OW19201   0.395   2.619   1.907
 6101SOL    HW119202   0.296   2.606   1.896
 6101SOL    HW219203   0.415   2.714   1.928
 6102SOL     OW19204   3.510   0.355   2.913
 6102SOL    HW119205   3.502   0.432   2.975
 6102SOL    HW219206   3.564   0.283   2.956
 6103SOL     OW19207   6.154   1.153   2.506
 6103SOL    HW119208   6.219   1.078   2.493
 6103SOL    HW219209   6.084   1.125   2.572
 6104SOL     OW19210   6.826   1.315   4.473
 6104SOL    HW119211   6.825   1.315   4.373
 6104SOL    HW219212   6.911   1.358   4.505
 6105SOL     OW19213   4.293   4.418   5.727
 6105SOL    HW119214   4.334   4.505   5.699
 6105SOL    HW219215   4.340   4.342   5.682
 6106SOL     OW19216   6.206   4.344   5.112
 6106SOL    HW119217   6.115   4.309   5.133
 6106SOL    HW219218   6.242   4.298   5.031
 6107SOL     OW19219   5.604   5.000   5.539
 6107SOL    HW119220   5.646   4.968   5.624
 6107SOL    HW219221   5.646   4.955   5.461
 6108SOL     OW19222   2.488   1.418   6.349
 6108SOL    HW119223   2.456   1.456   6.262
 6108SOL    HW219224   2.466   1.482   6.423
 6109SOL     OW19225   0.372   6.119   3.968
 6109SOL    HW119226   0.386   6.176   3.888
 6109SOL    HW219227   0.321   6.170   4.038
 6110SOL     OW19228   1.432   1.055   4.518
 6110SOL    HW119229   1.378   0.992   4.462
 6110SOL    HW219230   1.488   1.112   4.458
 6111SOL     OW19231   2.104   3.511   0.581
 6111SOL    HW119232   2.194   3.474   0.555
 6111SOL    HW219233   2.042   3.506   0.502
 6112SOL     OW19234   4.626   6.394   3.878
 6112SOL    HW119235   4.670   6.312   3.915
 6112SOL    HW219236   4.594   6.376   3.785
 6113SOL     OW19237   3.086   5.288   0.519
 6113SOL    HW119238   3.061   5.349   0.595
 6113SOL    HW219239   3.053   5.328   0.433
 6114SOL     OW19240   4.377   2.797   0.947
 6114SOL    HW119241   4.392   2.712   0.997
 6114SOL    HW219242   4.384   2.780   0.849
 6115SOL     OW19243   0.330   0.511   4.962
 6115SOL    HW119244   0.295   0.599   4.996
 6115SOL    HW219245   0.324   0.443   5.035
 6116SOL     OW19246   5.983   3.579   0.493
 6116SOL    HW119247   5.968   3.627   0.406
 6116SOL    HW219248   5.908   3.514   0.507
 6117SOL     OW19249   2.054   2.276   1.581
 6117SOL    HW119250   2.109   2.358   1.571
 6117SOL    HW219251   2.021   2.269   1.676
 6118SOL     OW19252   5.491   0.617   1.906
 6118SOL    HW119253   5.431   0.568   1.970
 6118SOL    HW219254   5.442   0.632   1.820
 6119SOL     OW19255   0.447   1.319   6.965
 6119SOL    HW119256   0.510   1.387   6.927
 6119SOL    HW219257   0.443   1.329   0.043
 6120SOL     OW19258   3.063   0.109   4.037
 6120SOL    HW119259   3.140   0.149   4.086
 6120SOL    HW219260   2.981   0.165   4.051
 6121SOL     OW19261   2.136   1.878   5.587
 6121SOL    HW119262   2.123   1.808   5.516
 6121SOL    HW219263   2.218   1.931   5.567
 6122SOL     OW19264   5.016   4.769   5.176
 6122SOL    HW119265   4.952   4.715   5.121
 6122SOL    HW219266   5.051   4.844   5.121
 6123SOL     OW19267   6.067   1.393   5.055
 6123SOL    HW119268   6.000   1.369   4.985
 6123SOL    HW219269   6.147   1.332   5.047
 6124SOL     OW19270   2.586   5.361   3.925
 6124SOL    HW119271   2.685   5.372   3.937
 6124SOL    HW219272   2.540   5.375   4.013
 6125SOL     OW19273   3.269   1.567   5.773
 6125SOL    HW119274   3.330   1.498   5.812
 6125SOL    HW219275   3.224   1.530   5.692
 6126SOL     OW19276   6.132   3.184   6.630
 6126SOL    HW119277   6.045   3.172   6.678
 6126SOL    HW219278   6.128   3.268   6.575
 6127SOL     OW19279   5.444   1.697   3.120
 6127SOL    HW119280   5.423   1.722   3.026
 6127SOL    HW219281   5.381   1.625   3.152
 6128SOL     OW19282   5.587   5.803   6.780
 6128SOL    HW119283   5.495   5.822   6.813
 6128SOL    HW219284   5.588   5.712   6.737
 6129SOL     OW19285   3.284   5.838   2.881
 6129SOL    HW119286   3.234   5.881   2.805
 6129SOL    HW219287   3.221   5.784   2.936
 6130SOL     OW19288   5.676   3.017   0.035
 6130SOL    HW119289   5.609   3.054   0.099
 6130SOL    HW219290   5.631   2.998   6.969
 6131SOL     OW19291   6.632   2.130   3.207
 6131SOL    HW119292   6.633   2.155   3.304
 6131SOL    HW219293   6.604   2.034   3.198
 6132SOL     OW19294   4.187   6.654   6.347
 6132SOL    HW119295   4.270   6.631   6.295
 6132SOL    HW219296   4.205   6.643   6.445
 6133SOL     OW19297   0.973   2.030   2.814
 6133SOL    HW119298   0.944   2.046   2.908
 6133SOL    HW219299   1.071   2.049   2.805
 6134SOL     OW19300   0.320   6.725   5.533
 6134SOL    HW119301   0.330   6.816   5.493
 6134SOL    HW219302   0.234   6.684   5.502
 6135SOL     OW19303   6.658   0.117   0.500
 6135SOL    HW119304   6.707   0.079   0.579
 6135SOL    HW219305   6.684   0.213   0.488
 6136SOL     OW19306   1.104   2.071   3.838
 6136SOL    HW119307   1.078   1.990   3.785
 6136SOL    HW219308   1.070   2.060   3.932
 6137SOL     OW19309   7.020   4.637   1.070
 6137SOL    HW119310   7.015   4.599   0.977
 6137SOL    HW219311   0.033   4.731   1.066
 6138SOL     OW19312   5.324   0.687   2.281
 6138SOL    HW119313   5.412   0.732   2.288
 6138SOL    HW219314   5.267   0.711   2.360
 6139SOL     OW19315   1.747   1.434   4.960
 6139SOL    HW119316   1.812   1.362   4.933
 6139SOL    HW219317   1.767   1.517   4.907
 6140SOL     OW19318   2.000   6.994   2.838
 6140SOL    HW119319   2.020   7.010   2.934
 6140SOL    HW219320   2.038   0.046   2.783
 6141SOL     OW19321   0.991   1.318   7.018
 6141SOL    HW119322   1.054   1.314   0.074
 6141SOL    HW219323   0.897   1.323   0.030
 6142SOL     OW19324   6.129   0.249   1.331
 6142SOL    HW119325   6.121   0.333   1.276
 6142SOL    HW219326   6.039   0.220   1.361
 6143SOL     OW19327   0.414   3.237   5.574
 6143SOL    HW119328   0.341   3.171   5.555
 6143SOL    HW219329   0.373   3.324   5.604
 6144SOL     OW19330   3.608   5.188   2.434
 6144SOL    HW119331   3.671   5.248   2.483
 6144SOL    HW219332   3.643   5.094   2.435
 6145SOL     OW19333   4.972   2.998   3.663
 6145SOL    HW119334   4.885   2.951   3.679
 6145SOL    HW219335   4.992   3.058   3.740
 6146SOL     OW19336   5.921   0.281   5.471
 6146SOL    HW119337   6.008   0.326   5.452
 6146SOL    HW219338   5.918   0.254   5.568
 6147SOL     OW19339   1.189   2.260   5.568
 6147SOL    HW119340   1.141   2.257   5.656
 6147SOL    HW219341   1.122   2.255   5.494
 6148SOL     OW19342   3.648   5.337   6.948
 6148SOL    HW119343   3.664   5.418   6.890
 6148SOL    HW219344   3.620   5.261   6.890
 6149SOL     OW19345   3.934   1.695   1.928
 6149SOL    HW119346   3.994   1.637   1.982
 6149SOL    HW219347   3.843   1.654   1.922
 6150SOL     OW19348   0.012   4.244   4.973
 6150SOL    HW119349   6.944   4.277   5.002
 6150SOL    HW219350   0.001   4.167   4.911
 6151SOL     OW19351   3.939   5.009   2.955
 6151SOL    HW119352   3.943   4.975   3.049
 6151SOL    HW219353   3.958   4.934   2.891
 6152SOL     OW19354   1.481   3.907   3.107
 6152SOL    HW119355   1.529   3.854   3.037
 6152SOL    HW219356   1.462   3.850   3.186
 6153SOL     OW19357   4.957   5.767   0.983
 6153SOL    HW119358   5.015   5.805   1.055
 6153SOL    HW219359   4.991   5.676   0.957
 6154SOL     OW19360   5.161   3.885   2.462
 6154SOL    HW119361   5.063   3.896   2.447
 6154SOL    HW219362   5.212   3.943   2.400
 6155SOL     OW19363   1.881   1.210   3.902
 6155SOL    HW119364   1.799   1.233   3.849
 6155SOL    HW219365   1.915   1.120   3.873
 6156SOL     OW19366   5.387   4.255   2.389
 6156SOL    HW119367   5.477   4.243   2.346
 6156SOL    HW219368   5.315   4.228   2.325
 6157SOL     OW19369   0.636   3.100   1.100
 6157SOL    HW119370   0.606   3.033   1.169
 6157SOL    HW219371   0.689   3.053   1.029
 6158SOL     OW19372   2.944   1.863   5.397
 6158SOL    HW119373   3.010   1.832   5.464
 6158SOL    HW219374   2.975   1.949   5.357
 6159SOL     OW19375   5.680   2.764   0.270
 6159SOL    HW119376   5.746   2.811   0.211
 6159SOL    HW219377   5.604   2.825   0.291
 6160SOL     OW19378   0.900   0.452   1.338
 6160SOL    HW119379   0.813   0.437   1.385
 6160SOL    HW219380   0.971   0.398   1.382
 6161SOL     OW19381   4.579   3.649   6.979
 6161SOL    HW119382   4.614   3.657   6.886
 6161SOL    HW219383   4.600   3.732   0.008
 6162SOL     OW19384   6.531   5.758   2.038
 6162SOL    HW119385   6.434   5.743   2.060
 6162SOL    HW219386   6.542   5.762   1.938
 6163SOL     OW19387   6.295   5.970   2.589
 6163SOL    HW119388   6.335   5.950   2.679
 6163SOL    HW219389   6.307   5.892   2.529
 6164SOL     OW19390   3.093   3.896   3.999
 6164SOL    HW119391   3.151   3.975   4.018
 6164SOL    HW219392   3.139   3.836   3.933
 6165SOL     OW19393   3.420   1.716   0.100
 6165SOL    HW119394   3.516   1.698   0.078
 6165SOL    HW219395   3.396   1.669   0.185
 6166SOL     OW19396   3.075   2.102   6.473
 6166SOL    HW119397   3.112   2.020   6.429
 6166SOL    HW219398   3.005   2.075   6.540
 6167SOL     OW19399   1.677   3.417   3.012
 6167SOL    HW119400   1.654   3.403   2.916
 6167SOL    HW219401   1.766   3.462   3.019
 6168SOL     OW19402   0.572   3.480   4.108
 6168SOL    HW119403   0.500   3.534   4.150
 6168SOL    HW219404   0.570   3.386   4.143
 6169SOL     OW19405   2.214   0.836   6.786
 6169SOL    HW119406   2.128   0.852   6.738
 6169SOL    HW219407   2.287   0.888   6.742
 6170SOL     OW19408   2.918   4.491   0.965
 6170SOL    HW119409   2.861   4.438   1.028
 6170SOL    HW219410   2.862   4.523   0.888
 6171SOL     OW19411   2.165   3.768   1.844
 6171SOL    HW119412   2.184   3.755   1.942
 6171SOL    HW219413   2.089   3.832   1.833
 6172SOL     OW19414   2.789   5.491   2.329
 6172SOL    HW119415   2.858   5.456   2.265
 6172SOL    HW219416   2.784   5.590   2.322
 6173SOL     OW19417   1.627   5.896   2.334
 6173SOL    HW119418   1.705   5.883   2.273
 6173SOL    HW219419   1.631   5.830   2.408
 6174SOL     OW19420   5.737   4.723   2.122
 6174SOL    HW119421   5.637   4.723   2.128
 6174SOL    HW219422   5.770   4.816   2.106
 6175SOL     OW19423   5.316   0.356   3.526
 6175SOL    HW119424   5.260   0.274   3.519
 6175SOL    HW219425   5.262   0.431   3.563
 6176SOL     OW19426   4.969   3.105   6.451
 6176SOL    HW119427   5.031   3.183   6.446
 6176SOL    HW219428   4.885   3.125   6.400
 6177SOL     OW19429   6.837   2.932   2.506
 6177SOL    HW119430   6.881   2.986   2.435
 6177SOL    HW219431   6.744   2.966   2.521
 6178SOL     OW19432   5.742   3.410   2.000
 6178SOL    HW119433   5.665   3.347   1.991
 6178SOL    HW219434   5.808   3.393   1.927
 6179SOL     OW19435   0.447   1.758   5.018
 6179SOL    HW119436   0.529   1.810   4.994
 6179SOL    HW219437   0.410   1.793   5.104
 6180SOL     OW19438   3.429   0.089   6.163
 6180SOL    HW119439   3.450   0.003   6.116
 6180SOL    HW219440   3.414   0.072   6.260
 6181SOL     OW19441   4.086   6.152   6.668
 6181SOL    HW119442   3.992   6.188   6.670
 6181SOL    HW219443   4.091   6.071   6.725
 6182SOL     OW19444   5.127   6.521   6.041
 6182SOL    HW119445   5.146   6.619   6.044
 6182SOL    HW219446   5.205   6.474   5.998
 6183SOL     OW19447   3.456   0.923   2.796
 6183SOL    HW119448   3.505   0.873   2.868
 6183SOL    HW219449   3.521   0.971   2.738
 6184SOL     OW19450   5.858   0.174   6.549
 6184SOL    HW119451   5.872   0.160   6.451
 6184SOL    HW219452   5.886   0.267   6.574
 6185SOL     OW19453   1.283   3.177   5.812
 6185SOL    HW119454   1.215   3.111   5.843
 6185SOL    HW219455   1.371   3.155   5.853
 6186SOL     OW19456   5.103   6.947   4.521
 6186SOL    HW119457   5.146   0.004   4.477
 6186SOL    HW219458   5.107   6.868   4.461
 6187SOL     OW19459   3.143   4.860   4.984
 6187SOL    HW119460   3.074   4.790   5.004
 6187SOL    HW219461   3.117   4.946   5.026
 6188SOL     OW19462   2.998   0.089   1.531
 6188SOL    HW119463   2.912   0.060   1.489
 6188SOL    HW219464   3.023   0.025   1.604
 6189SOL     OW19465   5.244   4.498   3.274
 6189SOL    HW119466   5.175   4.571   3.272
 6189SOL    HW219467   5.204   4.415   3.312
 6190SOL     OW19468   5.200   2.647   5.737
 6190SOL    HW119469   5.147   2.720   5.782
 6190SOL    HW219470   5.178   2.644   5.640
 6191SOL     OW19471   6.312   2.362   6.433
 6191SOL    HW119472   6.346   2.274   6.466
 6191SOL    HW219473   6.234   2.347   6.372
 6192SOL     OW19474   3.198   1.969   0.552
 6192SOL    HW119475   3.184   1.874   0.525
 6192SOL    HW219476   3.238   1.973   0.643
 6193SOL     OW19477   6.146   6.602   1.443
 6193SOL    HW119478   6.239   6.619   1.410
 6193SOL    HW219479   6.123   6.670   1.512
 6194SOL     OW19480   1.708   0.614   0.457
 6194SOL    HW119481   1.656   0.539   0.497
 6194SOL    HW219482   1.802   0.584   0.439
 6195SOL     OW19483   2.743   6.806   5.879
 6195SOL    HW119484   2.773   6.883   5.935
 6195SOL    HW219485   2.696   6.739   5.938
 6196SOL     OW19486   0.122   1.363   5.754
 6196SOL    HW119487   0.101   1.452   5.794
 6196SOL    HW219488   0.094   1.362   5.658
 6197SOL     OW19489   2.274   3.074   0.636
 6197SOL    HW119490   2.181   3.097   0.664
 6197SOL    HW219491   2.330   3.056   0.718
 6198SOL     OW19492   3.781   4.995   2.440
 6198SOL    HW119493   3.734   4.926   2.494
 6198SOL    HW219494   3.842   4.951   2.375
 6199SOL     OW19495   0.860   0.762   6.142
 6199SOL    HW119496   0.834   0.737   6.235
 6199SOL    HW219497   0.920   0.842   6.145
 6200SOL     OW19498   3.963   0.833   6.083
 6200SOL    HW119499   3.903   0.777   6.139
 6200SOL    HW219500   3.909   0.900   6.032
 6201SOL     OW19501   2.302   4.336   3.871
 6201SOL    HW119502   2.309   4.327   3.970
 6201SOL    HW219503   2.259   4.423   3.848
 6202SOL     OW19504   2.885   2.677   1.582
 6202SOL    HW119505   2.793   2.665   1.546
 6202SOL    HW219506   2.950   2.623   1.529
 6203SOL     OW19507   5.541   2.309   5.108
 6203SOL    HW119508   5.467   2.310   5.176
 6203SOL    HW219509   5.616   2.253   5.142
 6204SOL     OW19510   1.674   6.628   6.173
 6204SOL    HW119511   1.656   6.530   6.183
 6204SOL    HW219512   1.683   6.651   6.076
 6205SOL     OW19513   5.028   6.417   0.136
 6205SOL    HW119514   5.127   6.402   0.132
 6205SOL    HW219515   4.981   6.342   0.090
 6206SOL     OW19516   5.650   0.125   3.344
 6206SOL    HW119517   5.559   0.085   3.332
 6206SOL    HW219518   5.687   0.152   3.255
 6207SOL     OW19519   1.973   4.372   4.626
 6207SOL    HW119520   2.063   4.375   4.668
 6207SOL    HW219521   1.905   4.408   4.689
 6208SOL     OW19522   5.676   5.948   5.933
 6208SOL    HW119523   5.591   5.991   5.964
 6208SOL    HW219524   5.711   5.888   6.006
 6209SOL     OW19525   3.201   5.094   0.939
 6209SOL    HW119526   3.245   5.178   0.907
 6209SOL    HW219527   3.105   5.095   0.911
 6210SOL     OW19528   6.852   4.940   2.829
 6210SOL    HW119529   6.760   4.952   2.791
 6210SOL    HW219530   6.913   4.905   2.758
 6211SOL     OW19531   2.569   0.280   4.947
 6211SOL    HW119532   2.520   0.355   4.990
 6211SOL    HW219533   2.557   0.283   4.848
 6212SOL     OW19534   6.851   0.034   3.823
 6212SOL    HW119535   6.907   0.059   3.744
 6212SOL    HW219536   6.754   0.046   3.801
 6213SOL     OW19537   6.740   0.356   0.192
 6213SOL    HW119538   6.771   0.435   0.139
 6213SOL    HW219539   6.802   0.342   0.270
 6214SOL     OW19540   5.960   5.164   2.558
 6214SOL    HW119541   5.943   5.100   2.483
 6214SOL    HW219542   5.917   5.129   2.641
 6215SOL     OW19543   2.420   5.284   1.132
 6215SOL    HW119544   2.510   5.316   1.164
 6215SOL    HW219545   2.432   5.205   1.073
 6216SOL     OW19546   6.795   2.080   2.664
 6216SOL    HW119547   6.771   2.170   2.699
 6216SOL    HW219548   6.895   2.069   2.665
 6217SOL     OW19549   5.147   2.447   1.531
 6217SOL    HW119550   5.145   2.432   1.432
 6217SOL    HW219551   5.071   2.506   1.557
 6218SOL     OW19552   3.936   4.884   4.483
 6218SOL    HW119553   3.843   4.908   4.455
 6218SOL    HW219554   3.972   4.955   4.543
 6219SOL     OW19555   0.612   1.472   4.032
 6219SOL    HW119556   0.696   1.450   3.983
 6219SOL    HW219557   0.556   1.533   3.976
 6220SOL     OW19558   1.632   3.990   5.205
 6220SOL    HW119559   1.572   3.979   5.284
 6220SOL    HW219560   1.621   3.912   5.144
 6221SOL     OW19561   4.475   5.008   4.341
 6221SOL    HW119562   4.405   4.985   4.409
 6221SOL    HW219563   4.519   5.094   4.365
 6222SOL     OW19564   0.418   1.611   1.338
 6222SOL    HW119565   0.494   1.657   1.384
 6222SOL    HW219566   0.373   1.549   1.402
 6223SOL     OW19567   5.120   3.914   4.599
 6223SOL    HW119568   5.116   3.833   4.540
 6223SOL    HW219569   5.186   3.898   4.673
 6224SOL     OW19570   2.540   0.326   4.670
 6224SOL    HW119571   2.629   0.355   4.635
 6224SOL    HW219572   2.469   0.351   4.605
 6225SOL     OW19573   4.127   2.079   6.731
 6225SOL    HW119574   4.109   2.095   6.634
 6225SOL    HW219575   4.054   2.024   6.770
 6226SOL     OW19576   6.474   6.558   4.384
 6226SOL    HW119577   6.405   6.486   4.372
 6226SOL    HW219578   6.433   6.647   4.368
 6227SOL     OW19579   2.794   4.707   6.845
 6227SOL    HW119580   2.755   4.743   6.930
 6227SOL    HW219581   2.722   4.701   6.776
 6228SOL     OW19582   6.857   1.180   2.499
 6228SOL    HW119583   6.830   1.137   2.585
 6228SOL    HW219584   6.902   1.112   2.440
 6229SOL     OW19585   1.376   2.292   1.987
 6229SOL    HW119586   1.423   2.266   2.071
 6229SOL    HW219587   1.285   2.327   2.009
 6230SOL     OW19588   1.999   2.207   3.325
 6230SOL    HW119589   2.042   2.157   3.250
 6230SOL    HW219590   2.025   2.304   3.319
 6231SOL     OW19591   6.807   5.337   1.732
 6231SOL    HW119592   6.850   5.394   1.662
 6231SOL    HW219593   6.729   5.385   1.772
 6232SOL     OW19594   1.089   1.450   6.667
 6232SOL    HW119595   1.022   1.503   6.719
 6232SOL    HW219596   1.103   1.493   6.577
 6233SOL     OW19597   4.504   1.534   6.433
 6233SOL    HW119598   4.450   1.615   6.410
 6233SOL    HW219599   4.443   1.458   6.457
 6234SOL     OW19600   1.673   2.632   3.426
 6234SOL    HW119601   1.639   2.722   3.399
 6234SOL    HW219602   1.650   2.615   3.521
 6235SOL     OW19603   2.007   5.926   3.029
 6235SOL    HW119604   1.949   5.958   3.104
 6235SOL    HW219605   1.949   5.891   2.955
 6236SOL     OW19606   6.768   3.943   0.350
 6236SOL    HW119607   6.692   3.899   0.398
 6236SOL    HW219608   6.732   4.015   0.290
 6237SOL     OW19609   3.628   6.175   6.945
 6237SOL    HW119610   3.597   6.201   6.853
 6237SOL    HW219611   3.647   6.077   6.947
 6238SOL     OW19612   4.480   4.044   0.944
 6238SOL    HW119613   4.503   4.108   0.871
 6238SOL    HW219614   4.560   3.988   0.965
 6239SOL     OW19615   2.266   0.147   3.726
 6239SOL    HW119616   2.236   0.233   3.685
 6239SOL    HW219617   2.326   0.167   3.803
 6240SOL     OW19618   1.944   3.514   0.357
 6240SOL    HW119619   2.018   3.558   0.306
 6240SOL    HW219620   1.873   3.483   0.293
 6241SOL     OW19621   4.822   0.205   1.466
 6241SOL    HW119622   4.810   0.181   1.562
 6241SOL    HW219623   4.737   0.190   1.417
 6242SOL     OW19624   3.812   2.140   3.675
 6242SOL    HW119625   3.713   2.149   3.680
 6242SOL    HW219626   3.848   2.117   3.765
 6243SOL     OW19627   5.549   5.529   3.046
 6243SOL    HW119628   5.589   5.574   3.126
 6243SOL    HW219629   5.477   5.586   3.008
 6244SOL     OW19630   1.959   1.925   2.192
 6244SOL    HW119631   1.973   1.940   2.094
 6244SOL    HW219632   2.001   1.999   2.244
 6245SOL     OW19633   2.227   3.560   1.038
 6245SOL    HW119634   2.201   3.654   1.061
 6245SOL    HW219635   2.295   3.562   0.965
 6246SOL     OW19636   4.348   0.700   7.002
 6246SOL    HW119637   4.340   0.799   6.997
 6246SOL    HW219638   4.419   0.676   0.048
 6247SOL     OW19639   6.717   6.044   2.930
 6247SOL    HW119640   6.813   6.023   2.909
 6247SOL    HW219641   6.682   5.976   2.995
 6248SOL     OW19642   1.082   5.421   1.151
 6248SOL    HW119643   0.990   5.394   1.123
 6248SOL    HW219644   1.087   5.423   1.251
 6249SOL     OW19645   5.669   4.290   6.485
 6249SOL    HW119646   5.634   4.382   6.467
 6249SOL    HW219647   5.705   4.286   6.579
 6250SOL     OW19648   6.013   5.172   5.779
 6250SOL    HW119649   6.051   5.079   5.783
 6250SOL    HW219650   6.050   5.226   5.855
 6251SOL     OW19651   4.542   1.757   0.772
 6251SOL    HW119652   4.492   1.763   0.686
 6251SOL    HW219653   4.506   1.680   0.826
 6252SOL     OW19654   1.967   6.177   5.385
 6252SOL    HW119655   2.029   6.255   5.394
 6252SOL    HW219656   2.016   6.100   5.346
 6253SOL     OW19657   2.531   4.112   1.464
 6253SOL    HW119658   2.502   4.064   1.382
 6253SOL    HW219659   2.606   4.175   1.442
 6254SOL     OW19660   5.151   0.249   0.299
 6254SOL    HW119661   5.180   0.340   0.330
 6254SOL    HW219662   5.230   0.189   0.295
 6255SOL     OW19663   0.004   2.159   3.208
 6255SOL    HW119664   6.952   2.112   3.254
 6255SOL    HW219665   0.089   2.106   3.217
 6256SOL     OW19666   3.677   5.226   4.127
 6256SOL    HW119667   3.723   5.249   4.213
 6256SOL    HW219668   3.740   5.241   4.051
 6257SOL     OW19669   4.029   2.920   0.335
 6257SOL    HW119670   4.041   2.998   0.397
 6257SOL    HW219671   3.971   2.948   0.258
 6258SOL     OW19672   4.779   2.517   2.500
 6258SOL    HW119673   4.856   2.574   2.527
 6258SOL    HW219674   4.731   2.485   2.582
 6259SOL     OW19675   3.075   2.224   1.752
 6259SOL    HW119676   3.048   2.307   1.802
 6259SOL    HW219677   3.116   2.249   1.665
 6260SOL     OW19678   3.554   3.562   0.821
 6260SOL    HW119679   3.605   3.587   0.738
 6260SOL    HW219680   3.504   3.642   0.854
 6261SOL     OW19681   4.795   0.370   6.799
 6261SOL    HW119682   4.823   0.325   6.883
 6261SOL    HW219683   4.876   0.405   6.751
 6262SOL     OW19684   0.322   5.826   5.391
 6262SOL    HW119685   0.267   5.877   5.326
 6262SOL    HW219686   0.400   5.784   5.344
 6263SOL     OW19687   6.190   1.360   0.979
 6263SOL    HW119688   6.223   1.411   0.899
 6263SOL    HW219689   6.265   1.349   1.045
 6264SOL     OW19690   2.110   1.663   6.631
 6264SOL    HW119691   2.017   1.636   6.605
 6264SOL    HW219692   2.110   1.696   6.726
 6265SOL     OW19693   4.856   3.920   1.123
 6265SOL    HW119694   4.941   3.870   1.105
 6265SOL    HW219695   4.780   3.873   1.078
 6266SOL     OW19696   2.904   7.001   2.274
 6266SOL    HW119697   2.921   6.924   2.213
 6266SOL    HW219698   2.918   6.974   2.369
 6267SOL     OW19699   2.282   0.186   6.700
 6267SOL    HW119700   2.244   0.130   6.627
 6267SOL    HW219701   2.378   0.163   6.714
 6268SOL     OW19702   2.900   5.226   3.276
 6268SOL    HW119703   2.973   5.273   3.226
 6268SOL    HW219704   2.828   5.198   3.212
 6269SOL     OW19705   5.979   4.553   0.227
 6269SOL    HW119706   6.013   4.626   0.168
 6269SOL    HW219707   6.035   4.471   0.214
 6270SOL     OW19708   0.658   1.309   4.564
 6270SOL    HW119709   0.653   1.329   4.662
 6270SOL    HW219710   0.751   1.323   4.532
 6271SOL     OW19711   6.153   1.758   1.171
 6271SOL    HW119712   6.154   1.843   1.117
 6271SOL    HW219713   6.112   1.685   1.117
 6272SOL     OW19714   1.941   2.137   3.571
 6272SOL    HW119715   1.954   2.158   3.474
 6272SOL    HW219716   2.030   2.133   3.616
 6273SOL     OW19717   4.460   0.580   2.355
 6273SOL    HW119718   4.418   0.591   2.445
 6273SOL    HW219719   4.410   0.633   2.288
 6274SOL     OW19720   2.687   6.482   6.558
 6274SOL    HW119721   2.687   6.558   6.622
 6274SOL    HW219722   2.702   6.396   6.609
 6275SOL     OW19723   2.899   0.346   4.358
 6275SOL    HW119724   2.847   0.324   4.275
 6275SOL    HW219725   2.985   0.391   4.332
 6276SOL     OW19726   1.541   5.339   3.773
 6276SOL    HW119727   1.552   5.241   3.762
 6276SOL    HW219728   1.447   5.360   3.797
 6277SOL     OW19729   5.726   3.341   4.187
 6277SOL    HW119730   5.634   3.371   4.161
 6277SOL    HW219731   5.734   3.242   4.171
 6278SOL     OW19732   4.532   0.648   4.300
 6278SOL    HW119733   4.437   0.674   4.319
 6278SOL    HW219734   4.533   0.565   4.244
 6279SOL     OW19735   4.844   1.233   0.136
 6279SOL    HW119736   4.805   1.239   0.228
 6279SOL    HW219737   4.821   1.316   0.085
 6280SOL     OW19738   0.981   5.402   5.775
 6280SOL    HW119739   0.933   5.398   5.687
 6280SOL    HW219740   1.027   5.315   5.792
 6281SOL     OW19741   2.798   6.900   5.207
 6281SOL    HW119742   2.707   6.860   5.198
 6281SOL    HW219743   2.815   6.964   5.132
 6282SOL     OW19744   1.217   0.285   3.302
 6282SOL    HW119745   1.153   0.241   3.365
 6282SOL    HW219746   1.169   0.352   3.247
 6283SOL     OW19747   0.730   3.216   5.130
 6283SOL    HW119748   0.711   3.232   5.226
 6283SOL    HW219749   0.787   3.134   5.121
 6284SOL     OW19750   2.507   4.973   6.279
 6284SOL    HW119751   2.604   4.952   6.268
 6284SOL    HW219752   2.497   5.057   6.332
 6285SOL     OW19753   2.059   4.463   2.831
 6285SOL    HW119754   2.142   4.411   2.849
 6285SOL    HW219755   2.083   4.552   2.792
 6286SOL     OW19756   6.372   6.794   5.180
 6286SOL    HW119757   6.335   6.778   5.271
 6286SOL    HW219758   6.355   6.889   5.153
 6287SOL     OW19759   3.675   4.840   2.645
 6287SOL    HW119760   3.594   4.872   2.597
 6287SOL    HW219761   3.648   4.790   2.727
 6288SOL     OW19762   5.287   3.698   0.920
 6288SOL    HW119763   5.221   3.641   0.872
 6288SOL    HW219764   5.310   3.778   0.864
 6289SOL     OW19765   1.176   6.892   2.357
 6289SOL    HW119766   1.157   6.965   2.292
 6289SOL    HW219767   1.096   6.834   2.366
 6290SOL     OW19768   6.064   3.320   3.844
 6290SOL    HW119769   5.994   3.384   3.878
 6290SOL    HW219770   6.020   3.235   3.817
 6291SOL     OW19771   4.122   3.691   3.245
 6291SOL    HW119772   4.151   3.679   3.340
 6291SOL    HW219773   4.101   3.601   3.205
 6292SOL     OW19774   0.172   1.580   1.895
 6292SOL    HW119775   0.129   1.543   1.977
 6292SOL    HW219776   0.140   1.531   1.814
 6293SOL     OW19777   5.501   5.114   0.659
 6293SOL    HW119778   5.563   5.189   0.680
 6293SOL    HW219779   5.468   5.124   0.565
 6294SOL     OW19780   4.033   5.754   2.472
 6294SOL    HW119781   4.015   5.727   2.377
 6294SOL    HW219782   3.951   5.794   2.512
 6295SOL     OW19783   6.785   6.091   5.905
 6295SOL    HW119784   6.790   6.095   5.805
 6295SOL    HW219785   6.785   5.996   5.935
 6296SOL     OW19786   0.205   0.785   2.416
 6296SOL    HW119787   0.191   0.793   2.317
 6296SOL    HW219788   0.119   0.802   2.463
 6297SOL     OW19789   5.552   0.812   5.593
 6297SOL    HW119790   5.601   0.858   5.668
 6297SOL    HW219791   5.521   0.722   5.624
 6298SOL     OW19792   6.990   1.693   4.024
 6298SOL    HW119793   6.945   1.691   4.113
 6298SOL    HW219794   6.997   1.599   3.989
 6299SOL     OW19795   6.256   2.744   0.784
 6299SOL    HW119796   6.283   2.825   0.837
 6299SOL    HW219797   6.292   2.662   0.828
 6300SOL     OW19798   4.930   1.595   3.671
 6300SOL    HW119799   4.868   1.581   3.594
 6300SOL    HW219800   4.891   1.663   3.734
 6301SOL     OW19801   3.105   0.785   0.704
 6301SOL    HW119802   3.103   0.700   0.652
 6301SOL    HW219803   3.044   0.852   0.661
 6302SOL     OW19804   6.976   1.003   2.280
 6302SOL    HW119805   0.005   0.970   2.200
 6302SOL    HW219806   6.912   0.932   2.310
 6303SOL     OW19807   1.779   5.999   4.861
 6303SOL    HW119808   1.865   6.033   4.821
 6303SOL    HW219809   1.703   6.055   4.829
 6304SOL     OW19810   4.117   1.045   5.224
 6304SOL    HW119811   4.137   1.064   5.320
 6304SOL    HW219812   4.078   1.126   5.181
 6305SOL     OW19813   5.272   1.529   2.536
 6305SOL    HW119814   5.213   1.600   2.499
 6305SOL    HW219815   5.362   1.567   2.557
 6306SOL     OW19816   5.932   2.719   4.483
 6306SOL    HW119817   5.911   2.805   4.437
 6306SOL    HW219818   6.030   2.702   4.479
 6307SOL     OW19819   1.884   4.899   0.087
 6307SOL    HW119820   1.966   4.845   0.066
 6307SOL    HW219821   1.822   4.845   0.144
 6308SOL     OW19822   3.776   2.527   5.905
 6308SOL    HW119823   3.779   2.469   5.986
 6308SOL    HW219824   3.682   2.539   5.875
 6309SOL     OW19825   5.760   2.177   5.227
 6309SOL    HW119826   5.830   2.193   5.296
 6309SOL    HW219827   5.733   2.081   5.228
 6310SOL     OW19828   0.341   5.380   4.408
 6310SOL    HW119829   0.373   5.287   4.394
 6310SOL    HW219830   0.361   5.435   4.328
 6311SOL     OW19831   6.117   6.315   3.881
 6311SOL    HW119832   6.160   6.253   3.947
 6311SOL    HW219833   6.147   6.409   3.900
 6312SOL     OW19834   5.136   4.453   5.457
 6312SOL    HW119835   5.197   4.471   5.380
 6312SOL    HW219836   5.120   4.537   5.508
 6313SOL     OW19837   2.653   4.950   3.749
 6313SOL    HW119838   2.725   4.963   3.818
 6313SOL    HW219839   2.650   5.030   3.689
 6314SOL     OW19840   1.282   7.011   3.674
 6314SOL    HW119841   1.245   6.978   3.587
 6314SOL    HW219842   1.380   6.994   3.678
 6315SOL     OW19843   2.425   4.109   0.264
 6315SOL    HW119844   2.334   4.150   0.255
 6315SOL    HW219845   2.426   4.046   0.342
 6316SOL     OW19846   4.390   1.436   5.565
 6316SOL    HW119847   4.421   1.495   5.640
 6316SOL    HW219848   4.376   1.492   5.483
 6317SOL     OW19849   6.017   5.147   4.502
 6317SOL    HW119850   6.047   5.101   4.418
 6317SOL    HW219851   6.071   5.113   4.580
 6318SOL     OW19852   1.876   2.204   4.703
 6318SOL    HW119853   1.902   2.209   4.607
 6318SOL    HW219854   1.876   2.296   4.743
 6319SOL     OW19855   1.007   1.689   2.917
 6319SOL    HW119856   0.968   1.683   2.825
 6319SOL    HW219857   0.941   1.733   2.978
 6320SOL     OW19858   0.271   1.534   3.380
 6320SOL    HW119859   0.200   1.600   3.354
 6320SOL    HW219860   0.314   1.564   3.466
 6321SOL     OW19861   2.744   3.732   5.671
 6321SOL    HW119862   2.738   3.832   5.666
 6321SOL    HW219863   2.679   3.698   5.739
 6322SOL     OW19864   1.962   0.875   6.702
 6322SOL    HW119865   1.901   0.801   6.731
 6322SOL    HW219866   1.909   0.957   6.684
 6323SOL     OW19867   4.387   1.377   1.217
 6323SOL    HW119868   4.314   1.392   1.150
 6323SOL    HW219869   4.404   1.462   1.267
 6324SOL     OW19870   3.772   2.330   6.094
 6324SOL    HW119871   3.782   2.338   6.193
 6324SOL    HW219872   3.759   2.234   6.069
 6325SOL     OW19873   1.665   2.473   2.932
 6325SOL    HW119874   1.687   2.570   2.939
 6325SOL    HW219875   1.736   2.419   2.977
 6326SOL     OW19876   4.171   6.319   1.306
 6326SOL    HW119877   4.257   6.353   1.343
 6326SOL    HW219878   4.136   6.246   1.365
 6327SOL     OW19879   4.111   5.120   5.766
 6327SOL    HW119880   4.152   5.110   5.676
 6327SOL    HW219881   4.016   5.148   5.757
 6328SOL     OW19882   3.021   4.686   6.420
 6328SOL    HW119883   3.096   4.712   6.359
 6328SOL    HW219884   2.998   4.590   6.404
 6329SOL     OW19885   1.362   1.320   2.773
 6329SOL    HW119886   1.311   1.356   2.850
 6329SOL    HW219887   1.298   1.295   2.699
 6330SOL     OW19888   3.635   0.717   0.312
 6330SOL    HW119889   3.593   0.781   0.248
 6330SOL    HW219890   3.734   0.719   0.301
 6331SOL     OW19891   5.551   2.881   2.218
 6331SOL    HW119892   5.454   2.873   2.194
 6331SOL    HW219893   5.584   2.794   2.255
 6332SOL     OW19894   5.209   6.586   2.611
 6332SOL    HW119895   5.135   6.650   2.589
 6332SOL    HW219896   5.234   6.596   2.707
 6333SOL     OW19897   1.873   5.285   3.306
 6333SOL    HW119898   1.911   5.284   3.213
 6333SOL    HW219899   1.773   5.289   3.300
 6334SOL     OW19900   2.749   1.724   2.582
 6334SOL    HW119901   2.686   1.754   2.510
 6334SOL    HW219902   2.741   1.784   2.661
 6335SOL     OW19903   0.420   1.951   0.384
 6335SOL    HW119904   0.342   1.930   0.325
 6335SOL    HW219905   0.451   1.867   0.429
 6336SOL     OW19906   1.241   3.121   5.156
 6336SOL    HW119907   1.239   3.101   5.254
 6336SOL    HW219908   1.303   3.057   5.110
 6337SOL     OW19909   0.156   4.864   4.830
 6337SOL    HW119910   0.238   4.919   4.843
 6337SOL    HW219911   0.104   4.860   4.915
 6338SOL     OW19912   3.916   0.873   4.129
 6338SOL    HW119913   3.891   0.962   4.167
 6338SOL    HW219914   3.987   0.885   4.059
 6339SOL     OW19915   0.345   2.808   4.811
 6339SOL    HW119916   0.437   2.819   4.772
 6339SOL    HW219917   0.321   2.711   4.813
 6340SOL     OW19918   2.434   5.452   4.161
 6340SOL    HW119919   2.435   5.538   4.212
 6340SOL    HW219920   2.349   5.402   4.180
 6341SOL     OW19921   6.534   5.311   2.412
 6341SOL    HW119922   6.509   5.331   2.318
 6341SOL    HW219923   6.550   5.213   2.422
 6342SOL     OW19924   1.143   3.522   0.426
 6342SOL    HW119925   1.186   3.602   0.468
 6342SOL    HW219926   1.211   3.469   0.377
 6343SOL     OW19927   4.424   1.115   0.479
 6343SOL    HW119928   4.497   1.077   0.423
 6343SOL    HW219929   4.339   1.118   0.425
 6344SOL     OW19930   6.732   4.483   4.586
 6344SOL    HW119931   6.733   4.446   4.493
 6344SOL    HW219932   6.650   4.539   4.599
 6345SOL     OW19933   2.621   2.416   2.039
 6345SOL    HW119934   2.719   2.395   2.036
 6345SOL    HW219935   2.603   2.501   1.989
 6346SOL     OW19936   0.418   5.519   4.177
 6346SOL    HW119937   0.466   5.434   4.157
 6346SOL    HW219938   0.479   5.597   4.160
 6347SOL     OW19939   2.844   0.357   0.743
 6347SOL    HW119940   2.882   0.269   0.771
 6347SOL    HW219941   2.881   0.429   0.801
 6348SOL     OW19942   0.759   2.601   4.950
 6348SOL    HW119943   0.826   2.643   5.012
 6348SOL    HW219944   0.700   2.538   5.002
 6349SOL     OW19945   1.750   0.896   0.569
 6349SOL    HW119946   1.728   0.798   0.568
 6349SOL    HW219947   1.751   0.928   0.664
 6350SOL     OW19948   0.221   5.194   3.620
 6350SOL    HW119949   0.140   5.220   3.674
 6350SOL    HW219950   0.215   5.097   3.596
 6351SOL     OW19951   6.736   1.148   2.775
 6351SOL    HW119952   6.796   1.080   2.819
 6351SOL    HW219953   6.733   1.230   2.831
 6352SOL     OW19954   0.533   5.423   2.317
 6352SOL    HW119955   0.583   5.472   2.245
 6352SOL    HW219956   0.443   5.465   2.329
 6353SOL     OW19957   0.553   6.574   1.806
 6353SOL    HW119958   0.464   6.588   1.850
 6353SOL    HW219959   0.606   6.508   1.860
 6354SOL     OW19960   6.942   6.712   4.640
 6354SOL    HW119961   6.878   6.788   4.628
 6354SOL    HW219962   6.939   6.652   4.560
 6355SOL     OW19963   0.962   2.828   2.128
 6355SOL    HW119964   0.925   2.909   2.175
 6355SOL    HW219965   1.058   2.817   2.153
 6356SOL     OW19966   3.277   3.120   0.884
 6356SOL    HW119967   3.228   3.197   0.842
 6356SOL    HW219968   3.313   3.060   0.812
 6357SOL     OW19969   5.021   2.055   0.869
 6357SOL    HW119970   5.094   1.987   0.862
 6357SOL    HW219971   4.946   2.031   0.807
 6358SOL     OW19972   0.892   3.432   4.140
 6358SOL    HW119973   0.898   3.389   4.230
 6358SOL    HW219974   0.801   3.472   4.129
 6359SOL     OW19975   6.938   1.823   6.676
 6359SOL    HW119976   6.985   1.900   6.717
 6359SOL    HW219977   6.871   1.855   6.609
 6360SOL     OW19978   3.038   5.367   4.291
 6360SOL    HW119979   3.054   5.390   4.387
 6360SOL    HW219980   2.941   5.372   4.271
 6361SOL     OW19981   3.025   6.520   5.941
 6361SOL    HW119982   2.934   6.482   5.926
 6361SOL    HW219983   3.023   6.585   6.016
 6362SOL     OW19984   6.234   5.192   6.124
 6362SOL    HW119985   6.179   5.275   6.133
 6362SOL    HW219986   6.189   5.130   6.060
 6363SOL     OW19987   0.862   6.011   4.160
 6363SOL    HW119988   0.769   6.027   4.128
 6363SOL    HW219989   0.896   6.093   4.206
 6364SOL     OW19990   1.740   2.890   6.654
 6364SOL    HW119991   1.796   2.814   6.687
 6364SOL    HW219992   1.799   2.958   6.610
 6365SOL     OW19993   4.782   5.246   2.796
 6365SOL    HW119994   4.878   5.219   2.783
 6365SOL    HW219995   4.764   5.329   2.744
 6366SOL     OW19996   0.206   4.371   5.122
 6366SOL    HW119997   0.148   4.314   5.064
 6366SOL    HW219998   0.188   4.467   5.104
 6367SOL     OW19999   5.929   6.331   2.536
 6367SOL    HW120000   5.838   6.296   2.557
 6367SOL    HW220001   5.994   6.296   2.603
 6368SOL     OW20002   3.555   0.547   3.384
 6368SOL    HW120003   3.456   0.544   3.396
 6368SOL    HW220004   3.590   0.632   3.422
 6369SOL     OW20005   2.250   5.231   5.473
 6369SOL    HW120006   2.235   5.140   5.434
 6369SOL    HW220007   2.196   5.298   5.423
 6370SOL     OW20008   5.460   2.707   1.893
 6370SOL    HW120009   5.549   2.687   1.935
 6370SOL    HW220010   5.468   2.696   1.793
 6371SOL     OW20011   4.799   1.567   4.179
 6371SOL    HW120012   4.875   1.632   4.178
 6371SOL    HW220013   4.780   1.539   4.273
 6372SOL     OW20014   3.286   6.509   2.406
 6372SOL    HW120015   3.302   6.514   2.505
 6372SOL    HW220016   3.225   6.583   2.378
 6373SOL     OW20017   3.402   5.337   0.125
 6373SOL    HW120018   3.411   5.264   0.193
 6373SOL    HW220019   3.486   5.342   0.071
 6374SOL     OW20020   2.986   3.103   2.700
 6374SOL    HW120021   2.932   3.019   2.692
 6374SOL    HW220022   2.989   3.131   2.796
 6375SOL     OW20023   1.910   5.956   2.085
 6375SOL    HW120024   1.941   6.045   2.119
 6375SOL    HW220025   1.950   5.883   2.140
 6376SOL     OW20026   0.697   2.178   5.189
 6376SOL    HW120027   0.728   2.083   5.186
 6376SOL    HW220028   0.698   2.216   5.097
 6377SOL     OW20029   0.989   1.916   3.641
 6377SOL    HW120030   1.002   1.856   3.562
 6377SOL    HW220031   0.947   2.002   3.611
 6378SOL     OW20032   4.301   4.966   3.431
 6378SOL    HW120033   4.359   4.950   3.511
 6378SOL    HW220034   4.335   5.046   3.382
 6379SOL     OW20035   2.413   4.917   1.992
 6379SOL    HW120036   2.435   4.918   2.089
 6379SOL    HW220037   2.496   4.930   1.938
 6380SOL     OW20038   1.040   0.683   5.957
 6380SOL    HW120039   0.956   0.703   6.008
 6380SOL    HW220040   1.043   0.586   5.934
 6381SOL     OW20041   2.876   3.239   2.076
 6381SOL    HW120042   2.817   3.320   2.065
 6381SOL    HW220043   2.878   3.187   1.991
 6382SOL     OW20044   0.890   4.794   4.701
 6382SOL    HW120045   0.801   4.755   4.721
 6382SOL    HW220046   0.888   4.893   4.718
 6383SOL     OW20047   3.975   1.367   3.965
 6383SOL    HW120048   3.875   1.365   3.968
 6383SOL    HW220049   4.005   1.440   3.904
 6384SOL     OW20050   0.181   4.704   2.445
 6384SOL    HW120051   0.277   4.721   2.426
 6384SOL    HW220052   0.131   4.696   2.358
 6385SOL     OW20053   0.872   5.641   5.030
 6385SOL    HW120054   0.843   5.634   4.934
 6385SOL    HW220055   0.849   5.732   5.065
 6386SOL     OW20056   2.568   5.771   1.686
 6386SOL    HW120057   2.525   5.693   1.641
 6386SOL    HW220058   2.499   5.842   1.701
 6387SOL     OW20059   6.365   1.052   5.435
 6387SOL    HW120060   6.399   1.089   5.349
 6387SOL    HW220061   6.438   1.001   5.481
 6388SOL     OW20062   2.099   5.164   2.928
 6388SOL    HW120063   2.083   5.105   2.849
 6388SOL    HW220064   2.171   5.124   2.985
 6389SOL     OW20065   0.925   4.937   1.454
 6389SOL    HW120066   0.835   4.928   1.497
 6389SOL    HW220067   0.955   4.848   1.421
 6390SOL     OW20068   0.742   2.715   4.356
 6390SOL    HW120069   0.688   2.776   4.299
 6390SOL    HW220070   0.826   2.691   4.309
 6391SOL     OW20071   3.556   0.886   6.854
 6391SOL    HW120072   3.516   0.954   6.793
 6391SOL    HW220073   3.515   0.796   6.835
 6392SOL     OW20074   1.546   6.018   4.187
 6392SOL    HW120075   1.621   5.961   4.153
 6392SOL    HW220076   1.532   6.000   4.285
 6393SOL     OW20077   5.243   1.670   0.535
 6393SOL    HW120078   5.337   1.661   0.570
 6393SOL    HW220079   5.234   1.616   0.451
 6394SOL     OW20080   3.287   4.773   1.831
 6394SOL    HW120081   3.384   4.750   1.836
 6394SOL    HW220082   3.276   4.862   1.788
 6395SOL     OW20083   5.937   2.094   0.358
 6395SOL    HW120084   5.858   2.153   0.374
 6395SOL    HW220085   5.971   2.059   0.445
 6396SOL     OW20086   6.493   3.830   5.927
 6396SOL    HW120087   6.523   3.812   5.833
 6396SOL    HW220088   6.573   3.835   5.987
 6397SOL     OW20089   6.582   0.945   0.550
 6397SOL    HW120090   6.506   0.990   0.595
 6397SOL    HW220091   6.666   0.959   0.603
 6398SOL     OW20092   3.925   1.065   1.388
 6398SOL    HW120093   3.930   1.083   1.290
 6398SOL    HW220094   4.016   1.047   1.424
 6399SOL     OW20095   2.140   6.264   6.313
 6399SOL    HW120096   2.170   6.262   6.409
 6399SOL    HW220097   2.211   6.304   6.256
 6400SOL     OW20098   2.847   4.783   4.516
 6400SOL    HW120099   2.903   4.794   4.598
 6400SOL    HW220100   2.752   4.810   4.536
 6401SOL     OW20101   0.861   4.363   4.838
 6401SOL    HW120102   0.904   4.273   4.832
 6401SOL    HW220103   0.929   4.434   4.819
 6402SOL     OW20104   1.932   2.576   3.323
 6402SOL    HW120105   1.851   2.568   3.381
 6402SOL    HW220106   2.015   2.575   3.380
 6403SOL     OW20107   1.224   6.779   1.386
 6403SOL    HW120108   1.163   6.800   1.310
 6403SOL    HW220109   1.315   6.817   1.368
 6404SOL     OW20110   5.052   0.841   2.852
 6404SOL    HW120111   4.974   0.789   2.888
 6404SOL    HW220112   5.018   0.922   2.803
 6405SOL     OW20113   3.661   0.730   1.760
 6405SOL    HW120114   3.616   0.774   1.682
 6405SOL    HW220115   3.636   0.779   1.844
 6406SOL     OW20116   2.586   1.996   3.521
 6406SOL    HW120117   2.545   1.971   3.609
 6406SOL    HW220118   2.606   1.913   3.469
 6407SOL     OW20119   5.172   5.723   6.364
 6407SOL    HW120120   5.181   5.810   6.315
 6407SOL    HW220121   5.082   5.684   6.345
 6408SOL     OW20122   5.532   2.461   0.830
 6408SOL    HW120123   5.515   2.490   0.736
 6408SOL    HW220124   5.587   2.530   0.878
 6409SOL     OW20125   0.787   5.005   1.917
 6409SOL    HW120126   0.720   5.076   1.898
 6409SOL    HW220127   0.869   5.046   1.956
 6410SOL     OW20128   1.257   1.191   1.945
 6410SOL    HW120129   1.250   1.093   1.965
 6410SOL    HW220130   1.301   1.237   2.021
 6411SOL     OW20131   1.003   1.337   3.594
 6411SOL    HW120132   1.037   1.317   3.503
 6411SOL    HW220133   0.925   1.278   3.615
 6412SOL     OW20134   6.272   2.990   4.388
 6412SOL    HW120135   6.311   2.969   4.298
 6412SOL    HW220136   6.343   2.978   4.458
 6413SOL     OW20137   0.226   4.832   1.059
 6413SOL    HW120138   0.303   4.769   1.061
 6413SOL    HW220139   0.258   4.924   1.039
 6414SOL     OW20140   6.434   6.749   2.669
 6414SOL    HW120141   6.364   6.799   2.720
 6414SOL    HW220142   6.403   6.656   2.653
 6415SOL     OW20143   1.763   1.557   2.443
 6415SOL    HW120144   1.680   1.501   2.441
 6415SOL    HW220145   1.763   1.619   2.365
 6416SOL     OW20146   2.632   6.656   6.121
 6416SOL    HW120147   2.682   6.633   6.204
 6416SOL    HW220148   2.549   6.599   6.115
 6417SOL     OW20149   0.563   6.549   4.017
 6417SOL    HW120150   0.534   6.535   3.922
 6417SOL    HW220151   0.662   6.563   4.019
 6418SOL     OW20152   0.017   5.601   2.862
 6418SOL    HW120153   6.963   5.633   2.806
 6418SOL    HW220154   0.010   5.641   2.954
 6419SOL     OW20155   2.403   3.653   0.839
 6419SOL    HW120156   2.412   3.752   0.848
 6419SOL    HW220157   2.491   3.615   0.812
 6420SOL     OW20158   0.835   3.141   6.571
 6420SOL    HW120159   0.876   3.180   6.652
 6420SOL    HW220160   0.739   3.169   6.565
 6421SOL     OW20161   5.736   2.249   0.539
 6421SOL    HW120162   5.703   2.337   0.572
 6421SOL    HW220163   5.787   2.203   0.611
 6422SOL     OW20164   5.940   2.664   2.870
 6422SOL    HW120165   5.995   2.603   2.928
 6422SOL    HW220166   5.845   2.662   2.900
 6423SOL     OW20167   4.595   4.029   0.682
 6423SOL    HW120168   4.609   3.981   0.595
 6423SOL    HW220169   4.557   4.120   0.665
 6424SOL     OW20170   6.483   4.430   5.129
 6424SOL    HW120171   6.400   4.374   5.127
 6424SOL    HW220172   6.558   4.378   5.169
 6425SOL     OW20173   0.236   5.364   1.036
 6425SOL    HW120174   0.137   5.368   1.019
 6425SOL    HW220175   0.282   5.437   0.986
 6426SOL     OW20176   6.864   3.031   3.321
 6426SOL    HW120177   6.964   3.036   3.317
 6426SOL    HW220178   6.832   3.077   3.404
 6427SOL     OW20179   0.979   2.726   5.844
 6427SOL    HW120180   1.045   2.657   5.875
 6427SOL    HW220181   0.889   2.683   5.834
 6428SOL     OW20182   6.377   3.173   4.782
 6428SOL    HW120183   6.442   3.236   4.740
 6428SOL    HW220184   6.300   3.225   4.819
 6429SOL     OW20185   0.899   1.112   5.170
 6429SOL    HW120186   0.960   1.124   5.091
 6429SOL    HW220187   0.944   1.056   5.239
 6430SOL     OW20188   6.178   3.009   0.106
 6430SOL    HW120189   6.181   2.941   0.034
 6430SOL    HW220190   6.087   3.009   0.148
 6431SOL     OW20191   5.941   1.239   2.853
 6431SOL    HW120192   5.987   1.169   2.908
 6431SOL    HW220193   5.945   1.214   2.757
 6432SOL     OW20194   6.239   3.795   0.449
 6432SOL    HW120195   6.250   3.828   0.542
 6432SOL    HW220196   6.142   3.777   0.431
 6433SOL     OW20197   2.381   3.796   1.589
 6433SOL    HW120198   2.320   3.824   1.515
 6433SOL    HW220199   2.375   3.862   1.664
 6434SOL     OW20200   1.578   5.000   0.262
 6434SOL    HW120201   1.481   5.012   0.283
 6434SOL    HW220202   1.604   4.905   0.281
 6435SOL     OW20203   4.969   3.651   0.863
 6435SOL    HW120204   4.902   3.593   0.817
 6435SOL    HW220205   4.983   3.735   0.811
 6436SOL     OW20206   2.096   2.422   2.161
 6436SOL    HW120207   2.118   2.484   2.086
 6436SOL    HW220208   2.138   2.333   2.145
 6437SOL     OW20209   0.442   0.760   0.195
 6437SOL    HW120210   0.471   0.841   0.143
 6437SOL    HW220211   0.509   0.686   0.181
 6438SOL     OW20212   1.276   3.732   4.024
 6438SOL    HW120213   1.311   3.673   3.951
 6438SOL    HW220214   1.347   3.744   4.094
 6439SOL     OW20215   0.372   6.442   2.193
 6439SOL    HW120216   0.405   6.468   2.284
 6439SOL    HW220217   0.290   6.387   2.202
 6440SOL     OW20218   0.402   0.750   1.966
 6440SOL    HW120219   0.334   0.767   2.037
 6440SOL    HW220220   0.485   0.713   2.008
 6441SOL     OW20221   4.173   1.442   2.957
 6441SOL    HW120222   4.158   1.539   2.941
 6441SOL    HW220223   4.261   1.429   3.004
 6442SOL     OW20224   3.300   0.419   3.276
 6442SOL    HW120225   3.380   0.372   3.313
 6442SOL    HW220226   3.219   0.361   3.286
 6443SOL     OW20227   2.413   0.914   0.260
 6443SOL    HW120228   2.380   0.936   0.169
 6443SOL    HW220229   2.424   0.815   0.269
 6444SOL     OW20230   0.466   1.255   2.883
 6444SOL    HW120231   0.497   1.217   2.970
 6444SOL    HW220232   0.532   1.323   2.851
 6445SOL     OW20233   3.392   4.011   5.736
 6445SOL    HW120234   3.465   3.970   5.681
 6445SOL    HW220235   3.433   4.067   5.808
 6446SOL     OW20236   6.969   1.968   0.670
 6446SOL    HW120237   7.007   1.927   0.753
 6446SOL    HW220238   6.910   1.901   0.625
 6447SOL     OW20239   1.586   0.216   3.066
 6447SOL    HW120240   1.629   0.305   3.052
 6447SOL    HW220241   1.557   0.179   2.977
 6448SOL     OW20242   6.959   2.370   3.000
 6448SOL    HW120243   0.020   2.369   2.943
 6448SOL    HW220244   6.977   2.322   3.086
 6449SOL     OW20245   3.978   2.589   1.023
 6449SOL    HW120246   3.961   2.492   1.040
 6449SOL    HW220247   3.892   2.634   0.998
 6450SOL     OW20248   6.816   3.059   0.576
 6450SOL    HW120249   6.819   3.117   0.494
 6450SOL    HW220250   6.840   3.113   0.656
 6451SOL     OW20251   2.523   6.590   4.037
 6451SOL    HW120252   2.490   6.643   3.959
 6451SOL    HW220253   2.451   6.528   4.068
 6452SOL     OW20254   3.719   6.339   5.120
 6452SOL    HW120255   3.620   6.349   5.129
 6452SOL    HW220256   3.742   6.325   5.023
 6453SOL     OW20257   1.933   5.467   6.632
 6453SOL    HW120258   1.839   5.459   6.666
 6453SOL    HW220259   1.968   5.378   6.605
 6454SOL     OW20260   3.635   1.114   4.494
 6454SOL    HW120261   3.557   1.175   4.482
 6454SOL    HW220262   3.708   1.162   4.542
 6455SOL     OW20263   5.906   3.386   6.530
 6455SOL    HW120264   5.890   3.330   6.449
 6455SOL    HW220265   5.917   3.328   6.610
 6456SOL     OW20266   0.206   1.060   5.171
 6456SOL    HW120267   0.290   1.030   5.125
 6456SOL    HW220268   0.134   0.993   5.156
 6457SOL     OW20269   5.907   2.515   2.454
 6457SOL    HW120270   6.004   2.497   2.469
 6457SOL    HW220271   5.876   2.465   2.373
 6458SOL     OW20272   1.006   6.609   3.468
 6458SOL    HW120273   0.947   6.528   3.460
 6458SOL    HW220274   0.955   6.681   3.515
 6459SOL     OW20275   5.192   4.518   0.926
 6459SOL    HW120276   5.172   4.475   0.838
 6459SOL    HW220277   5.115   4.505   0.989
 6460SOL     OW20278   3.008   4.908   1.319
 6460SOL    HW120279   3.097   4.900   1.275
 6460SOL    HW220280   3.018   4.897   1.417
 6461SOL     OW20281   3.095   6.313   5.473
 6461SOL    HW120282   3.078   6.332   5.570
 6461SOL    HW220283   3.031   6.365   5.416
 6462SOL     OW20284   2.128   3.263   3.030
 6462SOL    HW120285   2.132   3.243   3.128
 6462SOL    HW220286   2.084   3.351   3.016
 6463SOL     OW20287   0.805   3.706   5.639
 6463SOL    HW120288   0.751   3.699   5.555
 6463SOL    HW220289   0.898   3.673   5.621
 6464SOL     OW20290   1.560   5.270   2.166
 6464SOL    HW120291   1.534   5.346   2.106
 6464SOL    HW220292   1.478   5.222   2.196
 6465SOL     OW20293   6.243   0.711   2.559
 6465SOL    HW120294   6.312   0.648   2.522
 6465SOL    HW220295   6.229   0.690   2.656
 6466SOL     OW20296   6.944   2.407   5.203
 6466SOL    HW120297   6.950   2.498   5.162
 6466SOL    HW220298   6.936   2.415   5.302
 6467SOL     OW20299   3.510   0.521   6.132
 6467SOL    HW120300   3.556   0.484   6.051
 6467SOL    HW220301   3.576   0.570   6.189
 6468SOL     OW20302   5.264   4.037   1.946
 6468SOL    HW120303   5.271   3.971   1.872
 6468SOL    HW220304   5.181   4.092   1.935
 6469SOL     OW20305   6.249   1.045   5.936
 6469SOL    HW120306   6.293   1.129   5.904
 6469SOL    HW220307   6.318   0.973   5.944
 6470SOL     OW20308   6.230   6.058   4.571
 6470SOL    HW120309   6.161   6.028   4.637
 6470SOL    HW220310   6.185   6.085   4.486
 6471SOL     OW20311   6.161   5.725   5.453
 6471SOL    HW120312   6.120   5.778   5.526
 6471SOL    HW220313   6.224   5.783   5.400
 6472SOL     OW20314   1.874   6.522   1.577
 6472SOL    HW120315   1.775   6.530   1.589
 6472SOL    HW220316   1.902   6.573   1.496
 6473SOL     OW20317   2.676   0.550   5.004
 6473SOL    HW120318   2.637   0.620   5.064
 6473SOL    HW220319   2.672   0.582   4.910
 6474SOL     OW20320   2.791   3.368   5.804
 6474SOL    HW120321   2.782   3.275   5.839
 6474SOL    HW220322   2.835   3.365   5.715
 6475SOL     OW20323   4.858   5.538   3.951
 6475SOL    HW120324   4.914   5.608   3.996
 6475SOL    HW220325   4.865   5.548   3.852
 6476SOL     OW20326   5.568   4.964   2.489
 6476SOL    HW120327   5.519   4.879   2.467
 6476SOL    HW220328   5.606   5.002   2.406
 6477SOL     OW20329   6.489   6.562   0.083
 6477SOL    HW120330   6.448   6.560   7.014
 6477SOL    HW220331   6.507   6.657   0.109
 6478SOL     OW20332   5.409   6.202   1.684
 6478SOL    HW120333   5.329   6.177   1.629
 6478SOL    HW220334   5.473   6.255   1.628
 6479SOL     OW20335   3.573   5.961   2.606
 6479SOL    HW120336   3.671   5.980   2.601
 6479SOL    HW220337   3.556   5.893   2.678
 6480SOL     OW20338   2.966   1.107   1.569
 6480SOL    HW120339   2.998   1.183   1.512
 6480SOL    HW220340   2.944   1.029   1.511
 6481SOL     OW20341   4.642   0.937   1.133
 6481SOL    HW120342   4.567   0.906   1.074
 6481SOL    HW220343   4.624   1.031   1.162
 6482SOL     OW20344   7.022   0.145   6.328
 6482SOL    HW120345   6.968   0.177   6.249
 6482SOL    HW220346   6.962   0.135   6.407
 6483SOL     OW20347   2.431   6.017   1.747
 6483SOL    HW120348   2.397   6.082   1.679
 6483SOL    HW220349   2.374   6.022   1.829
 6484SOL     OW20350   5.272   6.748   3.257
 6484SOL    HW120351   5.272   6.704   3.346
 6484SOL    HW220352   5.213   6.697   3.194
 6485SOL     OW20353   0.771   2.863   3.025
 6485SOL    HW120354   0.739   2.885   3.118
 6485SOL    HW220355   0.693   2.833   2.970
 6486SOL     OW20356   2.090   3.165   3.283
 6486SOL    HW120357   2.136   3.100   3.343
 6486SOL    HW220358   2.010   3.121   3.241
 6487SOL     OW20359   5.781   5.080   3.319
 6487SOL    HW120360   5.686   5.048   3.329
 6487SOL    HW220361   5.784   5.156   3.254
 6488SOL     OW20362   3.351   5.306   5.643
 6488SOL    HW120363   3.256   5.337   5.647
 6488SOL    HW220364   3.354   5.207   5.651
 6489SOL     OW20365   2.683   2.112   6.390
 6489SOL    HW120366   2.750   2.168   6.341
 6489SOL    HW220367   2.728   2.067   6.468
 6490SOL     OW20368   5.121   1.700   0.886
 6490SOL    HW120369   5.154   1.611   0.853
 6490SOL    HW220370   5.085   1.752   0.809
 6491SOL     OW20371   4.503   0.849   6.000
 6491SOL    HW120372   4.404   0.846   5.984
 6491SOL    HW220373   4.524   0.922   6.064
 6492SOL     OW20374   6.054   5.961   5.556
 6492SOL    HW120375   6.141   6.004   5.531
 6492SOL    HW220376   6.066   5.909   5.641
 6493SOL     OW20377   0.891   6.614   5.154
 6493SOL    HW120378   0.897   6.699   5.205
 6493SOL    HW220379   0.983   6.579   5.136
 6494SOL     OW20380   1.232   0.719   3.661
 6494SOL    HW120381   1.281   0.692   3.577
 6494SOL    HW220382   1.157   0.655   3.677
 6495SOL     OW20383   5.551   4.484   2.301
 6495SOL    HW120384   5.552   4.429   2.384
 6495SOL    HW220385   5.644   4.511   2.277
 6496SOL     OW20386   0.493   6.388   3.136
 6496SOL    HW120387   0.423   6.429   3.078
 6496SOL    HW220388   0.569   6.452   3.148
 6497SOL     OW20389   0.355   5.899   0.211
 6497SOL    HW120390   0.292   5.854   0.147
 6497SOL    HW220391   0.407   5.968   0.161
 6498SOL     OW20392   1.168   4.539   3.829
 6498SOL    HW120393   1.069   4.547   3.814
 6498SOL    HW220394   1.190   4.448   3.863
 6499SOL     OW20395   6.358   1.586   3.151
 6499SOL    HW120396   6.432   1.527   3.122
 6499SOL    HW220397   6.303   1.612   3.072
 6500SOL     OW20398   6.233   4.781   3.241
 6500SOL    HW120399   6.164   4.709   3.248
 6500SOL    HW220400   6.191   4.864   3.205
 6501SOL     OW20401   6.941   3.404   0.576
 6501SOL    HW120402   6.845   3.411   0.551
 6501SOL    HW220403   6.950   3.343   0.656
 6502SOL     OW20404   1.035   5.165   1.567
 6502SOL    HW120405   1.123   5.157   1.614
 6502SOL    HW220406   1.011   5.077   1.525
 6503SOL     OW20407   4.614   0.220   4.537
 6503SOL    HW120408   4.646   0.235   4.631
 6503SOL    HW220409   4.692   0.194   4.480
 6504SOL     OW20410   1.664   1.203   1.002
 6504SOL    HW120411   1.623   1.112   0.994
 6504SOL    HW220412   1.745   1.199   1.059
 6505SOL     OW20413   5.822   5.605   0.567
 6505SOL    HW120414   5.830   5.703   0.547
 6505SOL    HW220415   5.752   5.564   0.508
 6506SOL     OW20416   2.443   1.535   0.743
 6506SOL    HW120417   2.531   1.532   0.695
 6506SOL    HW220418   2.372   1.493   0.687
 6507SOL     OW20419   2.970   0.771   2.198
 6507SOL    HW120420   2.969   0.671   2.204
 6507SOL    HW220421   3.027   0.799   2.120
 6508SOL     OW20422   2.265   1.446   2.329
 6508SOL    HW120423   2.177   1.464   2.372
 6508SOL    HW220424   2.260   1.467   2.231
 6509SOL     OW20425   0.648   2.842   4.124
 6509SOL    HW120426   0.720   2.899   4.083
 6509SOL    HW220427   0.594   2.801   4.051
 6510SOL     OW20428   6.321   4.859   6.541
 6510SOL    HW120429   6.266   4.940   6.521
 6510SOL    HW220430   6.314   4.794   6.466
 6511SOL     OW20431   6.831   6.584   5.912
 6511SOL    HW120432   6.834   6.571   5.813
 6511SOL    HW220433   6.891   6.516   5.956
 6512SOL     OW20434   5.166   5.940   3.876
 6512SOL    HW120435   5.154   5.842   3.891
 6512SOL    HW220436   5.256   5.956   3.837
 6513SOL     OW20437   1.167   6.885   3.467
 6513SOL    HW120438   1.088   6.906   3.410
 6513SOL    HW220439   1.246   6.865   3.408
 6514SOL     OW20440   3.264   0.263   3.664
 6514SOL    HW120441   3.171   0.227   3.666
 6514SOL    HW220442   3.323   0.207   3.722
 6515SOL     OW20443   0.800   1.145   3.577
 6515SOL    HW120444   0.831   1.081   3.507
 6515SOL    HW220445   0.719   1.195   3.543
 6516SOL     OW20446   1.414   1.392   5.934
 6516SOL    HW120447   1.498   1.340   5.952
 6516SOL    HW220448   1.406   1.408   5.836
 6517SOL     OW20449   2.082   2.041   0.896
 6517SOL    HW120450   2.101   1.967   0.831
 6517SOL    HW220451   1.990   2.030   0.934
 6518SOL     OW20452   5.701   6.276   0.926
 6518SOL    HW120453   5.682   6.191   0.877
 6518SOL    HW220454   5.615   6.318   0.955
 6519SOL     OW20455   1.110   2.348   3.780
 6519SOL    HW120456   1.123   2.261   3.828
 6519SOL    HW220457   1.092   2.420   3.847
 6520SOL     OW20458   5.685   5.452   1.568
 6520SOL    HW120459   5.588   5.439   1.545
 6520SOL    HW220460   5.741   5.428   1.489
 6521SOL     OW20461   1.462   2.255   5.534
 6521SOL    HW120462   1.496   2.239   5.627
 6521SOL    HW220463   1.362   2.256   5.535
 6522SOL     OW20464   2.524   5.411   4.580
 6522SOL    HW120465   2.511   5.354   4.661
 6522SOL    HW220466   2.446   5.473   4.570
 6523SOL     OW20467   1.723   2.928   6.948
 6523SOL    HW120468   1.795   2.952   6.884
 6523SOL    HW220469   1.634   2.935   6.902
 6524SOL     OW20470   4.155   3.559   4.682
 6524SOL    HW120471   4.253   3.552   4.702
 6524SOL    HW220472   4.104   3.499   4.743
 6525SOL     OW20473   0.498   2.403   4.603
 6525SOL    HW120474   0.400   2.401   4.586
 6525SOL    HW220475   0.545   2.347   4.535
 6526SOL     OW20476   1.524   5.628   4.061
 6526SOL    HW120477   1.607   5.584   4.027
 6526SOL    HW220478   1.444   5.582   4.024
 6527SOL     OW20479   2.557   1.429   4.180
 6527SOL    HW120480   2.488   1.496   4.153
 6527SOL    HW220481   2.536   1.395   4.271
 6528SOL     OW20482   0.437   6.974   3.254
 6528SOL    HW120483   0.504   6.940   3.188
 6528SOL    HW220484   0.434   6.913   3.333
 6529SOL     OW20485   0.030   2.987   2.712
 6529SOL    HW120486   6.995   3.023   2.785
 6529SOL    HW220487   6.994   2.946   2.641
 6530SOL     OW20488   0.814   1.807   0.647
 6530SOL    HW120489   0.793   1.744   0.572
 6530SOL    HW220490   0.827   1.899   0.611
 6531SOL     OW20491   5.100   2.376   5.021
 6531SOL    HW120492   5.149   2.300   4.978
 6531SOL    HW220493   5.053   2.343   5.103
 6532SOL     OW20494   1.075   2.511   6.686
 6532SOL    HW120495   1.093   2.569   6.765
 6532SOL    HW220496   0.987   2.534   6.646
 6533SOL     OW20497   4.560   0.279   1.174
 6533SOL    HW120498   4.587   0.194   1.129
 6533SOL    HW220499   4.479   0.316   1.130
 6534SOL     OW20500   2.048   3.359   0.098
 6534SOL    HW120501   2.067   3.452   0.129
 6534SOL    HW220502   2.006   3.362   0.008
 6535SOL     OW20503   2.072   3.701   5.412
 6535SOL    HW120504   2.126   3.625   5.448
 6535SOL    HW220505   2.073   3.776   5.478
 6536SOL     OW20506   6.549   2.475   6.695
 6536SOL    HW120507   6.497   2.542   6.641
 6536SOL    HW220508   6.517   2.383   6.672
 6537SOL     OW20509   1.136   0.245   6.647
 6537SOL    HW120510   1.169   0.152   6.636
 6537SOL    HW220511   1.187   0.291   6.720
 6538SOL     OW20512   1.796   3.256   6.007
 6538SOL    HW120513   1.712   3.254   5.954
 6538SOL    HW220514   1.870   3.294   5.952
 6539SOL     OW20515   3.132   1.594   6.126
 6539SOL    HW120516   3.120   1.678   6.073
 6539SOL    HW220517   3.228   1.585   6.153
 6540SOL     OW20518   3.612   2.145   4.061
 6540SOL    HW120519   3.710   2.165   4.062
 6540SOL    HW220520   3.584   2.115   4.152
 6541SOL     OW20521   2.954   2.958   5.502
 6541SOL    HW120522   2.945   2.984   5.406
 6541SOL    HW220523   2.871   2.984   5.552
 6542SOL     OW20524   5.974   3.843   3.587
 6542SOL    HW120525   5.918   3.893   3.652
 6542SOL    HW220526   5.922   3.825   3.504
 6543SOL     OW20527   0.585   5.958   6.337
 6543SOL    HW120528   0.553   5.878   6.388
 6543SOL    HW220529   0.670   5.936   6.289
 6544SOL     OW20530   0.225   5.775   2.537
 6544SOL    HW120531   0.196   5.853   2.481
 6544SOL    HW220532   0.280   5.808   2.614
 6545SOL     OW20533   5.884   3.348   6.023
 6545SOL    HW120534   5.836   3.264   5.999
 6545SOL    HW220535   5.982   3.337   6.008
 6546SOL     OW20536   3.886   4.536   5.903
 6546SOL    HW120537   3.866   4.614   5.962
 6546SOL    HW220538   3.895   4.568   5.808
 6547SOL     OW20539   4.996   0.511   6.716
 6547SOL    HW120540   5.025   0.565   6.637
 6547SOL    HW220541   5.011   0.565   6.800
 6548SOL     OW20542   5.916   3.819   5.622
 6548SOL    HW120543   5.930   3.857   5.714
 6548SOL    HW220544   6.004   3.795   5.582
 6549SOL     OW20545   2.882   1.944   2.408
 6549SOL    HW120546   2.946   1.881   2.452
 6549SOL    HW220547   2.841   2.003   2.478
 6550SOL     OW20548   1.213   5.588   3.098
 6550SOL    HW120549   1.230   5.490   3.101
 6550SOL    HW220550   1.298   5.638   3.112
 6551SOL     OW20551   3.016   5.296   1.955
 6551SOL    HW120552   3.062   5.210   1.978
 6551SOL    HW220553   2.952   5.320   2.028
 6552SOL     OW20554   4.477   5.360   6.546
 6552SOL    HW120555   4.514   5.449   6.573
 6552SOL    HW220556   4.392   5.373   6.496
 6553SOL     OW20557   0.051   3.063   3.078
 6553SOL    HW120558   6.979   3.094   3.061
 6553SOL    HW220559   0.114   3.114   3.020
 6554SOL     OW20560   0.156   3.761   4.267
 6554SOL    HW120561   0.079   3.711   4.306
 6554SOL    HW220562   0.124   3.847   4.226
 6555SOL     OW20563   0.623   1.233   1.573
 6555SOL    HW120564   0.666   1.302   1.632
 6555SOL    HW220565   0.553   1.183   1.625
 6556SOL     OW20566   3.982   0.478   4.045
 6556SOL    HW120567   4.056   0.487   3.978
 6556SOL    HW220568   4.016   0.503   4.136
 6557SOL     OW20569   5.200   6.217   0.565
 6557SOL    HW120570   5.126   6.283   0.552
 6557SOL    HW220571   5.164   6.136   0.611
 6558SOL     OW20572   6.891   6.136   6.166
 6558SOL    HW120573   6.922   6.080   6.243
 6558SOL    HW220574   6.793   6.151   6.173
 6559SOL     OW20575   3.334   3.105   1.291
 6559SOL    HW120576   3.424   3.100   1.248
 6559SOL    HW220577   3.302   3.012   1.312
 6560SOL     OW20578   4.300   1.626   0.569
 6560SOL    HW120579   4.211   1.617   0.613
 6560SOL    HW220580   4.354   1.543   0.586
 6561SOL     OW20581   3.463   3.682   4.338
 6561SOL    HW120582   3.532   3.743   4.376
 6561SOL    HW220583   3.379   3.688   4.392
 6562SOL     OW20584   6.673   3.989   5.201
 6562SOL    HW120585   6.626   4.033   5.124
 6562SOL    HW220586   6.771   3.985   5.182
 6563SOL     OW20587   0.900   5.488   2.229
 6563SOL    HW120588   0.899   5.588   2.241
 6563SOL    HW220589   0.972   5.450   2.287
 6564SOL     OW20590   1.584   5.695   2.518
 6564SOL    HW120591   1.645   5.618   2.537
 6564SOL    HW220592   1.565   5.745   2.602
 6565SOL     OW20593   6.432   3.530   5.188
 6565SOL    HW120594   6.359   3.596   5.171
 6565SOL    HW220595   6.400   3.462   5.254
 6566SOL     OW20596   3.390   0.487   0.916
 6566SOL    HW120597   3.385   0.492   0.817
 6566SOL    HW220598   3.322   0.422   0.950
 6567SOL     OW20599   6.332   2.542   0.936
 6567SOL    HW120600   6.258   2.584   0.989
 6567SOL    HW220601   6.335   2.444   0.954
 6568SOL     OW20602   4.468   3.804   1.700
 6568SOL    HW120603   4.566   3.818   1.714
 6568SOL    HW220604   4.418   3.883   1.735
 6569SOL     OW20605   0.940   5.172   6.152
 6569SOL    HW120606   0.914   5.224   6.233
 6569SOL    HW220607   1.038   5.152   6.156
 6570SOL     OW20608   6.426   3.678   1.910
 6570SOL    HW120609   6.479   3.595   1.892
 6570SOL    HW220610   6.476   3.737   1.974
 6571SOL     OW20611   2.468   6.170   3.516
 6571SOL    HW120612   2.436   6.122   3.597
 6571SOL    HW220613   2.557   6.213   3.535
 6572SOL     OW20614   1.339   4.624   6.026
 6572SOL    HW120615   1.316   4.721   6.029
 6572SOL    HW220616   1.268   4.575   5.974
 6573SOL     OW20617   1.576   2.206   1.815
 6573SOL    HW120618   1.557   2.109   1.801
 6573SOL    HW220619   1.508   2.245   1.877
 6574SOL     OW20620   1.599   4.400   4.184
 6574SOL    HW120621   1.661   4.372   4.257
 6574SOL    HW220622   1.639   4.478   4.135
 6575SOL     OW20623   2.114   1.545   2.986
 6575SOL    HW120624   2.040   1.498   3.035
 6575SOL    HW220625   2.079   1.584   2.901
 6576SOL     OW20626   1.321   6.360   3.963
 6576SOL    HW120627   1.320   6.441   4.022
 6576SOL    HW220628   1.322   6.278   4.020
 6577SOL     OW20629   0.171   3.386   5.111
 6577SOL    HW120630   0.094   3.357   5.168
 6577SOL    HW220631   0.228   3.449   5.163
 6578SOL     OW20632   6.385   5.511   3.204
 6578SOL    HW120633   6.412   5.603   3.234
 6578SOL    HW220634   6.392   5.506   3.104
 6579SOL     OW20635   0.952   3.969   3.121
 6579SOL    HW120636   0.926   3.876   3.146
 6579SOL    HW220637   0.972   4.022   3.203
 6580SOL     OW20638   5.863   2.455   1.331
 6580SOL    HW120639   5.852   2.364   1.370
 6580SOL    HW220640   5.779   2.483   1.285
 6581SOL     OW20641   2.410   2.526   5.624
 6581SOL    HW120642   2.348   2.534   5.702
 6581SOL    HW220643   2.398   2.606   5.564
 6582SOL     OW20644   6.788   0.130   2.074
 6582SOL    HW120645   6.727   0.204   2.044
 6582SOL    HW220646   6.799   0.064   1.999
 6583SOL     OW20647   6.052   1.709   5.965
 6583SOL    HW120648   5.954   1.688   5.958
 6583SOL    HW220649   6.094   1.706   5.875
 6584SOL     OW20650   5.438   2.539   0.526
 6584SOL    HW120651   5.536   2.547   0.543
 6584SOL    HW220652   5.423   2.503   0.433
 6585SOL     OW20653   2.919   0.884   1.830
 6585SOL    HW120654   2.913   0.979   1.859
 6585SOL    HW220655   2.829   0.851   1.802
 6586SOL     OW20656   6.717   1.976   6.855
 6586SOL    HW120657   6.717   2.034   6.774
 6586SOL    HW220658   6.671   1.890   6.835
 6587SOL     OW20659   1.974   6.226   2.194
 6587SOL    HW120660   2.001   6.306   2.139
 6587SOL    HW220661   1.899   6.251   2.255
 6588SOL     OW20662   2.644   2.398   6.872
 6588SOL    HW120663   2.585   2.388   6.952
 6588SOL    HW220664   2.635   2.490   6.836
 6589SOL     OW20665   5.229   1.964   6.157
 6589SOL    HW120666   5.240   2.050   6.106
 6589SOL    HW220667   5.307   1.904   6.137
 6590SOL     OW20668   6.865   1.216   5.766
 6590SOL    HW120669   6.856   1.184   5.671
 6590SOL    HW220670   6.952   1.264   5.776
 6591SOL     OW20671   5.294   0.242   3.093
 6591SOL    HW120672   5.369   0.288   3.139
 6591SOL    HW220673   5.241   0.308   3.041
 6592SOL     OW20674   5.988   5.571   4.719
 6592SOL    HW120675   5.971   5.475   4.739
 6592SOL    HW220676   5.961   5.626   4.799
 6593SOL     OW20677   5.165   0.778   2.519
 6593SOL    HW120678   5.097   0.799   2.448
 6593SOL    HW220679   5.177   0.858   2.577
 6594SOL     OW20680   5.805   0.983   6.693
 6594SOL    HW120681   5.875   0.913   6.707
 6594SOL    HW220682   5.715   0.948   6.720
 6595SOL     OW20683   1.753   3.279   6.714
 6595SOL    HW120684   1.667   3.324   6.690
 6595SOL    HW220685   1.804   3.259   6.631
 6596SOL     OW20686   3.074   6.752   5.487
 6596SOL    HW120687   3.067   6.742   5.388
 6596SOL    HW220688   3.034   6.672   5.532
 6597SOL     OW20689   6.864   4.288   6.531
 6597SOL    HW120690   6.848   4.379   6.571
 6597SOL    HW220691   6.898   4.298   6.438
 6598SOL     OW20692   2.314   5.716   4.890
 6598SOL    HW120693   2.409   5.745   4.904
 6598SOL    HW220694   2.311   5.616   4.879
 6599SOL     OW20695   4.225   2.813   5.999
 6599SOL    HW120696   4.320   2.812   6.031
 6599SOL    HW220697   4.205   2.904   5.961
 6600SOL     OW20698   4.034   5.070   4.675
 6600SOL    HW120699   4.131   5.045   4.673
 6600SOL    HW220700   4.025   5.167   4.698
 6601SOL     OW20701   0.926   0.541   1.078
 6601SOL    HW120702   0.928   0.523   1.176
 6601SOL    HW220703   0.844   0.593   1.055
 6602SOL     OW20704   6.611   1.345   1.532
 6602SOL    HW120705   6.570   1.299   1.610
 6602SOL    HW220706   6.632   1.440   1.557
 6603SOL     OW20707   2.506   2.214   1.884
 6603SOL    HW120708   2.558   2.134   1.855
 6603SOL    HW220709   2.561   2.267   1.950
 6604SOL     OW20710   3.883   5.763   3.994
 6604SOL    HW120711   3.953   5.832   3.975
 6604SOL    HW220712   3.913   5.674   3.959
 6605SOL     OW20713   4.915   6.157   0.417
 6605SOL    HW120714   4.945   6.156   0.322
 6605SOL    HW220715   4.918   6.065   0.454
 6606SOL     OW20716   6.507   1.385   3.066
 6606SOL    HW120717   6.538   1.304   3.116
 6606SOL    HW220718   6.558   1.392   2.981
 6607SOL     OW20719   1.416   1.844   3.012
 6607SOL    HW120720   1.337   1.889   3.055
 6607SOL    HW220721   1.405   1.745   3.019
 6608SOL     OW20722   5.423   5.032   4.993
 6608SOL    HW120723   5.412   4.933   4.997
 6608SOL    HW220724   5.448   5.059   4.900
 6609SOL     OW20725   5.557   1.598   0.238
 6609SOL    HW120726   5.623   1.563   0.171
 6609SOL    HW220727   5.561   1.697   0.239
 6610SOL     OW20728   3.692   1.251   0.617
 6610SOL    HW120729   3.748   1.272   0.537
 6610SOL    HW220730   3.595   1.263   0.594
 6611SOL     OW20731   5.841   3.112   3.090
 6611SOL    HW120732   5.903   3.076   3.160
 6611SOL    HW220733   5.843   3.212   3.091
 6612SOL     OW20734   1.287   5.944   6.939
 6612SOL    HW120735   1.308   5.863   6.995
 6612SOL    HW220736   1.189   5.963   6.945
 6613SOL     OW20737   5.066   4.861   1.054
 6613SOL    HW120738   5.048   4.776   1.105
 6613SOL    HW220739   4.981   4.914   1.049
 6614SOL     OW20740   5.320   4.901   5.523
 6614SOL    HW120741   5.413   4.934   5.537
 6614SOL    HW220742   5.258   4.979   5.514
 6615SOL     OW20743   0.274   3.616   5.306
 6615SOL    HW120744   0.247   3.592   5.400
 6615SOL    HW220745   0.220   3.694   5.274
 6616SOL     OW20746   4.897   1.243   4.069
 6616SOL    HW120747   4.943   1.188   4.000
 6616SOL    HW220748   4.824   1.296   4.027
 6617SOL     OW20749   4.334   0.146   4.814
 6617SOL    HW120750   4.348   0.071   4.879
 6617SOL    HW220751   4.295   0.109   4.729
 6618SOL     OW20752   6.993   5.010   1.124
 6618SOL    HW120753   0.068   5.009   1.098
 6618SOL    HW220754   6.980   4.953   1.205
 6619SOL     OW20755   6.859   6.285   1.636
 6619SOL    HW120756   6.851   6.231   1.552
 6619SOL    HW220757   6.950   6.325   1.641
 6620SOL     OW20758   4.214   3.369   5.806
 6620SOL    HW120759   4.179   3.371   5.712
 6620SOL    HW220760   4.147   3.409   5.867
 6621SOL     OW20761   2.459   3.932   0.459
 6621SOL    HW120762   2.386   3.881   0.504
 6621SOL    HW220763   2.514   3.979   0.529
 6622SOL     OW20764   6.283   5.541   1.082
 6622SOL    HW120765   6.337   5.477   1.136
 6622SOL    HW220766   6.302   5.634   1.112
 6623SOL     OW20767   3.745   3.997   2.419
 6623SOL    HW120768   3.714   4.065   2.487
 6623SOL    HW220769   3.802   3.929   2.464
 6624SOL     OW20770   4.376   5.378   4.021
 6624SOL    HW120771   4.323   5.345   4.100
 6624SOL    HW220772   4.427   5.302   3.981
 6625SOL     OW20773   6.096   6.969   0.225
 6625SOL    HW120774   6.162   0.018   0.199
 6625SOL    HW220775   6.133   6.914   0.299
 6626SOL     OW20776   2.846   5.170   3.708
 6626SOL    HW120777   2.937   5.176   3.667
 6626SOL    HW220778   2.854   5.159   3.807
 6627SOL     OW20779   1.908   6.690   1.818
 6627SOL    HW120780   1.877   6.778   1.782
 6627SOL    HW220781   1.839   6.621   1.800
 6628SOL     OW20782   4.214   6.053   3.461
 6628SOL    HW120783   4.133   5.998   3.483
 6628SOL    HW220784   4.187   6.147   3.443
 6629SOL     OW20785   3.111   3.800   0.031
 6629SOL    HW120786   3.115   3.704   0.002
 6629SOL    HW220787   3.170   3.813   0.111
 6630SOL     OW20788   3.090   1.266   6.508
 6630SOL    HW120789   3.184   1.292   6.486
 6630SOL    HW220790   3.031   1.284   6.429
 6631SOL     OW20791   4.256   0.051   1.470
 6631SOL    HW120792   4.339   0.004   1.500
 6631SOL    HW220793   4.199   7.010   1.417
 6632SOL     OW20794   6.508   2.531   3.110
 6632SOL    HW120795   6.447   2.456   3.085
 6632SOL    HW220796   6.582   2.496   3.167
 6633SOL     OW20797   0.810   6.777   2.102
 6633SOL    HW120798   0.767   6.695   2.139
 6633SOL    HW220799   0.842   6.760   2.009
 6634SOL     OW20800   6.923   2.671   5.596
 6634SOL    HW120801   7.004   2.615   5.577
 6634SOL    HW220802   6.897   2.659   5.691
 6635SOL     OW20803   4.135   4.743   2.949
 6635SOL    HW120804   4.058   4.760   2.888
 6635SOL    HW220805   4.131   4.806   3.027
 6636SOL     OW20806   1.679   3.197   4.202
 6636SOL    HW120807   1.745   3.267   4.229
 6636SOL    HW220808   1.695   3.173   4.106
 6637SOL     OW20809   6.596   2.221   1.905
 6637SOL    HW120810   6.585   2.228   2.004
 6637SOL    HW220811   6.535   2.149   1.870
 6638SOL     OW20812   2.286   0.431   6.495
 6638SOL    HW120813   2.318   0.354   6.550
 6638SOL    HW220814   2.186   0.437   6.501
 6639SOL     OW20815   4.408   5.634   6.142
 6639SOL    HW120816   4.409   5.540   6.108
 6639SOL    HW220817   4.314   5.670   6.139
 6640SOL     OW20818   5.970   2.594   3.128
 6640SOL    HW120819   5.911   2.586   3.209
 6640SOL    HW220820   6.027   2.676   3.136
 6641SOL     OW20821   2.556   5.293   0.056
 6641SOL    HW120822   2.509   5.207   0.076
 6641SOL    HW220823   2.521   5.365   0.116
 6642SOL     OW20824   6.352   6.588   6.883
 6642SOL    HW120825   6.386   6.679   6.860
 6642SOL    HW220826   6.314   6.545   6.801
 6643SOL     OW20827   3.605   5.727   0.339
 6643SOL    HW120828   3.570   5.809   0.292
 6643SOL    HW220829   3.559   5.718   0.427
 6644SOL     OW20830   1.759   4.159   2.084
 6644SOL    HW120831   1.742   4.235   2.021
 6644SOL    HW220832   1.819   4.189   2.158
 6645SOL     OW20833   6.147   4.603   5.223
 6645SOL    HW120834   6.171   4.559   5.309
 6645SOL    HW220835   6.176   4.545   5.146
 6646SOL     OW20836   1.390   6.302   3.623
 6646SOL    HW120837   1.386   6.238   3.700
 6646SOL    HW220838   1.469   6.362   3.633
 6647SOL     OW20839   4.195   1.773   2.170
 6647SOL    HW120840   4.172   1.840   2.100
 6647SOL    HW220841   4.124   1.703   2.175
 6648SOL     OW20842   4.292   5.929   1.619
 6648SOL    HW120843   4.220   5.882   1.670
 6648SOL    HW220844   4.321   5.873   1.542
 6649SOL     OW20845   4.281   2.081   6.041
 6649SOL    HW120846   4.345   2.045   6.110
 6649SOL    HW220847   4.327   2.151   5.987
 6650SOL     OW20848   3.388   1.043   3.740
 6650SOL    HW120849   3.364   1.035   3.644
 6650SOL    HW220850   3.351   0.965   3.791
 6651SOL     OW20851   1.418   1.802   0.287
 6651SOL    HW120852   1.442   1.734   0.356
 6651SOL    HW220853   1.352   1.867   0.325
 6652SOL     OW20854   0.951   5.593   3.116
 6652SOL    HW120855   0.969   5.665   3.183
 6652SOL    HW220856   1.038   5.552   3.088
 6653SOL     OW20857   3.223   3.768   3.375
 6653SOL    HW120858   3.173   3.780   3.289
 6653SOL    HW220859   3.215   3.852   3.429
 6654SOL     OW20860   1.826   3.607   1.714
 6654SOL    HW120861   1.899   3.545   1.740
 6654SOL    HW220862   1.809   3.672   1.789
 6655SOL     OW20863   1.973   0.440   0.752
 6655SOL    HW120864   2.014   0.444   0.660
 6655SOL    HW220865   1.911   0.361   0.757
 6656SOL     OW20866   0.036   2.716   2.021
 6656SOL    HW120867   6.969   2.756   1.997
 6656SOL    HW220868   0.055   2.639   1.960
 6657SOL     OW20869   3.129   4.936   5.775
 6657SOL    HW120870   3.106   4.995   5.697
 6657SOL    HW220871   3.122   4.841   5.747
 6658SOL     OW20872   6.260   6.921   5.904
 6658SOL    HW120873   6.319   6.892   5.829
 6658SOL    HW220874   6.313   6.979   5.967
 6659SOL     OW20875   1.486   2.929   6.752
 6659SOL    HW120876   1.494   3.010   6.694
 6659SOL    HW220877   1.556   2.863   6.726
 6660SOL     OW20878   0.871   6.602   2.623
 6660SOL    HW120879   0.923   6.646   2.695
 6660SOL    HW220880   0.775   6.631   2.629
 6661SOL     OW20881   6.949   6.180   3.749
 6661SOL    HW120882   6.962   6.208   3.844
 6661SOL    HW220883   0.015   6.153   3.709
 6662SOL     OW20884   1.254   3.679   5.728
 6662SOL    HW120885   1.304   3.678   5.815
 6662SOL    HW220886   1.203   3.765   5.721
 6663SOL     OW20887   0.595   5.186   2.124
 6663SOL    HW120888   0.685   5.228   2.139
 6663SOL    HW220889   0.589   5.153   2.030
 6664SOL     OW20890   7.018   1.680   2.687
 6664SOL    HW120891   6.931   1.677   2.736
 6664SOL    HW220892   7.002   1.702   2.591
 6665SOL     OW20893   2.661   6.850   2.477
 6665SOL    HW120894   2.591   6.791   2.436
 6665SOL    HW220895   2.727   6.878   2.407
 6666SOL     OW20896   5.690   1.066   0.635
 6666SOL    HW120897   5.775   1.119   0.629
 6666SOL    HW220898   5.692   0.992   0.568
 6667SOL     OW20899   6.505   5.095   4.913
 6667SOL    HW120900   6.441   5.116   4.839
 6667SOL    HW220901   6.462   5.035   4.980
 6668SOL     OW20902   0.190   6.603   1.449
 6668SOL    HW120903   0.156   6.620   1.356
 6668SOL    HW220904   0.183   6.687   1.503
 6669SOL     OW20905   0.958   5.345   2.975
 6669SOL    HW120906   0.923   5.429   3.016
 6669SOL    HW220907   0.980   5.280   3.048
 6670SOL     OW20908   3.967   4.315   0.571
 6670SOL    HW120909   3.964   4.243   0.502
 6670SOL    HW220910   4.061   4.325   0.605
 6671SOL     OW20911   0.557   2.958   5.458
 6671SOL    HW120912   0.504   2.993   5.380
 6671SOL    HW220913   0.646   2.926   5.426
 6672SOL     OW20914   0.493   0.277   5.699
 6672SOL    HW120915   0.580   0.278   5.649
 6672SOL    HW220916   0.503   0.327   5.785
 6673SOL     OW20917   4.913   5.486   1.351
 6673SOL    HW120918   4.980   5.511   1.421
 6673SOL    HW220919   4.927   5.390   1.325
 6674SOL     OW20920   0.630   6.749   5.209
 6674SOL    HW120921   0.591   6.673   5.158
 6674SOL    HW220922   0.678   6.715   5.290
 6675SOL     OW20923   6.493   6.339   0.430
 6675SOL    HW120924   6.433   6.313   0.505
 6675SOL    HW220925   6.579   6.375   0.468
 6676SOL     OW20926   0.617   1.713   1.090
 6676SOL    HW120927   0.535   1.730   1.145
 6676SOL    HW220928   0.602   1.748   0.997
 6677SOL     OW20929   6.634   4.407   0.270
 6677SOL    HW120930   6.663   4.411   0.366
 6677SOL    HW220931   6.547   4.456   0.260
 6678SOL     OW20932   0.379   3.023   4.104
 6678SOL    HW120933   0.291   3.026   4.056
 6678SOL    HW220934   0.417   2.931   4.097
 6679SOL     OW20935   1.506   0.816   4.712
 6679SOL    HW120936   1.461   0.835   4.625
 6679SOL    HW220937   1.447   0.847   4.787
 6680SOL     OW20938   2.783   0.801   6.318
 6680SOL    HW120939   2.761   0.845   6.231
 6680SOL    HW220940   2.809   0.871   6.385
 6681SOL     OW20941   5.130   5.856   0.014
 6681SOL    HW120942   5.124   5.857   0.114
 6681SOL    HW220943   5.040   5.874   6.997
 6682SOL     OW20944   6.816   5.349   2.066
 6682SOL    HW120945   6.722   5.358   2.033
 6682SOL    HW220946   6.827   5.402   2.150
 6683SOL     OW20947   5.258   1.456   4.220
 6683SOL    HW120948   5.213   1.371   4.192
 6683SOL    HW220949   5.236   1.475   4.316
 6684SOL     OW20950   2.252   1.214   2.788
 6684SOL    HW120951   2.241   1.293   2.729
 6684SOL    HW220952   2.342   1.216   2.831
 6685SOL     OW20953   5.573   2.806   6.455
 6685SOL    HW120954   5.617   2.745   6.521
 6685SOL    HW220955   5.475   2.783   6.449
 6686SOL     OW20956   5.786   3.634   4.322
 6686SOL    HW120957   5.877   3.614   4.284
 6686SOL    HW220958   5.716   3.598   4.261
 6687SOL     OW20959   1.079   0.730   0.217
 6687SOL    HW120960   1.091   0.824   0.249
 6687SOL    HW220961   0.997   0.691   0.259
 6688SOL     OW20962   0.754   5.276   2.467
 6688SOL    HW120963   0.760   5.181   2.436
 6688SOL    HW220964   0.845   5.317   2.467
 6689SOL     OW20965   4.295   5.250   6.892
 6689SOL    HW120966   4.369   5.288   6.836
 6689SOL    HW220967   4.246   5.180   6.840
 6690SOL     OW20968   1.341   1.628   0.664
 6690SOL    HW120969   1.288   1.552   0.701
 6690SOL    HW220970   1.279   1.695   0.622
 6691SOL     OW20971   1.422   5.058   0.972
 6691SOL    HW120972   1.473   5.125   0.918
 6691SOL    HW220973   1.455   5.058   1.066
 6692SOL     OW20974   4.290   4.037   6.172
 6692SOL    HW120975   4.208   4.081   6.135
 6692SOL    HW220976   4.371   4.074   6.127
 6693SOL     OW20977   4.152   3.795   5.408
 6693SOL    HW120978   4.060   3.799   5.370
 6693SOL    HW220979   4.211   3.740   5.349
 6694SOL     OW20980   2.904   6.418   0.407
 6694SOL    HW120981   2.911   6.465   0.319
 6694SOL    HW220982   2.828   6.353   0.404
 6695SOL     OW20983   1.671   1.488   6.352
 6695SOL    HW120984   1.648   1.499   6.449
 6695SOL    HW220985   1.770   1.474   6.342
 6696SOL     OW20986   1.889   2.841   1.522
 6696SOL    HW120987   1.935   2.930   1.518
 6696SOL    HW220988   1.952   2.769   1.494
 6697SOL     OW20989   5.183   2.673   3.813
 6697SOL    HW120990   5.123   2.645   3.738
 6697SOL    HW220991   5.131   2.675   3.898
 6698SOL     OW20992   3.035   4.429   0.192
 6698SOL    HW120993   3.018   4.505   0.129
 6698SOL    HW220994   3.107   4.456   0.257
 6699SOL     OW20995   1.219   3.526   6.357
 6699SOL    HW120996   1.145   3.529   6.290
 6699SOL    HW220997   1.180   3.522   6.449
 6700SOL     OW20998   6.932   6.538   6.288
 6700SOL    HW120999   7.010   6.498   6.240
 6700SOL    HW221000   6.965   6.592   6.365
 6701SOL     OW21001   0.590   2.895   1.264
 6701SOL    HW121002   0.620   2.802   1.240
 6701SOL    HW221003   0.652   2.932   1.333
 6702SOL     OW21004   1.585   3.534   0.615
 6702SOL    HW121005   1.514   3.527   0.685
 6702SOL    HW221006   1.624   3.443   0.598
 6703SOL     OW21007   0.589   2.562   6.770
 6703SOL    HW121008   0.577   2.496   6.845
 6703SOL    HW221009   0.503   2.571   6.720
 6704SOL     OW21010   4.935   2.775   3.197
 6704SOL    HW121011   4.884   2.770   3.111
 6704SOL    HW221012   4.886   2.832   3.263
 6705SOL     OW21013   5.975   0.982   0.992
 6705SOL    HW121014   5.935   1.023   1.073
 6705SOL    HW221015   6.046   0.917   1.019
 6706SOL     OW21016   0.831   6.098   0.075
 6706SOL    HW121017   0.772   6.042   0.134
 6706SOL    HW221018   0.910   6.131   0.128
 6707SOL     OW21019   1.216   5.429   2.229
 6707SOL    HW121020   1.156   5.492   2.179
 6707SOL    HW221021   1.298   5.478   2.258
 6708SOL     OW21022   2.309   6.345   1.864
 6708SOL    HW121023   2.239   6.417   1.874
 6708SOL    HW221024   2.302   6.306   1.773
 6709SOL     OW21025   4.875   1.647   3.116
 6709SOL    HW121026   4.899   1.573   3.178
 6709SOL    HW221027   4.907   1.734   3.154
 6710SOL     OW21028   2.039   1.866   0.703
 6710SOL    HW121029   1.986   1.890   0.622
 6710SOL    HW221030   2.003   1.782   0.743
 6711SOL     OW21031   5.222   3.565   0.164
 6711SOL    HW121032   5.226   3.478   0.114
 6711SOL    HW221033   5.166   3.630   0.114
 6712SOL     OW21034   3.274   6.029   1.610
 6712SOL    HW121035   3.305   6.122   1.593
 6712SOL    HW221036   3.225   6.026   1.698
 6713SOL     OW21037   1.841   1.631   3.193
 6713SOL    HW121038   1.753   1.669   3.222
 6713SOL    HW221039   1.893   1.700   3.143
 6714SOL     OW21040   6.531   0.312   4.633
 6714SOL    HW121041   6.630   0.303   4.628
 6714SOL    HW221042   6.495   0.255   4.707
 6715SOL     OW21043   6.566   2.101   0.491
 6715SOL    HW121044   6.655   2.110   0.446
 6715SOL    HW221045   6.493   2.113   0.424
 6716SOL     OW21046   2.715   6.192   1.064
 6716SOL    HW121047   2.803   6.175   1.108
 6716SOL    HW221048   2.718   6.159   0.970
 6717SOL     OW21049   4.078   1.075   6.837
 6717SOL    HW121050   3.999   1.091   6.778
 6717SOL    HW221051   4.078   1.142   6.912
 6718SOL     OW21052   3.325   0.041   0.302
 6718SOL    HW121053   3.288   6.995   0.365
 6718SOL    HW221054   3.358   0.120   0.354
 6719SOL     OW21055   0.669   1.088   5.538
 6719SOL    HW121056   0.653   1.157   5.467
 6719SOL    HW221057   0.710   1.131   5.618
 6720SOL     OW21058   1.843   4.628   1.447
 6720SOL    HW121059   1.757   4.666   1.482
 6720SOL    HW221060   1.884   4.570   1.518
 6721SOL     OW21061   0.354   6.229   2.794
 6721SOL    HW121062   0.326   6.213   2.699
 6721SOL    HW221063   0.453   6.220   2.802
 6722SOL     OW21064   4.981   5.005   6.754
 6722SOL    HW121065   5.071   4.991   6.796
 6722SOL    HW221066   4.919   5.044   6.821
 6723SOL     OW21067   4.445   0.854   2.835
 6723SOL    HW121068   4.502   0.773   2.818
 6723SOL    HW221069   4.499   0.936   2.819
 6724SOL     OW21070   3.750   4.875   5.675
 6724SOL    HW121071   3.727   4.926   5.592
 6724SOL    HW221072   3.834   4.822   5.660
 6725SOL     OW21073   6.815   5.203   1.202
 6725SOL    HW121074   6.745   5.148   1.248
 6725SOL    HW221075   6.879   5.143   1.154
 6726SOL     OW21076   2.131   2.594   1.938
 6726SOL    HW121077   2.203   2.538   1.895
 6726SOL    HW221078   2.083   2.645   1.867
 6727SOL     OW21079   3.092   3.794   0.632
 6727SOL    HW121080   3.013   3.753   0.586
 6727SOL    HW221081   3.116   3.740   0.712
 6728SOL     OW21082   4.744   1.517   4.713
 6728SOL    HW121083   4.789   1.510   4.624
 6728SOL    HW221084   4.733   1.425   4.752
 6729SOL     OW21085   5.033   6.070   3.398
 6729SOL    HW121086   5.055   6.005   3.325
 6729SOL    HW221087   5.053   6.028   3.487
 6730SOL     OW21088   1.480   0.386   2.116
 6730SOL    HW121089   1.564   0.332   2.118
 6730SOL    HW221090   1.502   0.480   2.088
 6731SOL     OW21091   1.893   4.331   2.261
 6731SOL    HW121092   1.993   4.329   2.261
 6731SOL    HW221093   1.861   4.385   2.338
 6732SOL     OW21094   2.473   5.795   0.001
 6732SOL    HW121095   2.381   5.793   0.042
 6732SOL    HW221096   2.485   5.714   6.966
 6733SOL     OW21097   5.931   5.964   4.673
 6733SOL    HW121098   5.961   5.881   4.625
 6733SOL    HW221099   5.836   5.984   4.648
 6734SOL     OW21100   2.969   3.605   5.750
 6734SOL    HW121101   2.892   3.657   5.712
 6734SOL    HW221102   2.949   3.507   5.743
 6735SOL     OW21103   0.995   6.309   6.745
 6735SOL    HW121104   1.026   6.276   6.834
 6735SOL    HW221105   0.897   6.289   6.735
 6736SOL     OW21106   2.207   4.050   2.382
 6736SOL    HW121107   2.160   4.114   2.442
 6736SOL    HW221108   2.281   4.097   2.334
 6737SOL     OW21109   2.121   0.081   0.734
 6737SOL    HW121110   2.116   0.000   0.675
 6737SOL    HW221111   2.114   0.164   0.679
 6738SOL     OW21112   4.739   1.507   1.477
 6738SOL    HW121113   4.818   1.548   1.524
 6738SOL    HW221114   4.753   1.409   1.469
 6739SOL     OW21115   3.938   6.841   5.542
 6739SOL    HW121116   4.028   6.823   5.501
 6739SOL    HW221117   3.866   6.818   5.477
 6740SOL     OW21118   5.828   3.206   5.642
 6740SOL    HW121119   5.919   3.241   5.665
 6740SOL    HW221120   5.762   3.240   5.708
 6741SOL     OW21121   0.483   6.808   5.984
 6741SOL    HW121122   0.485   6.723   6.036
 6741SOL    HW221123   0.497   6.788   5.887
 6742SOL     OW21124   6.282   6.069   5.036
 6742SOL    HW121125   6.267   5.978   5.076
 6742SOL    HW221126   6.197   6.122   5.040
 6743SOL     OW21127   5.868   2.168   1.434
 6743SOL    HW121128   5.936   2.113   1.387
 6743SOL    HW221129   5.780   2.120   1.432
 6744SOL     OW21130   5.217   6.331   4.466
 6744SOL    HW121131   5.206   6.295   4.559
 6744SOL    HW221132   5.160   6.412   4.455
 6745SOL     OW21133   0.904   3.240   2.899
 6745SOL    HW121134   0.816   3.229   2.945
 6745SOL    HW221135   0.921   3.338   2.885
 6746SOL     OW21136   6.837   1.021   0.693
 6746SOL    HW121137   6.837   1.047   0.789
 6746SOL    HW221138   6.928   0.987   0.667
 6747SOL     OW21139   4.576   5.833   6.617
 6747SOL    HW121140   4.527   5.838   6.530
 6747SOL    HW221141   4.613   5.923   6.639
 6748SOL     OW21142   0.132   6.444   1.864
 6748SOL    HW121143   0.087   6.393   1.938
 6748SOL    HW221144   0.086   6.423   1.777
 6749SOL     OW21145   3.373   5.496   1.209
 6749SOL    HW121146   3.409   5.412   1.170
 6749SOL    HW221147   3.280   5.480   1.243
 6750SOL     OW21148   2.266   3.123   5.307
 6750SOL    HW121149   2.255   3.222   5.307
 6750SOL    HW221150   2.338   3.097   5.243
 6751SOL     OW21151   4.002   1.619   5.755
 6751SOL    HW121152   4.071   1.548   5.769
 6751SOL    HW221153   4.048   1.707   5.743
 6752SOL     OW21154   6.745   1.995   0.111
 6752SOL    HW121155   6.766   1.905   0.149
 6752SOL    HW221156   6.751   1.993   0.012
 6753SOL     OW21157   6.280   1.130   6.761
 6753SOL    HW121158   6.201   1.176   6.801
 6753SOL    HW221159   6.351   1.197   6.740
 6754SOL     OW21160   4.876   1.034   6.743
 6754SOL    HW121161   4.972   1.015   6.722
 6754SOL    HW221162   4.842   1.106   6.683
 6755SOL     OW21163   5.116   1.960   3.678
 6755SOL    HW121164   5.047   1.971   3.607
 6755SOL    HW221165   5.123   2.044   3.731
 6756SOL     OW21166   4.839   3.978   3.578
 6756SOL    HW121167   4.927   3.964   3.624
 6756SOL    HW221168   4.768   3.992   3.647
 6757SOL     OW21169   6.145   4.717   1.506
 6757SOL    HW121170   6.227   4.741   1.558
 6757SOL    HW221171   6.163   4.729   1.409
 6758SOL     OW21172   6.041   1.396   3.252
 6758SOL    HW121173   6.011   1.315   3.302
 6758SOL    HW221174   6.125   1.375   3.202
 6759SOL     OW21175   1.475   5.212   2.864
 6759SOL    HW121176   1.500   5.116   2.869
 6759SOL    HW221177   1.554   5.267   2.836
 6760SOL     OW21178   0.139   3.816   5.123
 6760SOL    HW121179   0.060   3.877   5.124
 6760SOL    HW221180   0.222   3.869   5.107
 6761SOL     OW21181   5.916   2.659   6.435
 6761SOL    HW121182   5.951   2.685   6.524
 6761SOL    HW221183   5.992   2.645   6.371
 6762SOL     OW21184   0.022   4.025   3.132
 6762SOL    HW121185   0.095   4.093   3.127
 6762SOL    HW221186   0.001   4.007   3.228
 6763SOL     OW21187   5.678   0.061   4.858
 6763SOL    HW121188   5.613   0.131   4.889
 6763SOL    HW221189   5.636   6.992   4.868
 6764SOL     OW21190   2.181   3.609   6.559
 6764SOL    HW121191   2.200   3.583   6.464
 6764SOL    HW221192   2.084   3.596   6.578
 6765SOL     OW21193   5.033   5.133   2.780
 6765SOL    HW121194   5.088   5.080   2.845
 6765SOL    HW221195   5.018   5.080   2.697
 6766SOL     OW21196   1.844   2.650   6.170
 6766SOL    HW121197   1.871   2.728   6.114
 6766SOL    HW221198   1.848   2.567   6.115
 6767SOL     OW21199   0.347   2.615   6.174
 6767SOL    HW121200   0.305   2.703   6.156
 6767SOL    HW221201   0.291   2.542   6.134
 6768SOL     OW21202   6.529   0.637   6.397
 6768SOL    HW121203   6.557   0.703   6.327
 6768SOL    HW221204   6.523   0.682   6.486
 6769SOL     OW21205   1.102   2.727   6.185
 6769SOL    HW121206   1.011   2.769   6.189
 6769SOL    HW221207   1.155   2.754   6.266
 6770SOL     OW21208   6.869   1.612   4.283
 6770SOL    HW121209   6.780   1.575   4.256
 6770SOL    HW221210   6.938   1.540   4.281
 6771SOL     OW21211   6.321   1.892   2.632
 6771SOL    HW121212   6.243   1.936   2.677
 6771SOL    HW221213   6.294   1.862   2.541
 6772SOL     OW21214   1.288   0.705   2.332
 6772SOL    HW121215   1.249   0.719   2.423
 6772SOL    HW221216   1.367   0.765   2.319
 6773SOL     OW21217   1.899   0.793   2.577
 6773SOL    HW121218   1.971   0.824   2.514
 6773SOL    HW221219   1.844   0.871   2.606
 6774SOL     OW21220   3.813   1.411   5.151
 6774SOL    HW121221   3.772   1.422   5.241
 6774SOL    HW221222   3.773   1.331   5.105
 6775SOL     OW21223   1.193   2.580   4.580
 6775SOL    HW121224   1.251   2.603   4.502
 6775SOL    HW221225   1.205   2.483   4.604
 6776SOL     OW21226   3.497   3.712   3.521
 6776SOL    HW121227   3.540   3.802   3.527
 6776SOL    HW221228   3.427   3.713   3.450
 6777SOL     OW21229   0.468   6.354   6.174
 6777SOL    HW121230   0.470   6.396   6.265
 6777SOL    HW221231   0.414   6.269   6.178
 6778SOL     OW21232   6.598   6.075   1.913
 6778SOL    HW121233   6.510   6.042   1.949
 6778SOL    HW221234   6.610   6.043   1.819
 6779SOL     OW21235   4.662   4.491   6.789
 6779SOL    HW121236   4.646   4.586   6.761
 6779SOL    HW221237   4.588   4.461   6.849
 6780SOL     OW21238   4.557   0.617   2.750
 6780SOL    HW121239   4.588   0.540   2.804
 6780SOL    HW221240   4.606   0.619   2.663
 6781SOL     OW21241   6.358   3.035   3.412
 6781SOL    HW121242   6.351   3.102   3.486
 6781SOL    HW221243   6.309   3.070   3.331
 6782SOL     OW21244   0.465   1.245   3.165
 6782SOL    HW121245   0.424   1.227   3.254
 6782SOL    HW221246   0.543   1.184   3.150
 6783SOL     OW21247   0.290   6.128   6.625
 6783SOL    HW121248   0.349   6.078   6.688
 6783SOL    HW221249   0.208   6.159   6.673
 6784SOL     OW21250   1.239   4.853   0.459
 6784SOL    HW121251   1.260   4.756   0.465
 6784SOL    HW221252   1.184   4.880   0.537
 6785SOL     OW21253   5.397   4.725   1.901
 6785SOL    HW121254   5.316   4.666   1.890
 6785SOL    HW221255   5.413   4.776   1.817
 6786SOL     OW21256   6.612   2.128   5.407
 6786SOL    HW121257   6.650   2.183   5.332
 6786SOL    HW221258   6.677   2.055   5.431
 6787SOL     OW21259   4.020   2.036   1.196
 6787SOL    HW121260   4.069   2.006   1.278
 6787SOL    HW221261   3.923   2.047   1.217
 6788SOL     OW21262   1.228   4.411   1.071
 6788SOL    HW121263   1.181   4.483   1.021
 6788SOL    HW221264   1.207   4.323   1.030
 6789SOL     OW21265   5.457   3.583   2.330
 6789SOL    HW121266   5.407   3.536   2.258
 6789SOL    HW221267   5.400   3.590   2.412
 6790SOL     OW21268   0.048   5.605   0.885
 6790SOL    HW121269   0.146   5.600   0.869
 6790SOL    HW221270   0.003   5.528   0.840
 6791SOL     OW21271   2.399   6.430   3.214
 6791SOL    HW121272   2.477   6.421   3.275
 6791SOL    HW221273   2.354   6.341   3.206
 6792SOL     OW21274   3.231   5.859   6.795
 6792SOL    HW121275   3.284   5.831   6.874
 6792SOL    HW221276   3.195   5.778   6.748
 6793SOL     OW21277   2.343   4.511   6.615
 6793SOL    HW121278   2.327   4.421   6.575
 6793SOL    HW221279   2.309   4.582   6.553
 6794SOL     OW21280   4.861   2.541   4.600
 6794SOL    HW121281   4.895   2.603   4.670
 6794SOL    HW221282   4.880   2.579   4.510
 6795SOL     OW21283   0.901   1.178   2.202
 6795SOL    HW121284   0.916   1.098   2.261
 6795SOL    HW221285   0.810   1.215   2.218
 6796SOL     OW21286   6.616   3.012   2.643
 6796SOL    HW121287   6.672   2.965   2.711
 6796SOL    HW221288   6.547   2.949   2.608
 6797SOL     OW21289   1.809   4.004   1.240
 6797SOL    HW121290   1.790   4.102   1.227
 6797SOL    HW221291   1.772   3.952   1.163
 6798SOL     OW21292   4.799   1.211   1.974
 6798SOL    HW121293   4.710   1.199   2.018
 6798SOL    HW221294   4.791   1.278   1.900
 6799SOL     OW21295   5.754   6.838   2.874
 6799SOL    HW121296   5.736   6.910   2.940
 6799SOL    HW221297   5.678   6.833   2.809
 6800SOL     OW21298   6.717   2.822   2.846
 6800SOL    HW121299   6.634   2.802   2.899
 6800SOL    HW221300   6.774   2.740   2.841
 6801SOL     OW21301   1.722   5.204   4.885
 6801SOL    HW121302   1.649   5.218   4.817
 6801SOL    HW221303   1.691   5.237   4.974
 6802SOL     OW21304   2.743   4.539   1.625
 6802SOL    HW121305   2.666   4.478   1.607
 6802SOL    HW221306   2.795   4.505   1.703
 6803SOL     OW21307   6.004   4.871   6.669
 6803SOL    HW121308   6.068   4.795   6.662
 6803SOL    HW221309   6.050   4.956   6.643
 6804SOL     OW21310   3.342   5.230   1.955
 6804SOL    HW121311   3.373   5.254   2.047
 6804SOL    HW221312   3.270   5.161   1.961
 6805SOL     OW21313   0.752   5.006   3.739
 6805SOL    HW121314   0.665   4.968   3.707
 6805SOL    HW221315   0.742   5.104   3.754
 6806SOL     OW21316   5.723   3.605   2.372
 6806SOL    HW121317   5.624   3.588   2.369
 6806SOL    HW221318   5.771   3.519   2.354
 6807SOL     OW21319   3.504   3.235   2.645
 6807SOL    HW121320   3.583   3.259   2.700
 6807SOL    HW221321   3.522   3.257   2.549
 6808SOL     OW21322   3.811   6.749   3.131
 6808SOL    HW121323   3.887   6.751   3.196
 6808SOL    HW221324   3.818   6.668   3.073
 6809SOL     OW21325   5.196   2.448   0.630
 6809SOL    HW121326   5.182   2.412   0.721
 6809SOL    HW221327   5.290   2.480   0.620
 6810SOL     OW21328   2.421   6.579   4.542
 6810SOL    HW121329   2.357   6.655   4.558
 6810SOL    HW221330   2.372   6.492   4.552
 6811SOL     OW21331   6.406   1.643   1.503
 6811SOL    HW121332   6.330   1.581   1.518
 6811SOL    HW221333   6.489   1.606   1.545
 6812SOL     OW21334   3.605   4.537   5.329
 6812SOL    HW121335   3.699   4.559   5.353
 6812SOL    HW221336   3.549   4.620   5.335
 6813SOL     OW21337   0.184   3.658   1.863
 6813SOL    HW121338   0.241   3.733   1.897
 6813SOL    HW221339   0.222   3.570   1.891
 6814SOL     OW21340   4.531   2.047   1.868
 6814SOL    HW121341   4.479   2.122   1.827
 6814SOL    HW221342   4.580   2.081   1.949
 6815SOL     OW21343   1.026   5.817   0.288
 6815SOL    HW121344   1.091   5.884   0.324
 6815SOL    HW221345   0.939   5.863   0.268
 6816SOL     OW21346   6.276   6.390   4.207
 6816SOL    HW121347   6.205   6.460   4.196
 6816SOL    HW221348   6.276   6.329   4.128
 6817SOL     OW21349   5.713   0.767   2.010
 6817SOL    HW121350   5.741   0.826   1.935
 6817SOL    HW221351   5.638   0.708   1.981
 6818SOL     OW21352   0.069   7.021   5.739
 6818SOL    HW121353   0.089   6.926   5.763
 6818SOL    HW221354   0.133   0.060   5.787
 6819SOL     OW21355   5.316   4.071   0.924
 6819SOL    HW121356   5.364   4.118   0.998
 6819SOL    HW221357   5.362   4.089   0.838
 6820SOL     OW21358   2.191   3.353   1.293
 6820SOL    HW121359   2.243   3.391   1.370
 6820SOL    HW221360   2.136   3.277   1.324
 6821SOL     OW21361   2.780   3.141   5.952
 6821SOL    HW121362   2.734   3.094   6.027
 6821SOL    HW221363   2.866   3.094   5.931
 6822SOL     OW21364   6.570   4.133   4.982
 6822SOL    HW121365   6.550   4.065   4.912
 6822SOL    HW221366   6.634   4.201   4.946
 6823SOL     OW21367   6.434   3.323   5.942
 6823SOL    HW121368   6.340   3.334   5.910
 6823SOL    HW221369   6.492   3.295   5.866
 6824SOL     OW21370   0.705   0.747   3.732
 6824SOL    HW121371   0.763   0.823   3.760
 6824SOL    HW221372   0.634   0.733   3.801
 6825SOL     OW21373   4.511   4.414   1.275
 6825SOL    HW121374   4.488   4.319   1.256
 6825SOL    HW221375   4.462   4.445   1.356
 6826SOL     OW21376   5.974   1.142   3.304
 6826SOL    HW121377   5.877   1.134   3.325
 6826SOL    HW221378   6.018   1.052   3.313
 6827SOL     OW21379   5.023   5.642   5.765
 6827SOL    HW121380   5.009   5.549   5.798
 6827SOL    HW221381   5.010   5.645   5.666
 6828SOL     OW21382   2.566   2.461   2.548
 6828SOL    HW121383   2.639   2.462   2.480
 6828SOL    HW221384   2.507   2.541   2.536
 6829SOL     OW21385   5.442   6.494   4.045
 6829SOL    HW121386   5.503   6.434   4.097
 6829SOL    HW221387   5.368   6.440   4.005
 6830SOL     OW21388   4.169   6.253   2.075
 6830SOL    HW121389   4.232   6.330   2.086
 6830SOL    HW221390   4.098   6.277   2.008
 6831SOL     OW21391   1.860   1.144   6.735
 6831SOL    HW121392   1.931   1.183   6.794
 6831SOL    HW221393   1.774   1.141   6.785
 6832SOL     OW21394   2.948   3.322   0.067
 6832SOL    HW121395   2.974   3.409   0.108
 6832SOL    HW221396   2.863   3.289   0.108
 6833SOL     OW21397   4.660   5.159   6.512
 6833SOL    HW121398   4.603   5.232   6.548
 6833SOL    HW221399   4.757   5.185   6.518
 6834SOL     OW21400   5.670   5.617   5.465
 6834SOL    HW121401   5.721   5.579   5.542
 6834SOL    HW221402   5.733   5.648   5.395
 6835SOL     OW21403   3.943   0.338   3.110
 6835SOL    HW121404   3.850   0.354   3.144
 6835SOL    HW221405   3.961   0.240   3.109
 6836SOL     OW21406   0.769   4.753   6.874
 6836SOL    HW121407   0.683   4.723   6.915
 6836SOL    HW221408   0.786   4.698   6.792
 6837SOL     OW21409   6.440   1.990   1.873
 6837SOL    HW121410   6.492   1.932   1.935
 6837SOL    HW221411   6.342   1.983   1.895
 6838SOL     OW21412   2.613   4.544   6.447
 6838SOL    HW121413   2.610   4.580   6.353
 6838SOL    HW221414   2.667   4.460   6.449
 6839SOL     OW21415   5.851   2.512   5.625
 6839SOL    HW121416   5.861   2.451   5.703
 6839SOL    HW221417   5.756   2.512   5.594
 6840SOL     OW21418   3.498   0.000   4.752
 6840SOL    HW121419   3.565   7.010   4.824
 6840SOL    HW221420   3.430   6.949   4.757
 6841SOL     OW21421   4.345   6.444   0.537
 6841SOL    HW121422   4.434   6.410   0.507
 6841SOL    HW221423   4.355   6.537   0.572
 6842SOL     OW21424   1.278   3.270   3.619
 6842SOL    HW121425   1.348   3.327   3.575
 6842SOL    HW221426   1.248   3.313   3.704
 6843SOL     OW21427   4.907   2.849   1.845
 6843SOL    HW121428   4.845   2.904   1.901
 6843SOL    HW221429   4.878   2.753   1.847
 6844SOL     OW21430   3.217   6.814   4.967
 6844SOL    HW121431   3.243   6.790   4.873
 6844SOL    HW221432   3.267   6.755   5.031
 6845SOL     OW21433   3.815   3.758   6.944
 6845SOL    HW121434   3.854   3.790   6.858
 6845SOL    HW221435   3.843   3.663   6.960
 6846SOL     OW21436   4.141   3.438   3.734
 6846SOL    HW121437   4.124   3.367   3.802
 6846SOL    HW221438   4.124   3.528   3.775
 6847SOL     OW21439   5.294   2.754   2.654
 6847SOL    HW121440   5.228   2.769   2.728
 6847SOL    HW221441   5.315   2.842   2.610
 6848SOL     OW21442   0.776   5.873   5.124
 6848SOL    HW121443   0.706   5.839   5.187
 6848SOL    HW221444   0.803   5.966   5.152
 6849SOL     OW21445   3.182   0.689   4.901
 6849SOL    HW121446   3.098   0.727   4.860
 6849SOL    HW221447   3.163   0.660   4.995
 6850SOL     OW21448   6.526   3.442   1.816
 6850SOL    HW121449   6.441   3.420   1.768
 6850SOL    HW221450   6.604   3.422   1.758
 6851SOL     OW21451   1.541   5.735   6.492
 6851SOL    HW121452   1.625   5.779   6.526
 6851SOL    HW221453   1.468   5.748   6.559
 6852SOL     OW21454   6.148   5.023   2.255
 6852SOL    HW121455   6.207   4.995   2.180
 6852SOL    HW221456   6.202   5.074   2.323
 6853SOL     OW21457   6.127   4.326   4.614
 6853SOL    HW121458   6.029   4.306   4.613
 6853SOL    HW221459   6.176   4.250   4.571
 6854SOL     OW21460   6.427   1.501   0.074
 6854SOL    HW121461   6.406   1.496   0.172
 6854SOL    HW221462   6.482   1.422   0.048
 6855SOL     OW21463   3.270   0.038   1.935
 6855SOL    HW121464   3.263   0.011   2.031
 6855SOL    HW221465   3.359   0.009   1.898
 6856SOL     OW21466   0.605   6.193   5.838
 6856SOL    HW121467   0.638   6.137   5.761
 6856SOL    HW221468   0.683   6.226   5.891
 6857SOL     OW21469   4.768   0.715   0.105
 6857SOL    HW121470   4.766   0.812   0.083
 6857SOL    HW221471   4.741   0.662   0.024
 6858SOL     OW21472   3.503   3.119   6.742
 6858SOL    HW121473   3.517   3.150   6.648
 6858SOL    HW221474   3.434   3.047   6.744
 6859SOL     OW21475   4.160   0.915   0.223
 6859SOL    HW121476   4.165   0.996   0.280
 6859SOL    HW221477   4.188   0.937   0.130
 6860SOL     OW21478   4.949   3.343   6.968
 6860SOL    HW121479   4.923   3.335   6.872
 6860SOL    HW221480   4.873   3.313   0.004
 6861SOL     OW21481   5.713   3.601   0.696
 6861SOL    HW121482   5.676   3.564   0.610
 6861SOL    HW221483   5.707   3.700   0.695
 6862SOL     OW21484   2.578   4.901   4.515
 6862SOL    HW121485   2.625   4.984   4.546
 6862SOL    HW221486   2.562   4.906   4.417
 6863SOL     OW21487   1.233   3.423   3.859
 6863SOL    HW121488   1.307   3.489   3.847
 6863SOL    HW221489   1.193   3.433   3.950
 6864SOL     OW21490   4.045   5.675   6.370
 6864SOL    HW121491   4.033   5.578   6.348
 6864SOL    HW221492   4.019   5.690   6.466
 6865SOL     OW21493   0.260   2.787   4.474
 6865SOL    HW121494   0.236   2.841   4.555
 6865SOL    HW221495   0.334   2.724   4.496
 6866SOL     OW21496   0.808   3.817   2.899
 6866SOL    HW121497   0.774   3.759   2.825
 6866SOL    HW221498   0.784   3.912   2.880
 6867SOL     OW21499   2.096   5.534   3.300
 6867SOL    HW121500   2.173   5.509   3.359
 6867SOL    HW221501   2.013   5.488   3.332
 6868SOL     OW21502   1.910   5.367   4.736
 6868SOL    HW121503   1.857   5.300   4.788
 6868SOL    HW221504   1.878   5.459   4.760
 6869SOL     OW21505   0.248   3.105   5.041
 6869SOL    HW121506   0.247   3.198   5.079
 6869SOL    HW221507   0.338   3.086   5.001
 6870SOL     OW21508   5.888   3.406   3.116
 6870SOL    HW121509   5.830   3.486   3.099
 6870SOL    HW221510   5.935   3.381   3.031
 6871SOL     OW21511   5.115   5.820   1.527
 6871SOL    HW121512   5.077   5.852   1.614
 6871SOL    HW221513   5.050   5.759   1.483
 6872SOL     OW21514   3.063   4.322   0.661
 6872SOL    HW121515   3.101   4.390   0.724
 6872SOL    HW221516   3.003   4.367   0.596
 6873SOL     OW21517   5.721   4.861   4.480
 6873SOL    HW121518   5.654   4.883   4.551
 6873SOL    HW221519   5.681   4.798   4.414
 6874SOL     OW21520   0.666   1.756   6.045
 6874SOL    HW121521   0.716   1.755   6.132
 6874SOL    HW221522   0.676   1.668   5.999
 6875SOL     OW21523   4.128   0.689   4.686
 6875SOL    HW121524   4.071   0.607   4.685
 6875SOL    HW221525   4.088   0.759   4.627
 6876SOL     OW21526   3.588   5.695   4.591
 6876SOL    HW121527   3.646   5.726   4.516
 6876SOL    HW221528   3.610   5.747   4.673
 6877SOL     OW21529   1.438   3.764   6.046
 6877SOL    HW121530   1.528   3.806   6.054
 6877SOL    HW221531   1.429   3.691   6.115
 6878SOL     OW21532   0.909   1.405   4.459
 6878SOL    HW121533   0.923   1.497   4.422
 6878SOL    HW221534   0.927   1.338   4.387
 6879SOL     OW21535   6.830   1.060   5.116
 6879SOL    HW121536   6.784   1.120   5.181
 6879SOL    HW221537   6.839   1.107   5.028
 6880SOL     OW21538   1.229   4.278   4.570
 6880SOL    HW121539   1.282   4.200   4.603
 6880SOL    HW221540   1.272   4.316   4.489
 6881SOL     OW21541   5.334   5.711   1.460
 6881SOL    HW121542   5.352   5.640   1.529
 6881SOL    HW221543   5.249   5.758   1.483
 6882SOL     OW21544   2.501   6.249   5.585
 6882SOL    HW121545   2.497   6.327   5.647
 6882SOL    HW221546   2.564   6.269   5.510
 6883SOL     OW21547   3.186   5.906   2.121
 6883SOL    HW121548   3.165   5.900   2.024
 6883SOL    HW221549   3.255   5.838   2.145
 6884SOL     OW21550   1.850   4.975   2.374
 6884SOL    HW121551   1.771   4.965   2.435
 6884SOL    HW221552   1.838   5.057   2.318
 6885SOL     OW21553   4.216   4.836   4.994
 6885SOL    HW121554   4.134   4.837   5.051
 6885SOL    HW221555   4.259   4.746   5.000
 6886SOL     OW21556   5.284   1.114   1.641
 6886SOL    HW121557   5.338   1.033   1.617
 6886SOL    HW221558   5.187   1.095   1.622
 6887SOL     OW21559   6.265   0.773   5.042
 6887SOL    HW121560   6.233   0.818   4.958
 6887SOL    HW221561   6.275   0.675   5.025
 6888SOL     OW21562   5.791   0.183   4.095
 6888SOL    HW121563   5.838   0.240   4.163
 6888SOL    HW221564   5.735   0.241   4.036
 6889SOL     OW21565   2.050   4.549   6.353
 6889SOL    HW121566   2.018   4.539   6.259
 6889SOL    HW221567   2.053   4.459   6.397
 6890SOL     OW21568   1.988   0.704   1.099
 6890SOL    HW121569   1.968   0.780   1.037
 6890SOL    HW221570   2.030   0.629   1.048
 6891SOL     OW21571   4.329   5.591   5.552
 6891SOL    HW121572   4.321   5.634   5.642
 6891SOL    HW221573   4.426   5.573   5.532
 6892SOL     OW21574   3.204   1.687   4.764
 6892SOL    HW121575   3.234   1.597   4.794
 6892SOL    HW221576   3.210   1.751   4.842
 6893SOL     OW21577   5.202   0.782   1.389
 6893SOL    HW121578   5.261   0.709   1.355
 6893SOL    HW221579   5.121   0.790   1.331
 6894SOL     OW21580   5.947   4.554   6.408
 6894SOL    HW121581   5.931   4.491   6.332
 6894SOL    HW221582   6.027   4.525   6.459
 6895SOL     OW21583   4.314   5.347   5.764
 6895SOL    HW121584   4.246   5.285   5.802
 6895SOL    HW221585   4.271   5.436   5.746
 6896SOL     OW21586   4.455   1.533   2.764
 6896SOL    HW121587   4.390   1.608   2.746
 6896SOL    HW221588   4.531   1.567   2.820
 6897SOL     OW21589   3.681   0.824   1.055
 6897SOL    HW121590   3.649   0.912   1.020
 6897SOL    HW221591   3.708   0.833   1.151
 6898SOL     OW21592   4.122   1.085   2.556
 6898SOL    HW121593   4.047   1.094   2.490
 6898SOL    HW221594   4.208   1.109   2.512
 6899SOL     OW21595   5.637   6.321   6.164
 6899SOL    HW121596   5.661   6.393   6.098
 6899SOL    HW221597   5.720   6.282   6.202
 6900SOL     OW21598   4.684   0.811   6.738
 6900SOL    HW121599   4.586   0.832   6.730
 6900SOL    HW221600   4.737   0.887   6.700
 6901SOL     OW21601   1.784   0.815   0.020
 6901SOL    HW121602   1.884   0.804   0.016
 6901SOL    HW221603   1.762   0.897   0.073
 6902SOL     OW21604   6.579   5.587   2.426
 6902SOL    HW121605   6.557   5.490   2.438
 6902SOL    HW221606   6.644   5.598   2.351
 6903SOL     OW21607   4.570   4.297   0.370
 6903SOL    HW121608   4.519   4.213   0.392
 6903SOL    HW221609   4.660   4.272   0.335
 6904SOL     OW21610   0.820   0.776   3.049
 6904SOL    HW121611   0.868   0.859   3.023
 6904SOL    HW221612   0.853   0.699   2.993
 6905SOL     OW21613   3.746   5.641   0.962
 6905SOL    HW121614   3.686   5.678   1.032
 6905SOL    HW221615   3.691   5.602   0.888
 6906SOL     OW21616   5.960   6.387   3.179
 6906SOL    HW121617   5.981   6.480   3.209
 6906SOL    HW221618   6.043   6.331   3.184
 6907SOL     OW21619   3.260   0.524   1.197
 6907SOL    HW121620   3.288   0.590   1.128
 6907SOL    HW221621   3.310   0.542   1.282
 6908SOL     OW21622   5.635   6.721   6.655
 6908SOL    HW121623   5.545   6.762   6.639
 6908SOL    HW221624   5.685   6.777   6.721
 6909SOL     OW21625   2.149   2.482   6.814
 6909SOL    HW121626   2.057   2.444   6.804
 6909SOL    HW221627   2.215   2.408   6.828
 6910SOL     OW21628   5.374   1.418   1.001
 6910SOL    HW121629   5.340   1.467   0.920
 6910SOL    HW221630   5.473   1.408   0.995
 6911SOL     OW21631   4.495   0.429   5.107
 6911SOL    HW121632   4.512   0.423   5.009
 6911SOL    HW221633   4.397   0.415   5.125
 6912SOL     OW21634   4.371   4.767   2.024
 6912SOL    HW121635   4.347   4.833   1.954
 6912SOL    HW221636   4.422   4.691   1.982
 6913SOL     OW21637   4.666   5.709   5.522
 6913SOL    HW121638   4.695   5.721   5.617
 6913SOL    HW221639   4.710   5.627   5.484
 6914SOL     OW21640   6.561   4.760   6.983
 6914SOL    HW121641   6.597   4.669   7.005
 6914SOL    HW221642   6.531   4.805   0.045
 6915SOL     OW21643   0.316   6.140   0.767
 6915SOL    HW121644   0.395   6.192   0.735
 6915SOL    HW221645   0.289   6.074   0.696
 6916SOL     OW21646   6.211   0.647   5.925
 6916SOL    HW121647   6.199   0.727   5.867
 6916SOL    HW221648   6.231   0.567   5.868
 6917SOL     OW21649   4.767   0.256   6.066
 6917SOL    HW121650   4.762   0.188   6.139
 6917SOL    HW221651   4.696   0.237   5.998
 6918SOL     OW21652   2.244   2.834   3.853
 6918SOL    HW121653   2.157   2.786   3.854
 6918SOL    HW221654   2.305   2.790   3.786
 6919SOL     OW21655   1.301   6.342   3.367
 6919SOL    HW121656   1.269   6.436   3.361
 6919SOL    HW221657   1.337   6.324   3.458
 6920SOL     OW21658   5.531   5.912   4.349
 6920SOL    HW121659   5.481   5.965   4.280
 6920SOL    HW221660   5.520   5.815   4.330
 6921SOL     OW21661   1.032   5.790   3.631
 6921SOL    HW121662   1.111   5.800   3.692
 6921SOL    HW221663   1.014   5.877   3.586
 6922SOL     OW21664   1.935   6.859   0.767
 6922SOL    HW121665   1.877   6.935   0.739
 6922SOL    HW221666   1.882   6.795   0.823
 6923SOL     OW21667   4.925   5.796   4.014
 6923SOL    HW121668   4.833   5.783   4.049
 6923SOL    HW221669   4.929   5.881   3.961
 6924SOL     OW21670   6.056   5.656   2.263
 6924SOL    HW121671   6.015   5.743   2.235
 6924SOL    HW221672   5.993   5.606   2.322
 6925SOL     OW21673   5.274   5.481   2.815
 6925SOL    HW121674   5.184   5.475   2.773
 6925SOL    HW221675   5.315   5.389   2.819
 6926SOL     OW21676   2.855   4.100   5.274
 6926SOL    HW121677   2.805   4.109   5.360
 6926SOL    HW221678   2.901   4.187   5.253
 6927SOL     OW21679   4.200   3.500   1.022
 6927SOL    HW121680   4.122   3.547   0.981
 6927SOL    HW221681   4.186   3.494   1.121
 6928SOL     OW21682   0.137   0.867   6.785
 6928SOL    HW121683   0.212   0.828   6.838
 6928SOL    HW221684   0.174   0.923   6.711
 6929SOL     OW21685   2.839   5.152   1.521
 6929SOL    HW121686   2.813   5.055   1.517
 6929SOL    HW221687   2.889   5.176   1.438
 6930SOL     OW21688   0.386   0.353   3.180
 6930SOL    HW121689   0.450   0.418   3.221
 6930SOL    HW221690   0.349   0.294   3.251
 6931SOL     OW21691   2.342   6.905   7.000
 6931SOL    HW121692   2.363   6.819   0.024
 6931SOL    HW221693   2.373   6.901   6.905
 6932SOL     OW21694   2.331   2.237   0.541
 6932SOL    HW121695   2.423   2.265   0.570
 6932SOL    HW221696   2.277   2.318   0.520
 6933SOL     OW21697   2.233   5.832   5.416
 6933SOL    HW121698   2.317   5.783   5.440
 6933SOL    HW221699   2.153   5.776   5.440
 6934SOL     OW21700   5.529   5.074   6.658
 6934SOL    HW121701   5.593   5.000   6.640
 6934SOL    HW221702   5.573   5.145   6.712
 6935SOL     OW21703   4.502   5.549   3.192
 6935SOL    HW121704   4.486   5.527   3.095
 6935SOL    HW221705   4.510   5.648   3.202
 6936SOL     OW21706   0.622   4.600   0.427
 6936SOL    HW121707   0.628   4.501   0.445
 6936SOL    HW221708   0.576   4.615   0.339
 6937SOL     OW21709   4.491   6.258   5.776
 6937SOL    HW121710   4.560   6.195   5.742
 6937SOL    HW221711   4.531   6.350   5.783
 6938SOL     OW21712   5.832   2.561   5.136
 6938SOL    HW121713   5.836   2.661   5.127
 6938SOL    HW221714   5.885   2.519   5.062
 6939SOL     OW21715   6.850   4.693   2.037
 6939SOL    HW121716   6.798   4.612   2.008
 6939SOL    HW221717   6.893   4.734   1.957
 6940SOL     OW21718   4.450   0.387   4.842
 6940SOL    HW121719   4.382   0.425   4.779
 6940SOL    HW221720   4.440   0.287   4.846
 6941SOL     OW21721   4.129   3.323   4.868
 6941SOL    HW121722   4.063   3.258   4.830
 6941SOL    HW221723   4.212   3.276   4.896
 6942SOL     OW21724   6.051   1.839   6.891
 6942SOL    HW121725   6.059   1.848   6.792
 6942SOL    HW221726   5.965   1.793   6.913
 6943SOL     OW21727   5.887   5.773   6.609
 6943SOL    HW121728   5.842   5.839   6.668
 6943SOL    HW221729   5.820   5.736   6.544
 6944SOL     OW21730   1.373   6.526   0.465
 6944SOL    HW121731   1.433   6.486   0.395
 6944SOL    HW221732   1.363   6.462   0.540
 6945SOL     OW21733   4.780   2.147   5.970
 6945SOL    HW121734   4.744   2.204   6.043
 6945SOL    HW221735   4.800   2.056   6.005
 6946SOL     OW21736   5.938   3.601   3.678
 6946SOL    HW121737   6.016   3.588   3.739
 6946SOL    HW221738   5.945   3.690   3.633
 6947SOL     OW21739   4.032   6.930   1.360
 6947SOL    HW121740   3.939   6.966   1.370
 6947SOL    HW221741   4.043   6.850   1.418
 6948SOL     OW21742   3.920   2.596   5.452
 6948SOL    HW121743   3.995   2.637   5.502
 6948SOL    HW221744   3.956   2.545   5.373
 6949SOL     OW21745   5.023   0.896   2.310
 6949SOL    HW121746   4.930   0.886   2.344
 6949SOL    HW221747   5.023   0.896   2.210
 6950SOL     OW21748   3.323   1.558   3.605
 6950SOL    HW121749   3.386   1.554   3.527
 6950SOL    HW221750   3.347   1.636   3.663
 6951SOL     OW21751   4.932   4.795   5.442
 6951SOL    HW121752   4.899   4.889   5.431
 6951SOL    HW221753   4.972   4.764   5.357
 6952SOL     OW21754   7.001   4.215   5.294
 6952SOL    HW121755   6.988   4.274   5.374
 6952SOL    HW221756   0.066   4.239   5.250
 6953SOL     OW21757   4.847   2.509   4.941
 6953SOL    HW121758   4.769   2.447   4.952
 6953SOL    HW221759   4.929   2.456   4.919
 6954SOL     OW21760   0.197   4.474   1.714
 6954SOL    HW121761   0.281   4.528   1.707
 6954SOL    HW221762   0.133   4.504   1.644
 6955SOL     OW21763   6.743   0.328   2.928
 6955SOL    HW121764   6.656   0.292   2.895
 6955SOL    HW221765   6.812   0.256   2.929
 6956SOL     OW21766   2.532   4.096   1.019
 6956SOL    HW121767   2.469   4.134   1.086
 6956SOL    HW221768   2.608   4.159   1.005
 6957SOL     OW21769   0.983   4.377   7.009
 6957SOL    HW121770   0.922   4.320   0.042
 6957SOL    HW221771   0.974   4.352   6.913
 6958SOL     OW21772   2.517   3.665   5.891
 6958SOL    HW121773   2.435   3.713   5.862
 6958SOL    HW221774   2.584   3.731   5.926
 6959SOL     OW21775   3.943   1.113   4.292
 6959SOL    HW121776   3.857   1.134   4.339
 6959SOL    HW221777   4.017   1.165   4.336
 6960SOL     OW21778   0.394   5.254   6.996
 6960SOL    HW121779   0.344   5.333   0.007
 6960SOL    HW221780   0.363   5.172   0.023
 6961SOL     OW21781   6.201   1.677   2.959
 6961SOL    HW121782   6.206   1.777   2.954
 6961SOL    HW221783   6.202   1.639   2.866
 6962SOL     OW21784   3.731   3.622   1.241
 6962SOL    HW121785   3.705   3.551   1.176
 6962SOL    HW221786   3.821   3.600   1.279
 6963SOL     OW21787   6.196   6.198   2.334
 6963SOL    HW121788   6.186   6.289   2.294
 6963SOL    HW221789   6.106   6.162   2.359
 6964SOL     OW21790   3.038   6.045   5.511
 6964SOL    HW121791   3.124   6.005   5.480
 6964SOL    HW221792   3.051   6.143   5.528
 6965SOL     OW21793   6.564   1.466   5.501
 6965SOL    HW121794   6.520   1.545   5.543
 6965SOL    HW221795   6.495   1.410   5.456
 6966SOL     OW21796   5.241   2.434   3.925
 6966SOL    HW121797   5.203   2.450   4.017
 6966SOL    HW221798   5.188   2.485   3.858
 6967SOL     OW21799   2.435   2.621   6.028
 6967SOL    HW121800   2.355   2.649   5.975
 6967SOL    HW221801   2.411   2.542   6.084
 6968SOL     OW21802   4.419   0.104   4.366
 6968SOL    HW121803   4.482   0.171   4.406
 6968SOL    HW221804   4.421   0.112   4.267
 6969SOL     OW21805   2.867   2.967   0.710
 6969SOL    HW121806   2.930   2.971   0.788
 6969SOL    HW221807   2.909   3.009   0.630
 6970SOL     OW21808   4.518   4.301   0.784
 6970SOL    HW121809   4.564   4.345   0.861
 6970SOL    HW221810   4.497   4.370   0.714
 6971SOL     OW21811   6.393   0.976   1.883
 6971SOL    HW121812   6.383   1.053   1.946
 6971SOL    HW221813   6.355   0.893   1.924
 6972SOL     OW21814   5.444   5.062   4.408
 6972SOL    HW121815   5.472   5.144   4.359
 6972SOL    HW221816   5.388   5.005   4.348
 6973SOL     OW21817   1.360   4.141   3.213
 6973SOL    HW121818   1.336   4.078   3.140
 6973SOL    HW221819   1.387   4.229   3.173
 6974SOL     OW21820   3.624   4.130   5.051
 6974SOL    HW121821   3.598   4.161   4.960
 6974SOL    HW221822   3.583   4.190   5.120
 6975SOL     OW21823   3.170   6.968   6.313
 6975SOL    HW121824   3.140   6.925   6.399
 6975SOL    HW221825   3.118   0.030   6.298
 6976SOL     OW21826   1.178   6.680   0.794
 6976SOL    HW121827   1.141   6.773   0.800
 6976SOL    HW221828   1.141   6.625   0.869
 6977SOL     OW21829   4.719   2.767   2.174
 6977SOL    HW121830   4.729   2.844   2.111
 6977SOL    HW221831   4.695   2.802   2.265
 6978SOL     OW21832   4.517   1.992   3.381
 6978SOL    HW121833   4.429   2.035   3.405
 6978SOL    HW221834   4.536   2.009   3.284
 6979SOL     OW21835   0.781   4.139   3.568
 6979SOL    HW121836   0.729   4.172   3.489
 6979SOL    HW221837   0.762   4.042   3.582
 6980SOL     OW21838   4.388   1.125   4.886
 6980SOL    HW121839   4.374   1.033   4.848
 6980SOL    HW221840   4.407   1.119   4.984
 6981SOL     OW21841   2.768   3.894   0.001
 6981SOL    HW121842   2.764   3.951   0.083
 6981SOL    HW221843   2.806   3.947   6.947
 6982SOL     OW21844   0.402   6.965   5.440
 6982SOL    HW121845   0.486   7.011   5.409
 6982SOL    HW221846   0.372   7.006   5.526
 6983SOL     OW21847   6.701   0.918   2.537
 6983SOL    HW121848   6.657   0.865   2.464
 6983SOL    HW221849   6.646   1.000   2.556
 6984SOL     OW21850   1.707   1.395   5.656
 6984SOL    HW121851   1.741   1.304   5.682
 6984SOL    HW221852   1.714   1.456   5.735
 6985SOL     OW21853   4.907   6.861   3.761
 6985SOL    HW121854   4.852   6.909   3.829
 6985SOL    HW221855   4.944   6.777   3.800
 6986SOL     OW21856   1.704   6.993   4.803
 6986SOL    HW121857   1.665   6.989   4.711
 6986SOL    HW221858   1.795   6.951   4.803
 6987SOL     OW21859   6.690   3.169   6.561
 6987SOL    HW121860   6.643   3.171   6.472
 6987SOL    HW221861   6.655   3.243   6.618
 6988SOL     OW21862   5.533   1.625   6.219
 6988SOL    HW121863   5.530   1.546   6.157
 6988SOL    HW221864   5.487   1.601   6.304
 6989SOL     OW21865   2.194   3.027   3.535
 6989SOL    HW121866   2.102   2.990   3.545
 6989SOL    HW221867   2.207   3.102   3.600
 6990SOL     OW21868   4.084   3.135   0.833
 6990SOL    HW121869   4.165   3.191   0.852
 6990SOL    HW221870   4.093   3.047   0.882
 6991SOL     OW21871   4.081   4.529   5.312
 6991SOL    HW121872   4.126   4.520   5.400
 6991SOL    HW221873   4.134   4.482   5.242
 6992SOL     OW21874   6.026   6.823   4.574
 6992SOL    HW121875   5.968   6.883   4.518
 6992SOL    HW221876   6.117   6.864   4.583
 6993SOL     OW21877   0.230   6.879   3.727
 6993SOL    HW121878   0.257   6.975   3.736
 6993SOL    HW221879   0.137   6.867   3.762
 6994SOL     OW21880   1.552   2.505   0.177
 6994SOL    HW121881   1.470   2.539   0.131
 6994SOL    HW221882   1.535   2.412   0.211
 6995SOL     OW21883   0.939   5.299   4.053
 6995SOL    HW121884   0.980   5.390   4.059
 6995SOL    HW221885   0.984   5.237   4.117
 6996SOL     OW21886   2.058   6.951   6.254
 6996SOL    HW121887   1.967   6.994   6.255
 6996SOL    HW221888   2.059   6.878   6.186
 6997SOL     OW21889   4.623   5.495   4.071
 6997SOL    HW121890   4.711   5.504   4.023
 6997SOL    HW221891   4.601   5.398   4.081
 6998SOL     OW21892   2.877   1.831   3.420
 6998SOL    HW121893   2.817   1.909   3.400
 6998SOL    HW221894   2.821   1.749   3.433
 6999SOL     OW21895   5.452   2.054   0.111
 6999SOL    HW121896   5.412   1.994   0.181
 6999SOL    HW221897   5.396   2.049   0.028
 7000SOL     OW21898   6.616   0.209   1.331
 7000SOL    HW121899   6.529   0.239   1.370
 7000SOL    HW221900   6.686   0.278   1.347
 7001SOL     OW21901   2.862   1.735   6.277
 7001SOL    HW121902   2.804   1.731   6.196
 7001SOL    HW221903   2.948   1.688   6.259
 7002SOL     OW21904   2.089   4.683   2.257
 7002SOL    HW121905   2.043   4.635   2.182
 7002SOL    HW221906   2.108   4.777   2.229
 7003SOL     OW21907   1.557   6.198   5.690
 7003SOL    HW121908   1.508   6.221   5.774
 7003SOL    HW221909   1.578   6.100   5.689
 7004SOL     OW21910   1.571   3.913   6.866
 7004SOL    HW121911   1.622   3.904   6.781
 7004SOL    HW221912   1.519   3.998   6.865
 7005SOL     OW21913   6.614   6.769   5.954
 7005SOL    HW121914   6.580   6.800   5.865
 7005SOL    HW221915   6.693   6.709   5.941
 7006SOL     OW21916   4.438   4.730   3.989
 7006SOL    HW121917   4.357   4.715   4.046
 7006SOL    HW221918   4.413   4.715   3.893
 7007SOL     OW21919   4.673   5.020   2.719
 7007SOL    HW121920   4.715   5.108   2.741
 7007SOL    HW221921   4.699   4.953   2.789
 7008SOL     OW21922   1.201   5.089   4.156
 7008SOL    HW121923   1.131   5.018   4.157
 7008SOL    HW221924   1.254   5.085   4.241
 7009SOL     OW21925   7.020   4.227   2.098
 7009SOL    HW121926   6.934   4.176   2.096
 7009SOL    HW221927   0.061   4.188   2.030
 7010SOL     OW21928   5.096   4.656   6.546
 7010SOL    HW121929   5.020   4.661   6.481
 7010SOL    HW221930   5.104   4.562   6.580
 7011SOL     OW21931   0.912   0.989   5.486
 7011SOL    HW121932   0.948   0.930   5.559
 7011SOL    HW221933   0.822   1.023   5.512
 7012SOL     OW21934   1.348   1.359   1.581
 7012SOL    HW121935   1.375   1.277   1.631
 7012SOL    HW221936   1.400   1.366   1.496
 7013SOL     OW21937   6.453   1.863   2.160
 7013SOL    HW121938   6.419   1.949   2.197
 7013SOL    HW221939   6.552   1.857   2.172
 7014SOL     OW21940   2.116   5.372   0.635
 7014SOL    HW121941   2.213   5.359   0.614
 7014SOL    HW221942   2.103   5.466   0.669
 7015SOL     OW21943   4.940   1.937   2.743
 7015SOL    HW121944   4.881   2.013   2.714
 7015SOL    HW221945   4.902   1.851   2.711
 7016SOL     OW21946   4.312   4.229   1.461
 7016SOL    HW121947   4.343   4.213   1.554
 7016SOL    HW221948   4.272   4.320   1.454
 7017SOL     OW21949   4.850   1.546   5.073
 7017SOL    HW121950   4.921   1.567   5.007
 7017SOL    HW221951   4.852   1.448   5.096
 7018SOL     OW21952   0.706   3.182   3.061
 7018SOL    HW121953   0.608   3.191   3.048
 7018SOL    HW221954   0.725   3.106   3.123
 7019SOL     OW21955   1.075   5.860   1.205
 7019SOL    HW121956   0.990   5.811   1.224
 7019SOL    HW221957   1.130   5.808   1.140
 7020SOL     OW21958   0.054   6.273   6.789
 7020SOL    HW121959   0.033   6.207   6.861
 7020SOL    HW221960   0.011   6.361   6.810
 7021SOL     OW21961   3.891   0.101   6.196
 7021SOL    HW121962   3.845   0.110   6.108
 7021SOL    HW221963   3.944   0.017   6.198
 7022SOL     OW21964   4.497   5.381   6.025
 7022SOL    HW121965   4.545   5.327   6.094
 7022SOL    HW221966   4.443   5.320   5.967
 7023SOL     OW21967   4.919   4.051   2.669
 7023SOL    HW121968   4.925   3.959   2.707
 7023SOL    HW221969   4.884   4.046   2.576
 7024SOL     OW21970   6.164   6.314   1.094
 7024SOL    HW121971   6.242   6.376   1.089
 7024SOL    HW221972   6.079   6.367   1.086
 7025SOL     OW21973   2.578   0.626   0.166
 7025SOL    HW121974   2.522   0.665   0.092
 7025SOL    HW221975   2.645   0.563   0.127
 7026SOL     OW21976   4.011   1.659   1.442
 7026SOL    HW121977   4.022   1.756   1.464
 7026SOL    HW221978   3.997   1.608   1.526
 7027SOL     OW21979   5.339   5.716   3.784
 7027SOL    HW121980   5.438   5.701   3.774
 7027SOL    HW221981   5.302   5.648   3.847
 7028SOL     OW21982   2.949   0.163   4.544
 7028SOL    HW121983   3.038   0.131   4.512
 7028SOL    HW221984   2.918   0.239   4.488
 7029SOL     OW21985   4.188   1.600   4.913
 7029SOL    HW121986   4.148   1.520   4.959
 7029SOL    HW221987   4.263   1.637   4.968
 7030SOL     OW21988   1.856   3.398   4.212
 7030SOL    HW121989   1.860   3.463   4.136
 7030SOL    HW221990   1.937   3.410   4.270
 7031SOL     OW21991   1.525   1.286   4.414
 7031SOL    HW121992   1.445   1.333   4.451
 7031SOL    HW221993   1.587   1.352   4.373
 7032SOL     OW21994   5.923   2.082   3.771
 7032SOL    HW121995   5.917   2.176   3.737
 7032SOL    HW221996   6.013   2.045   3.750
 7033SOL     OW21997   0.723   0.015   5.156
 7033SOL    HW121998   0.682   0.077   5.222
 7033SOL    HW221999   0.690   6.943   5.172
 7034SOL     OW22000   7.004   5.266   3.365
 7034SOL    HW122001   6.981   5.320   3.447
 7034SOL    HW222002   6.962   5.175   3.373
 7035SOL     OW22003   6.736   4.942   2.106
 7035SOL    HW122004   6.749   4.843   2.103
 7035SOL    HW222005   6.736   4.978   2.012
 7036SOL     OW22006   6.450   4.783   0.934
 7036SOL    HW122007   6.460   4.709   0.867
 7036SOL    HW222008   6.389   4.853   0.897
 7037SOL     OW22009   1.382   0.174   6.431
 7037SOL    HW122010   1.355   0.158   6.336
 7037SOL    HW222011   1.306   0.149   6.492
 7038SOL     OW22012   2.125   3.451   4.337
 7038SOL    HW122013   2.098   3.547   4.330
 7038SOL    HW222014   2.137   3.426   4.433
 7039SOL     OW22015   3.379   2.553   6.724
 7039SOL    HW122016   3.299   2.509   6.765
 7039SOL    HW222017   3.450   2.485   6.709
 7040SOL     OW22018   5.123   2.663   6.972
 7040SOL    HW122019   5.198   2.720   7.005
 7040SOL    HW222020   5.132   2.651   6.873
 7041SOL     OW22021   2.070   1.543   3.591
 7041SOL    HW122022   2.020   1.486   3.526
 7041SOL    HW222023   2.030   1.634   3.594
 7042SOL     OW22024   1.340   0.828   6.369
 7042SOL    HW122025   1.297   0.744   6.402
 7042SOL    HW222026   1.426   0.842   6.418
 7043SOL     OW22027   1.737   2.071   2.483
 7043SOL    HW122028   1.806   2.132   2.443
 7043SOL    HW222029   1.647   2.113   2.476
 7044SOL     OW22030   6.733   6.324   1.914
 7044SOL    HW122031   6.675   6.243   1.927
 7044SOL    HW222032   6.752   6.335   1.817
 7045SOL     OW22033   6.712   5.011   0.188
 7045SOL    HW122034   6.797   5.048   0.225
 7045SOL    HW222035   6.645   5.084   0.180
 7046SOL     OW22036   3.184   1.392   4.126
 7046SOL    HW122037   3.255   1.321   4.131
 7046SOL    HW222038   3.124   1.374   4.048
 7047SOL     OW22039   1.416   0.395   2.778
 7047SOL    HW122040   1.500   0.356   2.742
 7047SOL    HW222041   1.341   0.330   2.767
 7048SOL     OW22042   6.554   5.474   0.287
 7048SOL    HW122043   6.498   5.510   0.361
 7048SOL    HW222044   6.624   5.541   0.262
 7049SOL     OW22045   2.168   1.264   6.531
 7049SOL    HW122046   2.086   1.283   6.478
 7049SOL    HW222047   2.237   1.221   6.472
 7050SOL     OW22048   3.991   3.794   4.645
 7050SOL    HW122049   4.060   3.728   4.674
 7050SOL    HW222050   3.990   3.798   4.545
 7051SOL     OW22051   6.389   6.609   3.069
 7051SOL    HW122052   6.471   6.578   3.021
 7051SOL    HW222053   6.362   6.542   3.137
 7052SOL     OW22054   6.740   0.768   5.010
 7052SOL    HW122055   6.693   0.779   5.098
 7052SOL    HW222056   6.818   0.830   5.006
 7053SOL     OW22057   6.783   4.403   6.023
 7053SOL    HW122058   6.809   4.308   6.043
 7053SOL    HW222059   6.813   4.426   5.931
 7054SOL     OW22060   6.662   1.591   1.644
 7054SOL    HW122061   6.692   1.681   1.612
 7054SOL    HW222062   6.686   1.581   1.741
 7055SOL     OW22063   4.579   1.521   4.364
 7055SOL    HW122064   4.506   1.589   4.359
 7055SOL    HW222065   4.539   1.429   4.362
 7056SOL     OW22066   4.078   5.179   3.981
 7056SOL    HW122067   4.018   5.248   3.940
 7056SOL    HW222068   4.026   5.124   4.046
 7057SOL     OW22069   6.035   5.695   2.888
 7057SOL    HW122070   6.106   5.663   2.951
 7057SOL    HW222071   6.061   5.674   2.794
 7058SOL     OW22072   6.994   4.532   4.676
 7058SOL    HW122073   0.015   4.558   4.762
 7058SOL    HW222074   6.895   4.546   4.682
 7059SOL     OW22075   2.028   1.104   2.448
 7059SOL    HW122076   2.112   1.076   2.401
 7059SOL    HW222077   2.049   1.174   2.516
 7060SOL     OW22078   2.664   6.581   1.278
 7060SOL    HW122079   2.754   6.537   1.276
 7060SOL    HW222080   2.672   6.673   1.315
 7061SOL     OW22081   0.512   0.850   2.738
 7061SOL    HW122082   0.548   0.756   2.739
 7061SOL    HW222083   0.441   0.859   2.808
 7062SOL     OW22084   6.736   1.109   5.442
 7062SOL    HW122085   6.821   1.070   5.407
 7062SOL    HW222086   6.674   1.035   5.467
 7063SOL     OW22087   2.608   0.044   2.266
 7063SOL    HW122088   2.596   6.966   2.257
 7063SOL    HW222089   2.705   0.066   2.258
 7064SOL     OW22090   3.771   2.856   0.178
 7064SOL    HW122091   3.826   2.780   0.212
 7064SOL    HW222092   3.759   2.847   0.079
 7065SOL     OW22093   3.242   3.225   2.248
 7065SOL    HW122094   3.234   3.129   2.272
 7065SOL    HW222095   3.152   3.269   2.258
 7066SOL     OW22096   2.715   5.139   1.066
 7066SOL    HW122097   2.746   5.234   1.061
 7066SOL    HW222098   2.678   5.121   1.157
 7067SOL     OW22099   0.350   3.878   3.984
 7067SOL    HW122100   0.387   3.878   3.891
 7067SOL    HW222101   0.423   3.862   4.050
 7068SOL     OW22102   0.887   0.158   2.993
 7068SOL    HW122103   0.911   0.167   2.896
 7068SOL    HW222104   0.795   0.193   3.008
 7069SOL     OW22105   1.054   4.650   4.867
 7069SOL    HW122106   0.999   4.727   4.835
 7069SOL    HW222107   1.065   4.583   4.794
 7070SOL     OW22108   5.180   5.602   3.513
 7070SOL    HW122109   5.227   5.653   3.441
 7070SOL    HW222110   5.235   5.604   3.596
 7071SOL     OW22111   1.625   0.142   5.005
 7071SOL    HW122112   1.601   0.077   5.077
 7071SOL    HW222113   1.621   0.097   4.916
 7072SOL     OW22114   0.665   6.835   6.730
 7072SOL    HW122115   0.660   6.776   6.650
 7072SOL    HW222116   0.750   6.889   6.726
 7073SOL     OW22117   1.902   2.056   6.517
 7073SOL    HW122118   1.820   2.042   6.461
 7073SOL    HW222119   1.965   1.980   6.505
 7074SOL     OW22120   3.170   1.223   0.108
 7074SOL    HW122121   3.110   1.185   0.038
 7074SOL    HW222122   3.262   1.232   0.072
 7075SOL     OW22123   0.798   5.488   1.792
 7075SOL    HW122124   0.725   5.549   1.823
 7075SOL    HW222125   0.820   5.423   1.865
 7076SOL     OW22126   3.376   1.656   6.169
 7076SOL    HW122127   3.363   1.754   6.155
 7076SOL    HW222128   3.465   1.629   6.132
 7077SOL     OW22129   1.835   5.217   6.559
 7077SOL    HW122130   1.815   5.135   6.504
 7077SOL    HW222131   1.751   5.270   6.571
 7078SOL     OW22132   6.460   0.526   1.863
 7078SOL    HW122133   6.391   0.459   1.891
 7078SOL    HW222134   6.468   0.597   1.934
 7079SOL     OW22135   5.770   6.095   5.231
 7079SOL    HW122136   5.815   6.108   5.319
 7079SOL    HW222137   5.682   6.050   5.245
 7080SOL     OW22138   5.997   0.236   3.884
 7080SOL    HW122139   5.944   0.219   3.967
 7080SOL    HW222140   6.051   0.319   3.895
 7081SOL     OW22141   4.878   0.323   5.307
 7081SOL    HW122142   4.793   0.284   5.341
 7081SOL    HW222143   4.858   0.389   5.234
 7082SOL     OW22144   5.985   1.176   6.761
 7082SOL    HW122145   5.955   1.270   6.749
 7082SOL    HW222146   5.906   1.117   6.778
 7083SOL     OW22147   3.134   0.471   5.976
 7083SOL    HW122148   3.209   0.473   5.910
 7083SOL    HW222149   3.160   0.416   6.055
 7084SOL     OW22150   5.742   6.200   0.347
 7084SOL    HW122151   5.666   6.159   0.298
 7084SOL    HW222152   5.814   6.226   0.282
 7085SOL     OW22153   3.919   1.165   1.110
 7085SOL    HW122154   3.908   1.136   1.015
 7085SOL    HW222155   3.863   1.245   1.128
 7086SOL     OW22156   1.146   1.375   5.983
 7086SOL    HW122157   1.241   1.370   6.015
 7086SOL    HW222158   1.096   1.442   6.038
 7087SOL     OW22159   2.342   2.742   5.125
 7087SOL    HW122160   2.371   2.837   5.137
 7087SOL    HW222161   2.287   2.733   5.042
 7088SOL     OW22162   0.578   2.151   5.541
 7088SOL    HW122163   0.623   2.173   5.628
 7088SOL    HW222164   0.617   2.207   5.468
 7089SOL     OW22165   2.908   1.828   1.514
 7089SOL    HW122166   2.921   1.798   1.609
 7089SOL    HW222167   2.845   1.905   1.512
 7090SOL     OW22168   2.278   2.106   5.133
 7090SOL    HW122169   2.301   2.084   5.038
 7090SOL    HW222170   2.360   2.137   5.181
 7091SOL     OW22171   6.735   6.566   0.910
 7091SOL    HW122172   6.680   6.482   0.909
 7091SOL    HW222173   6.815   6.555   0.851
 7092SOL     OW22174   2.888   2.505   0.453
 7092SOL    HW122175   2.879   2.480   0.549
 7092SOL    HW222176   2.809   2.559   0.426
 7093SOL     OW22177   4.483   3.120   5.904
 7093SOL    HW122178   4.399   3.139   5.854
 7093SOL    HW222179   4.545   3.197   5.895
 7094SOL     OW22180   6.958   0.741   6.271
 7094SOL    HW122181   6.959   0.751   6.370
 7094SOL    HW222182   0.022   0.778   6.233
 7095SOL     OW22183   0.353   3.758   6.976
 7095SOL    HW122184   0.422   3.811   0.004
 7095SOL    HW222185   0.355   3.663   7.008
 7096SOL     OW22186   5.000   0.219   2.892
 7096SOL    HW122187   4.968   0.311   2.868
 7096SOL    HW222188   5.078   0.195   2.834
 7097SOL     OW22189   1.862   1.075   1.653
 7097SOL    HW122190   1.917   1.011   1.707
 7097SOL    HW222191   1.819   1.141   1.714
 7098SOL     OW22192   1.092   0.389   6.155
 7098SOL    HW122193   1.007   0.360   6.112
 7098SOL    HW222194   1.081   0.390   6.255
 7099SOL     OW22195   0.036   0.952   5.558
 7099SOL    HW122196   0.125   0.976   5.597
 7099SOL    HW222197   0.030   0.852   5.549
 7100SOL     OW22198   5.602   2.080   1.351
 7100SOL    HW122199   5.533   2.119   1.411
 7100SOL    HW222200   5.564   2.068   1.259
 7101SOL     OW22201   1.376   0.548   4.197
 7101SOL    HW122202   1.463   0.597   4.207
 7101SOL    HW222203   1.371   0.476   4.266
 7102SOL     OW22204   4.928   2.985   0.445
 7102SOL    HW122205   4.853   2.921   0.460
 7102SOL    HW222206   4.939   3.001   0.346
 7103SOL     OW22207   2.946   0.385   5.791
 7103SOL    HW122208   3.033   0.421   5.825
 7103SOL    HW222209   2.952   0.285   5.785
 7104SOL     OW22210   0.511   2.441   2.150
 7104SOL    HW122211   0.481   2.504   2.222
 7104SOL    HW222212   0.478   2.474   2.061
 7105SOL     OW22213   2.047   3.927   5.645
 7105SOL    HW122214   2.025   4.004   5.705
 7105SOL    HW222215   1.964   3.897   5.598
 7106SOL     OW22216   3.191   2.586   5.340
 7106SOL    HW122217   3.105   2.596   5.389
 7106SOL    HW222218   3.191   2.500   5.289
 7107SOL     OW22219   1.999   1.330   0.470
 7107SOL    HW122220   1.998   1.236   0.436
 7107SOL    HW222221   2.086   1.347   0.517
 7108SOL     OW22222   4.803   6.744   1.905
 7108SOL    HW122223   4.763   6.704   1.987
 7108SOL    HW222224   4.866   6.679   1.863
 7109SOL     OW22225   3.817   5.986   6.450
 7109SOL    HW122226   3.913   5.961   6.442
 7109SOL    HW222227   3.799   6.019   6.542
 7110SOL     OW22228   3.002   4.797   3.700
 7110SOL    HW122229   3.079   4.860   3.687
 7110SOL    HW222230   2.938   4.807   3.624
 7111SOL     OW22231   1.494   2.410   3.293
 7111SOL    HW122232   1.498   2.497   3.342
 7111SOL    HW222233   1.582   2.363   3.301
 7112SOL     OW22234   2.067   6.446   2.068
 7112SOL    HW122235   2.014   6.493   1.998
 7112SOL    HW222236   2.107   6.513   2.130
 7113SOL     OW22237   3.870   3.659   5.067
 7113SOL    HW122238   3.880   3.704   5.156
 7113SOL    HW222239   3.945   3.595   5.054
 7114SOL     OW22240   3.643   6.711   0.780
 7114SOL    HW122241   3.659   6.669   0.691
 7114SOL    HW222242   3.595   6.646   0.839
 7115SOL     OW22243   4.410   1.452   1.519
 7115SOL    HW122244   4.471   1.397   1.576
 7115SOL    HW222245   4.452   1.542   1.503
 7116SOL     OW22246   6.100   3.767   3.077
 7116SOL    HW122247   6.042   3.843   3.107
 7116SOL    HW222248   6.084   3.749   2.980
 7117SOL     OW22249   6.076   6.757   2.518
 7117SOL    HW122250   6.146   6.788   2.453
 7117SOL    HW222251   6.116   6.746   2.608
 7118SOL     OW22252   0.122   3.249   2.696
 7118SOL    HW122253   0.152   3.156   2.678
 7118SOL    HW222254   0.064   3.281   2.620
 7119SOL     OW22255   1.237   2.133   2.727
 7119SOL    HW122256   1.301   2.210   2.726
 7119SOL    HW222257   1.169   2.146   2.655
 7120SOL     OW22258   4.729   6.292   3.118
 7120SOL    HW122259   4.675   6.376   3.114
 7120SOL    HW222260   4.756   6.274   3.212
 7121SOL     OW22261   3.056   6.938   1.762
 7121SOL    HW122262   3.129   6.977   1.818
 7121SOL    HW222263   3.085   6.849   1.728
 7122SOL     OW22264   6.589   6.859   0.437
 7122SOL    HW122265   6.578   6.832   0.341
 7122SOL    HW222266   6.584   6.958   0.445
 7123SOL     OW22267   2.424   5.436   0.284
 7123SOL    HW122268   2.365   5.475   0.213
 7123SOL    HW222269   2.381   5.354   0.322
 7124SOL     OW22270   0.002   5.755   0.370
 7124SOL    HW122271   6.952   5.705   0.322
 7124SOL    HW222272   0.086   5.700   0.371
 7125SOL     OW22273   0.076   6.642   3.214
 7125SOL    HW122274   0.159   6.694   3.196
 7125SOL    HW222275   0.100   6.553   3.253
 7126SOL     OW22276   1.584   4.375   0.857
 7126SOL    HW122277   1.556   4.316   0.933
 7126SOL    HW222278   1.682   4.365   0.842
 7127SOL     OW22279   2.582   0.055   4.516
 7127SOL    HW122280   2.631   0.066   4.603
 7127SOL    HW222281   2.643   0.079   4.440
 7128SOL     OW22282   3.142   3.885   1.641
 7128SOL    HW122283   3.069   3.944   1.675
 7128SOL    HW222284   3.138   3.797   1.687
 7129SOL     OW22285   2.463   2.017   1.395
 7129SOL    HW122286   2.453   2.077   1.316
 7129SOL    HW222287   2.388   2.033   1.459
 7130SOL     OW22288   2.969   0.008   2.566
 7130SOL    HW122289   2.979   6.959   2.636
 7130SOL    HW222290   2.877   0.045   2.570
 7131SOL     OW22291   3.025   1.513   3.625
 7131SOL    HW122292   3.125   1.523   3.625
 7131SOL    HW222293   2.991   1.515   3.719
 7132SOL     OW22294   3.281   4.111   2.368
 7132SOL    HW122295   3.199   4.163   2.345
 7132SOL    HW222296   3.255   4.020   2.399
 7133SOL     OW22297   5.883   4.228   1.984
 7133SOL    HW122298   5.862   4.182   1.897
 7133SOL    HW222299   5.878   4.162   2.059
 7134SOL     OW22300   5.306   4.775   2.748
 7134SOL    HW122301   5.309   4.738   2.655
 7134SOL    HW222302   5.318   4.701   2.814
 7135SOL     OW22303   0.729   2.283   5.772
 7135SOL    HW122304   0.717   2.382   5.771
 7135SOL    HW222305   0.826   2.261   5.761
 7136SOL     OW22306   2.293   2.000   6.823
 7136SOL    HW122307   2.321   1.928   6.887
 7136SOL    HW222308   2.245   1.958   6.746
 7137SOL     OW22309   4.323   1.582   5.356
 7137SOL    HW122310   4.295   1.514   5.289
 7137SOL    HW222311   4.422   1.599   5.347
 7138SOL     OW22312   1.979   3.041   6.841
 7138SOL    HW122313   2.064   3.001   6.809
 7138SOL    HW222314   1.992   3.077   6.933
 7139SOL     OW22315   2.875   1.792   0.452
 7139SOL    HW122316   2.890   1.816   0.356
 7139SOL    HW222317   2.819   1.709   0.458
 7140SOL     OW22318   6.943   3.987   5.121
 7140SOL    HW122319   6.955   4.059   5.190
 7140SOL    HW222320   6.968   4.023   5.031
 7141SOL     OW22321   1.063   6.597   2.027
 7141SOL    HW122322   1.065   6.501   2.055
 7141SOL    HW222323   0.971   6.621   1.997
 7142SOL     OW22324   3.640   6.715   3.572
 7142SOL    HW122325   3.710   6.787   3.576
 7142SOL    HW222326   3.626   6.676   3.663
 7143SOL     OW22327   2.443   2.123   4.015
 7143SOL    HW122328   2.434   2.113   3.916
 7143SOL    HW222329   2.487   2.211   4.036
 7144SOL     OW22330   1.465   3.065   3.803
 7144SOL    HW122331   1.424   2.984   3.762
 7144SOL    HW222332   1.416   3.146   3.771
 7145SOL     OW22333   4.085   6.374   5.900
 7145SOL    HW122334   4.134   6.320   5.832
 7145SOL    HW222335   4.000   6.326   5.925
 7146SOL     OW22336   3.038   5.452   1.734
 7146SOL    HW122337   3.026   5.390   1.811
 7146SOL    HW222338   2.948   5.479   1.700
 7147SOL     OW22339   0.331   0.970   2.905
 7147SOL    HW122340   0.402   1.030   2.868
 7147SOL    HW222341   0.336   0.970   3.005
 7148SOL     OW22342   0.110   1.449   0.849
 7148SOL    HW122343   0.179   1.454   0.921
 7148SOL    HW222344   0.020   1.435   0.890
 7149SOL     OW22345   0.374   0.489   4.702
 7149SOL    HW122346   0.410   0.577   4.670
 7149SOL    HW222347   0.360   0.494   4.801
 7150SOL     OW22348   6.281   3.755   6.926
 7150SOL    HW122349   6.377   3.735   6.943
 7150SOL    HW222350   6.257   3.726   6.833
 7151SOL     OW22351   2.393   6.843   1.104
 7151SOL    HW122352   2.395   6.752   1.144
 7151SOL    HW222353   2.319   6.848   1.037
 7152SOL     OW22354   1.068   2.648   3.783
 7152SOL    HW122355   1.120   2.624   3.864
 7152SOL    HW222356   1.093   2.586   3.708
 7153SOL     OW22357   3.552   1.837   3.482
 7153SOL    HW122358   3.479   1.853   3.547
 7153SOL    HW222359   3.553   1.911   3.414
 7154SOL     OW22360   4.237   5.988   5.056
 7154SOL    HW122361   4.275   5.954   4.970
 7154SOL    HW222362   4.165   5.926   5.087
 7155SOL     OW22363   2.317   1.329   3.570
 7155SOL    HW122364   2.267   1.252   3.531
 7155SOL    HW222365   2.256   1.407   3.584
 7156SOL     OW22366   1.476   5.430   5.084
 7156SOL    HW122367   1.392   5.399   5.128
 7156SOL    HW222368   1.541   5.460   5.153
 7157SOL     OW22369   4.857   4.171   0.619
 7157SOL    HW122370   4.936   4.135   0.668
 7157SOL    HW222371   4.826   4.256   0.663
 7158SOL     OW22372   4.848   6.952   4.222
 7158SOL    HW122373   4.923   6.928   4.160
 7158SOL    HW222374   4.774   6.886   4.211
 7159SOL     OW22375   0.864   5.474   0.246
 7159SOL    HW122376   0.821   5.467   0.156
 7159SOL    HW222377   0.960   5.449   0.239
 7160SOL     OW22378   6.204   0.986   1.634
 7160SOL    HW122379   6.249   1.001   1.722
 7160SOL    HW222380   6.234   1.056   1.569
 7161SOL     OW22381   3.505   4.145   4.311
 7161SOL    HW122382   3.444   4.095   4.372
 7161SOL    HW222383   3.593   4.161   4.357
 7162SOL     OW22384   3.430   4.911   4.211
 7162SOL    HW122385   3.353   4.962   4.250
 7162SOL    HW222386   3.423   4.911   4.111
 7163SOL     OW22387   1.669   6.376   2.895
 7163SOL    HW122388   1.657   6.468   2.859
 7163SOL    HW222389   1.714   6.381   2.985
 7164SOL     OW22390   2.391   2.302   4.672
 7164SOL    HW122391   2.412   2.324   4.767
 7164SOL    HW222392   2.417   2.207   4.654
 7165SOL     OW22393   5.211   5.996   2.607
 7165SOL    HW122394   5.167   5.977   2.695
 7165SOL    HW222395   5.175   6.082   2.570
 7166SOL     OW22396   4.292   5.793   2.413
 7166SOL    HW122397   4.325   5.887   2.419
 7166SOL    HW222398   4.196   5.789   2.438
 7167SOL     OW22399   5.313   3.483   6.059
 7167SOL    HW122400   5.298   3.395   6.015
 7167SOL    HW222401   5.231   3.510   6.109
 7168SOL     OW22402   0.406   1.883   3.958
 7168SOL    HW122403   0.503   1.859   3.947
 7168SOL    HW222404   0.364   1.823   4.025
 7169SOL     OW22405   1.820   2.610   6.644
 7169SOL    HW122406   1.769   2.569   6.569
 7169SOL    HW222407   1.863   2.538   6.699
 7170SOL     OW22408   5.882   4.932   3.634
 7170SOL    HW122409   5.970   4.930   3.585
 7170SOL    HW222410   5.884   5.003   3.704
 7171SOL     OW22411   4.375   3.023   5.389
 7171SOL    HW122412   4.460   3.076   5.391
 7171SOL    HW222413   4.396   2.926   5.391
 7172SOL     OW22414   0.497   0.092   1.957
 7172SOL    HW122415   0.577   0.064   2.010
 7172SOL    HW222416   0.447   0.011   1.928
 7173SOL     OW22417   6.002   6.451   5.153
 7173SOL    HW122418   6.088   6.501   5.167
 7173SOL    HW222419   5.936   6.511   5.107
 7174SOL     OW22420   0.848   5.869   6.244
 7174SOL    HW122421   0.859   5.909   6.336
 7174SOL    HW222422   0.827   5.772   6.253
 7175SOL     OW22423   6.230   3.411   5.534
 7175SOL    HW122424   6.289   3.478   5.579
 7175SOL    HW222425   6.134   3.434   5.551
 7176SOL     OW22426   0.010   3.310   1.499
 7176SOL    HW122427   7.015   3.354   1.588
 7176SOL    HW222428   0.074   3.366   1.446
 7177SOL     OW22429   1.222   5.524   1.627
 7177SOL    HW122430   1.241   5.449   1.690
 7177SOL    HW222431   1.279   5.602   1.651
 7178SOL     OW22432   6.721   1.327   6.262
 7178SOL    HW122433   6.771   1.323   6.175
 7178SOL    HW222434   6.632   1.284   6.251
 7179SOL     OW22435   1.797   5.019   6.348
 7179SOL    HW122436   1.805   5.088   6.276
 7179SOL    HW222437   1.749   4.939   6.312
 7180SOL     OW22438   0.265   0.161   2.705
 7180SOL    HW122439   0.209   0.086   2.672
 7180SOL    HW222440   0.243   0.244   2.654
 7181SOL     OW22441   5.606   6.448   2.529
 7181SOL    HW122442   5.663   6.424   2.450
 7181SOL    HW222443   5.510   6.429   2.508
 7182SOL     OW22444   3.997   3.708   5.997
 7182SOL    HW122445   4.064   3.723   6.069
 7182SOL    HW222446   3.969   3.612   5.998
 7183SOL     OW22447   1.903   3.858   3.848
 7183SOL    HW122448   1.946   3.782   3.798
 7183SOL    HW222449   1.885   3.933   3.784
 7184SOL     OW22450   2.300   5.432   2.956
 7184SOL    HW122451   2.397   5.459   2.952
 7184SOL    HW222452   2.243   5.514   2.956
 7185SOL     OW22453   4.059   2.828   6.828
 7185SOL    HW122454   4.151   2.824   6.788
 7185SOL    HW222455   3.992   2.826   6.754
 7186SOL     OW22456   0.074   6.907   4.354
 7186SOL    HW122457   0.080   6.970   4.432
 7186SOL    HW222458   7.013   6.927   4.302
 7187SOL     OW22459   1.497   5.338   0.884
 7187SOL    HW122460   1.541   5.383   0.962
 7187SOL    HW222461   1.416   5.390   0.857
 7188SOL     OW22462   5.008   0.109   1.747
 7188SOL    HW122463   5.014   0.013   1.719
 7188SOL    HW222464   5.046   0.167   1.675
 7189SOL     OW22465   6.615   0.850   5.392
 7189SOL    HW122466   6.620   0.751   5.397
 7189SOL    HW222467   6.560   0.878   5.313
 7190SOL     OW22468   4.422   5.056   3.057
 7190SOL    HW122469   4.408   5.106   2.971
 7190SOL    HW222470   4.438   4.959   3.036
 7191SOL     OW22471   1.030   3.112   1.404
 7191SOL    HW122472   1.060   3.088   1.496
 7191SOL    HW222473   1.012   3.211   1.400
 7192SOL     OW22474   3.820   4.630   6.690
 7192SOL    HW122475   3.775   4.594   6.772
 7192SOL    HW222476   3.808   4.566   6.614
 7193SOL     OW22477   5.572   1.585   4.260
 7193SOL    HW122478   5.532   1.650   4.195
 7193SOL    HW222479   5.669   1.606   4.272
 7194SOL     OW22480   3.420   1.663   1.502
 7194SOL    HW122481   3.424   1.757   1.467
 7194SOL    HW222482   3.429   1.599   1.426
 7195SOL     OW22483   0.278   6.210   1.847
 7195SOL    HW122484   0.222   6.292   1.836
 7195SOL    HW222485   0.311   6.180   1.757
 7196SOL     OW22486   3.552   3.049   1.152
 7196SOL    HW122487   3.612   3.120   1.116
 7196SOL    HW222488   3.604   2.987   1.210
 7197SOL     OW22489   1.194   1.498   4.181
 7197SOL    HW122490   1.214   1.592   4.211
 7197SOL    HW222491   1.276   1.458   4.140
 7198SOL     OW22492   0.235   6.288   5.985
 7198SOL    HW122493   0.277   6.210   6.032
 7198SOL    HW222494   0.297   6.321   5.914
 7199SOL     OW22495   5.382   6.369   3.120
 7199SOL    HW122496   5.381   6.464   3.088
 7199SOL    HW222497   5.416   6.310   3.047
 7200SOL     OW22498   2.527   2.007   2.110
 7200SOL    HW122499   2.619   1.968   2.106
 7200SOL    HW222500   2.511   2.042   2.202
 7201SOL     OW22501   2.224   4.724   3.106
 7201SOL    HW122502   2.301   4.784   3.126
 7201SOL    HW222503   2.139   4.769   3.132
 7202SOL     OW22504   3.290   0.463   5.574
 7202SOL    HW122505   3.294   0.470   5.673
 7202SOL    HW222506   3.205   0.419   5.547
 7203SOL     OW22507   5.775   6.915   6.813
 7203SOL    HW122508   5.781   7.014   6.812
 7203SOL    HW222509   5.796   6.881   6.905
 7204SOL     OW22510   5.930   1.697   3.083
 7204SOL    HW122511   5.891   1.620   3.032
 7204SOL    HW222512   6.029   1.699   3.068
 7205SOL     OW22513   1.648   4.294   1.318
 7205SOL    HW122514   1.710   4.306   1.396
 7205SOL    HW222515   1.586   4.218   1.337
 7206SOL     OW22516   5.686   1.717   1.776
 7206SOL    HW122517   5.697   1.632   1.725
 7206SOL    HW222518   5.653   1.788   1.714
 7207SOL     OW22519   4.195   6.451   1.804
 7207SOL    HW122520   4.209   6.550   1.809
 7207SOL    HW222521   4.109   6.428   1.850
 7208SOL     OW22522   2.967   0.403   5.145
 7208SOL    HW122523   2.875   0.418   5.110
 7208SOL    HW222524   3.014   0.491   5.155
 7209SOL     OW22525   2.993   3.439   4.106
 7209SOL    HW122526   3.074   3.492   4.130
 7209SOL    HW222527   2.948   3.481   4.027
 7210SOL     OW22528   4.880   0.136   4.433
 7210SOL    HW122529   4.853   0.063   4.371
 7210SOL    HW222530   4.934   0.204   4.384
 7211SOL     OW22531   0.889   4.847   2.240
 7211SOL    HW122532   0.968   4.787   2.246
 7211SOL    HW222533   0.839   4.829   2.155
 7212SOL     OW22534   4.972   6.742   3.371
 7212SOL    HW122535   5.041   6.682   3.411
 7212SOL    HW222536   4.954   6.818   3.433
 7213SOL     OW22537   5.039   6.625   4.743
 7213SOL    HW122538   4.963   6.678   4.781
 7213SOL    HW222539   5.121   6.639   4.798
 7214SOL     OW22540   0.486   4.430   5.516
 7214SOL    HW122541   0.463   4.503   5.580
 7214SOL    HW222542   0.476   4.463   5.422
 7215SOL     OW22543   1.051   3.428   2.091
 7215SOL    HW122544   1.107   3.501   2.051
 7215SOL    HW222545   1.012   3.373   2.017
 7216SOL     OW22546   3.146   1.551   2.414
 7216SOL    HW122547   3.146   1.594   2.324
 7216SOL    HW222548   3.149   1.451   2.403
 7217SOL     OW22549   0.495   2.867   1.968
 7217SOL    HW122550   0.406   2.911   1.954
 7217SOL    HW222551   0.565   2.917   1.917
 7218SOL     OW22552   6.345   2.724   5.756
 7218SOL    HW122553   6.275   2.774   5.808
 7218SOL    HW222554   6.356   2.765   5.666
 7219SOL     OW22555   3.393   0.788   1.133
 7219SOL    HW122556   3.474   0.817   1.082
 7219SOL    HW222557   3.382   0.846   1.214
 7220SOL     OW22558   6.505   1.085   2.654
 7220SOL    HW122559   6.581   1.093   2.718
 7220SOL    HW222560   6.481   1.176   2.621
 7221SOL     OW22561   6.207   4.458   5.439
 7221SOL    HW122562   6.126   4.411   5.473
 7221SOL    HW222563   6.289   4.408   5.466
 7222SOL     OW22564   6.786   6.773   3.636
 7222SOL    HW122565   6.844   6.775   3.718
 7222SOL    HW222566   6.745   6.682   3.627
 7223SOL     OW22567   4.888   0.807   4.897
 7223SOL    HW122568   4.899   0.715   4.935
 7223SOL    HW222569   4.861   0.800   4.801
 7224SOL     OW22570   5.961   1.150   3.938
 7224SOL    HW122571   5.901   1.169   4.015
 7224SOL    HW222572   5.907   1.111   3.863
 7225SOL     OW22573   2.804   0.684   1.456
 7225SOL    HW122574   2.871   0.748   1.418
 7225SOL    HW222575   2.784   0.707   1.551
 7226SOL     OW22576   5.991   6.752   5.368
 7226SOL    HW122577   5.935   6.738   5.449
 7226SOL    HW222578   6.045   6.835   5.378
 7227SOL     OW22579   6.842   2.693   5.857
 7227SOL    HW122580   6.743   2.681   5.850
 7227SOL    HW222581   6.875   2.650   5.941
 7228SOL     OW22582   2.551   0.587   3.133
 7228SOL    HW122583   2.505   0.651   3.195
 7228SOL    HW222584   2.492   0.566   3.056
 7229SOL     OW22585   6.695   0.155   3.170
 7229SOL    HW122586   6.645   0.069   3.168
 7229SOL    HW222587   6.635   0.228   3.201
 7230SOL     OW22588   6.243   5.453   1.483
 7230SOL    HW122589   6.265   5.434   1.579
 7230SOL    HW222590   6.220   5.368   1.437
 7231SOL     OW22591   5.933   1.081   0.121
 7231SOL    HW122592   5.964   1.037   0.205
 7231SOL    HW222593   5.837   1.057   0.104
 7232SOL     OW22594   3.711   4.253   1.041
 7232SOL    HW122595   3.617   4.267   1.011
 7232SOL    HW222596   3.765   4.216   0.965
 7233SOL     OW22597   0.694   1.820   5.346
 7233SOL    HW122598   0.646   1.823   5.433
 7233SOL    HW222599   0.791   1.801   5.362
 7234SOL     OW22600   4.945   2.005   3.423
 7234SOL    HW122601   4.992   1.922   3.395
 7234SOL    HW222602   4.938   2.067   3.344
 7235SOL     OW22603   6.009   3.039   4.462
 7235SOL    HW122604   6.034   3.079   4.551
 7235SOL    HW222605   6.093   3.018   4.411
 7236SOL     OW22606   1.961   1.436   3.356
 7236SOL    HW122607   1.945   1.504   3.285
 7236SOL    HW222608   2.026   1.367   3.323
 7237SOL     OW22609   5.532   4.936   4.657
 7237SOL    HW122610   5.480   4.986   4.588
 7237SOL    HW222611   5.575   5.000   4.720
 7238SOL     OW22612   1.712   0.932   1.446
 7238SOL    HW122613   1.664   0.846   1.467
 7238SOL    HW222614   1.755   0.967   1.529
 7239SOL     OW22615   3.936   0.846   1.942
 7239SOL    HW122616   3.960   0.912   1.871
 7239SOL    HW222617   3.970   0.755   1.916
 7240SOL     OW22618   2.949   3.308   2.319
 7240SOL    HW122619   2.923   3.404   2.322
 7240SOL    HW222620   2.915   3.267   2.234
 7241SOL     OW22621   4.266   6.917   4.454
 7241SOL    HW122622   4.343   6.981   4.453
 7241SOL    HW222623   4.265   6.864   4.369
 7242SOL     OW22624   5.846   5.290   0.956
 7242SOL    HW122625   5.869   5.361   0.890
 7242SOL    HW222626   5.926   5.272   1.014
 7243SOL     OW22627   0.211   5.988   0.587
 7243SOL    HW122628   0.261   5.932   0.520
 7243SOL    HW222629   0.114   5.966   0.582
 7244SOL     OW22630   4.860   1.886   1.074
 7244SOL    HW122631   4.910   1.806   1.108
 7244SOL    HW222632   4.897   1.913   0.985
 7245SOL     OW22633   5.756   2.051   4.110
 7245SOL    HW122634   5.721   2.145   4.103
 7245SOL    HW222635   5.696   1.989   4.060
 7246SOL     OW22636   1.252   5.612   5.772
 7246SOL    HW122637   1.158   5.582   5.762
 7246SOL    HW222638   1.314   5.542   5.734
 7247SOL     OW22639   3.691   5.620   4.330
 7247SOL    HW122640   3.770   5.681   4.346
 7247SOL    HW222641   3.612   5.675   4.303
 7248SOL     OW22642   3.410   0.787   4.105
 7248SOL    HW122643   3.507   0.763   4.100
 7248SOL    HW222644   3.393   0.839   4.188
 7249SOL     OW22645   4.851   3.876   5.846
 7249SOL    HW122646   4.930   3.907   5.794
 7249SOL    HW222647   4.861   3.903   5.941
 7250SOL     OW22648   2.814   3.409   6.682
 7250SOL    HW122649   2.808   3.448   6.774
 7250SOL    HW222650   2.739   3.444   6.626
 7251SOL     OW22651   5.873   0.828   5.172
 7251SOL    HW122652   5.903   0.741   5.133
 7251SOL    HW222653   5.833   0.812   5.262
 7252SOL     OW22654   4.332   3.623   5.236
 7252SOL    HW122655   4.369   3.541   5.279
 7252SOL    HW222656   4.266   3.597   5.166
 7253SOL     OW22657   5.238   4.648   1.379
 7253SOL    HW122658   5.213   4.572   1.439
 7253SOL    HW222659   5.168   4.719   1.386
 7254SOL     OW22660   5.798   6.522   4.663
 7254SOL    HW122661   5.858   6.555   4.590
 7254SOL    HW222662   5.708   6.500   4.625
 7255SOL     OW22663   4.017   3.052   3.174
 7255SOL    HW122664   4.060   2.971   3.211
 7255SOL    HW222665   4.000   3.039   3.076
 7256SOL     OW22666   3.374   5.600   4.237
 7256SOL    HW122667   3.413   5.691   4.251
 7256SOL    HW222668   3.339   5.565   4.324
 7257SOL     OW22669   6.257   4.792   2.535
 7257SOL    HW122670   6.181   4.785   2.471
 7257SOL    HW222671   6.319   4.865   2.506
 7258SOL     OW22672   2.691   0.458   5.292
 7258SOL    HW122673   2.682   0.459   5.192
 7258SOL    HW222674   2.617   0.511   5.332
 7259SOL     OW22675   3.343   4.373   6.131
 7259SOL    HW122676   3.254   4.376   6.085
 7259SOL    HW222677   3.372   4.278   6.141
 7260SOL     OW22678   4.494   2.190   2.821
 7260SOL    HW122679   4.494   2.289   2.832
 7260SOL    HW222680   4.573   2.162   2.767
 7261SOL     OW22681   2.436   5.022   0.989
 7261SOL    HW122682   2.534   5.012   0.975
 7261SOL    HW222683   2.388   5.013   0.902
 7262SOL     OW22684   6.612   0.762   4.762
 7262SOL    HW122685   6.654   0.766   4.852
 7262SOL    HW222686   6.622   0.851   4.716
 7263SOL     OW22687   5.259   5.732   1.991
 7263SOL    HW122688   5.207   5.802   1.943
 7263SOL    HW222689   5.196   5.671   2.039
 7264SOL     OW22690   0.592   6.472   4.294
 7264SOL    HW122691   0.682   6.505   4.321
 7264SOL    HW222692   0.561   6.522   4.213
 7265SOL     OW22693   4.372   3.375   6.618
 7265SOL    HW122694   4.378   3.397   6.521
 7265SOL    HW222695   4.372   3.276   6.630
 7266SOL     OW22696   4.273   1.540   1.960
 7266SOL    HW122697   4.209   1.568   2.031
 7266SOL    HW222698   4.259   1.595   1.878
 7267SOL     OW22699   5.402   2.689   4.560
 7267SOL    HW122700   5.478   2.693   4.625
 7267SOL    HW222701   5.437   2.661   4.471
 7268SOL     OW22702   3.919   0.535   0.658
 7268SOL    HW122703   3.912   0.475   0.738
 7268SOL    HW222704   4.010   0.575   0.654
 7269SOL     OW22705   1.432   0.782   1.814
 7269SOL    HW122706   1.450   0.794   1.717
 7269SOL    HW222707   1.517   0.760   1.861
 7270SOL     OW22708   3.214   2.098   2.352
 7270SOL    HW122709   3.204   2.135   2.444
 7270SOL    HW222710   3.138   2.130   2.295
 7271SOL     OW22711   5.825   5.466   3.760
 7271SOL    HW122712   5.871   5.490   3.674
 7271SOL    HW222713   5.728   5.487   3.752
 7272SOL     OW22714   5.956   2.283   0.768
 7272SOL    HW122715   5.886   2.215   0.788
 7272SOL    HW222716   5.953   2.356   0.836
 7273SOL     OW22717   5.609   5.434   5.261
 7273SOL    HW122718   5.677   5.458   5.191
 7273SOL    HW222719   5.617   5.496   5.338
 7274SOL     OW22720   5.286   4.820   4.296
 7274SOL    HW122721   5.327   4.747   4.350
 7274SOL    HW222722   5.304   4.803   4.199
 7275SOL     OW22723   5.861   6.548   1.704
 7275SOL    HW122724   5.868   6.494   1.620
 7275SOL    HW222725   5.825   6.490   1.777
 7276SOL     OW22726   3.567   2.076   3.813
 7276SOL    HW122727   3.587   2.090   3.910
 7276SOL    HW222728   3.469   2.087   3.797
 7277SOL     OW22729   5.996   1.899   4.084
 7277SOL    HW122730   5.905   1.938   4.066
 7277SOL    HW222731   6.045   1.887   3.997
 7278SOL     OW22732   3.975   2.153   3.911
 7278SOL    HW122733   4.022   2.239   3.929
 7278SOL    HW222734   3.931   2.121   3.995
 7279SOL     OW22735   4.215   3.533   1.318
 7279SOL    HW122736   4.116   3.529   1.303
 7279SOL    HW222737   4.234   3.586   1.400
 7280SOL     OW22738   6.766   1.868   5.458
 7280SOL    HW122739   6.829   1.800   5.494
 7280SOL    HW222740   6.712   1.828   5.384
 7281SOL     OW22741   3.148   6.245   2.918
 7281SOL    HW122742   3.192   6.223   2.832
 7281SOL    HW222743   3.211   6.295   2.977
 7282SOL     OW22744   0.204   3.037   0.951
 7282SOL    HW122745   0.216   3.134   0.932
 7282SOL    HW222746   0.123   3.003   0.903
 7283SOL     OW22747   3.561   5.762   2.791
 7283SOL    HW122748   3.499   5.798   2.861
 7283SOL    HW222749   3.557   5.662   2.792
 7284SOL     OW22750   0.485   0.578   2.809
 7284SOL    HW122751   0.436   0.509   2.863
 7284SOL    HW222752   0.446   0.582   2.717
 7285SOL     OW22753   4.928   2.606   2.134
 7285SOL    HW122754   4.856   2.656   2.182
 7285SOL    HW222755   4.990   2.564   2.200
 7286SOL     OW22756   6.332   1.630   4.093
 7286SOL    HW122757   6.386   1.621   4.177
 7286SOL    HW222758   6.339   1.723   4.058
 7287SOL     OW22759   3.565   1.716   4.401
 7287SOL    HW122760   3.489   1.759   4.450
 7287SOL    HW222761   3.534   1.688   4.310
 7288SOL     OW22762   3.297   1.862   1.968
 7288SOL    HW122763   3.248   1.950   1.966
 7288SOL    HW222764   3.393   1.878   1.991
 7289SOL     OW22765   6.434   2.515   1.773
 7289SOL    HW122766   6.430   2.463   1.688
 7289SOL    HW222767   6.529   2.536   1.795
 7290SOL     OW22768   3.657   1.915   4.714
 7290SOL    HW122769   3.570   1.951   4.680
 7290SOL    HW222770   3.640   1.833   4.769
 7291SOL     OW22771   1.490   1.075   0.755
 7291SOL    HW122772   1.404   1.044   0.714
 7291SOL    HW222773   1.489   1.175   0.761
 7292SOL     OW22774   3.966   1.148   2.348
 7292SOL    HW122775   3.870   1.124   2.362
 7292SOL    HW222776   4.004   1.090   2.275
 7293SOL     OW22777   6.390   0.825   4.226
 7293SOL    HW122778   6.408   0.903   4.285
 7293SOL    HW222779   6.382   0.742   4.281
 7294SOL     OW22780   3.701   0.323   3.243
 7294SOL    HW122781   3.652   0.400   3.284
 7294SOL    HW222782   3.710   0.250   3.311
 7295SOL     OW22783   5.333   3.885   1.694
 7295SOL    HW122784   5.376   3.946   1.628
 7295SOL    HW222785   5.240   3.863   1.665
 7296SOL     OW22786   3.687   6.290   2.215
 7296SOL    HW122787   3.713   6.223   2.146
 7296SOL    HW222788   3.649   6.243   2.295
 7297SOL     OW22789   3.726   6.953   0.853
 7297SOL    HW122790   3.695   6.860   0.835
 7297SOL    HW222791   3.797   6.977   0.786
 7298SOL     OW22792   4.111   4.899   1.559
 7298SOL    HW122793   4.078   4.837   1.487
 7298SOL    HW222794   4.209   4.911   1.549
 7299SOL     OW22795   0.738   3.237   6.896
 7299SOL    HW122796   0.827   3.239   6.849
 7299SOL    HW222797   0.685   3.317   6.870
 7300SOL     OW22798   0.662   3.737   1.252
 7300SOL    HW122799   0.754   3.701   1.269
 7300SOL    HW222800   0.626   3.775   1.337
 7301SOL     OW22801   4.205   1.756   0.158
 7301SOL    HW122802   4.255   1.781   0.241
 7301SOL    HW222803   4.113   1.726   0.182
 7302SOL     OW22804   5.611   1.957   6.509
 7302SOL    HW122805   5.585   1.912   6.594
 7302SOL    HW222806   5.707   1.986   6.515
 7303SOL     OW22807   3.132   2.048   1.493
 7303SOL    HW122808   3.070   1.992   1.547
 7303SOL    HW222809   3.080   2.112   1.437
 7304SOL     OW22810   2.346   6.934   0.348
 7304SOL    HW122811   2.404   6.955   0.427
 7304SOL    HW222812   2.258   6.980   0.358
 7305SOL     OW22813   6.695   6.948   6.331
 7305SOL    HW122814   6.737   6.965   6.420
 7305SOL    HW222815   6.658   6.855   6.328
 7306SOL     OW22816   1.161   3.556   1.113
 7306SOL    HW122817   1.253   3.542   1.149
 7306SOL    HW222818   1.119   3.468   1.092
 7307SOL     OW22819   3.349   6.638   1.807
 7307SOL    HW122820   3.369   6.641   1.905
 7307SOL    HW222821   3.413   6.576   1.762
 7308SOL     OW22822   3.914   1.382   3.079
 7308SOL    HW122823   4.011   1.379   3.053
 7308SOL    HW222824   3.865   1.307   3.035
 7309SOL     OW22825   2.192   4.624   3.824
 7309SOL    HW122826   2.215   4.687   3.751
 7309SOL    HW222827   2.095   4.601   3.819
 7310SOL     OW22828   2.567   3.162   6.990
 7310SOL    HW122829   2.628   3.172   6.911
 7310SOL    HW222830   2.491   3.227   6.983
 7311SOL     OW22831   0.682   6.470   6.038
 7311SOL    HW122832   0.603   6.411   6.052
 7311SOL    HW222833   0.761   6.413   6.013
 7312SOL     OW22834   6.268   2.053   4.780
 7312SOL    HW122835   6.292   1.963   4.746
 7312SOL    HW222836   6.169   2.065   4.778
 7313SOL     OW22837   3.314   1.157   2.863
 7313SOL    HW122838   3.345   1.246   2.829
 7313SOL    HW222839   3.365   1.084   2.817
 7314SOL     OW22840   1.933   5.752   5.228
 7314SOL    HW122841   1.889   5.741   5.317
 7314SOL    HW222842   1.939   5.664   5.182
 7315SOL     OW22843   2.536   5.557   2.753
 7315SOL    HW122844   2.490   5.643   2.776
 7315SOL    HW222845   2.600   5.572   2.678
 7316SOL     OW22846   3.972   0.738   1.686
 7316SOL    HW122847   4.019   0.774   1.605
 7316SOL    HW222848   3.880   0.708   1.661
 7317SOL     OW22849   5.844   1.899   1.155
 7317SOL    HW122850   5.859   1.997   1.170
 7317SOL    HW222851   5.893   1.870   1.073
 7318SOL     OW22852   5.187   6.095   1.155
 7318SOL    HW122853   5.285   6.083   1.145
 7318SOL    HW222854   5.152   6.150   1.078
 7319SOL     OW22855   4.680   6.090   6.357
 7319SOL    HW122856   4.598   6.048   6.395
 7319SOL    HW222857   4.755   6.024   6.358
 7320SOL     OW22858   1.095   3.249   0.226
 7320SOL    HW122859   1.003   3.270   0.193
 7320SOL    HW222860   1.109   3.150   0.225
 7321SOL     OW22861   2.160   2.629   5.523
 7321SOL    HW122862   2.062   2.639   5.542
 7321SOL    HW222863   2.207   2.715   5.544
 7322SOL     OW22864   1.932   1.871   4.141
 7322SOL    HW122865   1.930   1.929   4.223
 7322SOL    HW222866   1.840   1.842   4.119
 7323SOL     OW22867   1.843   1.968   0.992
 7323SOL    HW122868   1.807   1.875   0.990
 7323SOL    HW222869   1.768   2.033   1.004
 7324SOL     OW22870   4.977   3.630   4.454
 7324SOL    HW122871   5.029   3.547   4.433
 7324SOL    HW222872   4.955   3.632   4.551
 7325SOL     OW22873   4.351   1.311   6.398
 7325SOL    HW122874   4.275   1.265   6.445
 7325SOL    HW222875   4.435   1.257   6.409
 7326SOL     OW22876   3.429   6.505   0.778
 7326SOL    HW122877   3.404   6.465   0.690
 7326SOL    HW222878   3.370   6.584   0.797
 7327SOL     OW22879   1.484   4.427   3.179
 7327SOL    HW122880   1.396   4.475   3.175
 7327SOL    HW222881   1.548   4.481   3.235
 7328SOL     OW22882   4.894   5.398   6.453
 7328SOL    HW122883   4.973   5.379   6.395
 7328SOL    HW222884   4.846   5.479   6.418
 7329SOL     OW22885   2.692   3.794   0.697
 7329SOL    HW122886   2.761   3.845   0.749
 7329SOL    HW222887   2.601   3.832   0.715
 7330SOL     OW22888   2.698   3.317   0.680
 7330SOL    HW122889   2.638   3.348   0.606
 7330SOL    HW222890   2.665   3.230   0.715
 7331SOL     OW22891   5.095   1.301   2.507
 7331SOL    HW122892   5.029   1.330   2.438
 7331SOL    HW222893   5.168   1.368   2.514
 7332SOL     OW22894   2.894   6.959   5.473
 7332SOL    HW122895   2.856   6.950   5.380
 7332SOL    HW222896   2.967   6.892   5.486
 7333SOL     OW22897   5.985   1.527   1.061
 7333SOL    HW122898   5.952   1.486   1.146
 7333SOL    HW222899   6.073   1.486   1.037
 7334SOL     OW22900   1.059   4.448   4.680
 7334SOL    HW122901   1.119   4.369   4.663
 7334SOL    HW222902   1.025   4.482   4.593
 7335SOL     OW22903   0.741   3.096   2.744
 7335SOL    HW122904   0.707   3.021   2.801
 7335SOL    HW222905   0.817   3.142   2.790
 7336SOL     OW22906   2.412   0.301   0.492
 7336SOL    HW122907   2.468   0.321   0.573
 7336SOL    HW222908   2.321   0.340   0.504
 7337SOL     OW22909   3.479   1.498   3.374
 7337SOL    HW122910   3.572   1.502   3.338
 7337SOL    HW222911   3.423   1.567   3.328
 7338SOL     OW22912   5.076   4.108   0.807
 7338SOL    HW122913   5.171   4.121   0.835
 7338SOL    HW222914   5.017   4.115   0.888
 7339SOL     OW22915   0.120   6.648   3.992
 7339SOL    HW122916   0.217   6.673   3.991
 7339SOL    HW222917   0.099   6.593   3.911
 7340SOL     OW22918   2.698   6.271   6.725
 7340SOL    HW122919   2.628   6.284   6.795
 7340SOL    HW222920   2.787   6.262   6.770
 7341SOL     OW22921   6.083   5.566   3.637
 7341SOL    HW122922   6.056   5.554   3.732
 7341SOL    HW222923   6.109   5.662   3.621
 7342SOL     OW22924   0.409   5.563   0.502
 7342SOL    HW122925   0.361   5.574   0.589
 7342SOL    HW222926   0.503   5.533   0.519
 7343SOL     OW22927   0.197   2.435   3.229
 7343SOL    HW122928   0.149   2.380   3.160
 7343SOL    HW222929   0.293   2.407   3.234
 7344SOL     OW22930   2.236   1.424   6.730
 7344SOL    HW122931   2.259   1.519   6.707
 7344SOL    HW222932   2.226   1.371   6.646
 7345SOL     OW22933   2.134   0.043   6.501
 7345SOL    HW122934   2.066   0.041   6.427
 7345SOL    HW222935   2.157   6.971   6.527
 7346SOL     OW22936   3.453   4.953   3.465
 7346SOL    HW122937   3.491   4.923   3.377
 7346SOL    HW222938   3.442   5.052   3.464
 7347SOL     OW22939   6.625   3.162   3.449
 7347SOL    HW122940   6.637   3.173   3.548
 7347SOL    HW222941   6.539   3.114   3.431
 7348SOL     OW22942   6.291   0.620   6.173
 7348SOL    HW122943   6.267   0.639   6.078
 7348SOL    HW222944   6.319   0.705   6.218
 7349SOL     OW22945   3.952   1.781   1.164
 7349SOL    HW122946   4.006   1.739   1.237
 7349SOL    HW222947   3.979   1.877   1.153
 7350SOL     OW22948   2.383   0.725   3.279
 7350SOL    HW122949   2.399   0.708   3.376
 7350SOL    HW222950   2.397   0.822   3.260
 7351SOL     OW22951   4.449   4.473   0.578
 7351SOL    HW122952   4.478   4.569   0.575
 7351SOL    HW222953   4.488   4.424   0.501
 7352SOL     OW22954   6.587   0.753   3.420
 7352SOL    HW122955   6.635   0.816   3.481
 7352SOL    HW222956   6.649   0.679   3.394
 7353SOL     OW22957   5.435   1.738   5.647
 7353SOL    HW122958   5.493   1.692   5.580
 7353SOL    HW222959   5.396   1.671   5.709
 7354SOL     OW22960   5.808   4.280   4.896
 7354SOL    HW122961   5.803   4.371   4.854
 7354SOL    HW222962   5.721   4.232   4.883
 7355SOL     OW22963   6.780   5.802   1.034
 7355SOL    HW122964   6.865   5.810   0.982
 7355SOL    HW222965   6.709   5.763   0.975
 7356SOL     OW22966   6.946   1.910   5.881
 7356SOL    HW122967   6.931   1.986   5.817
 7356SOL    HW222968   7.020   1.934   5.943
 7357SOL     OW22969   1.031   1.264   0.637
 7357SOL    HW122970   0.974   1.204   0.693
 7357SOL    HW222971   0.973   1.313   0.572
 7358SOL     OW22972   3.708   0.975   3.645
 7358SOL    HW122973   3.700   0.993   3.743
 7358SOL    HW222974   3.703   1.061   3.594
 7359SOL     OW22975   2.925   3.339   3.642
 7359SOL    HW122976   2.922   3.292   3.553
 7359SOL    HW222977   3.021   3.348   3.670
 7360SOL     OW22978   1.001   4.324   6.761
 7360SOL    HW122979   1.027   4.357   6.671
 7360SOL    HW222980   0.996   4.224   6.760
 7361SOL     OW22981   4.411   6.536   1.296
 7361SOL    HW122982   4.508   6.553   1.312
 7361SOL    HW222983   4.357   6.608   1.340
 7362SOL     OW22984   1.410   6.139   6.514
 7362SOL    HW122985   1.403   6.210   6.585
 7362SOL    HW222986   1.504   6.104   6.512
 7363SOL     OW22987   4.465   2.280   6.492
 7363SOL    HW122988   4.436   2.216   6.563
 7363SOL    HW222989   4.555   2.318   6.516
 7364SOL     OW22990   4.824   6.876   0.823
 7364SOL    HW122991   4.788   6.793   0.865
 7364SOL    HW222992   4.795   6.956   0.877
 7365SOL     OW22993   4.670   6.710   0.961
 7365SOL    HW122994   4.666   6.612   0.980
 7365SOL    HW222995   4.640   6.761   1.042
 7366SOL     OW22996   1.618   0.221   0.363
 7366SOL    HW122997   1.537   0.225   0.305
 7366SOL    HW222998   1.623   0.304   0.419
 7367SOL     OW22999   4.173   2.486   6.767
 7367SOL    HW123000   4.265   2.447   6.773
 7367SOL    HW223001   4.158   2.547   6.846
 7368SOL     OW23002   3.299   3.118   4.431
 7368SOL    HW123003   3.313   3.037   4.488
 7368SOL    HW223004   3.254   3.189   4.485
 7369SOL     OW23005   6.216   0.564   6.451
 7369SOL    HW123006   6.125   0.605   6.448
 7369SOL    HW223007   6.264   0.583   6.366
 7370SOL     OW23008   0.618   5.759   0.643
 7370SOL    HW123009   0.688   5.713   0.588
 7370SOL    HW223010   0.535   5.771   0.588
 7371SOL     OW23011   1.212   4.973   4.523
 7371SOL    HW123012   1.236   5.061   4.483
 7371SOL    HW223013   1.239   4.970   4.619
 7372SOL     OW23014   3.080   0.643   5.179
 7372SOL    HW123015   3.139   0.628   5.258
 7372SOL    HW223016   3.066   0.742   5.167
 7373SOL     OW23017   3.564   0.501   1.136
 7373SOL    HW123018   3.522   0.519   1.225
 7373SOL    HW223019   3.499   0.521   1.063
 7374SOL     OW23020   2.497   3.749   6.549
 7374SOL    HW123021   2.441   3.761   6.631
 7374SOL    HW223022   2.592   3.772   6.569
 7375SOL     OW23023   2.876   6.064   3.498
 7375SOL    HW123024   2.825   6.116   3.567
 7375SOL    HW223025   2.874   6.113   3.411
 7376SOL     OW23026   3.119   3.846   6.462
 7376SOL    HW123027   3.152   3.804   6.377
 7376SOL    HW223028   3.040   3.794   6.495
 7377SOL     OW23029   6.187   5.882   1.734
 7377SOL    HW123030   6.141   5.950   1.678
 7377SOL    HW223031   6.120   5.835   1.791
 7378SOL     OW23032   0.474   1.943   5.229
 7378SOL    HW123033   0.562   1.903   5.253
 7378SOL    HW223034   0.413   1.940   5.308
 7379SOL     OW23035   4.639   0.495   0.383
 7379SOL    HW123036   4.701   0.419   0.366
 7379SOL    HW223037   4.606   0.491   0.478
 7380SOL     OW23038   6.523   2.822   6.400
 7380SOL    HW123039   6.476   2.743   6.359
 7380SOL    HW223040   6.456   2.876   6.452
 7381SOL     OW23041   5.121   2.171   0.031
 7381SOL    HW123042   5.168   2.206   0.112
 7381SOL    HW223043   5.182   2.109   7.003
 7382SOL     OW23044   1.194   5.355   3.799
 7382SOL    HW123045   1.255   5.316   3.868
 7382SOL    HW223046   1.132   5.420   3.842
 7383SOL     OW23047   1.620   4.662   2.951
 7383SOL    HW123048   1.686   4.586   2.952
 7383SOL    HW223049   1.548   4.645   3.018
 7384SOL     OW23050   6.286   2.124   0.691
 7384SOL    HW123051   6.186   2.123   0.694
 7384SOL    HW223052   6.321   2.034   0.719
 7385SOL     OW23053   5.228   0.374   1.822
 7385SOL    HW123054   5.173   0.323   1.756
 7385SOL    HW223055   5.241   0.319   1.905
 7386SOL     OW23056   6.626   1.574   5.992
 7386SOL    HW123057   6.635   1.549   5.896
 7386SOL    HW223058   6.664   1.666   6.006
 7387SOL     OW23059   5.235   6.175   3.680
 7387SOL    HW123060   5.195   6.241   3.616
 7387SOL    HW223061   5.315   6.133   3.638
 7388SOL     OW23062   5.228   3.979   4.878
 7388SOL    HW123063   5.248   3.918   4.955
 7388SOL    HW223064   5.313   4.023   4.848
 7389SOL     OW23065   0.866   2.971   4.983
 7389SOL    HW123066   0.836   3.018   4.900
 7389SOL    HW223067   0.965   2.982   4.994
 7390SOL     OW23068   4.302   0.455   6.863
 7390SOL    HW123069   4.228   0.409   6.912
 7390SOL    HW223070   4.325   0.540   6.910
 7391SOL     OW23071   0.345   5.029   0.099
 7391SOL    HW123072   0.294   4.944   0.086
 7391SOL    HW223073   0.359   5.045   0.197
 7392SOL     OW23074   2.353   4.535   2.228
 7392SOL    HW123075   2.276   4.599   2.220
 7392SOL    HW223076   2.404   4.533   2.142
 7393SOL     OW23077   0.994   3.785   6.900
 7393SOL    HW123078   0.901   3.769   6.865
 7393SOL    HW223079   1.060   3.769   6.827
 7394SOL     OW23080   2.227   2.887   6.055
 7394SOL    HW123081   2.270   2.888   6.146
 7394SOL    HW223082   2.297   2.880   5.985
 7395SOL     OW23083   2.622   0.815   6.678
 7395SOL    HW123084   2.668   0.737   6.720
 7395SOL    HW223085   2.561   0.782   6.605
 7396SOL     OW23086   7.002   6.713   1.906
 7396SOL    HW123087   0.046   6.638   1.902
 7396SOL    HW223088   6.909   6.677   1.910
 7397SOL     OW23089   6.305   4.140   4.524
 7397SOL    HW123090   6.297   4.067   4.592
 7397SOL    HW223091   6.309   4.099   4.433
 7398SOL     OW23092   4.308   6.529   3.342
 7398SOL    HW123093   4.279   6.584   3.264
 7398SOL    HW223094   4.366   6.584   3.402
 7399SOL     OW23095   5.021   4.827   4.319
 7399SOL    HW123096   5.119   4.821   4.297
 7399SOL    HW223097   5.005   4.907   4.378
 7400SOL     OW23098   2.819   4.107   0.441
 7400SOL    HW123099   2.832   4.091   0.539
 7400SOL    HW223100   2.869   4.037   0.389
 7401SOL     OW23101   5.874   2.822   5.100
 7401SOL    HW123102   5.887   2.847   5.004
 7401SOL    HW223103   5.938   2.874   5.156
 7402SOL     OW23104   2.069   6.148   4.510
 7402SOL    HW123105   2.094   6.051   4.510
 7402SOL    HW223106   1.972   6.157   4.488
 7403SOL     OW23107   2.480   3.049   1.676
 7403SOL    HW123108   2.559   3.091   1.632
 7403SOL    HW223109   2.415   3.019   1.607
 7404SOL     OW23110   1.320   1.847   2.754
 7404SOL    HW123111   1.347   1.838   2.850
 7404SOL    HW223112   1.289   1.941   2.737
 7405SOL     OW23113   4.116   4.546   6.006
 7405SOL    HW123114   4.187   4.588   5.950
 7405SOL    HW223115   4.031   4.541   5.954
 7406SOL     OW23116   0.708   6.260   2.570
 7406SOL    HW123117   0.663   6.225   2.652
 7406SOL    HW223118   0.661   6.343   2.539
 7407SOL     OW23119   2.976   1.162   5.801
 7407SOL    HW123120   3.014   1.242   5.847
 7407SOL    HW223121   3.046   1.090   5.796
 7408SOL     OW23122   0.523   3.532   5.352
 7408SOL    HW123123   0.592   3.602   5.368
 7408SOL    HW223124   0.437   3.575   5.326
 7409SOL     OW23125   2.492   6.775   4.853
 7409SOL    HW123126   2.503   6.872   4.872
 7409SOL    HW223127   2.580   6.729   4.861
 7410SOL     OW23128   4.302   5.689   5.839
 7410SOL    HW123129   4.331   5.747   5.915
 7410SOL    HW223130   4.202   5.684   5.836
 7411SOL     OW23131   5.154   4.191   5.568
 7411SOL    HW123132   5.224   4.169   5.636
 7411SOL    HW223133   5.161   4.288   5.544
 7412SOL     OW23134   2.029   1.293   6.895
 7412SOL    HW123135   1.973   1.376   6.899
 7412SOL    HW223136   2.118   1.315   6.856
 7413SOL     OW23137   6.917   3.647   3.749
 7413SOL    HW123138   6.829   3.630   3.793
 7413SOL    HW223139   6.986   3.664   3.820
 7414SOL     OW23140   0.486   5.292   1.303
 7414SOL    HW123141   0.468   5.207   1.254
 7414SOL    HW223142   0.399   5.338   1.322
 7415SOL     OW23143   3.366   1.710   3.233
 7415SOL    HW123144   3.278   1.747   3.263
 7415SOL    HW223145   3.402   1.765   3.158
 7416SOL     OW23146   6.510   6.859   2.925
 7416SOL    HW123147   6.471   6.781   2.877
 7416SOL    HW223148   6.566   6.912   2.861
 7417SOL     OW23149   0.309   5.098   0.961
 7417SOL    HW123150   0.408   5.100   0.971
 7417SOL    HW223151   0.269   5.176   1.009
 7418SOL     OW23152   1.300   3.471   0.192
 7418SOL    HW123153   1.360   3.395   0.165
 7418SOL    HW223154   1.205   3.445   0.176
 7419SOL     OW23155   6.219   2.491   5.475
 7419SOL    HW123156   6.266   2.481   5.387
 7419SOL    HW223157   6.127   2.527   5.459
 7420SOL     OW23158   6.729   5.605   2.202
 7420SOL    HW123159   6.825   5.632   2.195
 7420SOL    HW223160   6.675   5.656   2.135
 7421SOL     OW23161   4.238   1.776   1.714
 7421SOL    HW123162   4.207   1.692   1.670
 7421SOL    HW223163   4.169   1.808   1.778
 7422SOL     OW23164   0.659   1.428   0.922
 7422SOL    HW123165   0.624   1.494   0.856
 7422SOL    HW223166   0.759   1.437   0.929
 7423SOL     OW23167   2.757   4.389   0.512
 7423SOL    HW123168   2.788   4.321   0.445
 7423SOL    HW223169   2.673   4.357   0.556
 7424SOL     OW23170   5.035   0.284   4.223
 7424SOL    HW123171   5.102   0.341   4.271
 7424SOL    HW223172   5.048   0.294   4.124
 7425SOL     OW23173   3.405   0.256   4.704
 7425SOL    HW123174   3.446   0.172   4.739
 7425SOL    HW223175   3.468   0.301   4.641
 7426SOL     OW23176   0.344   1.235   6.463
 7426SOL    HW123177   0.419   1.173   6.487
 7426SOL    HW223178   0.382   1.323   6.433
 7427SOL     OW23179   5.303   5.402   5.164
 7427SOL    HW123180   5.293   5.330   5.095
 7427SOL    HW223181   5.398   5.407   5.193
 7428SOL     OW23182   4.508   0.939   5.327
 7428SOL    HW123183   4.428   0.886   5.297
 7428SOL    HW223184   4.493   0.972   5.420
 7429SOL     OW23185   6.471   6.389   3.945
 7429SOL    HW123186   6.440   6.483   3.960
 7429SOL    HW223187   6.495   6.347   4.033
 7430SOL     OW23188   0.495   4.204   4.005
 7430SOL    HW123189   0.396   4.205   3.995
 7430SOL    HW223190   0.523   4.121   4.054
 7431SOL     OW23191   0.089   4.241   2.432
 7431SOL    HW123192   0.073   4.326   2.481
 7431SOL    HW223193   0.115   4.169   2.496
 7432SOL     OW23194   1.817   6.617   5.289
 7432SOL    HW123195   1.872   6.641   5.369
 7432SOL    HW223196   1.727   6.587   5.318
 7433SOL     OW23197   0.448   6.575   1.001
 7433SOL    HW123198   0.522   6.586   1.068
 7433SOL    HW223199   0.388   6.501   1.031
 7434SOL     OW23200   3.967   6.538   0.543
 7434SOL    HW123201   3.989   6.445   0.516
 7434SOL    HW223202   4.025   6.602   0.493
 7435SOL     OW23203   1.378   5.478   6.981
 7435SOL    HW123204   1.367   5.381   6.961
 7435SOL    HW223205   1.347   5.497   0.052
 7436SOL     OW23206   4.261   3.795   0.017
 7436SOL    HW123207   4.341   3.810   0.075
 7436SOL    HW223208   4.217   3.882   7.020
 7437SOL     OW23209   6.902   6.298   5.218
 7437SOL    HW123210   6.974   6.296   5.287
 7437SOL    HW223211   6.938   6.265   5.131
 7438SOL     OW23212   5.395   3.907   1.249
 7438SOL    HW123213   5.333   3.908   1.171
 7438SOL    HW223214   5.475   3.851   1.227
 7439SOL     OW23215   1.586   6.454   2.566
 7439SOL    HW123216   1.599   6.506   2.650
 7439SOL    HW223217   1.494   6.416   2.564
 7440SOL     OW23218   0.961   1.197   3.928
 7440SOL    HW123219   0.959   1.108   3.883
 7440SOL    HW223220   0.891   1.256   3.888
 7441SOL     OW23221   6.305   0.214   4.122
 7441SOL    HW123222   6.330   0.253   4.033
 7441SOL    HW223223   6.362   0.254   4.193
 7442SOL     OW23224   1.574   0.962   6.211
 7442SOL    HW123225   1.587   1.061   6.215
 7442SOL    HW223226   1.578   0.923   6.303
 7443SOL     OW23227   6.780   2.415   1.905
 7443SOL    HW123228   6.746   2.331   1.863
 7443SOL    HW223229   6.743   2.494   1.857
 7444SOL     OW23230   0.965   2.661   5.121
 7444SOL    HW123231   0.988   2.758   5.133
 7444SOL    HW223232   1.019   2.606   5.185
 7445SOL     OW23233   6.164   3.038   1.669
 7445SOL    HW123234   6.068   3.036   1.696
 7445SOL    HW223235   6.172   3.072   1.576
 7446SOL     OW23236   5.968   3.465   3.400
 7446SOL    HW123237   5.937   3.560   3.409
 7446SOL    HW223238   5.960   3.436   3.305
 7447SOL     OW23239   0.454   3.679   6.661
 7447SOL    HW123240   0.487   3.596   6.707
 7447SOL    HW223241   0.369   3.709   6.703
 7448SOL     OW23242   0.271   0.115   6.337
 7448SOL    HW123243   0.308   0.023   6.327
 7448SOL    HW223244   0.173   0.110   6.351
 7449SOL     OW23245   4.178   6.846   1.771
 7449SOL    HW123246   4.201   6.790   1.692
 7449SOL    HW223247   4.098   6.902   1.750
 7450SOL     OW23248   3.830   1.400   1.737
 7450SOL    HW123249   3.789   1.367   1.822
 7450SOL    HW223250   3.795   1.346   1.660
 7451SOL     OW23251   1.265   0.645   2.781
 7451SOL    HW123252   1.328   0.569   2.762
 7451SOL    HW223253   1.191   0.613   2.840
 7452SOL     OW23254   1.738   5.784   3.353
 7452SOL    HW123255   1.669   5.856   3.349
 7452SOL    HW223256   1.694   5.697   3.377
 7453SOL     OW23257   6.484   4.604   5.376
 7453SOL    HW123258   6.453   4.513   5.404
 7453SOL    HW223259   6.454   4.621   5.282
 7454SOL     OW23260   0.998   3.262   6.778
 7454SOL    HW123261   1.002   3.162   6.780
 7454SOL    HW223262   1.053   3.300   6.852
 7455SOL     OW23263   5.008   0.459   0.866
 7455SOL    HW123264   4.941   0.533   0.865
 7455SOL    HW223265   4.970   0.380   0.816
 7456SOL     OW23266   0.839   3.903   6.138
 7456SOL    HW123267   0.927   3.905   6.186
 7456SOL    HW223268   0.851   3.859   6.049
 7457SOL     OW23269   6.716   6.418   6.256
 7457SOL    HW123270   6.682   6.385   6.168
 7457SOL    HW223271   6.799   6.472   6.242
 7458SOL     OW23272   2.432   0.841   0.937
 7458SOL    HW123273   2.430   0.741   0.942
 7458SOL    HW223274   2.518   0.871   0.897
 7459SOL     OW23275   3.854   6.248   4.371
 7459SOL    HW123276   3.949   6.256   4.341
 7459SOL    HW223277   3.832   6.323   4.434
 7460SOL     OW23278   1.122   5.357   0.249
 7460SOL    HW123279   1.209   5.310   0.240
 7460SOL    HW223280   1.119   5.435   0.185
 7461SOL     OW23281   4.263   0.951   4.381
 7461SOL    HW123282   4.336   0.924   4.444
 7461SOL    HW223283   4.287   1.037   4.337
 7462SOL     OW23284   2.410   1.569   3.346
 7462SOL    HW123285   2.378   1.475   3.359
 7462SOL    HW223286   2.342   1.620   3.293
 7463SOL     OW23287   3.961   3.943   2.195
 7463SOL    HW123288   3.903   3.984   2.265
 7463SOL    HW223289   4.038   4.005   2.176
 7464SOL     OW23290   4.623   6.496   0.036
 7464SOL    HW123291   4.546   6.433   0.046
 7464SOL    HW223292   4.658   6.521   0.126
 7465SOL     OW23293   4.031   0.543   2.943
 7465SOL    HW123294   4.007   0.459   2.991
 7465SOL    HW223295   4.129   0.558   2.948
 7466SOL     OW23296   6.023   0.195   0.441
 7466SOL    HW123297   5.937   0.206   0.492
 7466SOL    HW223298   6.012   0.231   0.349
 7467SOL     OW23299   4.754   2.215   0.928
 7467SOL    HW123300   4.685   2.206   0.999
 7467SOL    HW223301   4.782   2.124   0.897
 7468SOL     OW23302   5.741   4.053   4.241
 7468SOL    HW123303   5.646   4.050   4.210
 7468SOL    HW223304   5.776   4.146   4.235
 7469SOL     OW23305   5.235   1.132   2.023
 7469SOL    HW123306   5.230   1.184   2.108
 7469SOL    HW223307   5.207   1.189   1.946
 7470SOL     OW23308   6.927   3.385   3.438
 7470SOL    HW123309   6.911   3.352   3.345
 7470SOL    HW223310   6.906   3.483   3.443
 7471SOL     OW23311   6.394   4.838   5.493
 7471SOL    HW123312   6.417   4.742   5.480
 7471SOL    HW223313   6.323   4.864   5.428
 7472SOL     OW23314   3.939   5.106   3.317
 7472SOL    HW123315   4.025   5.055   3.317
 7472SOL    HW223316   3.865   5.045   3.344
 7473SOL     OW23317   1.257   3.232   5.493
 7473SOL    HW123318   1.248   3.293   5.572
 7473SOL    HW223319   1.187   3.254   5.425
 7474SOL     OW23320   2.416   1.237   3.174
 7474SOL    HW123321   2.323   1.237   3.211
 7474SOL    HW223322   2.424   1.310   3.106
 7475SOL     OW23323   4.916   0.906   6.367
 7475SOL    HW123324   4.888   0.993   6.327
 7475SOL    HW223325   5.015   0.894   6.356
 7476SOL     OW23326   1.932   6.594   4.837
 7476SOL    HW123327   1.880   6.563   4.916
 7476SOL    HW223328   2.021   6.629   4.867
 7477SOL     OW23329   5.167   3.649   4.112
 7477SOL    HW123330   5.131   3.556   4.106
 7477SOL    HW223331   5.093   3.712   4.135
 7478SOL     OW23332   0.552   4.497   1.570
 7478SOL    HW123333   0.622   4.555   1.527
 7478SOL    HW223334   0.478   4.554   1.605
 7479SOL     OW23335   3.972   0.185   5.115
 7479SOL    HW123336   3.908   0.195   5.039
 7479SOL    HW223337   3.977   0.089   5.142
 7480SOL     OW23338   6.028   5.083   0.480
 7480SOL    HW123339   6.124   5.092   0.454
 7480SOL    HW223340   6.021   5.041   0.570
 7481SOL     OW23341   6.100   6.199   0.002
 7481SOL    HW123342   6.089   6.246   6.936
 7481SOL    HW223343   6.177   6.135   7.018
 7482SOL     OW23344   5.013   0.154   4.666
 7482SOL    HW123345   4.948   0.138   4.592
 7482SOL    HW223346   5.098   0.105   4.647
 7483SOL     OW23347   3.569   0.312   6.354
 7483SOL    HW123348   3.604   0.311   6.261
 7483SOL    HW223349   3.500   0.384   6.363
 7484SOL     OW23350   3.802   0.106   1.895
 7484SOL    HW123351   3.820   0.176   1.964
 7484SOL    HW223352   3.732   0.138   1.832
 7485SOL     OW23353   0.747   6.535   4.892
 7485SOL    HW123354   0.774   6.589   4.971
 7485SOL    HW223355   0.818   6.540   4.822
 7486SOL     OW23356   0.942   1.764   5.293
 7486SOL    HW123357   1.009   1.691   5.279
 7486SOL    HW223358   0.967   1.817   5.374
 7487SOL     OW23359   3.454   5.239   3.457
 7487SOL    HW123360   3.435   5.241   3.358
 7487SOL    HW223361   3.399   5.310   3.502
 7488SOL     OW23362   4.763   0.441   5.077
 7488SOL    HW123363   4.680   0.469   5.126
 7488SOL    HW223364   4.744   0.441   4.978
 7489SOL     OW23365   6.690   3.600   3.888
 7489SOL    HW123366   6.617   3.572   3.825
 7489SOL    HW223367   6.715   3.523   3.946
 7490SOL     OW23368   5.636   0.292   3.079
 7490SOL    HW123369   5.703   0.353   3.035
 7490SOL    HW223370   5.585   0.243   3.008
 7491SOL     OW23371   0.339   6.791   0.667
 7491SOL    HW123372   0.327   6.738   0.584
 7491SOL    HW223373   0.297   6.881   0.656
 7492SOL     OW23374   2.202   2.156   3.665
 7492SOL    HW123375   2.200   2.244   3.712
 7492SOL    HW223376   2.228   2.085   3.729
 7493SOL     OW23377   5.186   4.794   6.768
 7493SOL    HW123378   5.229   4.877   6.734
 7493SOL    HW223379   5.165   4.733   6.691
 7494SOL     OW23380   4.854   1.903   1.904
 7494SOL    HW123381   4.878   2.000   1.913
 7494SOL    HW223382   4.818   1.886   1.813
 7495SOL     OW23383   0.949   1.796   2.679
 7495SOL    HW123384   0.986   1.796   2.586
 7495SOL    HW223385   0.964   1.886   2.721
 7496SOL     OW23386   0.610   5.688   5.571
 7496SOL    HW123387   0.645   5.604   5.529
 7496SOL    HW223388   0.519   5.671   5.609
 7497SOL     OW23389   1.585   4.975   2.512
 7497SOL    HW123390   1.491   4.944   2.503
 7497SOL    HW223391   1.596   5.028   2.596
 7498SOL     OW23392   5.717   2.031   4.572
 7498SOL    HW123393   5.721   2.125   4.605
 7498SOL    HW223394   5.801   1.983   4.600
 7499SOL     OW23395   3.804   4.930   3.831
 7499SOL    HW123396   3.779   4.940   3.927
 7499SOL    HW223397   3.898   4.895   3.825
 7500SOL     OW23398   5.014   4.125   1.754
 7500SOL    HW123399   5.037   4.028   1.745
 7500SOL    HW223400   4.955   4.152   1.678
 7501SOL     OW23401   0.556   4.765   3.916
 7501SOL    HW123402   0.466   4.806   3.931
 7501SOL    HW223403   0.544   4.674   3.876
 7502SOL     OW23404   1.769   2.337   3.958
 7502SOL    HW123405   1.852   2.388   3.981
 7502SOL    HW223406   1.760   2.330   3.859
 7503SOL     OW23407   2.279   2.948   6.720
 7503SOL    HW123408   2.346   3.021   6.738
 7503SOL    HW223409   2.314   2.888   6.649
 7504SOL     OW23410   3.838   5.480   4.120
 7504SOL    HW123411   3.790   5.535   4.188
 7504SOL    HW223412   3.903   5.420   4.167
 7505SOL     OW23413   1.849   1.233   4.232
 7505SOL    HW123414   1.796   1.197   4.309
 7505SOL    HW223415   1.945   1.240   4.259
 7506SOL     OW23416   4.056   1.025   3.322
 7506SOL    HW123417   3.982   0.959   3.317
 7506SOL    HW223418   4.120   1.010   3.246
 7507SOL     OW23419   2.219   0.157   5.557
 7507SOL    HW123420   2.175   0.176   5.645
 7507SOL    HW223421   2.153   0.112   5.496
 7508SOL     OW23422   5.263   5.179   3.714
 7508SOL    HW123423   5.185   5.146   3.767
 7508SOL    HW223424   5.231   5.217   3.627
 7509SOL     OW23425   4.127   4.219   6.016
 7509SOL    HW123426   4.177   4.303   6.036
 7509SOL    HW223427   4.170   4.173   5.938
 7510SOL     OW23428   3.489   3.584   4.778
 7510SOL    HW123429   3.457   3.489   4.781
 7510SOL    HW223430   3.458   3.627   4.693
 7511SOL     OW23431   1.270   1.519   2.316
 7511SOL    HW123432   1.178   1.494   2.286
 7511SOL    HW223433   1.264   1.594   2.382
 7512SOL     OW23434   1.641   3.008   1.774
 7512SOL    HW123435   1.620   3.039   1.681
 7512SOL    HW223436   1.740   3.006   1.787
 7513SOL     OW23437   1.460   3.582   6.226
 7513SOL    HW123438   1.554   3.560   6.253
 7513SOL    HW223439   1.397   3.562   6.300
 7514SOL     OW23440   3.602   5.609   3.632
 7514SOL    HW123441   3.667   5.599   3.557
 7514SOL    HW223442   3.604   5.702   3.667
 7515SOL     OW23443   0.506   5.020   3.099
 7515SOL    HW123444   0.540   4.981   3.184
 7515SOL    HW223445   0.425   5.076   3.117
 7516SOL     OW23446   1.690   2.140   1.584
 7516SOL    HW123447   1.767   2.077   1.595
 7516SOL    HW223448   1.667   2.181   1.672
 7517SOL     OW23449   0.512   4.928   1.524
 7517SOL    HW123450   0.479   4.863   1.456
 7517SOL    HW223451   0.581   4.988   1.484
 7518SOL     OW23452   5.142   4.122   3.482
 7518SOL    HW123453   5.152   4.157   3.575
 7518SOL    HW223454   5.096   4.191   3.425
 7519SOL     OW23455   2.081   0.085   4.101
 7519SOL    HW123456   2.103   0.167   4.048
 7519SOL    HW223457   1.999   0.102   4.156
 7520SOL     OW23458   2.384   6.920   3.658
 7520SOL    HW123459   2.321   6.864   3.604
 7520SOL    HW223460   2.340   7.007   3.679
 7521SOL     OW23461   4.377   3.378   5.361
 7521SOL    HW123462   4.459   3.321   5.370
 7521SOL    HW223463   4.298   3.321   5.343
 7522SOL     OW23464   1.671   0.444   2.451
 7522SOL    HW123465   1.580   0.453   2.413
 7522SOL    HW223466   1.734   0.505   2.403
 7523SOL     OW23467   6.651   6.308   5.994
 7523SOL    HW123468   6.663   6.380   5.925
 7523SOL    HW223469   6.696   6.224   5.962
 7524SOL     OW23470   6.213   1.118   4.573
 7524SOL    HW123471   6.228   1.212   4.542
 7524SOL    HW223472   6.140   1.116   4.641
 7525SOL     OW23473   1.077   6.956   0.775
 7525SOL    HW123474   0.992   7.002   0.798
 7525SOL    HW223475   1.079   6.936   0.677
 7526SOL     OW23476   3.209   3.601   4.878
 7526SOL    HW123477   3.228   3.632   4.971
 7526SOL    HW223478   3.294   3.599   4.825
 7527SOL     OW23479   4.001   5.876   2.016
 7527SOL    HW123480   3.943   5.936   1.960
 7527SOL    HW223481   4.069   5.831   1.957
 7528SOL     OW23482   5.911   3.175   6.749
 7528SOL    HW123483   5.864   3.089   6.733
 7528SOL    HW223484   5.868   3.223   6.825
 7529SOL     OW23485   2.331   0.097   4.602
 7529SOL    HW123486   2.427   0.098   4.574
 7529SOL    HW223487   2.273   0.099   4.520
 7530SOL     OW23488   6.864   3.295   3.185
 7530SOL    HW123489   6.794   3.227   3.205
 7530SOL    HW223490   6.829   3.362   3.121
 7531SOL     OW23491   2.495   1.585   4.499
 7531SOL    HW123492   2.486   1.636   4.413
 7531SOL    HW223493   2.438   1.627   4.569
 7532SOL     OW23494   4.971   4.911   2.101
 7532SOL    HW123495   4.917   4.867   2.173
 7532SOL    HW223496   5.052   4.952   2.141
 7533SOL     OW23497   3.340   0.877   4.793
 7533SOL    HW123498   3.412   0.810   4.774
 7533SOL    HW223499   3.266   0.832   4.843
 7534SOL     OW23500   5.192   6.632   4.010
 7534SOL    HW123501   5.145   6.701   4.066
 7534SOL    HW223502   5.290   6.639   4.025
 7535SOL     OW23503   2.703   5.057   0.695
 7535SOL    HW123504   2.737   4.988   0.630
 7535SOL    HW223505   2.620   5.023   0.738
 7536SOL     OW23506   3.975   5.425   5.735
 7536SOL    HW123507   3.893   5.387   5.778
 7536SOL    HW223508   3.983   5.391   5.641
 7537SOL     OW23509   1.677   4.648   5.332
 7537SOL    HW123510   1.699   4.601   5.417
 7537SOL    HW223511   1.756   4.646   5.271
 7538SOL     OW23512   3.050   3.946   4.360
 7538SOL    HW123513   2.989   3.940   4.439
 7538SOL    HW223514   3.024   3.878   4.292
 7539SOL     OW23515   0.842   1.981   4.495
 7539SOL    HW123516   0.929   2.003   4.452
 7539SOL    HW223517   0.859   1.931   4.580
 7540SOL     OW23518   1.981   1.170   0.113
 7540SOL    HW123519   1.995   1.213   0.023
 7540SOL    HW223520   2.069   1.145   0.152
 7541SOL     OW23521   6.969   2.939   5.270
 7541SOL    HW123522   6.980   2.939   5.370
 7541SOL    HW223523   6.911   3.015   5.243
 7542SOL     OW23524   1.321   0.273   5.652
 7542SOL    HW123525   1.379   0.222   5.717
 7542SOL    HW223526   1.271   0.344   5.701
 7543SOL     OW23527   3.395   2.465   0.299
 7543SOL    HW123528   3.297   2.447   0.303
 7543SOL    HW223529   3.443   2.405   0.364
 7544SOL     OW23530   1.585   1.846   2.406
 7544SOL    HW123531   1.651   1.920   2.418
 7544SOL    HW223532   1.621   1.780   2.339
 7545SOL     OW23533   4.230   0.469   3.908
 7545SOL    HW123534   4.317   0.423   3.924
 7545SOL    HW223535   4.191   0.437   3.822
 7546SOL     OW23536   5.220   6.958   5.627
 7546SOL    HW123537   5.247   6.863   5.643
 7546SOL    HW223538   5.202   6.971   5.529
 7547SOL     OW23539   2.775   0.130   7.012
 7547SOL    HW123540   2.682   0.130   6.976
 7547SOL    HW223541   2.774   0.105   0.087
 7548SOL     OW23542   1.600   3.055   1.483
 7548SOL    HW123543   1.542   3.097   1.413
 7548SOL    HW223544   1.678   3.115   1.501
 7549SOL     OW23545   5.705   1.114   2.660
 7549SOL    HW123546   5.677   1.168   2.581
 7549SOL    HW223547   5.654   1.145   2.741
 7550SOL     OW23548   1.520   5.735   0.942
 7550SOL    HW123549   1.452   5.708   0.875
 7550SOL    HW223550   1.584   5.659   0.958
 7551SOL     OW23551   5.009   3.956   6.447
 7551SOL    HW123552   5.007   3.952   6.547
 7551SOL    HW223553   5.102   3.938   6.414
 7552SOL     OW23554   3.601   5.738   3.956
 7552SOL    HW123555   3.582   5.770   4.049
 7552SOL    HW223556   3.698   5.716   3.948
 7553SOL     OW23557   3.990   4.130   5.706
 7553SOL    HW123558   4.077   4.115   5.658
 7553SOL    HW223559   3.953   4.042   5.735
 7554SOL     OW23560   6.947   1.522   1.072
 7554SOL    HW123561   6.914   1.443   1.123
 7554SOL    HW223562   6.885   1.540   0.996
 7555SOL     OW23563   1.243   5.881   5.702
 7555SOL    HW123564   1.198   5.926   5.779
 7555SOL    HW223565   1.255   5.783   5.722
 7556SOL     OW23566   6.484   4.280   3.394
 7556SOL    HW123567   6.431   4.227   3.459
 7556SOL    HW223568   6.428   4.302   3.314
 7557SOL     OW23569   4.249   4.051   0.676
 7557SOL    HW123570   4.223   3.954   0.671
 7557SOL    HW223571   4.218   4.090   0.763
 7558SOL     OW23572   1.535   2.844   3.041
 7558SOL    HW123573   1.471   2.858   3.117
 7558SOL    HW223574   1.629   2.839   3.077
 7559SOL     OW23575   1.248   4.913   0.052
 7559SOL    HW123576   1.162   4.883   0.010
 7559SOL    HW223577   1.306   4.833   0.067
 7560SOL     OW23578   4.711   0.510   5.593
 7560SOL    HW123579   4.774   0.562   5.537
 7560SOL    HW223580   4.674   0.568   5.665
 7561SOL     OW23581   0.130   4.132   0.449
 7561SOL    HW123582   0.083   4.056   0.404
 7561SOL    HW223583   0.227   4.129   0.424
 7562SOL     OW23584   4.810   5.997   4.903
 7562SOL    HW123585   4.853   5.914   4.868
 7562SOL    HW223586   4.861   6.077   4.872
 7563SOL     OW23587   2.104   1.307   4.027
 7563SOL    HW123588   2.137   1.386   3.976
 7563SOL    HW223589   2.012   1.283   3.994
 7564SOL     OW23590   5.561   5.487   4.055
 7564SOL    HW123591   5.631   5.543   4.009
 7564SOL    HW223592   5.471   5.514   4.022
 7565SOL     OW23593   4.863   5.528   0.009
 7565SOL    HW123594   4.828   5.621   0.011
 7565SOL    HW223595   4.853   5.490   6.939
 7566SOL     OW23596   1.365   5.849   4.016
 7566SOL    HW123597   1.302   5.841   4.094
 7566SOL    HW223598   1.444   5.788   4.031
 7567SOL     OW23599   2.500   3.496   0.216
 7567SOL    HW123600   2.560   3.513   0.138
 7567SOL    HW223601   2.449   3.411   0.201
 7568SOL     OW23602   3.954   4.831   2.744
 7568SOL    HW123603   4.043   4.816   2.700
 7568SOL    HW223604   3.883   4.837   2.674
 7569SOL     OW23605   3.977   6.913   1.985
 7569SOL    HW123606   3.962   7.001   1.940
 7569SOL    HW223607   4.024   6.851   1.921
 7570SOL     OW23608   5.885   4.787   4.701
 7570SOL    HW123609   5.966   4.846   4.704
 7570SOL    HW223610   5.834   4.805   4.616
 7571SOL     OW23611   5.634   4.180   1.161
 7571SOL    HW123612   5.570   4.248   1.126
 7571SOL    HW223613   5.726   4.219   1.161
 7572SOL     OW23614   6.928   1.075   2.985
 7572SOL    HW123615   6.842   1.047   3.027
 7572SOL    HW223616   6.990   1.111   3.055
 7573SOL     OW23617   2.916   5.276   5.419
 7573SOL    HW123618   2.981   5.314   5.353
 7573SOL    HW223619   2.824   5.278   5.380
 7574SOL     OW23620   4.686   6.390   2.182
 7574SOL    HW123621   4.646   6.302   2.160
 7574SOL    HW223622   4.783   6.390   2.158
 7575SOL     OW23623   4.877   2.735   5.084
 7575SOL    HW123624   4.852   2.792   5.006
 7575SOL    HW223625   4.872   2.639   5.058
 7576SOL     OW23626   7.018   3.477   1.709
 7576SOL    HW123627   6.928   3.483   1.752
 7576SOL    HW223628   0.060   3.537   1.757
 7577SOL     OW23629   4.701   1.237   4.839
 7577SOL    HW123630   4.609   1.257   4.805
 7577SOL    HW223631   4.700   1.152   4.892
 7578SOL     OW23632   2.324   5.435   4.807
 7578SOL    HW123633   2.393   5.383   4.858
 7578SOL    HW223634   2.299   5.386   4.724
 7579SOL     OW23635   4.279   2.392   3.689
 7579SOL    HW123636   4.193   2.382   3.638
 7579SOL    HW223637   4.269   2.348   3.779
 7580SOL     OW23638   1.990   3.394   2.091
 7580SOL    HW123639   2.079   3.434   2.069
 7580SOL    HW223640   1.948   3.356   2.009
 7581SOL     OW23641   5.304   0.505   0.854
 7581SOL    HW123642   5.324   0.564   0.776
 7581SOL    HW223643   5.205   0.496   0.865
 7582SOL     OW23644   3.324   2.285   0.891
 7582SOL    HW123645   3.412   2.241   0.872
 7582SOL    HW223646   3.329   2.382   0.868
 7583SOL     OW23647   6.914   4.297   2.802
 7583SOL    HW123648   6.901   4.217   2.743
 7583SOL    HW223649   6.934   4.267   2.895
 7584SOL     OW23650   2.490   1.722   1.768
 7584SOL    HW123651   2.414   1.713   1.704
 7584SOL    HW223652   2.544   1.637   1.769
 7585SOL     OW23653   2.007   4.837   6.015
 7585SOL    HW123654   2.088   4.874   6.060
 7585SOL    HW223655   2.034   4.770   5.946
 7586SOL     OW23656   2.209   1.923   2.883
 7586SOL    HW123657   2.291   1.883   2.922
 7586SOL    HW223658   2.167   1.859   2.819
 7587SOL     OW23659   2.515   1.123   5.794
 7587SOL    HW123660   2.473   1.162   5.876
 7587SOL    HW223661   2.481   1.173   5.713
 7588SOL     OW23662   0.611   4.465   1.856
 7588SOL    HW123663   0.647   4.443   1.766
 7588SOL    HW223664   0.546   4.395   1.884
 7589SOL     OW23665   5.132   6.430   6.830
 7589SOL    HW123666   5.206   6.421   6.897
 7589SOL    HW223667   5.138   6.354   6.765
 7590SOL     OW23668   1.517   0.475   6.068
 7590SOL    HW123669   1.456   0.545   6.105
 7590SOL    HW223670   1.525   0.487   5.969
 7591SOL     OW23671   6.324   5.697   6.899
 7591SOL    HW123672   6.351   5.717   6.805
 7591SOL    HW223673   6.230   5.729   6.914
 7592SOL     OW23674   4.678   4.971   5.967
 7592SOL    HW123675   4.755   4.942   6.024
 7592SOL    HW223676   4.603   5.002   6.026
 7593SOL     OW23677   5.581   4.382   0.799
 7593SOL    HW123678   5.537   4.294   0.780
 7593SOL    HW223679   5.513   4.454   0.799
 7594SOL     OW23680   1.002   0.059   3.785
 7594SOL    HW123681   1.099   0.050   3.762
 7594SOL    HW223682   0.985   0.018   3.874
 7595SOL     OW23683   5.942   2.688   6.711
 7595SOL    HW123684   5.985   2.623   6.774
 7595SOL    HW223685   5.971   2.781   6.733
 7596SOL     OW23686   4.582   5.125   1.914
 7596SOL    HW123687   4.505   5.117   1.978
 7596SOL    HW223688   4.623   5.035   1.901
 7597SOL     OW23689   2.254   6.261   1.613
 7597SOL    HW123690   2.285   6.324   1.542
 7597SOL    HW223691   2.167   6.221   1.586
 7598SOL     OW23692   6.433   0.693   2.083
 7598SOL    HW123693   6.342   0.695   2.123
 7598SOL    HW223694   6.498   0.735   2.147
 7599SOL     OW23695   6.023   2.728   2.169
 7599SOL    HW123696   6.027   2.739   2.269
 7599SOL    HW223697   6.114   2.702   2.136
 7600SOL     OW23698   2.517   2.248   2.976
 7600SOL    HW123699   2.423   2.253   2.943
 7600SOL    HW223700   2.577   2.299   2.914
 7601SOL     OW23701   2.227   0.405   5.184
 7601SOL    HW123702   2.294   0.383   5.255
 7601SOL    HW223703   2.235   0.502   5.159
 7602SOL     OW23704   2.356   3.523   5.423
 7602SOL    HW123705   2.442   3.474   5.409
 7602SOL    HW223706   2.370   3.620   5.402
 7603SOL     OW23707   6.802   0.881   2.015
 7603SOL    HW123708   6.744   0.920   2.086
 7603SOL    HW223709   6.746   0.850   1.939
 7604SOL     OW23710   5.358   5.384   0.107
 7604SOL    HW123711   5.275   5.385   0.161
 7604SOL    HW223712   5.388   5.478   0.090
 7605SOL     OW23713   5.976   3.890   6.298
 7605SOL    HW123714   5.983   3.794   6.271
 7605SOL    HW223715   5.972   3.897   6.397
 7606SOL     OW23716   5.953   1.602   3.463
 7606SOL    HW123717   5.979   1.562   3.376
 7606SOL    HW223718   5.884   1.545   3.508
 7607SOL     OW23719   4.856   6.767   6.057
 7607SOL    HW123720   4.793   6.751   6.133
 7607SOL    HW223721   4.835   6.703   5.983
 7608SOL     OW23722   3.392   3.328   4.799
 7608SOL    HW123723   3.409   3.242   4.752
 7608SOL    HW223724   3.337   3.311   4.881
 7609SOL     OW23725   1.926   2.904   3.494
 7609SOL    HW123726   1.849   2.954   3.533
 7609SOL    HW223727   1.923   2.911   3.394
 7610SOL     OW23728   5.776   0.244   2.281
 7610SOL    HW123729   5.856   0.193   2.315
 7610SOL    HW223730   5.745   0.308   2.352
 7611SOL     OW23731   2.292   2.096   1.641
 7611SOL    HW123732   2.337   2.153   1.710
 7611SOL    HW223733   2.223   2.150   1.593
 7612SOL     OW23734   4.311   1.760   2.785
 7612SOL    HW123735   4.254   1.747   2.866
 7612SOL    HW223736   4.307   1.855   2.756
 7613SOL     OW23737   5.974   0.832   2.911
 7613SOL    HW123738   5.965   0.914   2.967
 7613SOL    HW223739   5.888   0.781   2.912
 7614SOL     OW23740   4.174   1.148   0.386
 7614SOL    HW123741   4.142   1.195   0.467
 7614SOL    HW223742   4.187   1.214   0.312
 7615SOL     OW23743   4.203   4.441   6.245
 7615SOL    HW123744   4.171   4.501   6.171
 7615SOL    HW223745   4.275   4.381   6.211
 7616SOL     OW23746   0.040   4.797   3.119
 7616SOL    HW123747   0.050   4.732   3.194
 7616SOL    HW223748   6.968   4.833   3.118
 7617SOL     OW23749   3.709   5.767   3.222
 7617SOL    HW123750   3.630   5.817   3.257
 7617SOL    HW223751   3.726   5.687   3.280
 7618SOL     OW23752   2.289   1.753   0.586
 7618SOL    HW123753   2.194   1.779   0.600
 7618SOL    HW223754   2.346   1.794   0.658
 7619SOL     OW23755   6.299   3.833   6.288
 7619SOL    HW123756   6.303   3.750   6.344
 7619SOL    HW223757   6.211   3.835   6.240
 7620SOL     OW23758   3.342   6.374   1.670
 7620SOL    HW123759   3.254   6.360   1.715
 7620SOL    HW223760   3.334   6.353   1.573
 7621SOL     OW23761   2.198   2.668   0.748
 7621SOL    HW123762   2.112   2.719   0.741
 7621SOL    HW223763   2.192   2.604   0.824
 7622SOL     OW23764   4.632   1.745   1.192
 7622SOL    HW123765   4.571   1.802   1.137
 7622SOL    HW223766   4.727   1.764   1.165
 7623SOL     OW23767   5.777   0.177   5.254
 7623SOL    HW123768   5.845   0.214   5.318
 7623SOL    HW223769   5.782   0.228   5.168
 7624SOL     OW23770   0.123   0.922   3.948
 7624SOL    HW123771   0.119   0.846   4.013
 7624SOL    HW223772   0.083   0.894   3.861
 7625SOL     OW23773   3.296   6.113   0.776
 7625SOL    HW123774   3.343   6.186   0.726
 7625SOL    HW223775   3.267   6.042   0.712
 7626SOL     OW23776   2.390   4.472   5.212
 7626SOL    HW123777   2.434   4.530   5.143
 7626SOL    HW223778   2.457   4.446   5.281
 7627SOL     OW23779   6.670   1.438   0.314
 7627SOL    HW123780   6.676   1.368   0.243
 7627SOL    HW223781   6.756   1.442   0.364
 7628SOL     OW23782   4.711   1.472   1.116
 7628SOL    HW123783   4.804   1.497   1.089
 7628SOL    HW223784   4.683   1.528   1.194
 7629SOL     OW23785   6.255   6.002   3.007
 7629SOL    HW123786   6.181   6.053   2.965
 7629SOL    HW223787   6.323   5.977   2.938
 7630SOL     OW23788   6.370   1.188   2.055
 7630SOL    HW123789   6.297   1.209   2.120
 7630SOL    HW223790   6.440   1.132   2.100
 7631SOL     OW23791   1.411   1.044   3.563
 7631SOL    HW123792   1.397   0.945   3.562
 7631SOL    HW223793   1.462   1.069   3.646
 7632SOL     OW23794   4.288   0.808   5.247
 7632SOL    HW123795   4.257   0.719   5.278
 7632SOL    HW223796   4.214   0.875   5.259
 7633SOL     OW23797   5.456   3.981   6.652
 7633SOL    HW123798   5.424   3.920   6.724
 7633SOL    HW223799   5.507   3.930   6.584
 7634SOL     OW23800   1.064   2.416   2.284
 7634SOL    HW123801   0.968   2.392   2.276
 7634SOL    HW223802   1.077   2.475   2.363
 7635SOL     OW23803   2.378   4.778   5.809
 7635SOL    HW123804   2.306   4.843   5.789
 7635SOL    HW223805   2.466   4.816   5.779
 7636SOL     OW23806   2.167   0.165   3.287
 7636SOL    HW123807   2.140   0.083   3.336
 7636SOL    HW223808   2.267   0.176   3.292
 7637SOL     OW23809   2.721   6.277   3.650
 7637SOL    HW123810   2.780   6.355   3.627
 7637SOL    HW223811   2.702   6.278   3.748
 7638SOL     OW23812   4.310   4.458   1.788
 7638SOL    HW123813   4.313   4.360   1.805
 7638SOL    HW223814   4.246   4.477   1.713
 7639SOL     OW23815   6.942   1.879   4.327
 7639SOL    HW123816   6.929   1.781   4.314
 7639SOL    HW223817   0.005   1.895   4.378
 7640SOL     OW23818   2.504   3.401   5.857
 7640SOL    HW123819   2.600   3.375   5.866
 7640SOL    HW223820   2.491   3.494   5.890
 7641SOL     OW23821   6.066   3.049   3.252
 7641SOL    HW123822   6.106   3.119   3.192
 7641SOL    HW223823   6.100   2.959   3.225
 7642SOL     OW23824   1.876   1.424   2.750
 7642SOL    HW123825   1.838   1.513   2.726
 7642SOL    HW223826   1.928   1.388   2.673
 7643SOL     OW23827   5.492   3.064   3.650
 7643SOL    HW123828   5.579   3.091   3.692
 7643SOL    HW223829   5.451   2.990   3.703
 7644SOL     OW23830   6.182   3.621   3.802
 7644SOL    HW123831   6.182   3.528   3.837
 7644SOL    HW223832   6.234   3.680   3.864
 7645SOL     OW23833   3.309   3.050   0.232
 7645SOL    HW123834   3.303   3.061   0.132
 7645SOL    HW223835   3.400   3.019   0.257
 7646SOL     OW23836   1.261   0.909   1.983
 7646SOL    HW123837   1.215   0.846   2.046
 7646SOL    HW223838   1.312   0.856   1.914
 7647SOL     OW23839   2.131   5.022   0.475
 7647SOL    HW123840   2.074   5.084   0.421
 7647SOL    HW223841   2.224   5.022   0.438
 7648SOL     OW23842   3.610   1.114   3.886
 7648SOL    HW123843   3.572   1.107   3.979
 7648SOL    HW223844   3.544   1.076   3.821
 7649SOL     OW23845   3.237   1.517   1.668
 7649SOL    HW123846   3.180   1.458   1.610
 7649SOL    HW223847   3.284   1.585   1.610
 7650SOL     OW23848   6.061   4.382   0.576
 7650SOL    HW123849   5.971   4.364   0.615
 7650SOL    HW223850   6.131   4.353   0.641
 7651SOL     OW23851   5.155   2.325   6.194
 7651SOL    HW123852   5.217   2.390   6.238
 7651SOL    HW223853   5.111   2.269   6.264
 7652SOL     OW23854   0.939   3.306   3.237
 7652SOL    HW123855   0.858   3.306   3.297
 7652SOL    HW223856   0.915   3.347   3.149
 7653SOL     OW23857   4.435   2.448   2.199
 7653SOL    HW123858   4.488   2.511   2.143
 7653SOL    HW223859   4.473   2.445   2.291
 7654SOL     OW23860   5.234   3.837   3.756
 7654SOL    HW123861   5.295   3.886   3.694
 7654SOL    HW223862   5.221   3.743   3.722
 7655SOL     OW23863   5.146   5.103   5.560
 7655SOL    HW123864   5.202   5.186   5.568
 7655SOL    HW223865   5.077   5.102   5.633
 7656SOL     OW23866   0.895   0.185   4.498
 7656SOL    HW123867   0.864   0.143   4.413
 7656SOL    HW223868   0.838   0.152   4.574
 7657SOL     OW23869   4.287   1.569   4.085
 7657SOL    HW123870   4.302   1.487   4.030
 7657SOL    HW223871   4.217   1.551   4.154
 7658SOL     OW23872   4.162   0.183   6.085
 7658SOL    HW123873   4.066   0.180   6.057
 7658SOL    HW223874   4.176   0.117   6.159
 7659SOL     OW23875   5.020   6.062   0.179
 7659SOL    HW123876   4.962   5.981   0.183
 7659SOL    HW223877   5.007   6.109   0.092
 7660SOL     OW23878   5.695   4.781   4.220
 7660SOL    HW123879   5.783   4.735   4.213
 7660SOL    HW223880   5.698   4.867   4.169
 7661SOL     OW23881   5.944   3.383   4.425
 7661SOL    HW123882   5.999   3.456   4.386
 7661SOL    HW223883   5.894   3.337   4.352
 7662SOL     OW23884   6.378   5.538   2.946
 7662SOL    HW123885   6.426   5.585   2.872
 7662SOL    HW223886   6.303   5.484   2.907
 7663SOL     OW23887   7.003   5.977   0.193
 7663SOL    HW123888   0.029   5.946   0.111
 7663SOL    HW223889   7.001   5.903   0.260
 7664SOL     OW23890   2.625   5.607   5.194
 7664SOL    HW123891   2.556   5.650   5.252
 7664SOL    HW223892   2.714   5.647   5.212
 7665SOL     OW23893   2.726   5.407   4.273
 7665SOL    HW123894   2.634   5.427   4.238
 7665SOL    HW223895   2.738   5.308   4.280
 7666SOL     OW23896   2.590   0.677   1.943
 7666SOL    HW123897   2.578   0.581   1.968
 7666SOL    HW223898   2.654   0.720   2.007
 7667SOL     OW23899   5.432   6.068   5.613
 7667SOL    HW123900   5.431   6.153   5.561
 7667SOL    HW223901   5.519   6.021   5.600
 7668SOL     OW23902   2.921   4.046   1.683
 7668SOL    HW123903   2.862   4.065   1.605
 7668SOL    HW223904   2.955   4.133   1.721
 7669SOL     OW23905   4.575   6.093   4.931
 7669SOL    HW123906   4.518   6.036   4.989
 7669SOL    HW223907   4.665   6.051   4.920
 7670SOL     OW23908   1.259   5.935   0.791
 7670SOL    HW123909   1.305   5.846   0.793
 7670SOL    HW223910   1.174   5.927   0.739
 7671SOL     OW23911   5.439   2.027   4.884
 7671SOL    HW123912   5.447   2.118   4.844
 7671SOL    HW223913   5.449   1.958   4.812
 7672SOL     OW23914   6.159   0.777   1.859
 7672SOL    HW123915   6.162   0.782   1.759
 7672SOL    HW223916   6.212   0.698   1.890
 7673SOL     OW23917   0.115   3.882   6.978
 7673SOL    HW123918   0.203   3.835   6.968
 7673SOL    HW223919   0.130   3.981   6.980
 7674SOL     OW23920   6.197   0.371   5.499
 7674SOL    HW123921   6.255   0.446   5.468
 7674SOL    HW223922   6.251   0.307   5.554
 7675SOL     OW23923   5.096   7.004   3.275
 7675SOL    HW123924   5.039   7.015   3.194
 7675SOL    HW223925   5.130   6.910   3.279
 7676SOL     OW23926   1.573   0.685   1.579
 7676SOL    HW123927   1.503   0.648   1.519
 7676SOL    HW223928   1.627   0.611   1.618
 7677SOL     OW23929   1.797   2.058   3.015
 7677SOL    HW123930   1.762   2.146   3.046
 7677SOL    HW223931   1.733   2.017   2.950
 7678SOL     OW23932   5.706   6.776   5.885
 7678SOL    HW123933   5.796   6.815   5.866
 7678SOL    HW223934   5.637   6.849   5.883
 7679SOL     OW23935   1.281   5.201   4.391
 7679SOL    HW123936   1.378   5.221   4.403
 7679SOL    HW223937   1.231   5.287   4.375
 7680SOL     OW23938   5.504   1.003   6.689
 7680SOL    HW123939   5.464   1.094   6.692
 7680SOL    HW223940   5.501   0.969   6.595
 7681SOL     OW23941   2.890   2.211   6.230
 7681SOL    HW123942   2.914   2.190   6.135
 7681SOL    HW223943   2.941   2.150   6.291
 7682SOL     OW23944   2.903   6.964   1.004
 7682SOL    HW123945   2.947   6.946   1.092
 7682SOL    HW223946   2.805   6.977   1.018
 7683SOL     OW23947   6.723   2.233   3.438
 7683SOL    HW123948   6.754   2.144   3.472
 7683SOL    HW223949   6.771   2.305   3.487
 7684SOL     OW23950   4.195   2.387   5.935
 7684SOL    HW123951   4.168   2.399   6.031
 7684SOL    HW223952   4.122   2.339   5.886
 7685SOL     OW23953   4.051   3.993   1.307
 7685SOL    HW123954   4.005   3.915   1.350
 7685SOL    HW223955   4.147   3.993   1.335
 7686SOL     OW23956   3.094   0.817   3.449
 7686SOL    HW123957   3.073   0.765   3.366
 7686SOL    HW223958   3.018   0.807   3.514
 7687SOL     OW23959   4.791   4.918   6.325
 7687SOL    HW123960   4.843   4.969   6.394
 7687SOL    HW223961   4.719   4.977   6.286
 7688SOL     OW23962   6.649   0.552   3.065
 7688SOL    HW123963   6.666   0.542   3.163
 7688SOL    HW223964   6.691   0.477   3.015
 7689SOL     OW23965   3.518   6.068   4.870
 7689SOL    HW123966   3.504   6.165   4.848
 7689SOL    HW223967   3.474   6.047   4.958
 7690SOL     OW23968   0.838   5.339   2.011
 7690SOL    HW123969   0.863   5.399   2.088
 7690SOL    HW223970   0.913   5.276   1.992
 7691SOL     OW23971   6.005   3.973   5.833
 7691SOL    HW123972   5.974   4.062   5.800
 7691SOL    HW223973   6.094   3.983   5.878
 7692SOL     OW23974   1.355   6.473   1.222
 7692SOL    HW123975   1.429   6.424   1.268
 7692SOL    HW223976   1.267   6.429   1.241
 7693SOL     OW23977   5.475   1.485   0.501
 7693SOL    HW123978   5.547   1.458   0.564
 7693SOL    HW223979   5.516   1.505   0.411
 7694SOL     OW23980   5.919   5.151   3.822
 7694SOL    HW123981   5.859   5.219   3.780
 7694SOL    HW223982   6.015   5.176   3.806
 7695SOL     OW23983   4.807   0.315   6.419
 7695SOL    HW123984   4.731   0.252   6.399
 7695SOL    HW223985   4.838   0.300   6.513
 7696SOL     OW23986   1.412   4.228   5.617
 7696SOL    HW123987   1.451   4.200   5.704
 7696SOL    HW223988   1.484   4.230   5.547
 7697SOL     OW23989   4.435   1.259   2.682
 7697SOL    HW123990   4.338   1.278   2.668
 7697SOL    HW223991   4.467   1.312   2.761
 7698SOL     OW23992   7.000   2.915   5.552
 7698SOL    HW123993   6.973   2.820   5.566
 7698SOL    HW223994   6.929   2.975   5.589
 7699SOL     OW23995   2.936   3.885   0.317
 7699SOL    HW123996   2.957   3.834   0.233
 7699SOL    HW223997   2.904   3.821   0.387
 7700SOL     OW23998   5.449   6.934   4.320
 7700SOL    HW123999   5.460   6.836   4.300
 7700SOL    HW224000   5.359   6.964   4.290
 7701SOL     OW24001   6.706   2.271   5.181
 7701SOL    HW124002   6.712   2.234   5.088
 7701SOL    HW224003   6.768   2.349   5.190
 7702SOL     OW24004   1.975   6.709   6.090
 7702SOL    HW124005   1.892   6.763   6.103
 7702SOL    HW224006   1.984   6.683   5.994
 7703SOL     OW24007   1.099   2.520   5.352
 7703SOL    HW124008   1.083   2.423   5.330
 7703SOL    HW224009   1.197   2.537   5.355
 7704SOL     OW24010   2.822   4.508   1.226
 7704SOL    HW124011   2.821   4.598   1.183
 7704SOL    HW224012   2.916   4.476   1.236
 7705SOL     OW24013   3.479   4.165   4.790
 7705SOL    HW124014   3.482   4.206   4.699
 7705SOL    HW224015   3.393   4.117   4.802
 7706SOL     OW24016   6.610   0.733   5.726
 7706SOL    HW124017   6.564   0.822   5.727
 7706SOL    HW224018   6.598   0.688   5.814
 7707SOL     OW24019   0.142   5.824   0.037
 7707SOL    HW124020   0.202   5.825   6.979
 7707SOL    HW224021   0.095   5.736   0.043
 7708SOL     OW24022   5.302   1.259   4.779
 7708SOL    HW124023   5.373   1.319   4.741
 7708SOL    HW224024   5.234   1.240   4.708
 7709SOL     OW24025   3.894   2.299   1.724
 7709SOL    HW124026   3.796   2.293   1.744
 7709SOL    HW224027   3.908   2.292   1.625
 7710SOL     OW24028   2.848   2.040   6.638
 7710SOL    HW124029   2.829   2.134   6.667
 7710SOL    HW224030   2.844   1.979   6.717
 7711SOL     OW24031   4.940   5.781   4.767
 7711SOL    HW124032   4.940   5.809   4.671
 7711SOL    HW224033   5.034   5.783   4.802
 7712SOL     OW24034   5.057   4.825   7.004
 7712SOL    HW124035   5.118   4.881   0.039
 7712SOL    HW224036   5.088   4.829   6.909
 7713SOL     OW24037   0.467   5.485   6.474
 7713SOL    HW124038   0.381   5.476   6.424
 7713SOL    HW224039   0.513   5.396   6.476
 7714SOL     OW24040   5.340   3.584   4.341
 7714SOL    HW124041   5.407   3.659   4.347
 7714SOL    HW224042   5.280   3.599   4.263
 7715SOL     OW24043   3.916   2.138   1.969
 7715SOL    HW124044   3.925   2.202   1.893
 7715SOL    HW224045   3.827   2.151   2.014
 7716SOL     OW24046   4.514   2.456   4.115
 7716SOL    HW124047   4.570   2.373   4.117
 7716SOL    HW224048   4.462   2.463   4.200
 7717SOL     OW24049   3.227   0.343   6.660
 7717SOL    HW124050   3.130   0.350   6.637
 7717SOL    HW224051   3.245   0.254   6.701
 7718SOL     OW24052   2.953   6.382   4.328
 7718SOL    HW124053   2.910   6.401   4.240
 7718SOL    HW224054   2.884   6.356   4.394
 7719SOL     OW24055   6.031   2.911   5.311
 7719SOL    HW124056   6.007   2.822   5.349
 7719SOL    HW224057   6.032   2.980   5.383
 7720SOL     OW24058   6.206   6.325   1.861
 7720SOL    HW124059   6.197   6.397   1.930
 7720SOL    HW224060   6.133   6.335   1.793
 7721SOL     OW24061   0.844   5.032   2.858
 7721SOL    HW124062   0.839   4.943   2.814
 7721SOL    HW224063   0.939   5.056   2.876
 7722SOL     OW24064   0.577   6.148   4.360
 7722SOL    HW124065   0.577   6.246   4.342
 7722SOL    HW224066   0.592   6.132   4.457
 7723SOL     OW24067   7.004   2.098   0.407
 7723SOL    HW124068   6.980   2.049   0.491
 7723SOL    HW224069   6.922   2.140   0.369
 7724SOL     OW24070   1.957   6.340   0.073
 7724SOL    HW124071   2.012   6.421   0.089
 7724SOL    HW224072   1.860   6.361   0.088
 7725SOL     OW24073   4.930   3.215   4.246
 7725SOL    HW124074   5.002   3.155   4.211
 7725SOL    HW224075   4.840   3.178   4.222
 7726SOL     OW24076   5.471   4.219   3.189
 7726SOL    HW124077   5.534   4.280   3.237
 7726SOL    HW224078   5.378   4.234   3.222
 7727SOL     OW24079   5.710   3.067   2.140
 7727SOL    HW124080   5.644   3.128   2.096
 7727SOL    HW224081   5.670   2.976   2.150
 7728SOL     OW24082   2.354   2.610   2.395
 7728SOL    HW124083   2.325   2.679   2.461
 7728SOL    HW224084   2.351   2.648   2.302
 7729SOL     OW24085   4.852   2.228   7.011
 7729SOL    HW124086   4.942   2.186   0.000
 7729SOL    HW224087   4.852   2.319   0.031
 7730SOL     OW24088   4.431   0.137   1.866
 7730SOL    HW124089   4.524   0.107   1.851
 7730SOL    HW224090   4.402   0.114   1.959
 7731SOL     OW24091   0.193   1.551   4.399
 7731SOL    HW124092   0.182   1.648   4.423
 7731SOL    HW224093   0.276   1.516   4.442
 7732SOL     OW24094   4.247   5.238   0.607
 7732SOL    HW124095   4.215   5.144   0.600
 7732SOL    HW224096   4.297   5.262   0.524
 7733SOL     OW24097   2.397   6.418   0.618
 7733SOL    HW124098   2.467   6.407   0.688
 7733SOL    HW224099   2.439   6.453   0.534
 7734SOL     OW24100   1.543   2.945   2.210
 7734SOL    HW124101   1.575   2.894   2.291
 7734SOL    HW224102   1.525   3.040   2.236
 7735SOL     OW24103   4.983   4.170   1.055
 7735SOL    HW124104   4.907   4.107   1.067
 7735SOL    HW224105   4.982   4.238   1.128
 7736SOL     OW24106   5.793   4.378   6.239
 7736SOL    HW124107   5.752   4.327   6.314
 7736SOL    HW224108   5.846   4.316   6.181
 7737SOL     OW24109   4.598   2.687   0.343
 7737SOL    HW124110   4.635   2.698   0.251
 7737SOL    HW224111   4.510   2.734   0.350
 7738SOL     OW24112   2.210   5.019   0.092
 7738SOL    HW124113   2.138   5.086   0.072
 7738SOL    HW224114   2.174   4.927   0.077
 7739SOL     OW24115   5.495   3.416   2.898
 7739SOL    HW124116   5.570   3.476   2.871
 7739SOL    HW224117   5.423   3.471   2.941
 7740SOL     OW24118   0.632   6.258   3.717
 7740SOL    HW124119   0.688   6.341   3.723
 7740SOL    HW224120   0.535   6.283   3.715
 7741SOL     OW24121   2.940   5.704   4.542
 7741SOL    HW124122   2.897   5.656   4.618
 7741SOL    HW224123   2.889   5.685   4.458
 7742SOL     OW24124   6.703   1.010   4.071
 7742SOL    HW124125   6.669   0.918   4.051
 7742SOL    HW224126   6.663   1.076   4.008
 7743SOL     OW24127   4.907   3.112   2.115
 7743SOL    HW124128   4.823   3.066   2.087
 7743SOL    HW224129   4.980   3.044   2.124
 7744SOL     OW24130   0.292   6.164   4.929
 7744SOL    HW124131   0.338   6.190   4.844
 7744SOL    HW224132   0.317   6.228   5.001
 7745SOL     OW24133   4.777   3.334   5.196
 7745SOL    HW124134   4.718   3.408   5.162
 7745SOL    HW224135   4.866   3.338   5.151
 7746SOL     OW24136   1.719   0.471   6.263
 7746SOL    HW124137   1.793   0.415   6.226
 7746SOL    HW224138   1.648   0.482   6.195
 7747SOL     OW24139   5.034   5.062   0.790
 7747SOL    HW124140   5.074   5.148   0.820
 7747SOL    HW224141   4.949   5.044   0.841
 7748SOL     OW24142   2.259   4.254   6.540
 7748SOL    HW124143   2.255   4.174   6.600
 7748SOL    HW224144   2.168   4.274   6.505
 7749SOL     OW24145   5.527   3.892   6.280
 7749SOL    HW124146   5.549   3.804   6.239
 7749SOL    HW224147   5.545   3.965   6.214
 7750SOL     OW24148   4.758   5.514   2.661
 7750SOL    HW124149   4.857   5.518   2.648
 7750SOL    HW224150   4.713   5.563   2.586
 7751SOL     OW24151   0.620   2.613   1.184
 7751SOL    HW124152   0.647   2.519   1.163
 7751SOL    HW224153   0.570   2.652   1.107
 7752SOL     OW24154   3.890   1.487   3.540
 7752SOL    HW124155   3.854   1.534   3.459
 7752SOL    HW224156   3.956   1.417   3.511
 7753SOL     OW24157   4.035   1.520   5.437
 7753SOL    HW124158   3.992   1.608   5.457
 7753SOL    HW224159   4.128   1.536   5.402
 7754SOL     OW24160   5.149   5.259   1.684
 7754SOL    HW124161   5.130   5.173   1.635
 7754SOL    HW224162   5.071   5.283   1.742
 7755SOL     OW24163   0.101   4.882   5.260
 7755SOL    HW124164   0.020   4.886   5.318
 7755SOL    HW224165   0.183   4.876   5.318
 7756SOL     OW24166   2.192   4.353   2.307
 7756SOL    HW124167   2.164   4.364   2.402
 7756SOL    HW224168   2.277   4.404   2.292
 7757SOL     OW24169   6.922   3.997   0.779
 7757SOL    HW124170   6.863   4.058   0.833
 7757SOL    HW224171   6.865   3.943   0.716
 7758SOL     OW24172   0.417   1.670   5.664
 7758SOL    HW124173   0.500   1.721   5.688
 7758SOL    HW224174   0.441   1.580   5.629
 7759SOL     OW24175   3.778   1.483   2.126
 7759SOL    HW124176   3.753   1.426   2.048
 7759SOL    HW224177   3.704   1.482   2.193
 7760SOL     OW24178   5.033   2.919   6.945
 7760SOL    HW124179   5.050   2.940   6.849
 7760SOL    HW224180   5.067   2.828   6.966
 7761SOL     OW24181   5.163   5.323   3.464
 7761SOL    HW124182   5.242   5.288   3.414
 7761SOL    HW224183   5.163   5.423   3.460
 7762SOL     OW24184   5.184   1.857   2.049
 7762SOL    HW124185   5.142   1.947   2.051
 7762SOL    HW224186   5.140   1.801   1.979
 7763SOL     OW24187   2.216   0.302   3.048
 7763SOL    HW124188   2.204   0.266   3.141
 7763SOL    HW224189   2.128   0.332   3.012
 7764SOL     OW24190   3.654   5.056   5.486
 7764SOL    HW124191   3.565   5.041   5.530
 7764SOL    HW224192   3.647   5.134   5.424
 7765SOL     OW24193   5.306   4.133   4.408
 7765SOL    HW124194   5.290   4.056   4.470
 7765SOL    HW224195   5.233   4.138   4.340
 7766SOL     OW24196   6.458   2.571   6.302
 7766SOL    HW124197   6.405   2.503   6.354
 7766SOL    HW224198   6.442   2.558   6.204
 7767SOL     OW24199   4.646   0.380   4.320
 7767SOL    HW124200   4.595   0.379   4.405
 7767SOL    HW224201   4.696   0.466   4.312
 7768SOL     OW24202   3.440   6.087   4.612
 7768SOL    HW124203   3.415   5.995   4.582
 7768SOL    HW224204   3.482   6.083   4.702
 7769SOL     OW24205   3.587   2.675   6.888
 7769SOL    HW124206   3.565   2.638   6.978
 7769SOL    HW224207   3.513   2.655   6.824
 7770SOL     OW24208   1.429   3.594   3.836
 7770SOL    HW124209   1.502   3.535   3.872
 7770SOL    HW224210   1.465   3.686   3.820
 7771SOL     OW24211   1.197   3.625   5.301
 7771SOL    HW124212   1.189   3.669   5.212
 7771SOL    HW224213   1.293   3.607   5.321
 7772SOL     OW24214   5.257   5.984   2.191
 7772SOL    HW124215   5.169   6.017   2.155
 7772SOL    HW224216   5.239   5.917   2.263
 7773SOL     OW24217   2.946   0.257   6.565
 7773SOL    HW124218   2.999   0.253   6.481
 7773SOL    HW224219   2.881   0.332   6.560
 7774SOL     OW24220   5.243   1.057   2.579
 7774SOL    HW124221   5.273   1.015   2.494
 7774SOL    HW224222   5.186   1.137   2.559
 7775SOL     OW24223   3.719   1.681   1.262
 7775SOL    HW124224   3.797   1.736   1.231
 7775SOL    HW224225   3.736   1.650   1.356
 7776SOL     OW24226   3.520   1.097   4.133
 7776SOL    HW124227   3.521   1.189   4.171
 7776SOL    HW224228   3.477   1.035   4.199
 7777SOL     OW24229   5.830   5.193   3.082
 7777SOL    HW124230   5.733   5.198   3.059
 7777SOL    HW224231   5.877   5.275   3.048
 7778SOL     OW24232   0.983   4.468   2.313
 7778SOL    HW124233   1.022   4.406   2.245
 7778SOL    HW224234   0.928   4.415   2.378
 7779SOL     OW24235   3.594   6.450   2.537
 7779SOL    HW124236   3.501   6.463   2.571
 7779SOL    HW224237   3.591   6.390   2.456
 7780SOL     OW24238   6.699   5.744   4.256
 7780SOL    HW124239   6.734   5.714   4.168
 7780SOL    HW224240   6.740   5.831   4.281
 7781SOL     OW24241   2.376   3.042   0.228
 7781SOL    HW124242   2.316   2.962   0.223
 7781SOL    HW224243   2.470   3.013   0.247
 7782SOL     OW24244   6.023   4.107   4.404
 7782SOL    HW124245   5.953   4.055   4.354
 7782SOL    HW224246   5.989   4.129   4.495
 7783SOL     OW24247   1.527   6.695   4.212
 7783SOL    HW124248   1.474   6.691   4.296
 7783SOL    HW224249   1.613   6.645   4.223
 7784SOL     OW24250   1.867   2.232   2.799
 7784SOL    HW124251   1.928   2.279   2.863
 7784SOL    HW224252   1.798   2.181   2.850
 7785SOL     OW24253   6.534   6.344   2.635
 7785SOL    HW124254   6.505   6.299   2.550
 7785SOL    HW224255   6.606   6.290   2.679
 7786SOL     OW24256   5.097   1.057   6.192
 7786SOL    HW124257   5.000   1.082   6.192
 7786SOL    HW224258   5.133   1.069   6.099
 7787SOL     OW24259   1.554   2.672   1.112
 7787SOL    HW124260   1.573   2.574   1.111
 7787SOL    HW224261   1.472   2.690   1.058
 7788SOL     OW24262   0.900   3.810   1.881
 7788SOL    HW124263   0.863   3.785   1.970
 7788SOL    HW224264   0.827   3.812   1.813
 7789SOL     OW24265   3.573   0.860   5.922
 7789SOL    HW124266   3.521   0.942   5.899
 7789SOL    HW224267   3.511   0.782   5.928
 7790SOL     OW24268   3.945   5.041   4.200
 7790SOL    HW124269   3.950   5.025   4.298
 7790SOL    HW224270   3.871   4.987   4.161
 7791SOL     OW24271   3.015   5.759   1.820
 7791SOL    HW124272   3.104   5.714   1.811
 7791SOL    HW224273   2.956   5.732   1.745
 7792SOL     OW24274   1.506   1.395   2.409
 7792SOL    HW124275   1.544   1.409   2.317
 7792SOL    HW224276   1.408   1.417   2.408
 7793SOL     OW24277   4.943   1.639   1.135
 7793SOL    HW124278   5.004   1.631   1.056
 7793SOL    HW224279   4.998   1.647   1.218
 7794SOL     OW24280   1.856   0.996   3.438
 7794SOL    HW124281   1.936   0.950   3.398
 7794SOL    HW224282   1.774   0.944   3.416
 7795SOL     OW24283   3.937   3.759   1.460
 7795SOL    HW124284   4.024   3.766   1.509
 7795SOL    HW224285   3.869   3.713   1.519
 7796SOL     OW24286   3.580   1.661   0.545
 7796SOL    HW124287   3.558   1.573   0.502
 7796SOL    HW224288   3.605   1.727   0.474
 7797SOL     OW24289   1.408   6.350   2.850
 7797SOL    HW124290   1.378   6.444   2.837
 7797SOL    HW224291   1.496   6.350   2.899
 7798SOL     OW24292   1.889   3.588   1.023
 7798SOL    HW124293   1.880   3.673   0.971
 7798SOL    HW224294   1.810   3.530   1.007
 7799SOL     OW24295   2.359   6.387   4.112
 7799SOL    HW124296   2.332   6.320   4.043
 7799SOL    HW224297   2.323   6.360   4.201
 7800SOL     OW24298   1.800   1.216   2.336
 7800SOL    HW124299   1.715   1.204   2.387
 7800SOL    HW224300   1.874   1.170   2.384
 7801SOL     OW24301   1.543   1.767   0.765
 7801SOL    HW124302   1.623   1.708   0.756
 7801SOL    HW224303   1.461   1.715   0.742
 7802SOL     OW24304   6.288   4.722   3.884
 7802SOL    HW124305   6.270   4.820   3.895
 7802SOL    HW224306   6.235   4.686   3.808
 7803SOL     OW24307   2.989   2.553   6.213
 7803SOL    HW124308   3.028   2.478   6.266
 7803SOL    HW224309   2.889   2.546   6.213
 7804SOL     OW24310   2.606   2.005   5.220
 7804SOL    HW124311   2.541   1.932   5.244
 7804SOL    HW224312   2.681   1.967   5.166
 7805SOL     OW24313   5.357   2.972   6.600
 7805SOL    HW124314   5.332   2.891   6.547
 7805SOL    HW224315   5.280   2.999   6.658
 7806SOL     OW24316   6.333   2.123   5.475
 7806SOL    HW124317   6.430   2.100   5.472
 7806SOL    HW224318   6.306   2.163   5.388
 7807SOL     OW24319   1.792   5.594   5.668
 7807SOL    HW124320   1.802   5.670   5.603
 7807SOL    HW224321   1.804   5.628   5.761
 7808SOL     OW24322   0.178   3.434   3.927
 7808SOL    HW124323   0.165   3.462   3.832
 7808SOL    HW224324   0.275   3.433   3.949
 7809SOL     OW24325   4.602   6.988   2.473
 7809SOL    HW124326   4.519   0.017   2.499
 7809SOL    HW224327   4.664   0.028   2.425
 7810SOL     OW24328   1.773   6.964   5.604
 7810SOL    HW124329   1.819   7.008   5.682
 7810SOL    HW224330   1.733   0.013   5.546
 7811SOL     OW24331   0.878   6.060   3.202
 7811SOL    HW124332   0.944   6.134   3.192
 7811SOL    HW224333   0.838   6.063   3.294
 7812SOL     OW24334   2.799   1.437   5.863
 7812SOL    HW124335   2.774   1.363   5.801
 7812SOL    HW224336   2.790   1.406   5.958
 7813SOL     OW24337   5.751   1.341   0.834
 7813SOL    HW124338   5.677   1.304   0.890
 7813SOL    HW224339   5.835   1.290   0.852
 7814SOL     OW24340   6.047   2.544   1.787
 7814SOL    HW124341   6.061   2.450   1.818
 7814SOL    HW224342   6.079   2.607   1.858
 7815SOL     OW24343   4.698   5.095   3.690
 7815SOL    HW124344   4.636   5.173   3.692
 7815SOL    HW224345   4.703   5.057   3.598
 7816SOL     OW24346   1.251   1.257   5.279
 7816SOL    HW124347   1.276   1.169   5.240
 7816SOL    HW224348   1.333   1.306   5.307
 7817SOL     OW24349   4.192   1.628   6.499
 7817SOL    HW124350   4.133   1.698   6.540
 7817SOL    HW224351   4.212   1.653   6.404
 7818SOL     OW24352   6.033   1.052   3.046
 7818SOL    HW124353   6.021   1.090   3.137
 7818SOL    HW224354   6.128   1.024   3.033
 7819SOL     OW24355   1.703   2.830   4.734
 7819SOL    HW124356   1.754   2.837   4.820
 7819SOL    HW224357   1.607   2.808   4.754
 7820SOL     OW24358   1.461   1.122   5.736
 7820SOL    HW124359   1.552   1.160   5.756
 7820SOL    HW224360   1.461   1.083   5.644
 7821SOL     OW24361   3.971   5.702   6.625
 7821SOL    HW124362   3.871   5.703   6.618
 7821SOL    HW224363   3.999   5.627   6.685
 7822SOL     OW24364   0.647   1.405   4.816
 7822SOL    HW124365   0.578   1.466   4.777
 7822SOL    HW224366   0.665   1.430   4.911
 7823SOL     OW24367   2.715   2.866   6.181
 7823SOL    HW124368   2.726   2.806   6.102
 7823SOL    HW224369   2.787   2.847   6.248
 7824SOL     OW24370   5.867   4.486   2.747
 7824SOL    HW124371   5.914   4.443   2.670
 7824SOL    HW224372   5.775   4.513   2.719
 7825SOL     OW24373   3.767   3.161   3.209
 7825SOL    HW124374   3.720   3.151   3.296
 7825SOL    HW224375   3.861   3.128   3.217
 7826SOL     OW24376   6.502   0.065   0.874
 7826SOL    HW124377   6.482   0.074   0.972
 7826SOL    HW224378   6.419   0.038   0.825
 7827SOL     OW24379   4.325   3.712   0.412
 7827SOL    HW124380   4.396   3.643   0.427
 7827SOL    HW224381   4.348   3.767   0.332
 7828SOL     OW24382   1.398   6.728   1.069
 7828SOL    HW124383   1.363   6.669   1.142
 7828SOL    HW224384   1.328   6.794   1.043
 7829SOL     OW24385   3.731   3.570   2.488
 7829SOL    HW124386   3.800   3.639   2.509
 7829SOL    HW224387   3.776   3.483   2.465
 7830SOL     OW24388   6.641   4.086   0.588
 7830SOL    HW124389   6.650   3.987   0.576
 7830SOL    HW224390   6.731   4.129   0.578
 7831SOL     OW24391   1.972   2.422   0.548
 7831SOL    HW124392   1.968   2.332   0.592
 7831SOL    HW224393   2.067   2.454   0.548
 7832SOL     OW24394   3.743   2.925   6.189
 7832SOL    HW124395   3.766   2.838   6.144
 7832SOL    HW224396   3.783   3.001   6.138
 7833SOL     OW24397   6.754   6.589   1.959
 7833SOL    HW124398   6.752   6.490   1.944
 7833SOL    HW224399   6.671   6.630   1.921
 7834SOL     OW24400   5.666   1.254   1.128
 7834SOL    HW124401   5.613   1.243   1.212
 7834SOL    HW224402   5.739   1.186   1.126
 7835SOL     OW24403   2.033   2.172   4.332
 7835SOL    HW124404   1.956   2.229   4.305
 7835SOL    HW224405   2.088   2.149   4.252
 7836SOL     OW24406   2.006   0.504   6.896
 7836SOL    HW124407   2.037   0.596   6.872
 7836SOL    HW224408   1.947   0.509   6.977
 7837SOL     OW24409   5.643   5.646   2.146
 7837SOL    HW124410   5.659   5.702   2.227
 7837SOL    HW224411   5.631   5.704   2.066
 7838SOL     OW24412   3.870   6.299   4.005
 7838SOL    HW124413   3.947   6.252   3.963
 7838SOL    HW224414   3.787   6.245   3.990
 7839SOL     OW24415   6.759   4.235   3.332
 7839SOL    HW124416   6.662   4.250   3.350
 7839SOL    HW224417   6.813   4.280   3.403
 7840SOL     OW24418   4.638   3.349   5.880
 7840SOL    HW124419   4.701   3.352   5.801
 7840SOL    HW224420   4.563   3.412   5.865
 7841SOL     OW24421   1.115   2.212   6.360
 7841SOL    HW124422   1.206   2.252   6.348
 7841SOL    HW224423   1.055   2.242   6.286
 7842SOL     OW24424   2.524   0.439   2.640
 7842SOL    HW124425   2.545   0.516   2.579
 7842SOL    HW224426   2.467   0.373   2.591
 7843SOL     OW24427   0.146   2.454   2.366
 7843SOL    HW124428   0.085   2.448   2.445
 7843SOL    HW224429   0.097   2.427   2.284
 7844SOL     OW24430   4.084   2.227   3.553
 7844SOL    HW124431   4.164   2.166   3.550
 7844SOL    HW224432   4.012   2.184   3.607
 7845SOL     OW24433   0.453   1.252   4.395
 7845SOL    HW124434   0.362   1.274   4.432
 7845SOL    HW224435   0.520   1.255   4.469
 7846SOL     OW24436   4.675   0.158   2.242
 7846SOL    HW124437   4.734   0.237   2.261
 7846SOL    HW224438   4.662   0.149   2.143
 7847SOL     OW24439   0.380   0.158   6.936
 7847SOL    HW124440   0.355   0.075   6.985
 7847SOL    HW224441   0.455   0.138   6.873
 7848SOL     OW24442   3.586   3.990   1.650
 7848SOL    HW124443   3.588   3.911   1.710
 7848SOL    HW224444   3.524   4.059   1.688
 7849SOL     OW24445   5.080   4.393   4.785
 7849SOL    HW124446   5.049   4.459   4.854
 7849SOL    HW224447   5.174   4.413   4.760
 7850SOL     OW24448   1.057   2.600   4.833
 7850SOL    HW124449   1.119   2.629   4.761
 7850SOL    HW224450   0.964   2.629   4.812
 7851SOL     OW24451   3.785   6.595   1.145
 7851SOL    HW124452   3.712   6.659   1.168
 7851SOL    HW224453   3.753   6.533   1.072
 7852SOL     OW24454   2.663   6.824   0.021
 7852SOL    HW124455   2.682   6.726   0.023
 7852SOL    HW224456   2.629   6.853   0.110
 7853SOL     OW24457   2.225   2.377   0.263
 7853SOL    HW124458   2.202   2.321   0.183
 7853SOL    HW224459   2.148   2.437   0.284
 7854SOL     OW24460   3.768   3.879   3.831
 7854SOL    HW124461   3.738   3.807   3.769
 7854SOL    HW224462   3.744   3.968   3.793
 7855SOL     OW24463   3.136   0.117   4.772
 7855SOL    HW124464   3.151   0.042   4.708
 7855SOL    HW224465   3.209   0.184   4.763
 7856SOL     OW24466   2.733   3.804   6.690
 7856SOL    HW124467   2.696   3.752   6.767
 7856SOL    HW224468   2.789   3.879   6.725
 7857SOL     OW24469   0.526   2.600   5.332
 7857SOL    HW124470   0.508   2.661   5.254
 7857SOL    HW224471   0.560   2.654   5.409
 7858SOL     OW24472   5.554   3.171   2.838
 7858SOL    HW124473   5.517   3.258   2.870
 7858SOL    HW224474   5.645   3.185   2.800
 7859SOL     OW24475   0.567   6.641   0.776
 7859SOL    HW124476   0.498   6.687   0.719
 7859SOL    HW224477   0.523   6.602   0.857
 7860SOL     OW24478   4.527   6.315   1.210
 7860SOL    HW124479   4.513   6.277   1.118
 7860SOL    HW224480   4.480   6.403   1.217
 7861SOL     OW24481   5.669   3.947   0.635
 7861SOL    HW124482   5.761   3.962   0.670
 7861SOL    HW224483   5.673   3.898   0.548
 7862SOL     OW24484   3.115   4.588   1.713
 7862SOL    HW124485   3.035   4.561   1.766
 7862SOL    HW224486   3.181   4.633   1.772
 7863SOL     OW24487   4.189   5.908   2.747
 7863SOL    HW124488   4.188   5.809   2.735
 7863SOL    HW224489   4.276   5.945   2.714
 7864SOL     OW24490   1.076   5.566   5.190
 7864SOL    HW124491   1.172   5.574   5.166
 7864SOL    HW224492   1.020   5.615   5.122
 7865SOL     OW24493   4.511   0.522   3.091
 7865SOL    HW124494   4.601   0.521   3.047
 7865SOL    HW224495   4.511   0.457   3.167
 7866SOL     OW24496   2.745   2.639   5.724
 7866SOL    HW124497   2.654   2.679   5.709
 7866SOL    HW224498   2.771   2.586   5.643
 7867SOL     OW24499   5.929   3.330   1.436
 7867SOL    HW124500   5.832   3.318   1.456
 7867SOL    HW224501   5.975   3.374   1.513
 7868SOL     OW24502   4.866   0.336   0.428
 7868SOL    HW124503   4.807   0.256   0.412
 7868SOL    HW224504   4.950   0.326   0.376
 7869SOL     OW24505   6.099   1.817   4.350
 7869SOL    HW124506   6.053   1.834   4.263
 7869SOL    HW224507   6.165   1.890   4.368
 7870SOL     OW24508   6.961   0.174   2.814
 7870SOL    HW124509   7.009   0.260   2.827
 7870SOL    HW224510   7.005   0.121   2.741
 7871SOL     OW24511   5.598   3.082   4.636
 7871SOL    HW124512   5.652   3.164   4.649
 7871SOL    HW224513   5.597   3.056   4.540
 7872SOL     OW24514   0.240   4.392   4.042
 7872SOL    HW124515   0.202   4.301   4.022
 7872SOL    HW224516   0.269   4.395   4.138
 7873SOL     OW24517   6.690   5.495   4.583
 7873SOL    HW124518   6.756   5.437   4.534
 7873SOL    HW224519   6.739   5.558   4.643
 7874SOL     OW24520   5.923   0.575   0.406
 7874SOL    HW124521   5.901   0.661   0.359
 7874SOL    HW224522   5.965   0.512   0.341
 7875SOL     OW24523   4.586   3.228   0.347
 7875SOL    HW124524   4.565   3.147   0.293
 7875SOL    HW224525   4.570   3.208   0.444
 7876SOL     OW24526   0.233   1.594   4.900
 7876SOL    HW124527   0.231   1.501   4.936
 7876SOL    HW224528   0.276   1.655   4.967
 7877SOL     OW24529   5.904   3.503   2.632
 7877SOL    HW124530   5.847   3.424   2.611
 7877SOL    HW224531   5.933   3.547   2.547
 7878SOL     OW24532   3.610   3.872   1.264
 7878SOL    HW124533   3.521   3.837   1.237
 7878SOL    HW224534   3.679   3.802   1.251
 7879SOL     OW24535   6.670   1.022   4.660
 7879SOL    HW124536   6.654   1.120   4.664
 7879SOL    HW224537   6.718   1.000   4.575
 7880SOL     OW24538   1.647   6.357   6.164
 7880SOL    HW124539   1.731   6.321   6.206
 7880SOL    HW224540   1.574   6.289   6.172
 7881SOL     OW24541   0.872   5.623   4.303
 7881SOL    HW124542   0.808   5.585   4.370
 7881SOL    HW224543   0.829   5.622   4.212
 7882SOL     OW24544   1.791   4.828   1.688
 7882SOL    HW124545   1.770   4.899   1.755
 7882SOL    HW224546   1.708   4.805   1.636
 7883SOL     OW24547   3.373   1.696   2.488
 7883SOL    HW124548   3.321   1.612   2.477
 7883SOL    HW224549   3.348   1.761   2.416
 7884SOL     OW24550   0.993   3.172   4.377
 7884SOL    HW124551   0.975   3.246   4.441
 7884SOL    HW224552   0.930   3.096   4.394
 7885SOL     OW24553   6.313   5.384   2.595
 7885SOL    HW124554   6.298   5.482   2.579
 7885SOL    HW224555   6.392   5.354   2.542
 7886SOL     OW24556   4.164   4.803   2.587
 7886SOL    HW124557   4.201   4.895   2.574
 7886SOL    HW224558   4.210   4.740   2.525
 7887SOL     OW24559   0.747   3.228   0.769
 7887SOL    HW124560   0.746   3.315   0.817
 7887SOL    HW224561   0.831   3.178   0.790
 7888SOL     OW24562   6.730   1.329   4.926
 7888SOL    HW124563   6.726   1.344   4.827
 7888SOL    HW224564   6.789   1.398   4.968
 7889SOL     OW24565   5.650   5.355   0.718
 7889SOL    HW124566   5.717   5.324   0.650
 7889SOL    HW224567   5.668   5.451   0.741
 7890SOL     OW24568   2.284   2.907   3.228
 7890SOL    HW124569   2.276   2.942   3.135
 7890SOL    HW224570   2.353   2.960   3.277
 7891SOL     OW24571   6.497   1.235   4.296
 7891SOL    HW124572   6.560   1.161   4.271
 7891SOL    HW224573   6.472   1.286   4.214
 7892SOL     OW24574   1.213   1.484   4.835
 7892SOL    HW124575   1.228   1.576   4.800
 7892SOL    HW224576   1.294   1.454   4.887
 7893SOL     OW24577   5.936   6.296   0.790
 7893SOL    HW124578   5.864   6.292   0.859
 7893SOL    HW224579   6.020   6.258   0.827
 7894SOL     OW24580   3.371   1.021   6.209
 7894SOL    HW124581   3.293   1.006   6.148
 7894SOL    HW224582   3.340   1.029   6.303
 7895SOL     OW24583   6.300   6.495   2.676
 7895SOL    HW124584   6.237   6.430   2.633
 7895SOL    HW224585   6.394   6.467   2.657
 7896SOL     OW24586   2.406   1.641   0.369
 7896SOL    HW124587   2.337   1.595   0.312
 7896SOL    HW224588   2.360   1.695   0.440
 7897SOL     OW24589   4.447   1.295   0.839
 7897SOL    HW124590   4.462   1.197   0.855
 7897SOL    HW224591   4.534   1.344   0.850
 7898SOL     OW24592   5.032   6.658   3.124
 7898SOL    HW124593   5.005   6.705   3.208
 7898SOL    HW224594   5.051   6.562   3.144
 7899SOL     OW24595   5.899   4.207   3.182
 7899SOL    HW124596   5.820   4.262   3.208
 7899SOL    HW224597   5.920   4.222   3.085
 7900SOL     OW24598   0.399   3.453   0.519
 7900SOL    HW124599   0.485   3.403   0.528
 7900SOL    HW224600   0.329   3.393   0.480
 7901SOL     OW24601   0.534   2.195   0.313
 7901SOL    HW124602   0.557   2.254   0.390
 7901SOL    HW224603   0.504   2.106   0.347
 7902SOL     OW24604   1.637   6.689   1.326
 7902SOL    HW124605   1.552   6.733   1.295
 7902SOL    HW224606   1.684   6.747   1.392
 7903SOL     OW24607   3.092   1.753   5.594
 7903SOL    HW124608   3.136   1.799   5.671
 7903SOL    HW224609   3.109   1.655   5.599
 7904SOL     OW24610   4.797   2.903   2.434
 7904SOL    HW124611   4.783   2.889   2.532
 7904SOL    HW224612   4.843   2.991   2.420
 7905SOL     OW24613   6.294   2.174   1.246
 7905SOL    HW124614   6.327   2.095   1.299
 7905SOL    HW224615   6.370   2.212   1.192
 7906SOL     OW24616   0.830   5.515   6.604
 7906SOL    HW124617   0.880   5.481   6.683
 7906SOL    HW224618   0.849   5.613   6.592
 7907SOL     OW24619   6.054   6.636   3.235
 7907SOL    HW124620   6.089   6.722   3.274
 7907SOL    HW224621   6.037   6.648   3.137
 7908SOL     OW24622   1.953   0.414   6.153
 7908SOL    HW124623   2.041   0.441   6.194
 7908SOL    HW224624   1.911   0.494   6.110
 7909SOL     OW24625   6.555   3.293   1.379
 7909SOL    HW124626   6.581   3.381   1.417
 7909SOL    HW224627   6.535   3.229   1.453
 7910SOL     OW24628   1.286   4.616   5.003
 7910SOL    HW124629   1.198   4.630   4.958
 7910SOL    HW224630   1.281   4.649   5.097
 7911SOL     OW24631   5.772   4.889   5.734
 7911SOL    HW124632   5.726   4.803   5.756
 7911SOL    HW224633   5.870   4.873   5.723
 7912SOL     OW24634   5.819   5.866   0.515
 7912SOL    HW124635   5.759   5.940   0.544
 7912SOL    HW224636   5.836   5.872   0.417
 7913SOL     OW24637   1.347   5.264   6.707
 7913SOL    HW124638   1.252   5.293   6.720
 7913SOL    HW224639   1.377   5.289   6.615
 7914SOL     OW24640   1.032   6.847   4.460
 7914SOL    HW124641   1.025   6.900   4.545
 7914SOL    HW224642   0.984   6.894   4.387
 7915SOL     OW24643   2.633   5.168   2.111
 7915SOL    HW124644   2.544   5.207   2.133
 7915SOL    HW224645   2.639   5.075   2.148
 7916SOL     OW24646   0.868   0.218   3.466
 7916SOL    HW124647   0.774   0.251   3.471
 7916SOL    HW224648   0.905   0.208   3.559
 7917SOL     OW24649   4.883   1.821   2.166
 7917SOL    HW124650   4.820   1.864   2.230
 7917SOL    HW224651   4.868   1.857   2.074
 7918SOL     OW24652   2.156   2.966   2.698
 7918SOL    HW124653   2.182   2.921   2.613
 7918SOL    HW224654   2.086   3.034   2.680
 7919SOL     OW24655   0.880   6.348   4.608
 7919SOL    HW124656   0.808   6.297   4.655
 7919SOL    HW224657   0.899   6.306   4.520
 7920SOL     OW24658   4.908   0.125   1.215
 7920SOL    HW124659   4.884   0.131   1.312
 7920SOL    HW224660   4.969   0.200   1.192
 7921SOL     OW24661   5.300   2.755   0.642
 7921SOL    HW124662   5.343   2.723   0.558
 7921SOL    HW224663   5.278   2.677   0.701
 7922SOL     OW24664   2.776   0.203   2.672
 7922SOL    HW124665   2.758   0.214   2.770
 7922SOL    HW224666   2.691   0.180   2.625
 7923SOL     OW24667   4.528   0.634   0.178
 7923SOL    HW124668   4.610   0.665   0.129
 7923SOL    HW224669   4.554   0.601   0.269
 7924SOL     OW24670   5.522   6.084   0.234
 7924SOL    HW124671   5.526   5.984   0.231
 7924SOL    HW224672   5.431   6.113   0.262
 7925SOL     OW24673   1.183   5.043   6.155
 7925SOL    HW124674   1.279   5.067   6.164
 7925SOL    HW224675   1.146   5.019   6.245
 7926SOL     OW24676   5.090   5.883   5.725
 7926SOL    HW124677   5.095   5.784   5.735
 7926SOL    HW224678   5.165   5.925   5.777
 7927SOL     OW24679   4.257   7.018   3.588
 7927SOL    HW124680   4.286   6.934   3.544
 7927SOL    HW224681   4.164   0.019   3.559
 7928SOL     OW24682   5.539   1.737   3.771
 7928SOL    HW124683   5.604   1.810   3.751
 7928SOL    HW224684   5.465   1.739   3.703
 7929SOL     OW24685   4.652   4.141   5.806
 7929SOL    HW124686   4.689   4.082   5.734
 7929SOL    HW224687   4.629   4.085   5.886
 7930SOL     OW24688   4.069   5.961   6.449
 7930SOL    HW124689   4.125   5.880   6.465
 7930SOL    HW224690   4.082   6.026   6.524
 7931SOL     OW24691   4.757   1.364   0.717
 7931SOL    HW124692   4.728   1.269   0.704
 7931SOL    HW224693   4.848   1.366   0.757
 7932SOL     OW24694   1.203   3.995   1.618
 7932SOL    HW124695   1.199   4.087   1.655
 7932SOL    HW224696   1.146   3.988   1.536
 7933SOL     OW24697   1.092   1.759   6.929
 7933SOL    HW124698   1.158   1.756   6.854
 7933SOL    HW224699   1.020   1.826   6.907
 7934SOL     OW24700   6.995   5.315   1.002
 7934SOL    HW124701   6.968   5.319   0.906
 7934SOL    HW224702   6.916   5.332   1.060
 7935SOL     OW24703   6.611   3.464   3.479
 7935SOL    HW124704   6.526   3.487   3.430
 7935SOL    HW224705   6.649   3.380   3.441
 7936SOL     OW24706   2.310   5.978   3.386
 7936SOL    HW124707   2.361   6.044   3.441
 7936SOL    HW224708   2.349   5.887   3.399
 7937SOL     OW24709   4.582   1.181   1.246
 7937SOL    HW124710   4.525   1.264   1.241
 7937SOL    HW224711   4.595   1.156   1.342
 7938SOL     OW24712   2.602   0.096   3.114
 7938SOL    HW124713   2.564   0.041   3.040
 7938SOL    HW224714   2.644   0.036   3.182
 7939SOL     OW24715   1.481   0.799   2.734
 7939SOL    HW124716   1.391   0.765   2.762
 7939SOL    HW224717   1.541   0.722   2.714
 7940SOL     OW24718   5.871   1.826   4.946
 7940SOL    HW124719   5.852   1.786   4.856
 7940SOL    HW224720   5.788   1.870   4.980
 7941SOL     OW24721   3.256   6.921   1.078
 7941SOL    HW124722   3.222   7.003   1.031
 7941SOL    HW224723   3.345   6.941   1.119
 7942SOL     OW24724   1.223   4.202   0.680
 7942SOL    HW124725   1.302   4.257   0.651
 7942SOL    HW224726   1.140   4.241   0.641
 7943SOL     OW24727   1.151   6.392   6.062
 7943SOL    HW124728   1.203   6.475   6.081
 7943SOL    HW224729   1.092   6.371   6.140
 7944SOL     OW24730   1.380   1.905   1.314
 7944SOL    HW124731   1.475   1.936   1.309
 7944SOL    HW224732   1.323   1.975   1.355
 7945SOL     OW24733   6.182   3.311   2.768
 7945SOL    HW124734   6.268   3.295   2.720
 7945SOL    HW224735   6.178   3.251   2.849
 7946SOL     OW24736   4.230   1.652   6.235
 7946SOL    HW124737   4.208   1.557   6.258
 7946SOL    HW224738   4.279   1.655   6.148
 7947SOL     OW24739   6.955   3.866   6.301
 7947SOL    HW124740   0.029   3.894   6.299
 7947SOL    HW224741   6.916   3.876   6.210
 7948SOL     OW24742   1.248   6.206   0.937
 7948SOL    HW124743   1.270   6.124   0.885
 7948SOL    HW224744   1.174   6.186   1.001
 7949SOL     OW24745   2.402   5.612   5.369
 7949SOL    HW124746   2.320   5.561   5.340
 7949SOL    HW224747   2.468   5.549   5.408
 7950SOL     OW24748   6.547   4.359   5.764
 7950SOL    HW124749   6.552   4.271   5.811
 7950SOL    HW224750   6.631   4.410   5.780
 7951SOL     OW24751   4.167   0.204   2.946
 7951SOL    HW124752   4.103   0.197   2.870
 7951SOL    HW224753   4.254   0.241   2.913
 7952SOL     OW24754   6.717   3.669   5.070
 7952SOL    HW124755   6.794   3.678   5.133
 7952SOL    HW224756   6.687   3.573   5.067
 7953SOL     OW24757   1.863   0.196   0.234
 7953SOL    HW124758   1.787   0.234   0.286
 7953SOL    HW224759   1.847   0.209   0.136
 7954SOL     OW24760   3.281   3.075   6.981
 7954SOL    HW124761   3.307   3.163   6.941
 7954SOL    HW224762   3.256   3.011   6.907
 7955SOL     OW24763   0.789   1.581   6.689
 7955SOL    HW124764   0.822   1.509   6.628
 7955SOL    HW224765   0.822   1.670   6.655
 7956SOL     OW24766   0.131   7.009   0.195
 7956SOL    HW124767   0.049   6.955   0.214
 7956SOL    HW224768   0.105   0.081   0.174
 7957SOL     OW24769   5.278   1.417   5.478
 7957SOL    HW124770   5.185   1.394   5.448
 7957SOL    HW224771   5.331   1.333   5.490
 7958SOL     OW24772   4.147   2.182   7.012
 7958SOL    HW124773   4.213   2.139   0.052
 7958SOL    HW224774   4.156   2.144   6.920
 7959SOL     OW24775   4.881   2.923   0.167
 7959SOL    HW124776   4.781   2.924   0.173
 7959SOL    HW224777   4.910   2.977   0.088
 7960SOL     OW24778   0.835   1.671   4.990
 7960SOL    HW124779   0.855   1.756   5.039
 7960SOL    HW224780   0.758   1.624   5.035
 7961SOL     OW24781   5.967   0.003   0.840
 7961SOL    HW124782   5.869   0.018   0.827
 7961SOL    HW224783   6.011   0.088   0.867
 7962SOL     OW24784   5.856   6.707   5.138
 7962SOL    HW124785   5.882   6.726   5.233
 7962SOL    HW224786   5.876   6.786   5.081
 7963SOL     OW24787   5.762   6.368   3.014
 7963SOL    HW124788   5.826   6.388   3.088
 7963SOL    HW224789   5.804   6.394   2.927
 7964SOL     OW24790   6.297   3.381   1.359
 7964SOL    HW124791   6.268   3.477   1.353
 7964SOL    HW224792   6.396   3.377   1.368
 7965SOL     OW24793   4.871   1.808   6.493
 7965SOL    HW124794   4.800   1.738   6.488
 7965SOL    HW224795   4.894   1.840   6.402
 7966SOL     OW24796   5.831   3.225   5.018
 7966SOL    HW124797   5.847   3.277   5.102
 7966SOL    HW224798   5.739   3.245   4.985
 7967SOL     OW24799   1.504   4.620   0.773
 7967SOL    HW124800   1.567   4.545   0.794
 7967SOL    HW224801   1.421   4.611   0.828
 7968SOL     OW24802   1.978   2.784   3.772
 7968SOL    HW124803   1.994   2.824   3.681
 7968SOL    HW224804   1.949   2.689   3.762
 7969SOL     OW24805   3.265   4.329   6.436
 7969SOL    HW124806   3.271   4.230   6.451
 7969SOL    HW224807   3.356   4.368   6.442
 7970SOL     OW24808   6.577   2.930   4.001
 7970SOL    HW124809   6.638   2.852   3.987
 7970SOL    HW224810   6.502   2.903   4.062
 7971SOL     OW24811   3.199   0.990   6.914
 7971SOL    HW124812   3.272   0.980   6.982
 7971SOL    HW224813   3.112   0.960   6.953
 7972SOL     OW24814   3.710   4.150   4.474
 7972SOL    HW124815   3.718   4.093   4.556
 7972SOL    HW224816   3.730   4.245   4.497
 7973SOL     OW24817   6.396   4.788   2.198
 7973SOL    HW124818   6.333   4.753   2.128
 7973SOL    HW224819   6.468   4.721   2.214
 7974SOL     OW24820   0.657   3.420   4.663
 7974SOL    HW124821   0.596   3.382   4.732
 7974SOL    HW224822   0.607   3.486   4.607
 7975SOL     OW24823   4.526   0.387   0.056
 7975SOL    HW124824   4.525   0.456   0.128
 7975SOL    HW224825   4.575   0.422   6.999
 7976SOL     OW24826   0.843   0.584   0.298
 7976SOL    HW124827   0.846   0.540   0.387
 7976SOL    HW224828   0.858   0.516   0.226
 7977SOL     OW24829   5.565   5.267   3.013
 7977SOL    HW124830   5.567   5.367   3.020
 7977SOL    HW224831   5.513   5.240   2.931
 7978SOL     OW24832   0.194   3.488   1.371
 7978SOL    HW124833   0.186   3.577   1.416
 7978SOL    HW224834   0.286   3.479   1.331
 7979SOL     OW24835   2.946   2.670   5.453
 7979SOL    HW124836   2.968   2.766   5.470
 7979SOL    HW224837   2.846   2.659   5.448
 7980SOL     OW24838   3.700   5.326   2.154
 7980SOL    HW124839   3.754   5.301   2.074
 7980SOL    HW224840   3.731   5.275   2.234
 7981SOL     OW24841   1.696   3.685   4.545
 7981SOL    HW124842   1.706   3.735   4.631
 7981SOL    HW224843   1.758   3.723   4.477
 7982SOL     OW24844   6.895   0.930   6.492
 7982SOL    HW124845   6.837   0.979   6.556
 7982SOL    HW224846   6.894   0.976   6.403
 7983SOL     OW24847   3.687   0.856   2.039
 7983SOL    HW124848   3.670   0.768   2.083
 7983SOL    HW224849   3.776   0.853   1.993
 7984SOL     OW24850   6.483   2.991   3.043
 7984SOL    HW124851   6.535   2.975   3.126
 7984SOL    HW224852   6.462   2.903   2.999
 7985SOL     OW24853   3.194   2.859   5.630
 7985SOL    HW124854   3.286   2.849   5.594
 7985SOL    HW224855   3.136   2.906   5.564
 7986SOL     OW24856   4.048   1.043   3.905
 7986SOL    HW124857   4.148   1.042   3.919
 7986SOL    HW224858   4.016   1.138   3.905
 7987SOL     OW24859   0.958   3.071   6.336
 7987SOL    HW124860   0.924   2.992   6.285
 7987SOL    HW224861   0.914   3.074   6.426
 7988SOL     OW24862   6.333   0.711   0.882
 7988SOL    HW124863   6.267   0.758   0.825
 7988SOL    HW224864   6.423   0.712   0.838
 7989SOL     OW24865   0.331   4.725   1.340
 7989SOL    HW124866   0.262   4.660   1.308
 7989SOL    HW224867   0.421   4.697   1.307
 7990SOL     OW24868   4.578   5.076   4.631
 7990SOL    HW124869   4.583   4.977   4.615
 7990SOL    HW224870   4.486   5.101   4.659
 7991SOL     OW24871   5.826   0.786   4.293
 7991SOL    HW124872   5.913   0.824   4.327
 7991SOL    HW224873   5.820   0.689   4.318
 7992SOL     OW24874   1.749   0.343   6.683
 7992SOL    HW124875   1.832   0.287   6.692
 7992SOL    HW224876   1.768   0.436   6.713
 7993SOL     OW24877   6.324   6.289   0.626
 7993SOL    HW124878   6.264   6.243   0.691
 7993SOL    HW224879   6.283   6.377   0.599
 7994SOL     OW24880   0.056   0.747   4.419
 7994SOL    HW124881   0.084   0.685   4.492
 7994SOL    HW224882   0.039   0.838   4.457
 7995SOL     OW24883   0.121   6.136   1.328
 7995SOL    HW124884   0.195   6.177   1.382
 7995SOL    HW224885   0.155   6.054   1.283
 7996SOL     OW24886   2.225   6.440   3.551
 7996SOL    HW124887   2.230   6.502   3.472
 7996SOL    HW224888   2.188   6.352   3.522
 7997SOL     OW24889   2.149   1.418   6.016
 7997SOL    HW124890   2.073   1.381   6.070
 7997SOL    HW224891   2.113   1.462   5.934
 7998SOL     OW24892   2.413   0.750   1.371
 7998SOL    HW124893   2.489   0.779   1.313
 7998SOL    HW224894   2.334   0.809   1.353
 7999SOL     OW24895   0.682   0.448   3.303
 7999SOL    HW124896   0.763   0.506   3.301
 7999SOL    HW224897   0.690   0.382   3.378
 8000SOL     OW24898   4.121   5.795   0.868
 8000SOL    HW124899   4.181   5.723   0.902
 8000SOL    HW224900   4.163   5.836   0.787
 8001SOL     OW24901   4.867   4.380   1.702
 8001SOL    HW124902   4.863   4.472   1.663
 8001SOL    HW224903   4.777   4.338   1.697
 8002SOL     OW24904   0.959   0.428   4.629
 8002SOL    HW124905   1.056   0.436   4.606
 8002SOL    HW224906   0.929   0.334   4.612
 8003SOL     OW24907   3.082   5.680   2.998
 8003SOL    HW124908   3.118   5.634   3.080
 8003SOL    HW224909   2.985   5.701   3.011
 8004SOL     OW24910   2.091   3.609   4.005
 8004SOL    HW124911   1.997   3.607   4.040
 8004SOL    HW224912   2.153   3.633   4.079
 8005SOL     OW24913   2.654   0.176   3.805
 8005SOL    HW124914   2.701   0.097   3.845
 8005SOL    HW224915   2.557   0.171   3.828
 8006SOL     OW24916   5.073   5.158   5.990
 8006SOL    HW124917   5.025   5.128   5.907
 8006SOL    HW224918   5.052   5.096   6.065
 8007SOL     OW24919   6.894   0.707   0.835
 8007SOL    HW124920   6.843   0.716   0.749
 8007SOL    HW224921   6.841   0.745   0.910
 8008SOL     OW24922   4.323   4.945   0.624
 8008SOL    HW124923   4.382   5.006   0.675
 8008SOL    HW224924   4.376   4.867   0.590
 8009SOL     OW24925   6.665   1.298   0.932
 8009SOL    HW124926   6.719   1.372   0.891
 8009SOL    HW224927   6.718   1.254   1.004
 8010SOL     OW24928   3.660   0.479   5.900
 8010SOL    HW124929   3.699   0.561   5.858
 8010SOL    HW224930   3.730   0.408   5.908
 8011SOL     OW24931   4.124   2.040   2.869
 8011SOL    HW124932   4.070   1.956   2.857
 8011SOL    HW224933   4.198   2.042   2.802
 8012SOL     OW24934   6.434   0.575   4.920
 8012SOL    HW124935   6.358   0.528   4.873
 8012SOL    HW224936   6.482   0.634   4.855
 8013SOL     OW24937   3.731   0.122   3.437
 8013SOL    HW124938   3.693   0.130   3.529
 8013SOL    HW224939   3.826   0.093   3.443
 8014SOL     OW24940   2.395   2.411   3.206
 8014SOL    HW124941   2.363   2.330   3.157
 8014SOL    HW224942   2.398   2.488   3.144
 8015SOL     OW24943   3.306   6.829   4.439
 8015SOL    HW124944   3.266   6.858   4.352
 8015SOL    HW224945   3.401   6.801   4.425
 8016SOL     OW24946   3.455   2.630   5.439
 8016SOL    HW124947   3.434   2.594   5.530
 8016SOL    HW224948   3.372   2.628   5.382
 8017SOL     OW24949   5.963   6.072   0.969
 8017SOL    HW124950   5.883   6.054   0.911
 8017SOL    HW224951   5.932   6.107   1.058
 8018SOL     OW24952   2.861   3.923   0.868
 8018SOL    HW124953   2.960   3.916   0.863
 8018SOL    HW224954   2.829   3.888   0.956
 8019SOL     OW24955   2.511   3.432   0.484
 8019SOL    HW124956   2.535   3.471   0.395
 8019SOL    HW224957   2.419   3.395   0.480
 8020SOL     OW24958   0.159   0.508   6.715
 8020SOL    HW124959   0.199   0.417   6.701
 8020SOL    HW224960   0.224   0.577   6.685
 8021SOL     OW24961   1.135   3.394   0.777
 8021SOL    HW124962   1.189   3.334   0.718
 8021SOL    HW224963   1.124   3.353   0.867
 8022SOL     OW24964   4.405   6.850   2.237
 8022SOL    HW124965   4.484   6.806   2.279
 8022SOL    HW224966   4.323   6.835   2.293
 8023SOL     OW24967   4.007   5.108   2.606
 8023SOL    HW124968   4.100   5.083   2.579
 8023SOL    HW224969   3.942   5.050   2.557
 8024SOL     OW24970   2.410   1.243   6.834
 8024SOL    HW124971   2.335   1.305   6.810
 8024SOL    HW224972   2.405   1.162   6.776
 8025SOL     OW24973   0.877   6.248   1.261
 8025SOL    HW124974   0.839   6.211   1.345
 8025SOL    HW224975   0.808   6.245   1.189
 8026SOL     OW24976   0.682   6.358   6.404
 8026SOL    HW124977   0.597   6.306   6.402
 8026SOL    HW224978   0.719   6.363   6.311
 8027SOL     OW24979   3.975   0.409   6.859
 8027SOL    HW124980   3.977   0.472   6.781
 8027SOL    HW224981   3.905   0.339   6.844
 8028SOL     OW24982   3.340   5.979   6.380
 8028SOL    HW124983   3.364   5.959   6.475
 8028SOL    HW224984   3.400   6.050   6.344
 8029SOL     OW24985   0.994   0.549   1.978
 8029SOL    HW124986   1.012   0.557   1.880
 8029SOL    HW224987   0.911   0.496   1.992
 8030SOL     OW24988   0.604   4.287   0.867
 8030SOL    HW124989   0.593   4.237   0.781
 8030SOL    HW224990   0.525   4.347   0.881
 8031SOL     OW24991   6.973   0.495   2.390
 8031SOL    HW124992   6.947   0.402   2.365
 8031SOL    HW224993   6.964   0.507   2.489
 8032SOL     OW24994   0.146   2.815   0.138
 8032SOL    HW124995   0.046   2.808   0.141
 8032SOL    HW224996   0.172   2.911   0.128
 8033SOL     OW24997   3.861   4.330   1.582
 8033SOL    HW124998   3.824   4.358   1.494
 8033SOL    HW224999   3.788   4.329   1.650
 8034SOL     OW25000   0.763   6.868   5.928
 8034SOL    HW125001   0.671   6.832   5.910
 8034SOL    HW225002   0.757   6.937   6.001
 8035SOL     OW25003   5.902   0.053   4.433
 8035SOL    HW125004   5.809   0.040   4.400
 8035SOL    HW225005   5.907   0.136   4.489
 8036SOL     OW25006   4.927   3.632   3.825
 8036SOL    HW125007   5.020   3.628   3.862
 8036SOL    HW225008   4.929   3.620   3.726
 8037SOL     OW25009   2.384   1.207   6.010
 8037SOL    HW125010   2.306   1.270   6.004
 8037SOL    HW225011   2.375   1.152   6.093
 8038SOL     OW25012   6.460   5.339   2.117
 8038SOL    HW125013   6.484   5.394   2.037
 8038SOL    HW225014   6.450   5.243   2.090
 8039SOL     OW25015   2.155   2.372   5.144
 8039SOL    HW125016   2.114   2.341   5.230
 8039SOL    HW225017   2.238   2.319   5.126
 8040SOL     OW25018   0.527   6.161   6.495
 8040SOL    HW125019   0.545   6.078   6.443
 8040SOL    HW225020   0.444   6.149   6.550
 8041SOL     OW25021   3.325   1.472   3.080
 8041SOL    HW125022   3.410   1.441   3.038
 8041SOL    HW225023   3.343   1.552   3.137
 8042SOL     OW25024   3.640   3.922   6.030
 8042SOL    HW125025   3.660   3.890   6.123
 8042SOL    HW225026   3.542   3.910   6.011
 8043SOL     OW25027   4.866   5.059   0.015
 8043SOL    HW125028   4.772   5.079   0.043
 8043SOL    HW225029   4.874   4.962   7.013
 8044SOL     OW25030   1.242   3.199   1.877
 8044SOL    HW125031   1.273   3.271   1.815
 8044SOL    HW225032   1.163   3.152   1.837
 8045SOL     OW25033   6.244   3.708   5.203
 8045SOL    HW125034   6.160   3.674   5.244
 8045SOL    HW225035   6.251   3.806   5.219
 8046SOL     OW25036   0.171   4.231   1.158
 8046SOL    HW125037   0.216   4.194   1.077
 8046SOL    HW225038   0.074   4.206   1.157
 8047SOL     OW25039   2.964   6.221   6.756
 8047SOL    HW125040   2.941   6.140   6.810
 8047SOL    HW225041   2.991   6.192   6.664
 8048SOL     OW25042   3.952   1.756   6.565
 8048SOL    HW125043   3.930   1.854   6.561
 8048SOL    HW225044   3.905   1.709   6.491
 8049SOL     OW25045   1.841   1.346   0.746
 8049SOL    HW125046   1.863   1.284   0.671
 8049SOL    HW225047   1.744   1.340   0.767
 8050SOL     OW25048   0.451   5.192   5.910
 8050SOL    HW125049   0.477   5.223   6.001
 8050SOL    HW225050   0.504   5.111   5.885
 8051SOL     OW25051   4.689   6.596   2.640
 8051SOL    HW125052   4.614   6.547   2.595
 8051SOL    HW225053   4.727   6.539   2.713
 8052SOL     OW25054   2.749   1.617   3.132
 8052SOL    HW125055   2.706   1.618   3.042
 8052SOL    HW225056   2.795   1.529   3.146
 8053SOL     OW25057   1.310   2.359   6.693
 8053SOL    HW125058   1.218   2.396   6.704
 8053SOL    HW225059   1.340   2.317   6.779
 8054SOL     OW25060   5.308   3.806   5.093
 8054SOL    HW125061   5.243   3.731   5.100
 8054SOL    HW225062   5.359   3.814   5.179
 8055SOL     OW25063   6.365   0.401   0.213
 8055SOL    HW125064   6.392   0.384   0.118
 8055SOL    HW225065   6.414   0.480   0.248
 8056SOL     OW25066   2.647   1.689   3.934
 8056SOL    HW125067   2.670   1.723   4.025
 8056SOL    HW225068   2.722   1.632   3.900
 8057SOL     OW25069   3.001   2.181   2.239
 8057SOL    HW125070   2.975   2.086   2.222
 8057SOL    HW225071   2.943   2.242   2.186
 8058SOL     OW25072   3.961   6.386   1.934
 8058SOL    HW125073   3.878   6.376   1.879
 8058SOL    HW225074   3.936   6.402   2.030
 8059SOL     OW25075   3.779   3.196   5.665
 8059SOL    HW125076   3.825   3.127   5.720
 8059SOL    HW225077   3.844   3.238   5.602
 8060SOL     OW25078   0.130   0.905   6.127
 8060SOL    HW125079   0.190   0.973   6.169
 8060SOL    HW225080   0.176   0.816   6.128
 8061SOL     OW25081   6.900   0.960   1.700
 8061SOL    HW125082   6.805   0.930   1.702
 8061SOL    HW225083   6.951   0.904   1.633
 8062SOL     OW25084   4.718   4.627   5.724
 8062SOL    HW125085   4.753   4.717   5.699
 8062SOL    HW225086   4.691   4.627   5.821
 8063SOL     OW25087   2.004   4.392   3.149
 8063SOL    HW125088   2.103   4.400   3.140
 8063SOL    HW225089   1.961   4.404   3.060
 8064SOL     OW25090   0.093   2.253   0.678
 8064SOL    HW125091   0.015   2.193   0.697
 8064SOL    HW225092   0.067   2.348   0.699
 8065SOL     OW25093   4.796   7.021   6.573
 8065SOL    HW125094   4.877   0.007   6.631
 8065SOL    HW225095   4.772   6.924   6.563
 8066SOL     OW25096   0.358   0.251   6.048
 8066SOL    HW125097   0.378   0.223   6.142
 8066SOL    HW225098   0.342   0.170   5.992
 8067SOL     OW25099   5.573   0.467   4.234
 8067SOL    HW125100   5.570   0.552   4.182
 8067SOL    HW225101   5.545   0.484   4.328
 8068SOL     OW25102   6.954   3.726   1.973
 8068SOL    HW125103   6.904   3.722   1.886
 8068SOL    HW225104   0.028   3.706   1.956
 8069SOL     OW25105   1.137   2.415   2.016
 8069SOL    HW125106   1.065   2.362   1.973
 8069SOL    HW225107   1.122   2.420   2.115
 8070SOL     OW25108   5.738   3.579   1.058
 8070SOL    HW125109   5.719   3.671   1.092
 8070SOL    HW225110   5.742   3.579   0.959
 8071SOL     OW25111   3.055   0.729   6.088
 8071SOL    HW125112   3.064   0.632   6.064
 8071SOL    HW225113   2.959   0.755   6.084
 8072SOL     OW25114   2.115   2.317   5.485
 8072SOL    HW125115   2.126   2.416   5.486
 8072SOL    HW225116   2.199   2.274   5.451
 8073SOL     OW25117   5.625   0.426   6.586
 8073SOL    HW125118   5.577   0.350   6.541
 8073SOL    HW225119   5.562   0.503   6.597
 8074SOL     OW25120   6.690   0.712   0.622
 8074SOL    HW125121   6.610   0.663   0.656
 8074SOL    HW225122   6.661   0.788   0.565
 8075SOL     OW25123   0.360   0.253   0.961
 8075SOL    HW125124   0.362   0.353   0.961
 8075SOL    HW225125   0.361   0.220   0.866
 8076SOL     OW25126   6.284   6.481   0.266
 8076SOL    HW125127   6.348   6.494   0.191
 8076SOL    HW225128   6.330   6.430   0.340
 8077SOL     OW25129   6.049   4.369   1.388
 8077SOL    HW125130   6.137   4.376   1.433
 8077SOL    HW225131   6.021   4.273   1.383
 8078SOL     OW25132   6.288   1.185   1.480
 8078SOL    HW125133   6.281   1.283   1.501
 8078SOL    HW225134   6.326   1.174   1.387
 8079SOL     OW25135   0.417   1.082   6.789
 8079SOL    HW125136   0.344   1.055   6.727
 8079SOL    HW225137   0.431   1.181   6.782
 8080SOL     OW25138   1.702   3.689   3.672
 8080SOL    HW125139   1.665   3.782   3.661
 8080SOL    HW225140   1.732   3.654   3.584
 8081SOL     OW25141   6.624   0.146   5.605
 8081SOL    HW125142   6.622   0.243   5.582
 8081SOL    HW225143   6.601   0.092   5.524
 8082SOL     OW25144   4.121   2.237   4.466
 8082SOL    HW125145   4.182   2.304   4.424
 8082SOL    HW225146   4.096   2.267   4.558
 8083SOL     OW25147   6.506   2.988   4.569
 8083SOL    HW125148   6.523   2.929   4.648
 8083SOL    HW225149   6.567   3.067   4.573
 8084SOL     OW25150   5.085   1.509   6.391
 8084SOL    HW125151   5.004   1.562   6.366
 8084SOL    HW225152   5.146   1.502   6.312
 8085SOL     OW25153   1.727   5.865   4.067
 8085SOL    HW125154   1.714   5.880   3.969
 8085SOL    HW225155   1.721   5.768   4.088
 8086SOL     OW25156   6.684   2.344   2.704
 8086SOL    HW125157   6.714   2.432   2.667
 8086SOL    HW225158   6.689   2.346   2.804
 8087SOL     OW25159   7.006   1.269   6.452
 8087SOL    HW125160   0.084   1.279   6.446
 8087SOL    HW225161   6.977   1.193   6.394
 8088SOL     OW25162   0.389   6.858   5.205
 8088SOL    HW125163   0.377   6.890   5.299
 8088SOL    HW225164   0.478   6.813   5.196
 8089SOL     OW25165   6.613   1.722   6.753
 8089SOL    HW125166   6.650   1.628   6.750
 8089SOL    HW225167   6.613   1.760   6.661
 8090SOL     OW25168   4.434   2.510   5.184
 8090SOL    HW125169   4.497   2.583   5.160
 8090SOL    HW225170   4.360   2.506   5.117
 8091SOL     OW25171   0.379   4.003   4.751
 8091SOL    HW125172   0.288   4.035   4.724
 8091SOL    HW225173   0.439   4.005   4.672
 8092SOL     OW25174   5.088   0.483   5.993
 8092SOL    HW125175   5.084   0.448   6.087
 8092SOL    HW225176   5.054   0.414   5.930
 8093SOL     OW25177   3.153   6.261   3.642
 8093SOL    HW125178   3.223   6.315   3.689
 8093SOL    HW225179   3.162   6.164   3.667
 8094SOL     OW25180   2.108   4.031   4.341
 8094SOL    HW125181   2.138   4.125   4.356
 8094SOL    HW225182   2.116   4.009   4.244
 8095SOL     OW25183   1.025   5.066   4.822
 8095SOL    HW125184   1.034   5.136   4.893
 8095SOL    HW225185   1.115   5.026   4.803
 8096SOL     OW25186   0.855   4.811   0.804
 8096SOL    HW125187   0.890   4.719   0.787
 8096SOL    HW225188   0.901   4.876   0.744
 8097SOL     OW25189   4.293   6.602   6.584
 8097SOL    HW125190   4.375   6.656   6.566
 8097SOL    HW225191   4.319   6.510   6.614
 8098SOL     OW25192   2.058   5.795   4.826
 8098SOL    HW125193   2.041   5.889   4.854
 8098SOL    HW225194   2.143   5.762   4.867
 8099SOL     OW25195   2.011   4.213   2.494
 8099SOL    HW125196   1.977   4.154   2.421
 8099SOL    HW225197   1.935   4.266   2.532
 8100SOL     OW25198   0.088   0.244   0.204
 8100SOL    HW125199   0.165   0.297   0.167
 8100SOL    HW225200   0.034   0.302   0.266
 8101SOL     OW25201   1.964   6.005   0.507
 8101SOL    HW125202   1.975   6.037   0.601
 8101SOL    HW225203   1.952   6.084   0.446
 8102SOL     OW25204   0.983   4.147   4.215
 8102SOL    HW125205   1.013   4.077   4.151
 8102SOL    HW225206   0.983   4.236   4.170
 8103SOL     OW25207   4.298   0.888   1.244
 8103SOL    HW125208   4.358   0.878   1.323
 8103SOL    HW225209   4.278   0.985   1.229
 8104SOL     OW25210   1.113   5.660   6.833
 8104SOL    HW125211   1.159   5.656   6.744
 8104SOL    HW225212   1.054   5.580   6.843
 8105SOL     OW25213   6.997   6.961   3.537
 8105SOL    HW125214   0.035   6.928   3.464
 8105SOL    HW225215   6.924   6.895   3.553
 8106SOL     OW25216   2.910   6.889   6.186
 8106SOL    HW125217   2.888   6.843   6.271
 8106SOL    HW225218   2.990   6.845   6.144
 8107SOL     OW25219   1.107   6.946   7.013
 8107SOL    HW125220   1.036   7.016   7.012
 8107SOL    HW225221   1.109   6.901   0.080
 8108SOL     OW25222   1.250   1.241   0.153
 8108SOL    HW125223   1.280   1.283   0.238
 8108SOL    HW225224   1.267   1.143   0.156
 8109SOL     OW25225   6.958   3.153   2.352
 8109SOL    HW125226   6.937   3.202   2.437
 8109SOL    HW225227   0.034   3.138   2.345
 8110SOL     OW25228   4.480   4.752   0.498
 8110SOL    HW125229   4.569   4.768   0.456
 8110SOL    HW225230   4.415   4.725   0.427
 8111SOL     OW25231   6.333   0.957   2.488
 8111SOL    HW125232   6.406   0.978   2.553
 8111SOL    HW225233   6.306   0.862   2.498
 8112SOL     OW25234   1.869   5.199   6.147
 8112SOL    HW125235   1.892   5.143   6.067
 8112SOL    HW225236   1.949   5.251   6.175
 8113SOL     OW25237   4.965   5.055   6.477
 8113SOL    HW125238   4.974   5.018   6.569
 8113SOL    HW225239   4.976   5.154   6.479
 8114SOL     OW25240   1.759   3.391   2.704
 8114SOL    HW125241   1.792   3.482   2.679
 8114SOL    HW225242   1.785   3.325   2.633
 8115SOL     OW25243   1.915   1.610   6.061
 8115SOL    HW125244   1.956   1.592   6.150
 8115SOL    HW225245   1.979   1.662   6.005
 8116SOL     OW25246   3.891   3.348   1.777
 8116SOL    HW125247   3.942   3.372   1.860
 8116SOL    HW225248   3.845   3.260   1.792
 8117SOL     OW25249   1.983   6.668   3.853
 8117SOL    HW125250   2.064   6.703   3.901
 8117SOL    HW225251   1.910   6.736   3.856
 8118SOL     OW25252   6.543   2.978   6.751
 8118SOL    HW125253   6.528   3.040   6.828
 8118SOL    HW225254   6.620   3.012   6.696
 8119SOL     OW25255   5.160   6.271   6.618
 8119SOL    HW125256   5.258   6.253   6.607
 8119SOL    HW225257   5.124   6.314   6.536
 8120SOL     OW25258   2.427   6.472   2.476
 8120SOL    HW125259   2.331   6.497   2.488
 8120SOL    HW225260   2.476   6.486   2.562
 8121SOL     OW25261   1.866   2.295   2.372
 8121SOL    HW125262   1.921   2.345   2.439
 8121SOL    HW225263   1.788   2.352   2.345
 8122SOL     OW25264   0.881   4.345   1.234
 8122SOL    HW125265   0.786   4.347   1.267
 8122SOL    HW225266   0.911   4.250   1.226
 8123SOL     OW25267   6.883   2.264   6.665
 8123SOL    HW125268   6.863   2.317   6.747
 8123SOL    HW225269   6.957   2.199   6.685
 8124SOL     OW25270   6.071   6.307   5.626
 8124SOL    HW125271   6.022   6.323   5.540
 8124SOL    HW225272   6.166   6.282   5.606
 8125SOL     OW25273   1.247   5.329   1.820
 8125SOL    HW125274   1.332   5.356   1.867
 8125SOL    HW225275   1.234   5.230   1.831
 8126SOL     OW25276   3.195   5.927   5.099
 8126SOL    HW125277   3.202   5.940   5.198
 8126SOL    HW225278   3.201   6.016   5.053
 8127SOL     OW25279   3.832   1.606   6.360
 8127SOL    HW125280   3.872   1.631   6.272
 8127SOL    HW225281   3.732   1.608   6.353
 8128SOL     OW25282   3.087   2.910   0.916
 8128SOL    HW125283   3.159   2.978   0.925
 8128SOL    HW225284   3.114   2.827   0.965
 8129SOL     OW25285   0.794   2.288   2.864
 8129SOL    HW125286   0.876   2.247   2.903
 8129SOL    HW225287   0.816   2.376   2.823
 8130SOL     OW25288   6.738   6.206   6.968
 8130SOL    HW125289   6.691   6.266   0.011
 8130SOL    HW225290   6.737   6.247   6.877
 8131SOL     OW25291   1.791   2.078   0.449
 8131SOL    HW125292   1.850   2.105   0.373
 8131SOL    HW225293   1.799   2.145   0.523
 8132SOL     OW25294   6.317   1.795   4.673
 8132SOL    HW125295   6.387   1.731   4.705
 8132SOL    HW225296   6.234   1.744   4.652
 8133SOL     OW25297   3.701   4.895   1.252
 8133SOL    HW125298   3.640   4.959   1.298
 8133SOL    HW225299   3.684   4.899   1.153
 8134SOL     OW25300   5.830   2.356   5.852
 8134SOL    HW125301   5.884   2.274   5.873
 8134SOL    HW225302   5.739   2.348   5.895
 8135SOL     OW25303   2.299   6.778   1.927
 8135SOL    HW125304   2.379   6.785   1.868
 8135SOL    HW225305   2.238   6.707   1.893
 8136SOL     OW25306   4.736   4.632   1.881
 8136SOL    HW125307   4.784   4.602   1.964
 8136SOL    HW225308   4.659   4.571   1.864
 8137SOL     OW25309   4.628   1.738   6.234
 8137SOL    HW125310   4.574   1.822   6.247
 8137SOL    HW225311   4.575   1.673   6.179
 8138SOL     OW25312   5.245   1.272   2.268
 8138SOL    HW125313   5.193   1.222   2.337
 8138SOL    HW225314   5.341   1.276   2.294
 8139SOL     OW25315   0.795   1.624   3.560
 8139SOL    HW125316   0.892   1.599   3.561
 8139SOL    HW225317   0.752   1.587   3.478
 8140SOL     OW25318   4.855   2.533   2.941
 8140SOL    HW125319   4.916   2.567   2.869
 8140SOL    HW225320   4.832   2.438   2.923
 8141SOL     OW25321   5.755   3.698   3.895
 8141SOL    HW125322   5.711   3.787   3.908
 8141SOL    HW225323   5.794   3.694   3.803
 8142SOL     OW25324   6.621   6.338   0.169
 8142SOL    HW125325   6.598   6.322   0.265
 8142SOL    HW225326   6.560   6.409   0.132
 8143SOL     OW25327   6.514   3.086   5.256
 8143SOL    HW125328   6.517   3.052   5.350
 8143SOL    HW225329   6.452   3.165   5.252
 8144SOL     OW25330   4.716   6.591   0.270
 8144SOL    HW125331   4.660   6.671   0.294
 8144SOL    HW225332   4.809   6.603   0.305
 8145SOL     OW25333   4.577   6.377   3.610
 8145SOL    HW125334   4.558   6.460   3.558
 8145SOL    HW225335   4.645   6.322   3.561
 8146SOL     OW25336   3.793   1.725   4.573
 8146SOL    HW125337   3.702   1.727   4.532
 8146SOL    HW225338   3.824   1.818   4.590
 8147SOL     OW25339   5.529   1.126   2.867
 8147SOL    HW125340   5.440   1.081   2.870
 8147SOL    HW225341   5.538   1.186   2.947
 8148SOL     OW25342   6.882   4.556   2.767
 8148SOL    HW125343   6.789   4.575   2.800
 8148SOL    HW225344   6.903   4.460   2.782
 8149SOL     OW25345   3.642   5.350   3.721
 8149SOL    HW125346   3.617   5.432   3.669
 8149SOL    HW225347   3.567   5.324   3.782
 8150SOL     OW25348   0.836   6.034   0.934
 8150SOL    HW125349   0.805   5.950   0.979
 8150SOL    HW225350   0.923   6.063   0.974
 8151SOL     OW25351   0.525   1.860   4.643
 8151SOL    HW125352   0.463   1.932   4.613
 8151SOL    HW225353   0.555   1.879   4.737
 8152SOL     OW25354   1.453   0.433   3.276
 8152SOL    HW125355   1.460   0.482   3.189
 8152SOL    HW225356   1.368   0.380   3.278
 8153SOL     OW25357   2.016   6.813   0.258
 8153SOL    HW125358   2.058   6.829   0.347
 8153SOL    HW225359   2.076   6.755   0.203
 8154SOL     OW25360   2.351   6.692   3.023
 8154SOL    HW125361   2.311   6.723   3.109
 8154SOL    HW225362   2.423   6.756   2.995
 8155SOL     OW25363   2.925   3.316   4.608
 8155SOL    HW125364   2.829   3.306   4.635
 8155SOL    HW225365   2.933   3.307   4.509
 8156SOL     OW25366   6.812   0.362   5.454
 8156SOL    HW125367   6.858   0.342   5.541
 8156SOL    HW225368   6.840   0.295   5.386
 8157SOL     OW25369   5.746   2.059   6.877
 8157SOL    HW125370   5.748   2.125   6.953
 8157SOL    HW225371   5.810   2.088   6.806
 8158SOL     OW25372   1.809   5.573   2.211
 8158SOL    HW125373   1.886   5.636   2.216
 8158SOL    HW225374   1.785   5.557   2.115
 8159SOL     OW25375   0.434   5.553   0.979
 8159SOL    HW125376   0.474   5.534   1.069
 8159SOL    HW225377   0.476   5.636   0.941
 8160SOL     OW25378   4.529   1.778   1.815
 8160SOL    HW125379   4.556   1.872   1.836
 8160SOL    HW225380   4.442   1.778   1.766
 8161SOL     OW25381   4.073   2.648   1.270
 8161SOL    HW125382   4.032   2.731   1.308
 8161SOL    HW225383   4.029   2.626   1.183
 8162SOL     OW25384   5.801   0.867   1.752
 8162SOL    HW125385   5.791   0.771   1.724
 8162SOL    HW225386   5.711   0.903   1.776
 8163SOL     OW25387   1.999   3.312   5.564
 8163SOL    HW125388   1.981   3.215   5.552
 8163SOL    HW225389   2.085   3.336   5.517
 8164SOL     OW25390   4.879   3.501   2.028
 8164SOL    HW125391   4.860   3.417   2.080
 8164SOL    HW225392   4.845   3.490   1.935
 8165SOL     OW25393   2.163   4.943   2.128
 8165SOL    HW125394   2.244   4.972   2.077
 8165SOL    HW225395   2.144   5.010   2.200
 8166SOL     OW25396   4.019   6.696   1.514
 8166SOL    HW125397   3.944   6.732   1.570
 8166SOL    HW225398   3.984   6.623   1.455
 8167SOL     OW25399   5.144   2.607   4.555
 8167SOL    HW125400   5.108   2.628   4.646
 8167SOL    HW225401   5.239   2.638   4.549
 8168SOL     OW25402   2.651   2.312   2.755
 8168SOL    HW125403   2.712   2.247   2.710
 8168SOL    HW225404   2.623   2.382   2.689
 8169SOL     OW25405   5.554   4.192   4.925
 8169SOL    HW125406   5.490   4.266   4.946
 8169SOL    HW225407   5.507   4.121   4.874
 8170SOL     OW25408   1.339   5.270   4.006
 8170SOL    HW125409   1.271   5.233   4.070
 8170SOL    HW225410   1.431   5.244   4.036
 8171SOL     OW25411   1.882   1.145   6.406
 8171SOL    HW125412   1.860   1.143   6.504
 8171SOL    HW225413   1.882   1.051   6.370
 8172SOL     OW25414   0.093   6.059   1.017
 8172SOL    HW125415   0.025   6.090   1.084
 8172SOL    HW225416   0.050   5.993   0.955
 8173SOL     OW25417   5.859   3.253   0.184
 8173SOL    HW125418   5.950   3.291   0.201
 8173SOL    HW225419   5.854   3.161   0.224
 8174SOL     OW25420   5.361   6.468   2.401
 8174SOL    HW125421   5.316   6.506   2.482
 8174SOL    HW225422   5.407   6.541   2.351
 8175SOL     OW25423   1.795   2.329   4.247
 8175SOL    HW125424   1.745   2.245   4.267
 8175SOL    HW225425   1.772   2.359   4.154
 8176SOL     OW25426   4.049   5.929   3.852
 8176SOL    HW125427   4.145   5.904   3.866
 8176SOL    HW225428   4.023   5.908   3.758
 8177SOL     OW25429   1.483   6.489   5.830
 8177SOL    HW125430   1.420   6.501   5.908
 8177SOL    HW225431   1.431   6.461   5.749
 8178SOL     OW25432   2.490   6.848   5.478
 8178SOL    HW125433   2.576   6.801   5.494
 8178SOL    HW225434   2.460   6.893   5.562
 8179SOL     OW25435   3.566   0.456   0.245
 8179SOL    HW125436   3.652   0.413   0.219
 8179SOL    HW225437   3.585   0.537   0.302
 8180SOL     OW25438   4.718   4.155   5.288
 8180SOL    HW125439   4.778   4.233   5.305
 8180SOL    HW225440   4.693   4.113   5.375
 8181SOL     OW25441   2.439   2.372   2.246
 8181SOL    HW125442   2.425   2.457   2.298
 8181SOL    HW225443   2.515   2.384   2.183
 8182SOL     OW25444   5.553   3.001   5.797
 8182SOL    HW125445   5.502   2.917   5.814
 8182SOL    HW225446   5.607   2.991   5.713
 8183SOL     OW25447   2.340   2.792   3.588
 8183SOL    HW125448   2.290   2.875   3.562
 8183SOL    HW225449   2.368   2.743   3.506
 8184SOL     OW25450   5.815   5.801   4.281
 8184SOL    HW125451   5.852   5.801   4.374
 8184SOL    HW225452   5.715   5.796   4.285
 8185SOL     OW25453   1.615   1.800   3.254
 8185SOL    HW125454   1.570   1.740   3.321
 8185SOL    HW225455   1.546   1.839   3.193
 8186SOL     OW25456   4.175   4.021   6.938
 8186SOL    HW125457   4.107   4.071   6.990
 8186SOL    HW225458   4.217   4.081   6.870
 8187SOL     OW25459   2.089   1.728   5.896
 8187SOL    HW125460   2.102   1.653   5.831
 8187SOL    HW225461   2.071   1.812   5.846
 8188SOL     OW25462   4.994   2.726   2.476
 8188SOL    HW125463   4.901   2.759   2.458
 8188SOL    HW225464   5.045   2.720   2.391
 8189SOL     OW25465   6.771   5.495   2.666
 8189SOL    HW125466   6.812   5.458   2.582
 8189SOL    HW225467   6.753   5.421   2.730
 8190SOL     OW25468   6.080   3.526   2.241
 8190SOL    HW125469   6.123   3.545   2.153
 8190SOL    HW225470   6.086   3.607   2.299
 8191SOL     OW25471   6.241   5.032   1.534
 8191SOL    HW125472   6.156   4.985   1.561
 8191SOL    HW225473   6.304   4.965   1.493
 8192SOL     OW25474   1.164   2.577   0.736
 8192SOL    HW125475   1.220   2.495   0.741
 8192SOL    HW225476   1.204   2.641   0.671
 8193SOL     OW25477   3.667   6.723   5.429
 8193SOL    HW125478   3.662   6.815   5.390
 8193SOL    HW225479   3.734   6.669   5.377
 8194SOL     OW25480   2.296   0.573   2.449
 8194SOL    HW125481   2.231   0.649   2.447
 8194SOL    HW225482   2.384   0.603   2.414
 8195SOL     OW25483   5.656   1.522   1.571
 8195SOL    HW125484   5.675   1.424   1.573
 8195SOL    HW225485   5.558   1.536   1.554
 8196SOL     OW25486   1.969   0.909   0.430
 8196SOL    HW125487   1.885   0.908   0.484
 8196SOL    HW225488   1.954   0.961   0.346
 8197SOL     OW25489   0.429   0.172   0.660
 8197SOL    HW125490   0.398   0.266   0.646
 8197SOL    HW225491   0.355   0.109   0.635
 8198SOL     OW25492   3.369   0.592   3.086
 8198SOL    HW125493   3.339   0.532   3.160
 8198SOL    HW225494   3.421   0.669   3.124
 8199SOL     OW25495   5.788   4.710   1.251
 8199SOL    HW125496   5.727   4.732   1.175
 8199SOL    HW225497   5.738   4.659   1.321
 8200SOL     OW25498   4.267   3.394   1.695
 8200SOL    HW125499   4.278   3.295   1.702
 8200SOL    HW225500   4.357   3.438   1.689
 8201SOL     OW25501   0.374   1.153   5.373
 8201SOL    HW125502   0.324   1.098   5.305
 8201SOL    HW225503   0.472   1.141   5.359
 8202SOL     OW25504   1.757   3.989   4.660
 8202SOL    HW125505   1.795   4.049   4.730
 8202SOL    HW225506   1.803   4.006   4.573
 8203SOL     OW25507   6.137   4.338   0.160
 8203SOL    HW125508   6.216   4.362   0.217
 8203SOL    HW225509   6.167   4.290   0.078
 8204SOL     OW25510   3.063   0.540   0.548
 8204SOL    HW125511   3.114   0.465   0.505
 8204SOL    HW225512   2.965   0.523   0.540
 8205SOL     OW25513   4.488   6.648   3.546
 8205SOL    HW125514   4.486   6.665   3.645
 8205SOL    HW225515   4.544   6.718   3.502
 8206SOL     OW25516   3.644   1.684   4.880
 8206SOL    HW125517   3.643   1.602   4.822
 8206SOL    HW225518   3.551   1.705   4.910
 8207SOL     OW25519   2.876   5.547   6.854
 8207SOL    HW125520   2.824   5.553   6.769
 8207SOL    HW225521   2.885   5.451   6.880
 8208SOL     OW25522   1.731   6.451   6.820
 8208SOL    HW125523   1.703   6.461   6.916
 8208SOL    HW225524   1.815   6.504   6.805
 8209SOL     OW25525   0.951   5.302   4.980
 8209SOL    HW125526   0.984   5.374   5.041
 8209SOL    HW225527   0.852   5.291   4.991
 8210SOL     OW25528   2.432   1.360   0.163
 8210SOL    HW125529   2.509   1.424   0.173
 8210SOL    HW225530   2.346   1.411   0.162
 8211SOL     OW25531   3.657   3.965   3.547
 8211SOL    HW125532   3.754   3.951   3.527
 8211SOL    HW225533   3.647   4.020   3.630
 8212SOL     OW25534   4.371   4.827   6.743
 8212SOL    HW125535   4.464   4.856   6.722
 8212SOL    HW225536   4.310   4.906   6.742
 8213SOL     OW25537   4.617   4.303   1.639
 8213SOL    HW125538   4.550   4.274   1.708
 8213SOL    HW225539   4.596   4.396   1.610
 8214SOL     OW25540   3.857   5.334   3.902
 8214SOL    HW125541   3.788   5.349   3.831
 8214SOL    HW225542   3.841   5.397   3.978
 8215SOL     OW25543   2.778   6.550   6.319
 8215SOL    HW125544   2.728   6.532   6.404
 8215SOL    HW225545   2.822   6.466   6.288
 8216SOL     OW25546   5.230   5.601   1.064
 8216SOL    HW125547   5.238   5.527   1.131
 8216SOL    HW225548   5.210   5.687   1.112
 8217SOL     OW25549   3.569   6.640   3.806
 8217SOL    HW125550   3.491   6.588   3.841
 8217SOL    HW225551   3.573   6.729   3.853
 8218SOL     OW25552   1.727   6.508   4.264
 8218SOL    HW125553   1.811   6.457   4.247
 8218SOL    HW225554   1.667   6.455   4.323
 8219SOL     OW25555   4.113   3.343   3.348
 8219SOL    HW125556   4.127   3.283   3.427
 8219SOL    HW225557   4.169   3.310   3.272
 8220SOL     OW25558   3.879   4.303   5.441
 8220SOL    HW125559   3.833   4.217   5.464
 8220SOL    HW225560   3.941   4.288   5.364
 8221SOL     OW25561   6.365   4.069   4.022
 8221SOL    HW125562   6.396   4.154   3.979
 8221SOL    HW225563   6.301   4.023   3.961
 8222SOL     OW25564   5.669   2.252   6.484
 8222SOL    HW125565   5.686   2.156   6.463
 8222SOL    HW225566   5.609   2.292   6.414
 8223SOL     OW25567   1.565   6.547   5.403
 8223SOL    HW125568   1.482   6.578   5.356
 8223SOL    HW225569   1.572   6.593   5.491
 8224SOL     OW25570   5.545   1.107   6.221
 8224SOL    HW125571   5.521   1.196   6.261
 8224SOL    HW225572   5.522   1.108   6.124
 8225SOL     OW25573   5.909   2.904   0.132
 8225SOL    HW125574   5.817   2.929   0.101
 8225SOL    HW225575   5.965   2.876   0.054
 8226SOL     OW25576   3.561   1.386   6.440
 8226SOL    HW125577   3.583   1.378   6.537
 8226SOL    HW225578   3.574   1.481   6.411
 8227SOL     OW25579   4.987   3.077   2.748
 8227SOL    HW125580   4.915   3.091   2.679
 8227SOL    HW225581   5.075   3.107   2.711
 8228SOL     OW25582   2.974   1.390   4.836
 8228SOL    HW125583   3.007   1.462   4.897
 8228SOL    HW225584   2.951   1.429   4.747
 8229SOL     OW25585   4.363   4.969   0.953
 8229SOL    HW125586   4.397   4.896   0.893
 8229SOL    HW225587   4.409   5.055   0.930
 8230SOL     OW25588   6.384   0.877   6.233
 8230SOL    HW125589   6.370   0.946   6.305
 8230SOL    HW225590   6.402   0.923   6.146
 8231SOL     OW25591   3.591   1.517   2.331
 8231SOL    HW125592   3.506   1.509   2.279
 8231SOL    HW225593   3.594   1.607   2.375
 8232SOL     OW25594   4.201   6.794   3.272
 8232SOL    HW125595   4.193   6.747   3.184
 8232SOL    HW225596   4.188   6.892   3.259
 8233SOL     OW25597   2.427   1.725   6.876
 8233SOL    HW125598   2.432   1.763   6.968
 8233SOL    HW225599   2.370   1.643   6.877
 8234SOL     OW25600   1.441   2.856   0.230
 8234SOL    HW125601   1.521   2.915   0.237
 8234SOL    HW225602   1.392   2.854   0.318
 8235SOL     OW25603   0.722   0.139   1.222
 8235SOL    HW125604   0.797   0.125   1.286
 8235SOL    HW225605   0.635   0.125   1.270
 8236SOL     OW25606   1.068   6.811   1.190
 8236SOL    HW125607   1.095   6.739   1.127
 8236SOL    HW225608   1.042   6.893   1.138
 8237SOL     OW25609   4.260   5.280   5.342
 8237SOL    HW125610   4.210   5.366   5.336
 8237SOL    HW225611   4.357   5.296   5.321
 8238SOL     OW25612   7.013   5.434   0.258
 8238SOL    HW125613   0.090   5.449   0.256
 8238SOL    HW225614   6.982   5.433   0.353
 8239SOL     OW25615   4.330   1.855   5.298
 8239SOL    HW125616   4.299   1.772   5.344
 8239SOL    HW225617   4.319   1.845   5.199
 8240SOL     OW25618   3.583   3.829   4.986
 8240SOL    HW125619   3.503   3.853   4.932
 8240SOL    HW225620   3.595   3.895   5.060
 8241SOL     OW25621   1.170   2.979   5.457
 8241SOL    HW125622   1.089   2.965   5.514
 8241SOL    HW225623   1.218   3.062   5.487
 8242SOL     OW25624   0.447   2.357   3.244
 8242SOL    HW125625   0.510   2.344   3.321
 8242SOL    HW225626   0.499   2.372   3.161
 8243SOL     OW25627   1.285   6.626   3.402
 8243SOL    HW125628   1.309   6.683   3.323
 8243SOL    HW225629   1.196   6.654   3.437
 8244SOL     OW25630   5.904   0.619   3.632
 8244SOL    HW125631   5.827   0.672   3.598
 8244SOL    HW225632   5.988   0.673   3.625
 8245SOL     OW25633   5.077   3.216   1.848
 8245SOL    HW125634   5.110   3.121   1.846
 8245SOL    HW225635   5.000   3.224   1.911
 8246SOL     OW25636   2.141   4.764   6.487
 8246SOL    HW125637   2.112   4.687   6.431
 8246SOL    HW225638   2.087   4.845   6.465
 8247SOL     OW25639   2.226   4.939   3.326
 8247SOL    HW125640   2.255   5.031   3.298
 8247SOL    HW225641   2.306   4.883   3.347
 8248SOL     OW25642   0.057   6.206   2.738
 8248SOL    HW125643   0.136   6.199   2.798
 8248SOL    HW225644   0.013   6.116   2.731
 8249SOL     OW25645   3.264   1.002   6.469
 8249SOL    HW125646   3.187   0.995   6.405
 8249SOL    HW225647   3.255   0.931   6.539
 8250SOL     OW25648   1.523   1.526   6.783
 8250SOL    HW125649   1.498   1.442   6.832
 8250SOL    HW225650   1.621   1.526   6.765
 8251SOL     OW25651   1.022   1.909   5.545
 8251SOL    HW125652   1.115   1.942   5.562
 8251SOL    HW225653   0.980   1.882   5.631
 8252SOL     OW25654   0.754   2.060   6.641
 8252SOL    HW125655   0.709   2.096   6.723
 8252SOL    HW225656   0.798   2.134   6.591
 8253SOL     OW25657   5.820   4.850   6.009
 8253SOL    HW125658   5.816   4.892   5.918
 8253SOL    HW225659   5.769   4.907   6.074
 8254SOL     OW25660   5.623   5.270   6.812
 8254SOL    HW125661   5.720   5.289   6.794
 8254SOL    HW225662   5.611   5.250   6.909
 8255SOL     OW25663   1.204   0.177   5.404
 8255SOL    HW125664   1.277   0.169   5.472
 8255SOL    HW225665   1.233   0.242   5.333
 8256SOL     OW25666   1.456   5.790   3.060
 8256SOL    HW125667   1.470   5.832   3.150
 8256SOL    HW225668   1.382   5.839   3.013
 8257SOL     OW25669   4.945   3.647   3.557
 8257SOL    HW125670   4.953   3.588   3.477
 8257SOL    HW225671   4.884   3.724   3.536
 8258SOL     OW25672   0.282   3.169   3.668
 8258SOL    HW125673   0.194   3.218   3.672
 8258SOL    HW225674   0.355   3.235   3.651
 8259SOL     OW25675   5.633   2.528   3.959
 8259SOL    HW125676   5.629   2.428   3.970
 8259SOL    HW225677   5.729   2.556   3.948
 8260SOL     OW25678   4.670   2.055   6.533
 8260SOL    HW125679   4.745   2.111   6.567
 8260SOL    HW225680   4.657   1.976   6.593
 8261SOL     OW25681   6.083   2.017   2.723
 8261SOL    HW125682   6.118   2.026   2.816
 8261SOL    HW225683   6.026   1.935   2.717
 8262SOL     OW25684   4.786   4.143   1.934
 8262SOL    HW125685   4.844   4.179   1.861
 8262SOL    HW225686   4.703   4.199   1.941
 8263SOL     OW25687   6.245   1.601   6.824
 8263SOL    HW125688   6.207   1.685   6.863
 8263SOL    HW225689   6.318   1.568   6.883
 8264SOL     OW25690   3.095   0.786   1.503
 8264SOL    HW125691   3.071   0.826   1.415
 8264SOL    HW225692   3.034   0.821   1.574
 8265SOL     OW25693   4.598   5.614   0.255
 8265SOL    HW125694   4.649   5.543   0.305
 8265SOL    HW225695   4.640   5.628   0.165
 8266SOL     OW25696   3.801   1.921   3.104
 8266SOL    HW125697   3.830   1.833   3.065
 8266SOL    HW225698   3.825   1.923   3.201
 8267SOL     OW25699   1.855   3.055   3.190
 8267SOL    HW125700   1.780   3.074   3.127
 8267SOL    HW225701   1.902   2.972   3.162
 8268SOL     OW25702   2.593   5.087   1.300
 8268SOL    HW125703   2.529   5.022   1.259
 8268SOL    HW225704   2.550   5.131   1.378
 8269SOL     OW25705   6.302   1.996   4.406
 8269SOL    HW125706   6.227   2.047   4.448
 8269SOL    HW225707   6.369   1.973   4.476
 8270SOL     OW25708   3.445   4.581   7.002
 8270SOL    HW125709   3.346   4.594   6.998
 8270SOL    HW225710   3.471   4.551   0.073
 8271SOL     OW25711   3.418   0.068   5.630
 8271SOL    HW125712   3.389   6.995   5.619
 8271SOL    HW225713   3.438   0.086   5.727
 8272SOL     OW25714   1.091   0.746   2.148
 8272SOL    HW125715   1.069   0.676   2.080
 8272SOL    HW225716   1.147   0.706   2.221
 8273SOL     OW25717   4.022   6.832   6.242
 8273SOL    HW125718   4.072   6.761   6.293
 8273SOL    HW225719   3.990   6.794   6.155
 8274SOL     OW25720   5.627   6.638   3.932
 8274SOL    HW125721   5.683   6.582   3.871
 8274SOL    HW225722   5.557   6.582   3.976
 8275SOL     OW25723   4.937   1.013   5.086
 8275SOL    HW125724   4.909   0.963   5.004
 8275SOL    HW225725   5.036   1.007   5.097
 8276SOL     OW25726   5.410   3.046   0.904
 8276SOL    HW125727   5.420   3.014   0.810
 8276SOL    HW225728   5.496   3.089   0.934
 8277SOL     OW25729   1.447   6.924   1.311
 8277SOL    HW125730   1.444   6.989   1.235
 8277SOL    HW225731   1.494   6.965   1.389
 8278SOL     OW25732   1.654   0.788   1.175
 8278SOL    HW125733   1.595   0.737   1.111
 8278SOL    HW225734   1.599   0.859   1.220
 8279SOL     OW25735   5.491   5.429   5.604
 8279SOL    HW125736   5.588   5.408   5.605
 8279SOL    HW225737   5.477   5.528   5.605
 8280SOL     OW25738   5.762   4.206   6.775
 8280SOL    HW125739   5.844   4.220   6.830
 8280SOL    HW225740   5.744   4.108   6.766
 8281SOL     OW25741   3.470   4.586   6.242
 8281SOL    HW125742   3.416   4.524   6.185
 8281SOL    HW225743   3.491   4.541   6.329
 8282SOL     OW25744   4.220   2.491   0.847
 8282SOL    HW125745   4.122   2.471   0.845
 8282SOL    HW225746   4.245   2.545   0.767
 8283SOL     OW25747   0.441   0.066   2.898
 8283SOL    HW125748   0.519   0.094   2.843
 8283SOL    HW225749   0.359   0.063   2.840
 8284SOL     OW25750   5.255   1.867   1.705
 8284SOL    HW125751   5.328   1.889   1.770
 8284SOL    HW225752   5.199   1.793   1.742
 8285SOL     OW25753   0.861   4.162   0.589
 8285SOL    HW125754   0.836   4.068   0.565
 8285SOL    HW225755   0.851   4.175   0.688
 8286SOL     OW25756   6.124   2.192   6.883
 8286SOL    HW125757   6.222   2.179   6.894
 8286SOL    HW225758   6.078   2.164   6.968
 8287SOL     OW25759   0.439   0.630   3.303
 8287SOL    HW125760   0.526   0.590   3.332
 8287SOL    HW225761   0.449   0.667   3.210
 8288SOL     OW25762   2.874   0.519   2.132
 8288SOL    HW125763   2.881   0.550   2.037
 8288SOL    HW225764   2.833   0.427   2.134
 8289SOL     OW25765   5.848   6.828   0.022
 8289SOL    HW125766   5.795   6.844   0.106
 8289SOL    HW225767   5.930   6.776   0.044
 8290SOL     OW25768   4.989   2.432   1.921
 8290SOL    HW125769   4.984   2.476   2.010
 8290SOL    HW225770   4.931   2.481   1.856
 8291SOL     OW25771   4.852   5.685   6.358
 8291SOL    HW125772   4.765   5.709   6.316
 8291SOL    HW225773   4.890   5.766   6.405
 8292SOL     OW25774   0.227   3.700   5.789
 8292SOL    HW125775   0.161   3.672   5.859
 8292SOL    HW225776   0.182   3.763   5.725
 8293SOL     OW25777   2.810   5.117   4.329
 8293SOL    HW125778   2.889   5.056   4.335
 8293SOL    HW225779   2.736   5.072   4.280
 8294SOL     OW25780   6.820   3.544   6.064
 8294SOL    HW125781   6.878   3.538   6.145
 8294SOL    HW225782   6.866   3.501   5.986
 8295SOL     OW25783   4.244   5.261   2.315
 8295SOL    HW125784   4.146   5.257   2.295
 8295SOL    HW225785   4.272   5.356   2.327
 8296SOL     OW25786   3.911   0.293   2.090
 8296SOL    HW125787   3.966   0.215   2.121
 8296SOL    HW225788   3.963   0.378   2.102
 8297SOL     OW25789   5.579   4.282   1.896
 8297SOL    HW125790   5.580   4.195   1.845
 8297SOL    HW225791   5.671   4.303   1.928
 8298SOL     OW25792   0.143   6.725   1.191
 8298SOL    HW125793   0.183   6.754   1.104
 8298SOL    HW225794   0.049   6.695   1.176
 8299SOL     OW25795   0.860   2.846   6.208
 8299SOL    HW125796   0.839   2.878   6.116
 8299SOL    HW225797   0.774   2.828   6.257
 8300SOL     OW25798   5.444   5.262   4.229
 8300SOL    HW125799   5.390   5.210   4.164
 8300SOL    HW225800   5.509   5.321   4.180
 8301SOL     OW25801   6.449   5.605   0.526
 8301SOL    HW125802   6.351   5.589   0.536
 8301SOL    HW225803   6.467   5.703   0.536
 8302SOL     OW25804   3.519   6.858   5.986
 8302SOL    HW125805   3.440   6.851   5.925
 8302SOL    HW225806   3.548   6.766   6.014
 8303SOL     OW25807   1.619   5.249   4.086
 8303SOL    HW125808   1.675   5.173   4.053
 8303SOL    HW225809   1.660   5.336   4.056
 8304SOL     OW25810   5.992   2.435   3.578
 8304SOL    HW125811   5.914   2.446   3.516
 8304SOL    HW225812   5.960   2.434   3.672
 8305SOL     OW25813   4.485   6.952   5.520
 8305SOL    HW125814   4.581   6.945   5.546
 8305SOL    HW225815   4.438   7.012   5.585
 8306SOL     OW25816   5.046   1.104   3.838
 8306SOL    HW125817   5.051   1.169   3.763
 8306SOL    HW225818   5.136   1.095   3.882
 8307SOL     OW25819   0.107   5.210   4.116
 8307SOL    HW125820   0.173   5.284   4.132
 8307SOL    HW225821   0.078   5.172   4.203
 8308SOL     OW25822   1.605   5.693   0.620
 8308SOL    HW125823   1.639   5.600   0.601
 8308SOL    HW225824   1.506   5.695   0.609
 8309SOL     OW25825   6.306   4.574   2.738
 8309SOL    HW125826   6.315   4.632   2.657
 8309SOL    HW225827   6.222   4.520   2.732
 8310SOL     OW25828   2.182   6.270   2.506
 8310SOL    HW125829   2.149   6.189   2.457
 8310SOL    HW225830   2.268   6.249   2.552
 8311SOL     OW25831   4.512   6.175   2.082
 8311SOL    HW125832   4.549   6.137   2.167
 8311SOL    HW225833   4.454   6.107   2.038
 8312SOL     OW25834   6.833   1.806   0.499
 8312SOL    HW125835   6.916   1.763   0.465
 8312SOL    HW225836   6.756   1.783   0.438
 8313SOL     OW25837   4.893   2.806   6.106
 8313SOL    HW125838   4.931   2.837   6.019
 8313SOL    HW225839   4.844   2.720   6.092
 8314SOL     OW25840   4.145   5.544   3.886
 8314SOL    HW125841   4.124   5.454   3.846
 8314SOL    HW225842   4.239   5.569   3.863
 8315SOL     OW25843   3.051   2.597   6.611
 8315SOL    HW125844   2.961   2.571   6.575
 8315SOL    HW225845   3.100   2.652   6.543
 8316SOL     OW25846   1.466   1.384   4.933
 8316SOL    HW125847   1.564   1.399   4.921
 8316SOL    HW225848   1.451   1.293   4.972
 8317SOL     OW25849   1.498   1.706   5.447
 8317SOL    HW125850   1.438   1.704   5.367
 8317SOL    HW225851   1.460   1.646   5.518
 8318SOL     OW25852   4.543   6.521   5.947
 8318SOL    HW125853   4.635   6.483   5.959
 8318SOL    HW225854   4.548   6.599   5.884
 8319SOL     OW25855   2.593   5.723   6.706
 8319SOL    HW125856   2.545   5.660   6.768
 8319SOL    HW225857   2.603   5.812   6.752
 8320SOL     OW25858   3.859   4.628   5.434
 8320SOL    HW125859   3.907   4.547   5.398
 8320SOL    HW225860   3.926   4.696   5.464
 8321SOL     OW25861   0.444   0.759   0.811
 8321SOL    HW125862   0.434   0.678   0.867
 8321SOL    HW225863   0.447   0.840   0.869
 8322SOL     OW25864   2.001   1.216   0.969
 8322SOL    HW125865   1.937   1.278   0.922
 8322SOL    HW225866   2.094   1.232   0.935
 8323SOL     OW25867   5.884   4.757   6.965
 8323SOL    HW125868   5.951   4.682   6.963
 8323SOL    HW225869   5.919   4.832   7.021
 8324SOL     OW25870   5.331   6.692   6.282
 8324SOL    HW125871   5.302   6.693   6.378
 8324SOL    HW225872   5.398   6.619   6.267
 8325SOL     OW25873   0.991   6.581   4.691
 8325SOL    HW125874   1.055   6.612   4.621
 8325SOL    HW225875   0.963   6.487   4.671
 8326SOL     OW25876   2.269   2.349   6.508
 8326SOL    HW125877   2.186   2.322   6.557
 8326SOL    HW225878   2.327   2.268   6.495
 8327SOL     OW25879   0.890   6.012   4.785
 8327SOL    HW125880   0.849   6.095   4.822
 8327SOL    HW225881   0.910   6.024   4.688
 8328SOL     OW25882   0.683   6.558   1.126
 8328SOL    HW125883   0.715   6.464   1.126
 8328SOL    HW225884   0.714   6.604   1.210
 8329SOL     OW25885   1.594   2.687   5.252
 8329SOL    HW125886   1.607   2.778   5.211
 8329SOL    HW225887   1.682   2.639   5.253
 8330SOL     OW25888   2.946   6.908   0.116
 8330SOL    HW125889   2.885   6.941   0.043
 8330SOL    HW225890   2.896   6.905   0.202
 8331SOL     OW25891   2.220   2.629   5.825
 8331SOL    HW125892   2.199   2.716   5.782
 8331SOL    HW225893   2.149   2.562   5.801
 8332SOL     OW25894   5.701   3.883   1.084
 8332SOL    HW125895   5.761   3.910   1.008
 8332SOL    HW225896   5.665   3.965   1.129
 8333SOL     OW25897   3.004   4.429   6.315
 8333SOL    HW125898   3.038   4.450   6.224
 8333SOL    HW225899   3.080   4.399   6.373
 8334SOL     OW25900   3.215   2.236   5.406
 8334SOL    HW125901   3.232   2.301   5.481
 8334SOL    HW225902   3.196   2.287   5.322
 8335SOL     OW25903   5.254   4.209   5.979
 8335SOL    HW125904   5.290   4.181   5.890
 8335SOL    HW225905   5.330   4.227   6.041
 8336SOL     OW25906   0.936   4.632   3.466
 8336SOL    HW125907   0.927   4.578   3.382
 8336SOL    HW225908   1.012   4.696   3.456
 8337SOL     OW25909   6.717   1.018   4.355
 8337SOL    HW125910   6.713   1.050   4.260
 8337SOL    HW225911   6.766   0.930   4.358
 8338SOL     OW25912   2.522   5.931   0.950
 8338SOL    HW125913   2.566   5.842   0.963
 8338SOL    HW225914   2.433   5.931   0.995
 8339SOL     OW25915   6.300   0.338   1.985
 8339SOL    HW125916   6.209   0.325   1.945
 8339SOL    HW225917   6.292   0.349   2.084
 8340SOL     OW25918   5.678   2.635   6.654
 8340SOL    HW125919   5.663   2.555   6.712
 8340SOL    HW225920   5.776   2.657   6.652
 8341SOL     OW25921   3.666   0.230   1.141
 8341SOL    HW125922   3.617   0.317   1.143
 8341SOL    HW225923   3.747   0.236   1.199
 8342SOL     OW25924   4.115   1.233   0.674
 8342SOL    HW125925   4.050   1.170   0.717
 8342SOL    HW225926   4.208   1.204   0.694
 8343SOL     OW25927   5.030   5.910   3.170
 8343SOL    HW125928   5.091   5.861   3.108
 8343SOL    HW225929   4.974   5.975   3.118
 8344SOL     OW25930   2.450   4.623   6.010
 8344SOL    HW125931   2.433   4.691   5.938
 8344SOL    HW225932   2.382   4.634   6.083
 8345SOL     OW25933   6.420   0.316   3.793
 8345SOL    HW125934   6.420   0.384   3.719
 8345SOL    HW225935   6.509   0.316   3.839
 8346SOL     OW25936   6.149   4.026   3.852
 8346SOL    HW125937   6.204   4.020   3.768
 8346SOL    HW225938   6.052   4.027   3.828
 8347SOL     OW25939   1.775   1.972   6.278
 8347SOL    HW125940   1.863   1.939   6.313
 8347SOL    HW225941   1.730   1.899   6.227
 8348SOL     OW25942   3.130   5.860   1.450
 8348SOL    HW125943   3.179   5.774   1.437
 8348SOL    HW225944   3.180   5.918   1.513
 8349SOL     OW25945   4.772   5.559   1.657
 8349SOL    HW125946   4.684   5.596   1.688
 8349SOL    HW225947   4.815   5.624   1.594
 8350SOL     OW25948   1.530   0.271   6.924
 8350SOL    HW125949   1.548   0.325   6.842
 8350SOL    HW225950   1.463   0.199   6.902
 8351SOL     OW25951   6.668   2.887   3.205
 8351SOL    HW125952   6.746   2.935   3.245
 8351SOL    HW225953   6.683   2.789   3.208
 8352SOL     OW25954   3.090   6.435   6.480
 8352SOL    HW125955   3.002   6.471   6.509
 8352SOL    HW225956   3.082   6.337   6.463
 8353SOL     OW25957   0.594   5.832   2.615
 8353SOL    HW125958   0.534   5.845   2.694
 8353SOL    HW225959   0.598   5.734   2.592
 8354SOL     OW25960   4.963   1.933   3.138
 8354SOL    HW125961   5.034   1.913   3.070
 8354SOL    HW225962   4.873   1.932   3.094
 8355SOL     OW25963   3.080   5.296   5.989
 8355SOL    HW125964   3.136   5.362   6.039
 8355SOL    HW225965   3.080   5.319   5.892
 8356SOL     OW25966   2.682   4.296   1.265
 8356SOL    HW125967   2.712   4.391   1.273
 8356SOL    HW225968   2.686   4.267   1.169
 8357SOL     OW25969   3.051   6.912   4.632
 8357SOL    HW125970   2.972   6.966   4.603
 8357SOL    HW225971   3.095   6.872   4.552
 8358SOL     OW25972   0.136   0.288   4.844
 8358SOL    HW125973   0.087   0.353   4.902
 8358SOL    HW225974   0.188   0.339   4.775
 8359SOL     OW25975   4.668   1.987   5.113
 8359SOL    HW125976   4.644   2.035   5.028
 8359SOL    HW225977   4.753   1.936   5.099
 8360SOL     OW25978   3.510   6.905   1.865
 8360SOL    HW125979   3.484   6.822   1.816
 8360SOL    HW225980   3.569   6.880   1.942
 8361SOL     OW25981   5.047   1.029   0.416
 8361SOL    HW125982   5.028   0.947   0.472
 8361SOL    HW225983   4.987   1.103   0.446
 8362SOL     OW25984   0.474   3.912   1.087
 8362SOL    HW125985   0.491   3.880   0.994
 8362SOL    HW225986   0.544   3.876   1.149
 8363SOL     OW25987   1.169   2.284   1.593
 8363SOL    HW125988   1.210   2.357   1.647
 8363SOL    HW225989   1.236   2.249   1.528
 8364SOL     OW25990   6.894   2.028   4.115
 8364SOL    HW125991   6.931   1.972   4.189
 8364SOL    HW225992   6.917   1.986   4.027
 8365SOL     OW25993   1.704   2.545   1.890
 8365SOL    HW125994   1.779   2.488   1.924
 8365SOL    HW225995   1.709   2.636   1.933
 8366SOL     OW25996   4.824   5.991   2.002
 8366SOL    HW125997   4.787   5.901   1.976
 8366SOL    HW225998   4.775   6.062   1.952
 8367SOL     OW25999   1.869   4.243   3.336
 8367SOL    HW126000   1.940   4.173   3.342
 8367SOL    HW226001   1.894   4.308   3.265
 8368SOL     OW26002   0.024   4.077   5.834
 8368SOL    HW126003   0.122   4.059   5.822
 8368SOL    HW226004   6.993   4.008   5.784
 8369SOL     OW26005   1.375   0.042   6.904
 8369SOL    HW126006   1.284   0.003   6.916
 8369SOL    HW226007   1.440   6.991   6.881
 8370SOL     OW26008   2.867   3.099   0.286
 8370SOL    HW126009   2.921   3.062   0.211
 8370SOL    HW226010   2.926   3.117   0.364
 8371SOL     OW26011   2.912   4.203   5.998
 8371SOL    HW126012   2.816   4.216   6.021
 8371SOL    HW226013   2.960   4.164   6.076
 8372SOL     OW26014   1.565   0.115   1.775
 8372SOL    HW126015   1.534   0.165   1.857
 8372SOL    HW226016   1.554   0.174   1.695
 8373SOL     OW26017   5.589   0.909   3.757
 8373SOL    HW126018   5.538   0.969   3.818
 8373SOL    HW226019   5.581   0.814   3.789
 8374SOL     OW26020   1.091   1.611   3.522
 8374SOL    HW126021   1.058   1.520   3.548
 8374SOL    HW226022   1.180   1.627   3.564
 8375SOL     OW26023   1.608   1.874   5.272
 8375SOL    HW126024   1.617   1.956   5.329
 8375SOL    HW226025   1.578   1.797   5.329
 8376SOL     OW26026   0.758   2.124   4.053
 8376SOL    HW126027   0.755   2.025   4.070
 8376SOL    HW226028   0.737   2.174   4.137
 8377SOL     OW26029   3.318   5.349   0.867
 8377SOL    HW126030   3.404   5.301   0.885
 8377SOL    HW226031   3.327   5.445   0.895
 8378SOL     OW26032   4.303   5.225   4.898
 8378SOL    HW126033   4.384   5.280   4.917
 8378SOL    HW226034   4.226   5.259   4.951
 8379SOL     OW26035   6.447   2.539   2.181
 8379SOL    HW126036   6.375   2.559   2.115
 8379SOL    HW226037   6.438   2.602   2.259
 8380SOL     OW26038   1.276   5.898   2.272
 8380SOL    HW126039   1.354   5.840   2.250
 8380SOL    HW226040   1.229   5.862   2.353
 8381SOL     OW26041   1.075   2.024   2.468
 8381SOL    HW126042   1.091   1.954   2.399
 8381SOL    HW226043   0.984   2.062   2.456
 8382SOL     OW26044   0.629   6.837   1.743
 8382SOL    HW126045   0.573   6.755   1.753
 8382SOL    HW226046   0.722   6.818   1.775
 8383SOL     OW26047   2.812   0.196   5.263
 8383SOL    HW126048   2.736   0.137   5.291
 8383SOL    HW226049   2.789   0.291   5.282
 8384SOL     OW26050   0.469   3.356   3.039
 8384SOL    HW126051   0.464   3.311   3.129
 8384SOL    HW226052   0.382   3.341   2.991
 8385SOL     OW26053   4.262   2.240   2.082
 8385SOL    HW126054   4.334   2.297   2.123
 8385SOL    HW226055   4.188   2.227   2.148
 8386SOL     OW26056   0.590   5.533   1.202
 8386SOL    HW126057   0.551   5.451   1.245
 8386SOL    HW226058   0.613   5.599   1.273
 8387SOL     OW26059   0.646   1.636   3.102
 8387SOL    HW126060   0.565   1.670   3.150
 8387SOL    HW226061   0.700   1.713   3.067
 8388SOL     OW26062   3.915   4.983   1.766
 8388SOL    HW126063   3.974   4.930   1.705
 8388SOL    HW226064   3.848   5.034   1.712
 8389SOL     OW26065   1.320   2.812   3.637
 8389SOL    HW126066   1.246   2.746   3.625
 8389SOL    HW226067   1.404   2.765   3.664
 8390SOL     OW26068   3.049   0.749   6.430
 8390SOL    HW126069   3.128   0.737   6.370
 8390SOL    HW226070   2.965   0.743   6.375
 8391SOL     OW26071   4.358   5.963   0.989
 8391SOL    HW126072   4.354   5.887   0.923
 8391SOL    HW226073   4.417   5.937   1.065
 8392SOL     OW26074   4.162   5.695   0.111
 8392SOL    HW126075   4.130   5.615   0.163
 8392SOL    HW226076   4.183   5.668   0.017
 8393SOL     OW26077   0.657   5.585   1.459
 8393SOL    HW126078   0.582   5.603   1.522
 8393SOL    HW226079   0.705   5.502   1.487
 8394SOL     OW26080   1.537   1.335   3.832
 8394SOL    HW126081   1.612   1.379   3.783
 8394SOL    HW226082   1.535   1.238   3.809
 8395SOL     OW26083   1.752   6.399   5.904
 8395SOL    HW126084   1.756   6.373   6.001
 8395SOL    HW226085   1.658   6.423   5.881
 8396SOL     OW26086   4.395   2.284   0.908
 8396SOL    HW126087   4.357   2.373   0.885
 8396SOL    HW226088   4.443   2.289   0.995
 8397SOL     OW26089   1.667   4.857   3.378
 8397SOL    HW126090   1.628   4.847   3.470
 8397SOL    HW226091   1.766   4.867   3.385
 8398SOL     OW26092   5.593   1.839   6.914
 8398SOL    HW126093   5.656   1.906   6.875
 8398SOL    HW226094   5.581   1.858   7.012
 8399SOL     OW26095   5.139   5.968   6.221
 8399SOL    HW126096   5.190   6.032   6.278
 8399SOL    HW226097   5.117   6.011   6.134
 8400SOL     OW26098   6.330   6.647   4.067
 8400SOL    HW126099   6.387   6.725   4.093
 8400SOL    HW226100   6.252   6.640   4.129
 8401SOL     OW26101   3.032   3.764   5.255
 8401SOL    HW126102   3.116   3.817   5.262
 8401SOL    HW226103   3.008   3.728   5.345
 8402SOL     OW26104   5.045   0.188   5.485
 8402SOL    HW126105   5.060   0.095   5.452
 8402SOL    HW226106   4.984   0.237   5.422
 8403SOL     OW26107   0.717   2.358   5.380
 8403SOL    HW126108   0.654   2.433   5.358
 8403SOL    HW226109   0.714   2.290   5.307
 8404SOL     OW26110   4.796   5.306   5.697
 8404SOL    HW126111   4.699   5.312   5.674
 8404SOL    HW226112   4.851   5.337   5.620
 8405SOL     OW26113   1.878   2.591   5.499
 8405SOL    HW126114   1.869   2.649   5.419
 8405SOL    HW226115   1.792   2.542   5.514
 8406SOL     OW26116   5.079   3.831   1.965
 8406SOL    HW126117   5.093   3.880   2.051
 8406SOL    HW226118   4.981   3.825   1.946
 8407SOL     OW26119   5.009   3.694   3.159
 8407SOL    HW126120   4.978   3.729   3.070
 8407SOL    HW226121   4.979   3.756   3.231
 8408SOL     OW26122   4.985   3.465   4.114
 8408SOL    HW126123   4.953   3.391   4.173
 8408SOL    HW226124   4.940   3.551   4.141
 8409SOL     OW26125   1.428   1.131   4.210
 8409SOL    HW126126   1.464   1.195   4.279
 8409SOL    HW226127   1.349   1.172   4.165
 8410SOL     OW26128   2.310   5.011   2.450
 8410SOL    HW126129   2.263   4.936   2.497
 8410SOL    HW226130   2.409   5.001   2.464
 8411SOL     OW26131   1.951   3.495   2.988
 8411SOL    HW126132   1.962   3.536   3.079
 8411SOL    HW226133   1.975   3.562   2.918
 8412SOL     OW26134   6.451   2.684   2.422
 8412SOL    HW126135   6.429   2.781   2.436
 8412SOL    HW226136   6.550   2.671   2.426
 8413SOL     OW26137   2.129   5.026   1.429
 8413SOL    HW126138   2.165   5.105   1.381
 8413SOL    HW226139   2.076   4.970   1.365
 8414SOL     OW26140   6.250   0.584   3.449
 8414SOL    HW126141   6.277   0.538   3.364
 8414SOL    HW226142   6.151   0.575   3.462
 8415SOL     OW26143   6.861   4.823   1.394
 8415SOL    HW126144   6.932   4.825   1.464
 8415SOL    HW226145   6.875   4.743   1.334
 8416SOL     OW26146   4.493   4.955   2.507
 8416SOL    HW126147   4.509   4.904   2.422
 8416SOL    HW226148   4.568   4.936   2.571
 8417SOL     OW26149   1.432   5.602   6.759
 8417SOL    HW126150   1.361   5.590   6.690
 8417SOL    HW226151   1.407   5.552   6.842
 8418SOL     OW26152   5.529   5.932   2.828
 8418SOL    HW126153   5.510   6.029   2.840
 8418SOL    HW226154   5.499   5.903   2.737
 8419SOL     OW26155   5.092   0.325   3.958
 8419SOL    HW126156   5.082   0.227   3.939
 8419SOL    HW226157   5.091   0.376   3.873
 8420SOL     OW26158   3.964   2.206   5.379
 8420SOL    HW126159   4.026   2.255   5.440
 8420SOL    HW226160   4.000   2.209   5.286
 8421SOL     OW26161   0.457   1.073   1.341
 8421SOL    HW126162   0.471   1.149   1.403
 8421SOL    HW226163   0.367   1.033   1.356
 8422SOL     OW26164   3.281   0.270   1.779
 8422SOL    HW126165   3.310   0.354   1.824
 8422SOL    HW226166   3.269   0.198   1.848
 8423SOL     OW26167   1.985   3.566   1.283
 8423SOL    HW126168   2.063   3.505   1.271
 8423SOL    HW226169   1.954   3.598   1.193
 8424SOL     OW26170   2.605   2.517   1.347
 8424SOL    HW126171   2.569   2.430   1.381
 8424SOL    HW226172   2.613   2.513   1.247
 8425SOL     OW26173   6.634   4.659   6.079
 8425SOL    HW126174   6.700   4.587   6.059
 8425SOL    HW226175   6.678   4.748   6.066
 8426SOL     OW26176   3.582   3.107   1.955
 8426SOL    HW126177   3.598   3.014   1.987
 8426SOL    HW226178   3.484   3.126   1.957
 8427SOL     OW26179   1.956   2.371   0.020
 8427SOL    HW126180   1.975   2.425   0.102
 8427SOL    HW226181   2.016   2.291   0.018
 8428SOL     OW26182   6.284   3.862   0.709
 8428SOL    HW126183   6.349   3.804   0.758
 8428SOL    HW226184   6.191   3.835   0.732
 8429SOL     OW26185   1.910   6.440   3.039
 8429SOL    HW126186   1.910   6.538   3.022
 8429SOL    HW226187   1.994   6.400   3.004
 8430SOL     OW26188   4.772   4.692   3.112
 8430SOL    HW126189   4.731   4.633   3.181
 8430SOL    HW226190   4.703   4.756   3.078
 8431SOL     OW26191   2.855   3.567   2.307
 8431SOL    HW126192   2.793   3.569   2.230
 8431SOL    HW226193   2.890   3.659   2.325
 8432SOL     OW26194   4.673   6.198   7.010
 8432SOL    HW126195   4.702   6.133   0.059
 8432SOL    HW226196   4.594   6.250   0.022
 8433SOL     OW26197   0.529   1.143   3.820
 8433SOL    HW126198   0.494   1.082   3.891
 8433SOL    HW226199   0.511   1.238   3.846
 8434SOL     OW26200   5.972   6.512   6.344
 8434SOL    HW126201   6.054   6.569   6.342
 8434SOL    HW226202   5.892   6.569   6.359
 8435SOL     OW26203   4.770   2.047   1.285
 8435SOL    HW126204   4.802   1.979   1.219
 8435SOL    HW226205   4.842   2.063   1.353
 8436SOL     OW26206   3.074   4.284   1.731
 8436SOL    HW126207   3.001   4.352   1.739
 8436SOL    HW226208   3.163   4.331   1.731
 8437SOL     OW26209   0.341   1.791   0.900
 8437SOL    HW126210   0.355   1.767   0.996
 8437SOL    HW226211   0.421   1.839   0.866
 8438SOL     OW26212   2.091   5.636   0.711
 8438SOL    HW126213   2.127   5.685   0.631
 8438SOL    HW226214   2.152   5.652   0.789
 8439SOL     OW26215   5.377   0.840   1.595
 8439SOL    HW126216   5.312   0.831   1.519
 8439SOL    HW226217   5.352   0.777   1.668
 8440SOL     OW26218   0.878   2.921   3.964
 8440SOL    HW126219   0.910   2.906   3.871
 8440SOL    HW226220   0.955   2.912   4.028
 8441SOL     OW26221   4.542   5.804   2.230
 8441SOL    HW126222   4.446   5.801   2.258
 8441SOL    HW226223   4.581   5.893   2.254
 8442SOL     OW26224   2.567   2.780   0.981
 8442SOL    HW126225   2.636   2.769   0.909
 8442SOL    HW226226   2.611   2.788   1.070
 8443SOL     OW26227   0.057   1.696   1.223
 8443SOL    HW126228   0.075   1.645   1.306
 8443SOL    HW226229   0.013   1.636   1.156
 8444SOL     OW26230   4.209   1.745   3.454
 8444SOL    HW126231   4.209   1.645   3.453
 8444SOL    HW226232   4.182   1.780   3.365
 8445SOL     OW26233   4.899   5.678   2.240
 8445SOL    HW126234   4.850   5.605   2.288
 8445SOL    HW226235   4.928   5.747   2.307
 8446SOL     OW26236   0.050   3.429   3.093
 8446SOL    HW126237   0.112   3.363   3.050
 8446SOL    HW226238   7.003   3.380   3.147
 8447SOL     OW26239   4.431   4.165   1.183
 8447SOL    HW126240   4.333   4.183   1.195
 8447SOL    HW226241   4.448   4.135   1.089
 8448SOL     OW26242   1.888   4.009   5.913
 8448SOL    HW126243   1.863   4.074   5.841
 8448SOL    HW226244   1.939   4.056   5.984
 8449SOL     OW26245   1.050   0.837   5.290
 8449SOL    HW126246   1.002   0.755   5.258
 8449SOL    HW226247   1.016   0.862   5.381
 8450SOL     OW26248   2.020   5.817   0.967
 8450SOL    HW126249   1.961   5.805   0.887
 8450SOL    HW226250   1.980   5.770   1.045
 8451SOL     OW26251   3.000   3.342   0.708
 8451SOL    HW126252   2.940   3.413   0.746
 8451SOL    HW226253   2.950   3.256   0.702
 8452SOL     OW26254   0.079   5.685   1.164
 8452SOL    HW126255   0.058   5.660   1.069
 8452SOL    HW226256   7.016   5.698   1.215
 8453SOL     OW26257   6.692   5.119   5.155
 8453SOL    HW126258   6.642   5.041   5.193
 8453SOL    HW226259   6.641   5.156   5.077
 8454SOL     OW26260   2.326   6.835   4.634
 8454SOL    HW126261   2.401   6.808   4.695
 8454SOL    HW226262   2.310   6.933   4.642
 8455SOL     OW26263   5.757   2.772   0.745
 8455SOL    HW126264   5.731   2.841   0.812
 8455SOL    HW226265   5.847   2.734   0.770
 8456SOL     OW26266   5.401   4.933   3.581
 8456SOL    HW126267   5.393   5.011   3.643
 8456SOL    HW226268   5.327   4.935   3.514
 8457SOL     OW26269   6.807   6.129   5.613
 8457SOL    HW126270   6.731   6.182   5.576
 8457SOL    HW226271   6.820   6.046   5.558
 8458SOL     OW26272   1.414   1.924   0.941
 8458SOL    HW126273   1.469   1.869   0.878
 8458SOL    HW226274   1.356   1.864   0.996
 8459SOL     OW26275   2.623   5.227   3.578
 8459SOL    HW126276   2.565   5.298   3.619
 8459SOL    HW226277   2.710   5.222   3.627
 8460SOL     OW26278   3.996   1.456   1.271
 8460SOL    HW126279   4.071   1.392   1.281
 8460SOL    HW226280   4.020   1.543   1.314
 8461SOL     OW26281   5.359   3.961   3.544
 8461SOL    HW126282   5.296   4.035   3.522
 8461SOL    HW226283   5.388   3.916   3.460
 8462SOL     OW26284   1.413   4.066   0.854
 8462SOL    HW126285   1.449   4.001   0.787
 8462SOL    HW226286   1.369   4.142   0.807
 8463SOL     OW26287   0.181   0.229   1.181
 8463SOL    HW126288   0.105   0.201   1.123
 8463SOL    HW226289   0.261   0.249   1.124
 8464SOL     OW26290   6.285   3.289   6.870
 8464SOL    HW126291   6.279   3.190   6.888
 8464SOL    HW226292   6.366   3.307   6.813
 8465SOL     OW26293   4.711   3.496   1.086
 8465SOL    HW126294   4.672   3.422   1.141
 8465SOL    HW226295   4.800   3.466   1.050
 8466SOL     OW26296   0.489   1.460   5.455
 8466SOL    HW126297   0.584   1.490   5.451
 8466SOL    HW226298   0.476   1.400   5.534
 8467SOL     OW26299   2.846   1.454   1.057
 8467SOL    HW126300   2.849   1.374   0.997
 8467SOL    HW226301   2.879   1.534   1.008
 8468SOL     OW26302   5.350   4.235   0.539
 8468SOL    HW126303   5.381   4.286   0.459
 8468SOL    HW226304   5.304   4.151   0.510
 8469SOL     OW26305   4.141   3.174   5.305
 8469SOL    HW126306   4.061   3.136   5.259
 8469SOL    HW226307   4.207   3.100   5.322
 8470SOL     OW26308   1.377   6.088   1.558
 8470SOL    HW126309   1.423   6.128   1.637
 8470SOL    HW226310   1.445   6.051   1.494
 8471SOL     OW26311   4.489   1.923   4.188
 8471SOL    HW126312   4.531   1.858   4.125
 8471SOL    HW226313   4.411   1.880   4.233
 8472SOL     OW26314   5.405   1.592   6.464
 8472SOL    HW126315   5.452   1.636   6.541
 8472SOL    HW226316   5.307   1.607   6.472
 8473SOL     OW26317   5.458   5.156   5.843
 8473SOL    HW126318   5.383   5.191   5.787
 8473SOL    HW226319   5.432   5.157   5.939
 8474SOL     OW26320   3.022   3.973   5.061
 8474SOL    HW126321   3.054   4.053   5.111
 8474SOL    HW226322   2.974   3.911   5.123
 8475SOL     OW26323   0.073   1.566   3.053
 8475SOL    HW126324   0.130   1.485   3.037
 8475SOL    HW226325   0.108   1.642   2.999
 8476SOL     OW26326   6.275   1.430   1.821
 8476SOL    HW126327   6.291   1.524   1.851
 8476SOL    HW226328   6.177   1.410   1.823
 8477SOL     OW26329   5.510   1.080   0.869
 8477SOL    HW126330   5.567   1.076   0.787
 8477SOL    HW226331   5.559   1.040   0.946
 8478SOL     OW26332   0.878   6.327   5.918
 8478SOL    HW126333   0.957   6.370   5.875
 8478SOL    HW226334   0.905   6.237   5.955
 8479SOL     OW26335   1.317   2.555   0.033
 8479SOL    HW126336   1.267   2.555   0.119
 8479SOL    HW226337   1.330   2.649   0.001
 8480SOL     OW26338   3.280   4.143   0.798
 8480SOL    HW126339   3.247   4.162   0.706
 8480SOL    HW226340   3.256   4.050   0.824
 8481SOL     OW26341   4.490   2.459   2.828
 8481SOL    HW126342   4.521   2.509   2.748
 8481SOL    HW226343   4.483   2.521   2.906
 8482SOL     OW26344   4.418   0.467   6.617
 8482SOL    HW126345   4.400   0.544   6.556
 8482SOL    HW226346   4.383   0.487   6.708
 8483SOL     OW26347   3.994   4.762   3.528
 8483SOL    HW126348   3.898   4.789   3.532
 8483SOL    HW226349   4.052   4.836   3.560
 8484SOL     OW26350   6.340   6.188   5.511
 8484SOL    HW126351   6.364   6.141   5.427
 8484SOL    HW226352   6.362   6.130   5.590
 8485SOL     OW26353   4.209   0.846   5.943
 8485SOL    HW126354   4.220   0.800   5.855
 8485SOL    HW226355   4.124   0.815   5.986
 8486SOL     OW26356   5.887   2.381   4.814
 8486SOL    HW126357   5.874   2.466   4.764
 8486SOL    HW226358   5.983   2.371   4.840
 8487SOL     OW26359   6.904   2.636   6.139
 8487SOL    HW126360   6.991   2.606   6.176
 8487SOL    HW226361   6.834   2.634   6.211
 8488SOL     OW26362   4.316   4.681   2.352
 8488SOL    HW126363   4.254   4.696   2.275
 8488SOL    HW226364   4.392   4.747   2.346
 8489SOL     OW26365   6.392   2.085   2.320
 8489SOL    HW126366   6.305   2.085   2.270
 8489SOL    HW226367   6.374   2.090   2.419
 8490SOL     OW26368   2.860   6.878   0.392
 8490SOL    HW126369   2.922   6.804   0.416
 8490SOL    HW226370   2.891   6.963   0.435
 8491SOL     OW26371   3.427   5.308   2.196
 8491SOL    HW126372   3.527   5.307   2.193
 8491SOL    HW226373   3.397   5.291   2.290
 8492SOL     OW26374   6.516   6.205   4.135
 8492SOL    HW126375   6.511   6.268   4.212
 8492SOL    HW226376   6.494   6.113   4.166
 8493SOL     OW26377   5.166   0.611   5.743
 8493SOL    HW126378   5.120   0.700   5.732
 8493SOL    HW226379   5.165   0.585   5.839
 8494SOL     OW26380   0.277   3.407   1.957
 8494SOL    HW126381   0.249   3.426   2.051
 8494SOL    HW226382   0.296   3.309   1.946
 8495SOL     OW26383   5.861   5.671   6.003
 8495SOL    HW126384   5.862   5.581   5.960
 8495SOL    HW226385   5.901   5.665   6.095
 8496SOL     OW26386   4.884   1.586   2.839
 8496SOL    HW126387   4.847   1.630   2.757
 8496SOL    HW226388   4.864   1.643   2.919
 8497SOL     OW26389   6.583   0.794   2.313
 8497SOL    HW126390   6.671   0.748   2.301
 8497SOL    HW226391   6.520   0.734   2.362
 8498SOL     OW26392   4.690   5.939   4.238
 8498SOL    HW126393   4.667   6.036   4.246
 8498SOL    HW226394   4.645   5.900   4.157
 8499SOL     OW26395   6.089   7.004   5.531
 8499SOL    HW126396   6.111   7.016   5.628
 8499SOL    HW226397   6.000   0.023   5.511
 8500SOL     OW26398   1.065   0.750   6.725
 8500SOL    HW126399   1.108   0.794   6.804
 8500SOL    HW226400   0.999   0.813   6.683
 8501SOL     OW26401   3.395   1.039   5.816
 8501SOL    HW126402   3.303   1.062   5.784
 8501SOL    HW226403   3.422   1.104   5.887
 8502SOL     OW26404   6.384   2.740   0.367
 8502SOL    HW126405   6.427   2.698   0.447
 8502SOL    HW226406   6.297   2.782   0.393
 8503SOL     OW26407   4.926   2.586   5.833
 8503SOL    HW126408   4.864   2.611   5.758
 8503SOL    HW226409   5.020   2.583   5.798
 8504SOL     OW26410   1.549   6.651   2.798
 8504SOL    HW126411   1.458   6.642   2.757
 8504SOL    HW226412   1.591   6.736   2.768
 8505SOL     OW26413   5.699   2.086   3.142
 8505SOL    HW126414   5.711   2.096   3.043
 8505SOL    HW226415   5.612   2.042   3.161
 8506SOL     OW26416   1.521   0.201   6.047
 8506SOL    HW126417   1.529   0.298   6.072
 8506SOL    HW226418   1.588   0.148   6.099
 8507SOL     OW26419   4.159   5.064   5.491
 8507SOL    HW126420   4.215   4.984   5.469
 8507SOL    HW226421   4.179   5.138   5.426
 8508SOL     OW26422   3.536   0.712   6.547
 8508SOL    HW126423   3.468   0.643   6.523
 8508SOL    HW226424   3.523   0.740   6.642
 8509SOL     OW26425   5.055   2.146   2.252
 8509SOL    HW126426   5.074   2.209   2.328
 8509SOL    HW226427   5.139   2.127   2.203
 8510SOL     OW26428   0.683   2.268   4.931
 8510SOL    HW126429   0.757   2.270   4.865
 8510SOL    HW226430   0.606   2.323   4.897
 8511SOL     OW26431   5.720   1.935   3.682
 8511SOL    HW126432   5.784   2.000   3.722
 8511SOL    HW226433   5.741   1.922   3.585
 8512SOL     OW26434   2.061   6.802   5.446
 8512SOL    HW126435   2.073   6.892   5.404
 8512SOL    HW226436   2.008   6.811   5.531
 8513SOL     OW26437   4.466   5.783   6.874
 8513SOL    HW126438   4.510   5.778   6.784
 8513SOL    HW226439   4.426   5.874   6.887
 8514SOL     OW26440   3.322   5.551   4.501
 8514SOL    HW126441   3.406   5.587   4.542
 8514SOL    HW226442   3.311   5.455   4.526
 8515SOL     OW26443   5.873   2.391   2.098
 8515SOL    HW126444   5.814   2.462   2.058
 8515SOL    HW226445   5.933   2.354   2.027
 8516SOL     OW26446   6.472   1.433   2.074
 8516SOL    HW126447   6.430   1.352   2.033
 8516SOL    HW226448   6.568   1.437   2.049
 8517SOL     OW26449   1.447   3.901   5.396
 8517SOL    HW126450   1.404   3.948   5.474
 8517SOL    HW226451   1.435   3.803   5.406
 8518SOL     OW26452   2.865   5.726   0.892
 8518SOL    HW126453   2.771   5.734   0.923
 8518SOL    HW226454   2.905   5.818   0.883
 8519SOL     OW26455   2.491   5.734   3.362
 8519SOL    HW126456   2.546   5.801   3.412
 8519SOL    HW226457   2.527   5.722   3.270
 8520SOL     OW26458   3.293   6.085   6.665
 8520SOL    HW126459   3.290   6.009   6.730
 8520SOL    HW226460   3.282   6.171   6.714
 8521SOL     OW26461   2.115   0.818   2.415
 8521SOL    HW126462   2.137   0.803   2.318
 8521SOL    HW226463   2.196   0.852   2.463
 8522SOL     OW26464   2.199   6.380   4.873
 8522SOL    HW126465   2.187   6.346   4.966
 8522SOL    HW226466   2.182   6.479   4.871
 8523SOL     OW26467   2.162   6.761   6.449
 8523SOL    HW126468   2.124   6.787   6.360
 8523SOL    HW226469   2.225   6.684   6.437
 8524SOL     OW26470   1.995   1.688   0.180
 8524SOL    HW126471   1.912   1.699   0.125
 8524SOL    HW226472   1.970   1.662   0.273
 8525SOL     OW26473   5.468   3.390   4.176
 8525SOL    HW126474   5.396   3.403   4.108
 8525SOL    HW226475   5.478   3.474   4.230
 8526SOL     OW26476   1.500   3.589   1.952
 8526SOL    HW126477   1.460   3.512   2.002
 8526SOL    HW226478   1.518   3.664   2.016
 8527SOL     OW26479   4.705   0.199   4.800
 8527SOL    HW126480   4.682   0.161   4.890
 8527SOL    HW226481   4.800   0.179   4.778
 8528SOL     OW26482   5.497   1.289   0.004
 8528SOL    HW126483   5.456   1.336   6.947
 8528SOL    HW226484   5.456   1.323   0.089
 8529SOL     OW26485   0.046   6.755   5.253
 8529SOL    HW126486   0.049   6.678   5.317
 8529SOL    HW226487   6.983   6.807   5.267
 8530SOL     OW26488   2.182   4.942   5.759
 8530SOL    HW126489   2.127   4.867   5.723
 8530SOL    HW226490   2.122   5.016   5.791
 8531SOL     OW26491   4.060   5.175   1.498
 8531SOL    HW126492   4.091   5.206   1.409
 8531SOL    HW226493   4.067   5.075   1.503
 8532SOL     OW26494   1.329   4.278   0.352
 8532SOL    HW126495   1.389   4.287   0.432
 8532SOL    HW226496   1.285   4.189   0.353
 8533SOL     OW26497   3.479   6.520   5.389
 8533SOL    HW126498   3.423   6.538   5.470
 8533SOL    HW226499   3.539   6.598   5.371
 8534SOL     OW26500   2.274   2.486   0.926
 8534SOL    HW126501   2.268   2.457   1.021
 8534SOL    HW226502   2.265   2.406   0.866
 8535SOL     OW26503   0.410   3.387   5.895
 8535SOL    HW126504   0.499   3.426   5.875
 8535SOL    HW226505   0.352   3.391   5.814
 8536SOL     OW26506   6.168   0.866   5.732
 8536SOL    HW126507   6.079   0.828   5.709
 8536SOL    HW226508   6.156   0.945   5.793
 8537SOL     OW26509   4.309   6.204   3.669
 8537SOL    HW126510   4.380   6.273   3.651
 8537SOL    HW226511   4.305   6.140   3.592
 8538SOL     OW26512   4.840   6.871   5.333
 8538SOL    HW126513   4.915   6.805   5.341
 8538SOL    HW226514   4.776   6.840   5.263
 8539SOL     OW26515   1.074   3.188   2.697
 8539SOL    HW126516   1.004   3.199   2.767
 8539SOL    HW226517   1.155   3.145   2.737
 8540SOL     OW26518   4.481   6.955   6.477
 8540SOL    HW126519   4.406   6.936   6.540
 8540SOL    HW226520   4.493   6.878   6.415
 8541SOL     OW26521   2.913   6.458   5.337
 8541SOL    HW126522   2.866   6.466   5.249
 8541SOL    HW226523   2.845   6.455   5.411
 8542SOL     OW26524   1.164   5.183   5.776
 8542SOL    HW126525   1.163   5.084   5.763
 8542SOL    HW226526   1.208   5.206   5.862
 8543SOL     OW26527   3.315   2.034   5.556
 8543SOL    HW126528   3.284   2.042   5.651
 8543SOL    HW226529   3.268   2.102   5.500
 8544SOL     OW26530   5.984   4.072   5.529
 8544SOL    HW126531   5.911   4.007   5.555
 8544SOL    HW226532   6.058   4.022   5.485
 8545SOL     OW26533   2.783   0.318   6.131
 8545SOL    HW126534   2.731   0.352   6.053
 8545SOL    HW226535   2.798   0.392   6.196
 8546SOL     OW26536   3.294   1.091   3.486
 8546SOL    HW126537   3.352   1.154   3.434
 8546SOL    HW226538   3.244   1.032   3.422
 8547SOL     OW26539   5.286   6.338   6.165
 8547SOL    HW126540   5.323   6.361   6.075
 8547SOL    HW226541   5.234   6.416   6.201
 8548SOL     OW26542   1.338   4.354   4.310
 8548SOL    HW126543   1.278   4.410   4.253
 8548SOL    HW226544   1.433   4.367   4.283
 8549SOL     OW26545   2.892   0.422   3.690
 8549SOL    HW126546   2.852   0.441   3.600
 8549SOL    HW226547   2.840   0.349   3.735
 8550SOL     OW26548   0.458   4.395   5.211
 8550SOL    HW126549   0.504   4.332   5.148
 8550SOL    HW226550   0.359   4.383   5.203
 8551SOL     OW26551   3.735   1.536   4.314
 8551SOL    HW126552   3.819   1.510   4.361
 8551SOL    HW226553   3.680   1.595   4.375
 8552SOL     OW26554   3.575   1.805   2.209
 8552SOL    HW126555   3.538   1.897   2.219
 8552SOL    HW226556   3.502   1.741   2.187
 8553SOL     OW26557   4.818   3.940   0.403
 8553SOL    HW126558   4.838   3.999   0.481
 8553SOL    HW226559   4.887   3.868   0.396
 8554SOL     OW26560   1.537   1.185   6.645
 8554SOL    HW126561   1.553   1.154   6.739
 8554SOL    HW226562   1.443   1.216   6.635
 8555SOL     OW26563   3.359   1.877   3.660
 8555SOL    HW126564   3.272   1.894   3.614
 8555SOL    HW226565   3.343   1.854   3.756
 8556SOL     OW26566   6.981   4.958   5.041
 8556SOL    HW126567   0.022   4.928   5.113
 8556SOL    HW226568   6.888   4.964   5.079
 8557SOL     OW26569   6.611   1.079   0.308
 8557SOL    HW126570   6.601   1.033   0.396
 8557SOL    HW226571   6.708   1.098   0.291
 8558SOL     OW26572   2.669   6.592   3.645
 8558SOL    HW126573   2.591   6.535   3.672
 8558SOL    HW226574   2.639   6.687   3.640
 8559SOL     OW26575   1.463   3.196   2.895
 8559SOL    HW126576   1.469   3.295   2.886
 8559SOL    HW226577   1.369   3.170   2.919
 8560SOL     OW26578   3.430   4.178   1.395
 8560SOL    HW126579   3.380   4.260   1.366
 8560SOL    HW226580   3.381   4.135   1.471
 8561SOL     OW26581   4.303   0.634   2.649
 8561SOL    HW126582   4.392   0.636   2.694
 8561SOL    HW226583   4.285   0.541   2.616
 8562SOL     OW26584   5.244   2.480   6.432
 8562SOL    HW126585   5.150   2.507   6.455
 8562SOL    HW226586   5.293   2.456   6.515
 8563SOL     OW26587   1.744   5.112   2.743
 8563SOL    HW126588   1.747   5.202   2.785
 8563SOL    HW226589   1.772   5.043   2.810
 8564SOL     OW26590   3.559   6.354   0.140
 8564SOL    HW126591   3.599   6.302   0.065
 8564SOL    HW226592   3.632   6.400   0.192
 8565SOL     OW26593   0.802   5.364   1.108
 8565SOL    HW126594   0.747   5.429   1.161
 8565SOL    HW226595   0.744   5.315   1.044
 8566SOL     OW26596   3.572   0.839   3.449
 8566SOL    HW126597   3.631   0.895   3.508
 8566SOL    HW226598   3.498   0.800   3.503
 8567SOL     OW26599   1.749   2.382   1.255
 8567SOL    HW126600   1.662   2.399   1.208
 8567SOL    HW226601   1.731   2.341   1.344
 8568SOL     OW26602   6.051   0.323   5.933
 8568SOL    HW126603   6.024   0.378   5.854
 8568SOL    HW226604   6.127   0.367   5.980
 8569SOL     OW26605   5.130   1.534   6.668
 8569SOL    HW126606   5.038   1.551   6.703
 8569SOL    HW226607   5.124   1.504   6.573
 8570SOL     OW26608   1.709   1.977   3.439
 8570SOL    HW126609   1.805   1.946   3.444
 8570SOL    HW226610   1.658   1.915   3.379
 8571SOL     OW26611   1.389   0.708   3.400
 8571SOL    HW126612   1.393   0.618   3.355
 8571SOL    HW226613   1.305   0.755   3.373
 8572SOL     OW26614   3.194   4.039   5.582
 8572SOL    HW126615   3.269   4.022   5.645
 8572SOL    HW226616   3.113   4.067   5.633
 8573SOL     OW26617   1.430   6.134   5.949
 8573SOL    HW126618   1.337   6.154   5.918
 8573SOL    HW226619   1.452   6.190   6.029
 8574SOL     OW26620   5.659   1.194   5.143
 8574SOL    HW126621   5.737   1.216   5.201
 8574SOL    HW226622   5.581   1.168   5.200
 8575SOL     OW26623   3.239   5.733   4.761
 8575SOL    HW126624   3.190   5.766   4.681
 8575SOL    HW226625   3.313   5.672   4.733
 8576SOL     OW26626   1.287   4.003   5.176
 8576SOL    HW126627   1.340   3.993   5.260
 8576SOL    HW226628   1.251   3.914   5.148
 8577SOL     OW26629   2.015   0.615   0.440
 8577SOL    HW126630   2.093   0.606   0.379
 8577SOL    HW226631   1.995   0.711   0.456
 8578SOL     OW26632   1.008   0.091   5.972
 8578SOL    HW126633   1.093   0.073   6.022
 8578SOL    HW226634   0.930   0.067   6.030
 8579SOL     OW26635   3.709   6.900   2.077
 8579SOL    HW126636   3.806   6.900   2.056
 8579SOL    HW226637   3.686   6.819   2.132
 8580SOL     OW26638   2.761   0.393   1.803
 8580SOL    HW126639   2.806   0.339   1.732
 8580SOL    HW226640   2.784   0.489   1.792
 8581SOL     OW26641   4.099   3.715   2.259
 8581SOL    HW126642   4.137   3.667   2.180
 8581SOL    HW226643   4.051   3.797   2.228
 8582SOL     OW26644   4.584   5.641   5.866
 8582SOL    HW126645   4.613   5.573   5.934
 8582SOL    HW226646   4.485   5.654   5.872
 8583SOL     OW26647   3.520   6.588   2.929
 8583SOL    HW126648   3.572   6.587   2.843
 8583SOL    HW226649   3.560   6.520   2.992
 8584SOL     OW26650   6.281   1.832   5.216
 8584SOL    HW126651   6.279   1.924   5.177
 8584SOL    HW226652   6.266   1.765   5.144
 8585SOL     OW26653   4.650   2.214   2.043
 8585SOL    HW126654   4.744   2.182   2.034
 8585SOL    HW226655   4.650   2.307   2.078
 8586SOL     OW26656   6.446   5.774   5.570
 8586SOL    HW126657   6.424   5.840   5.641
 8586SOL    HW226658   6.486   5.692   5.611
 8587SOL     OW26659   6.947   1.463   0.415
 8587SOL    HW126660   6.925   1.389   0.478
 8587SOL    HW226661   7.006   1.529   0.462
 8588SOL     OW26662   1.618   0.894   5.353
 8588SOL    HW126663   1.711   0.865   5.375
 8588SOL    HW226664   1.575   0.826   5.293
 8589SOL     OW26665   5.493   2.955   6.859
 8589SOL    HW126666   5.467   2.864   6.891
 8589SOL    HW226667   5.464   2.965   6.763
 8590SOL     OW26668   1.582   1.136   3.373
 8590SOL    HW126669   1.513   1.108   3.441
 8590SOL    HW226670   1.642   1.206   3.413
 8591SOL     OW26671   0.910   4.006   4.856
 8591SOL    HW126672   0.915   3.907   4.854
 8591SOL    HW226673   0.866   4.036   4.940
 8592SOL     OW26674   0.082   2.180   4.628
 8592SOL    HW126675   0.136   2.263   4.631
 8592SOL    HW226676   7.008   2.202   4.607
 8593SOL     OW26677   6.327   1.621   0.605
 8593SOL    HW126678   6.336   1.607   0.507
 8593SOL    HW226679   6.230   1.632   0.629
 8594SOL     OW26680   5.955   4.169   6.427
 8594SOL    HW126681   5.871   4.222   6.438
 8594SOL    HW226682   5.950   4.115   6.343
 8595SOL     OW26683   5.217   6.174   2.862
 8595SOL    HW126684   5.271   6.151   2.781
 8595SOL    HW226685   5.232   6.269   2.887
 8596SOL     OW26686   1.011   2.269   5.819
 8596SOL    HW126687   1.005   2.368   5.807
 8596SOL    HW226688   1.054   2.248   5.907
 8597SOL     OW26689   5.990   2.163   5.910
 8597SOL    HW126690   5.938   2.113   5.980
 8597SOL    HW226691   6.087   2.143   5.921
 8598SOL     OW26692   6.705   0.979   6.009
 8598SOL    HW126693   6.798   1.011   5.991
 8598SOL    HW226694   6.648   1.055   6.039
 8599SOL     OW26695   5.842   3.875   5.179
 8599SOL    HW126696   5.752   3.891   5.138
 8599SOL    HW226697   5.869   3.954   5.233
 8600SOL     OW26698   4.369   2.637   1.249
 8600SOL    HW126699   4.376   2.619   1.347
 8600SOL    HW226700   4.278   2.670   1.227
 8601SOL     OW26701   5.039   5.569   2.642
 8601SOL    HW126702   5.003   5.651   2.687
 8601SOL    HW226703   5.118   5.594   2.586
 8602SOL     OW26704   1.577   0.363   5.590
 8602SOL    HW126705   1.612   0.419   5.515
 8602SOL    HW226706   1.478   0.378   5.600
 8603SOL     OW26707   0.593   1.093   6.481
 8603SOL    HW126708   0.624   1.117   6.389
 8603SOL    HW226709   0.672   1.073   6.538
 8604SOL     OW26710   1.729   5.483   6.185
 8604SOL    HW126711   1.777   5.397   6.174
 8604SOL    HW226712   1.766   5.533   6.263
 8605SOL     OW26713   6.587   4.214   3.829
 8605SOL    HW126714   6.679   4.198   3.866
 8605SOL    HW226715   6.565   4.141   3.763
 8606SOL     OW26716   1.275   0.632   6.591
 8606SOL    HW126717   1.207   0.684   6.642
 8606SOL    HW226718   1.272   0.536   6.619
 8607SOL     OW26719   2.877   3.018   1.058
 8607SOL    HW126720   2.894   3.108   1.018
 8607SOL    HW226721   2.948   2.954   1.028
 8608SOL     OW26722   1.780   6.421   1.922
 8608SOL    HW126723   1.847   6.354   1.890
 8608SOL    HW226724   1.697   6.375   1.951
 8609SOL     OW26725   5.632   2.436   4.919
 8609SOL    HW126726   5.598   2.394   5.003
 8609SOL    HW226727   5.725   2.404   4.901
 8610SOL     OW26728   6.808   5.287   2.412
 8610SOL    HW126729   6.800   5.187   2.416
 8610SOL    HW226730   6.719   5.329   2.429
 8611SOL     OW26731   2.150   1.400   5.067
 8611SOL    HW126732   2.113   1.471   5.127
 8611SOL    HW226733   2.157   1.314   5.118
 8612SOL     OW26734   3.598   3.156   5.006
 8612SOL    HW126735   3.644   3.111   4.929
 8612SOL    HW226736   3.517   3.104   5.032
 8613SOL     OW26737   3.749   2.956   3.580
 8613SOL    HW126738   3.733   3.039   3.527
 8613SOL    HW226739   3.700   2.880   3.537
 8614SOL     OW26740   0.877   2.150   3.567
 8614SOL    HW126741   0.968   2.176   3.533
 8614SOL    HW226742   0.858   2.200   3.652
 8615SOL     OW26743   3.848   1.332   5.477
 8615SOL    HW126744   3.801   1.334   5.565
 8615SOL    HW226745   3.917   1.405   5.474
 8616SOL     OW26746   5.711   4.347   5.293
 8616SOL    HW126747   5.681   4.355   5.198
 8616SOL    HW226748   5.753   4.433   5.323
 8617SOL     OW26749   1.470   6.712   3.041
 8617SOL    HW126750   1.522   6.657   2.975
 8617SOL    HW226751   1.397   6.761   2.993
 8618SOL     OW26752   5.489   4.135   0.731
 8618SOL    HW126753   5.436   4.176   0.657
 8618SOL    HW226754   5.547   4.062   0.694
 8619SOL     OW26755   5.167   5.501   0.463
 8619SOL    HW126756   5.126   5.473   0.376
 8619SOL    HW226757   5.124   5.451   0.538
 8620SOL     OW26758   1.474   6.593   3.850
 8620SOL    HW126759   1.570   6.567   3.847
 8620SOL    HW226760   1.418   6.512   3.868
 8621SOL     OW26761   6.282   3.854   1.763
 8621SOL    HW126762   6.192   3.815   1.779
 8621SOL    HW226763   6.348   3.812   1.825
 8622SOL     OW26764   0.867   5.686   1.303
 8622SOL    HW126765   0.801   5.673   1.377
 8622SOL    HW226766   0.938   5.615   1.309
 8623SOL     OW26767   1.977   1.910   3.354
 8623SOL    HW126768   1.956   1.883   3.260
 8623SOL    HW226769   2.015   2.002   3.354
 8624SOL     OW26770   3.241   3.937   5.330
 8624SOL    HW126771   3.206   3.953   5.422
 8624SOL    HW226772   3.247   4.024   5.280
 8625SOL     OW26773   4.459   3.697   6.059
 8625SOL    HW126774   4.445   3.646   5.974
 8625SOL    HW226775   4.542   3.664   6.104
 8626SOL     OW26776   4.740   1.856   1.660
 8626SOL    HW126777   4.725   1.949   1.627
 8626SOL    HW226778   4.655   1.819   1.697
 8627SOL     OW26779   1.453   0.063   2.879
 8627SOL    HW126780   1.477   0.034   2.786
 8627SOL    HW226781   1.363   0.105   2.878
 8628SOL     OW26782   1.564   6.943   0.998
 8628SOL    HW126783   1.652   6.895   1.004
 8628SOL    HW226784   1.491   6.882   1.027
 8629SOL     OW26785   0.130   6.875   4.743
 8629SOL    HW126786   0.164   6.850   4.833
 8629SOL    HW226787   0.062   6.808   4.713
 8630SOL     OW26788   4.801   2.502   1.715
 8630SOL    HW126789   4.734   2.541   1.778
 8630SOL    HW226790   4.790   2.403   1.712
 8631SOL     OW26791   1.940   6.388   6.161
 8631SOL    HW126792   2.024   6.357   6.206
 8631SOL    HW226793   1.957   6.477   6.119
 8632SOL     OW26794   6.158   5.676   4.003
 8632SOL    HW126795   6.110   5.754   3.962
 8632SOL    HW226796   6.172   5.692   4.100
 8633SOL     OW26797   6.407   3.557   5.693
 8633SOL    HW126798   6.475   3.628   5.676
 8633SOL    HW226799   6.331   3.595   5.747
 8634SOL     OW26800   5.320   5.156   6.504
 8634SOL    HW126801   5.277   5.067   6.492
 8634SOL    HW226802   5.408   5.145   6.551
 8635SOL     OW26803   4.844   2.487   6.791
 8635SOL    HW126804   4.844   2.573   6.741
 8635SOL    HW226805   4.819   2.503   6.886
 8636SOL     OW26806   3.892   6.048   1.830
 8636SOL    HW126807   3.977   6.092   1.801
 8636SOL    HW226808   3.840   6.020   1.750
 8637SOL     OW26809   2.468   2.476   0.329
 8637SOL    HW126810   2.502   2.382   0.339
 8637SOL    HW226811   2.370   2.474   0.311
 8638SOL     OW26812   4.969   2.726   4.771
 8638SOL    HW126813   4.900   2.733   4.844
 8638SOL    HW226814   5.058   2.708   4.812
 8639SOL     OW26815   2.961   4.666   0.078
 8639SOL    HW126816   2.899   4.723   0.024
 8639SOL    HW226817   2.997   4.718   0.155
 8640SOL     OW26818   3.862   2.504   0.486
 8640SOL    HW126819   3.798   2.500   0.410
 8640SOL    HW226820   3.955   2.493   0.453
 8641SOL     OW26821   3.134   4.841   3.268
 8641SOL    HW126822   3.048   4.870   3.311
 8641SOL    HW226823   3.166   4.757   3.312
 8642SOL     OW26824   2.265   5.997   3.108
 8642SOL    HW126825   2.178   5.961   3.076
 8642SOL    HW226826   2.284   5.962   3.200
 8643SOL     OW26827   3.759   6.381   1.507
 8643SOL    HW126828   3.828   6.406   1.439
 8643SOL    HW226829   3.710   6.300   1.475
 8644SOL     OW26830   5.766   2.982   6.168
 8644SOL    HW126831   5.724   2.891   6.169
 8644SOL    HW226832   5.840   2.985   6.236
 8645SOL     OW26833   4.989   4.969   2.571
 8645SOL    HW126834   5.013   4.874   2.590
 8645SOL    HW226835   4.924   4.974   2.496
 8646SOL     OW26836   0.174   2.354   5.040
 8646SOL    HW126837   0.086   2.365   5.086
 8646SOL    HW226838   0.172   2.271   4.983
 8647SOL     OW26839   2.309   5.246   1.791
 8647SOL    HW126840   2.242   5.223   1.861
 8647SOL    HW226841   2.400   5.218   1.821
 8648SOL     OW26842   5.097   5.237   0.340
 8648SOL    HW126843   5.081   5.255   0.243
 8648SOL    HW226844   5.066   5.145   0.363
 8649SOL     OW26845   5.475   1.767   1.361
 8649SOL    HW126846   5.428   1.692   1.408
 8649SOL    HW226847   5.564   1.736   1.329
 8650SOL     OW26848   2.265   0.808   5.565
 8650SOL    HW126849   2.212   0.833   5.646
 8650SOL    HW226850   2.297   0.713   5.574
 8651SOL     OW26851   4.138   1.942   1.972
 8651SOL    HW126852   4.062   2.007   1.967
 8651SOL    HW226853   4.225   1.990   1.961
 8652SOL     OW26854   6.901   2.256   4.249
 8652SOL    HW126855   7.000   2.266   4.261
 8652SOL    HW226856   6.882   2.169   4.203
 8653SOL     OW26857   5.713   1.443   0.078
 8653SOL    HW126858   5.647   1.372   0.053
 8653SOL    HW226859   5.768   1.411   0.155
 8654SOL     OW26860   0.570   4.984   2.839
 8654SOL    HW126861   0.660   5.027   2.838
 8654SOL    HW226862   0.540   4.971   2.934
 8655SOL     OW26863   1.070   6.965   4.693
 8655SOL    HW126864   1.142   7.022   4.734
 8655SOL    HW226865   0.984   7.017   4.690
 8656SOL     OW26866   4.073   5.935   1.113
 8656SOL    HW126867   4.128   5.888   1.044
 8656SOL    HW226868   4.037   6.020   1.075
 8657SOL     OW26869   3.150   1.533   2.875
 8657SOL    HW126870   3.120   1.628   2.886
 8657SOL    HW226871   3.195   1.502   2.959
 8658SOL     OW26872   6.348   3.784   1.092
 8658SOL    HW126873   6.400   3.799   1.008
 8658SOL    HW226874   6.315   3.872   1.127
 8659SOL     OW26875   3.961   0.647   3.197
 8659SOL    HW126876   4.052   0.674   3.229
 8659SOL    HW226877   3.970   0.580   3.123
 8660SOL     OW26878   0.150   3.726   1.530
 8660SOL    HW126879   0.201   3.792   1.476
 8660SOL    HW226880   0.128   3.765   1.619
 8661SOL     OW26881   6.105   3.740   2.497
 8661SOL    HW126882   6.195   3.723   2.537
 8661SOL    HW226883   6.070   3.828   2.530
 8662SOL     OW26884   1.508   2.214   2.451
 8662SOL    HW126885   1.420   2.242   2.411
 8662SOL    HW226886   1.565   2.295   2.465
 8663SOL     OW26887   3.413   4.864   2.817
 8663SOL    HW126888   3.364   4.882   2.902
 8663SOL    HW226889   3.353   4.879   2.739
 8664SOL     OW26890   3.215   6.231   4.259
 8664SOL    HW126891   3.131   6.264   4.302
 8664SOL    HW226892   3.294   6.280   4.297
 8665SOL     OW26893   6.158   4.144   6.680
 8665SOL    HW126894   6.171   4.242   6.696
 8665SOL    HW226895   6.086   4.130   6.613
 8666SOL     OW26896   4.780   0.785   2.985
 8666SOL    HW126897   4.796   0.785   3.084
 8666SOL    HW226898   4.702   0.726   2.964
 8667SOL     OW26899   5.273   2.206   2.051
 8667SOL    HW126900   5.359   2.156   2.045
 8667SOL    HW226901   5.264   2.266   1.971
 8668SOL     OW26902   4.540   2.012   4.438
 8668SOL    HW126903   4.533   1.965   4.351
 8668SOL    HW226904   4.636   2.016   4.467
 8669SOL     OW26905   0.115   6.017   6.058
 8669SOL    HW126906   0.032   6.072   6.066
 8669SOL    HW226907   0.103   5.931   6.108
 8670SOL     OW26908   0.331   5.501   5.426
 8670SOL    HW126909   0.335   5.447   5.509
 8670SOL    HW226910   0.424   5.525   5.397
 8671SOL     OW26911   6.932   2.770   3.633
 8671SOL    HW126912   6.992   2.773   3.553
 8671SOL    HW226913   6.953   2.688   3.687
 8672SOL     OW26914   6.689   1.241   2.300
 8672SOL    HW126915   6.758   1.214   2.367
 8672SOL    HW226916   6.623   1.303   2.342
 8673SOL     OW26917   1.007   1.122   1.649
 8673SOL    HW126918   0.996   1.091   1.744
 8673SOL    HW226919   0.949   1.067   1.589
 8674SOL     OW26920   0.192   3.340   3.395
 8674SOL    HW126921   0.153   3.381   3.478
 8674SOL    HW226922   0.167   3.395   3.316
 8675SOL     OW26923   4.518   2.775   5.394
 8675SOL    HW126924   4.479   2.752   5.305
 8675SOL    HW226925   4.606   2.820   5.380
 8676SOL     OW26926   4.436   2.149   0.663
 8676SOL    HW126927   4.437   2.211   0.741
 8676SOL    HW226928   4.359   2.086   0.671
 8677SOL     OW26929   2.762   0.398   0.181
 8677SOL    HW126930   2.809   0.371   0.265
 8677SOL    HW226931   2.672   0.354   0.177
 8678SOL     OW26932   3.102   2.101   0.343
 8678SOL    HW126933   3.133   2.058   0.428
 8678SOL    HW226934   3.020   2.054   0.311
 8679SOL     OW26935   1.578   1.722   6.572
 8679SOL    HW126936   1.594   1.804   6.627
 8679SOL    HW226937   1.555   1.645   6.632
 8680SOL     OW26938   0.047   0.532   0.966
 8680SOL    HW126939   7.013   0.597   0.914
 8680SOL    HW226940   0.111   0.582   1.025
 8681SOL     OW26941   5.608   4.774   1.051
 8681SOL    HW126942   5.540   4.766   1.124
 8681SOL    HW226943   5.581   4.848   0.989
 8682SOL     OW26944   2.629   1.051   3.006
 8682SOL    HW126945   2.537   1.014   3.014
 8682SOL    HW226946   2.695   0.985   3.041
 8683SOL     OW26947   2.459   4.517   3.683
 8683SOL    HW126948   2.548   4.545   3.721
 8683SOL    HW226949   2.417   4.450   3.744
 8684SOL     OW26950   2.083   4.032   3.321
 8684SOL    HW126951   2.134   4.096   3.377
 8684SOL    HW226952   2.097   3.939   3.356
 8685SOL     OW26953   5.101   3.643   4.982
 8685SOL    HW126954   5.002   3.644   4.973
 8685SOL    HW226955   5.143   3.646   4.891
 8686SOL     OW26956   1.110   5.046   2.908
 8686SOL    HW126957   1.152   4.962   2.874
 8686SOL    HW226958   1.179   5.105   2.949
 8687SOL     OW26959   5.537   4.624   5.436
 8687SOL    HW126960   5.489   4.541   5.405
 8687SOL    HW226961   5.556   4.617   5.533
 8688SOL     OW26962   0.728   4.004   4.356
 8688SOL    HW126963   0.797   4.067   4.391
 8688SOL    HW226964   0.719   3.926   4.418
 8689SOL     OW26965   4.637   3.291   1.231
 8689SOL    HW126966   4.643   3.306   1.330
 8689SOL    HW226967   4.690   3.210   1.206
 8690SOL     OW26968   0.885   1.936   1.718
 8690SOL    HW126969   0.973   1.889   1.722
 8690SOL    HW226970   0.837   1.925   1.805
 8691SOL     OW26971   3.513   1.928   6.966
 8691SOL    HW126972   3.441   1.890   0.003
 8691SOL    HW226973   3.496   2.025   6.951
 8692SOL     OW26974   5.222   2.359   4.662
 8692SOL    HW126975   5.158   2.293   4.700
 8692SOL    HW226976   5.172   2.429   4.611
 8693SOL     OW26977   0.310   0.236   5.454
 8693SOL    HW126978   0.356   0.237   5.543
 8693SOL    HW226979   0.300   0.329   5.420
 8694SOL     OW26980   4.235   3.757   5.839
 8694SOL    HW126981   4.136   3.751   5.852
 8694SOL    HW226982   4.266   3.679   5.786
 8695SOL     OW26983   3.691   4.914   0.953
 8695SOL    HW126984   3.621   4.843   0.961
 8695SOL    HW226985   3.748   4.896   0.873
 8696SOL     OW26986   2.734   6.090   6.539
 8696SOL    HW126987   2.741   6.135   6.628
 8696SOL    HW226988   2.789   6.007   6.538
 8697SOL     OW26989   1.365   3.613   4.948
 8697SOL    HW126990   1.382   3.616   4.850
 8697SOL    HW226991   1.374   3.519   4.981
 8698SOL     OW26992   5.148   4.000   0.261
 8698SOL    HW126993   5.128   3.902   0.260
 8698SOL    HW226994   5.169   4.028   0.354
 8699SOL     OW26995   2.481   2.106   0.985
 8699SOL    HW126996   2.424   2.161   0.925
 8699SOL    HW226997   2.577   2.132   0.972
 8700SOL     OW26998   0.151   1.825   4.476
 8700SOL    HW126999   0.106   1.784   4.556
 8700SOL    HW227000   0.204   1.905   4.504
 8701SOL     OW27001   1.872   3.652   6.682
 8701SOL    HW127002   1.856   3.751   6.690
 8701SOL    HW227003   1.814   3.614   6.610
 8702SOL     OW27004   5.729   4.151   1.500
 8702SOL    HW127005   5.633   4.140   1.474
 8702SOL    HW227006   5.741   4.238   1.549
 8703SOL     OW27007   2.013   5.745   2.225
 8703SOL    HW127008   2.095   5.688   2.227
 8703SOL    HW227009   1.984   5.766   2.318
 8704SOL     OW27010   6.640   1.477   4.258
 8704SOL    HW127011   6.602   1.387   4.278
 8704SOL    HW227012   6.601   1.512   4.173
 8705SOL     OW27013   3.686   2.179   0.680
 8705SOL    HW127014   3.661   2.224   0.766
 8705SOL    HW227015   3.649   2.086   0.680
 8706SOL     OW27016   4.663   2.972   6.180
 8706SOL    HW127017   4.746   2.918   6.170
 8706SOL    HW227018   4.687   3.069   6.190
 8707SOL     OW27019   0.947   0.777   3.953
 8707SOL    HW127020   0.979   0.863   3.914
 8707SOL    HW227021   0.854   0.789   3.989
 8708SOL     OW27022   5.705   2.535   0.594
 8708SOL    HW127023   5.769   2.549   0.518
 8708SOL    HW227024   5.715   2.611   0.659
 8709SOL     OW27025   6.779   5.969   3.627
 8709SOL    HW127026   6.689   6.010   3.616
 8709SOL    HW227027   6.834   6.027   3.688
 8710SOL     OW27028   2.445   2.561   3.787
 8710SOL    HW127029   2.492   2.481   3.750
 8710SOL    HW227030   2.423   2.624   3.712
 8711SOL     OW27031   2.074   1.251   2.049
 8711SOL    HW127032   2.143   1.222   2.116
 8711SOL    HW227033   1.999   1.297   2.096
 8712SOL     OW27034   1.818   3.795   4.328
 8712SOL    HW127035   1.823   3.893   4.309
 8712SOL    HW227036   1.738   3.756   4.283
 8713SOL     OW27037   0.305   3.818   2.458
 8713SOL    HW127038   0.362   3.823   2.540
 8713SOL    HW227039   0.351   3.761   2.390
 8714SOL     OW27040   6.503   4.129   6.381
 8714SOL    HW127041   6.475   4.081   6.464
 8714SOL    HW227042   6.536   4.062   6.314
 8715SOL     OW27043   2.476   5.340   0.708
 8715SOL    HW127044   2.458   5.294   0.795
 8715SOL    HW227045   2.574   5.343   0.692
 8716SOL     OW27046   6.031   0.219   2.398
 8716SOL    HW127047   6.126   0.225   2.369
 8716SOL    HW227048   6.000   0.309   2.429
 8717SOL     OW27049   3.204   2.001   0.838
 8717SOL    HW127050   3.255   2.057   0.903
 8717SOL    HW227051   3.200   1.906   0.871
 8718SOL     OW27052   2.691   5.554   6.254
 8718SOL    HW127053   2.668   5.599   6.168
 8718SOL    HW227054   2.674   5.456   6.246
 8719SOL     OW27055   2.910   1.652   4.961
 8719SOL    HW127056   2.914   1.730   4.899
 8719SOL    HW227057   2.958   1.675   5.046
 8720SOL     OW27058   0.619   6.026   4.869
 8720SOL    HW127059   0.669   5.969   4.934
 8720SOL    HW227060   0.626   6.122   4.896
 8721SOL     OW27061   1.404   0.603   1.122
 8721SOL    HW127062   1.453   0.527   1.080
 8721SOL    HW227063   1.343   0.644   1.054
 8722SOL     OW27064   3.830   1.307   0.383
 8722SOL    HW127065   3.854   1.229   0.325
 8722SOL    HW227066   3.894   1.382   0.366
 8723SOL     OW27067   4.076   6.382   2.959
 8723SOL    HW127068   4.082   6.284   2.978
 8723SOL    HW227069   3.981   6.412   2.965
 8724SOL     OW27070   3.167   1.189   5.236
 8724SOL    HW127071   3.243   1.131   5.266
 8724SOL    HW227072   3.167   1.195   5.137
 8725SOL     OW27073   0.452   0.876   2.462
 8725SOL    HW127074   0.358   0.844   2.459
 8725SOL    HW227075   0.483   0.880   2.558
 8726SOL     OW27076   6.694   1.450   0.615
 8726SOL    HW127077   6.739   1.371   0.575
 8726SOL    HW227078   6.618   1.479   0.556
 8727SOL     OW27079   4.896   5.496   6.761
 8727SOL    HW127080   4.959   5.424   6.733
 8727SOL    HW227081   4.935   5.585   6.737
 8728SOL     OW27082   6.096   5.956   4.246
 8728SOL    HW127083   6.006   5.913   4.260
 8728SOL    HW227084   6.167   5.886   4.252
 8729SOL     OW27085   5.485   6.102   6.086
 8729SOL    HW127086   5.423   6.076   6.160
 8729SOL    HW227087   5.526   6.191   6.107
 8730SOL     OW27088   3.942   4.693   1.832
 8730SOL    HW127089   4.013   4.645   1.780
 8730SOL    HW227090   3.966   4.693   1.929
 8731SOL     OW27091   0.196   2.313   3.879
 8731SOL    HW127092   0.240   2.377   3.815
 8731SOL    HW227093   0.210   2.345   3.973
 8732SOL     OW27094   5.373   6.289   5.452
 8732SOL    HW127095   5.408   6.378   5.424
 8732SOL    HW227096   5.375   6.226   5.375
 8733SOL     OW27097   6.752   4.423   2.001
 8733SOL    HW127098   6.795   4.408   2.090
 8733SOL    HW227099   6.779   4.350   1.938
 8734SOL     OW27100   1.032   4.930   0.657
 8734SOL    HW127101   1.041   5.013   0.603
 8734SOL    HW227102   1.096   4.933   0.733
 8735SOL     OW27103   1.014   3.174   6.091
 8735SOL    HW127104   1.002   3.273   6.091
 8735SOL    HW227105   1.040   3.143   6.183
 8736SOL     OW27106   1.778   6.233   3.380
 8736SOL    HW127107   1.816   6.325   3.373
 8736SOL    HW227108   1.689   6.230   3.333
 8737SOL     OW27109   0.051   5.582   6.560
 8737SOL    HW127110   0.081   5.515   6.627
 8737SOL    HW227111   6.973   5.588   6.561
 8738SOL     OW27112   2.134   2.884   2.185
 8738SOL    HW127113   2.206   2.816   2.192
 8738SOL    HW227114   2.135   2.942   2.267
 8739SOL     OW27115   4.886   4.484   2.542
 8739SOL    HW127116   4.797   4.440   2.531
 8739SOL    HW227117   4.958   4.424   2.507
 8740SOL     OW27118   2.773   1.350   3.280
 8740SOL    HW127119   2.858   1.372   3.232
 8740SOL    HW227120   2.710   1.306   3.217
 8741SOL     OW27121   1.247   1.940   2.217
 8741SOL    HW127122   1.314   1.868   2.200
 8741SOL    HW227123   1.292   2.018   2.261
 8742SOL     OW27124   1.916   3.006   1.888
 8742SOL    HW127125   2.001   3.034   1.932
 8742SOL    HW227126   1.929   2.916   1.846
 8743SOL     OW27127   1.139   3.694   6.697
 8743SOL    HW127128   1.066   3.631   6.671
 8743SOL    HW227129   1.156   3.758   6.623
 8744SOL     OW27130   3.182   3.879   6.159
 8744SOL    HW127131   3.158   3.972   6.186
 8744SOL    HW227132   3.262   3.882   6.099
 8745SOL     OW27133   5.774   1.744   6.305
 8745SOL    HW127134   5.760   1.837   6.338
 8745SOL    HW227135   5.699   1.718   6.245
 8746SOL     OW27136   4.293   4.816   4.700
 8746SOL    HW127137   4.301   4.912   4.670
 8746SOL    HW227138   4.269   4.813   4.797
 8747SOL     OW27139   0.894   0.008   2.494
 8747SOL    HW127140   0.901   6.946   2.439
 8747SOL    HW227141   0.941   0.082   2.447
 8748SOL     OW27142   6.046   1.570   4.073
 8748SOL    HW127143   5.994   1.609   3.996
 8748SOL    HW227144   6.122   1.630   4.095
 8749SOL     OW27145   2.803   2.088   4.260
 8749SOL    HW127146   2.902   2.075   4.263
 8749SOL    HW227147   2.765   2.040   4.181
 8750SOL     OW27148   4.355   3.765   0.996
 8750SOL    HW127149   4.301   3.683   1.015
 8750SOL    HW227150   4.294   3.841   0.975
 8751SOL     OW27151   2.100   0.285   0.494
 8751SOL    HW127152   2.105   0.371   0.443
 8751SOL    HW227153   2.039   0.221   0.448
 8752SOL     OW27154   7.014   3.260   6.171
 8752SOL    HW127155   6.947   3.328   6.202
 8752SOL    HW227156   0.056   3.302   6.107
 8753SOL     OW27157   2.122   2.039   1.180
 8753SOL    HW127158   2.204   2.095   1.191
 8753SOL    HW227159   2.099   2.033   1.083
 8754SOL     OW27160   1.189   6.081   6.174
 8754SOL    HW127161   1.225   5.994   6.141
 8754SOL    HW227162   1.110   6.107   6.119
 8755SOL     OW27163   0.528   2.405   1.856
 8755SOL    HW127164   0.483   2.492   1.875
 8755SOL    HW227165   0.627   2.418   1.856
 8756SOL     OW27166   1.757   1.724   2.236
 8756SOL    HW127167   1.746   1.691   2.142
 8756SOL    HW227168   1.788   1.819   2.235
 8757SOL     OW27169   5.674   5.987   4.578
 8757SOL    HW127170   5.641   6.075   4.614
 8757SOL    HW227171   5.636   5.972   4.487
 8758SOL     OW27172   3.656   5.317   6.230
 8758SOL    HW127173   3.624   5.410   6.211
 8758SOL    HW227174   3.643   5.260   6.148
 8759SOL     OW27175   6.461   1.223   1.775
 8759SOL    HW127176   6.422   1.135   1.803
 8759SOL    HW227177   6.389   1.292   1.771
 8760SOL     OW27178   1.975   2.487   4.631
 8760SOL    HW127179   2.056   2.456   4.581
 8760SOL    HW227180   1.998   2.498   4.728
 8761SOL     OW27181   4.570   2.639   3.153
 8761SOL    HW127182   4.550   2.651   3.250
 8761SOL    HW227183   4.606   2.547   3.137
 8762SOL     OW27184   4.449   6.293   3.262
 8762SOL    HW127185   4.420   6.269   3.169
 8762SOL    HW227186   4.414   6.384   3.284
 8763SOL     OW27187   6.792   1.526   5.361
 8763SOL    HW127188   6.778   1.481   5.273
 8763SOL    HW227189   6.704   1.534   5.408
 8764SOL     OW27190   3.619   4.907   5.896
 8764SOL    HW127191   3.596   4.811   5.915
 8764SOL    HW227192   3.673   4.913   5.812
 8765SOL     OW27193   4.677   6.741   4.188
 8765SOL    HW127194   4.583   6.708   4.195
 8765SOL    HW227195   4.723   6.695   4.112
 8766SOL     OW27196   5.945   0.159   4.763
 8766SOL    HW127197   5.855   0.120   4.746
 8766SOL    HW227198   5.935   0.252   4.799
 8767SOL     OW27199   1.727   0.944   4.851
 8767SOL    HW127200   1.676   0.902   4.775
 8767SOL    HW227201   1.784   0.875   4.895
 8768SOL     OW27202   6.430   1.935   0.830
 8768SOL    HW127203   6.458   1.955   0.924
 8768SOL    HW227204   6.510   1.910   0.775
 8769SOL     OW27205   6.367   6.676   6.096
 8769SOL    HW127206   6.302   6.617   6.047
 8769SOL    HW227207   6.456   6.670   6.051
 8770SOL     OW27208   4.738   1.584   0.019
 8770SOL    HW127209   4.826   1.539   0.032
 8770SOL    HW227210   4.751   1.683   0.019
 8771SOL     OW27211   0.607   2.292   6.365
 8771SOL    HW127212   0.626   2.381   6.322
 8771SOL    HW227213   0.623   2.219   6.299
 8772SOL     OW27214   0.849   6.768   3.639
 8772SOL    HW127215   0.818   6.861   3.620
 8772SOL    HW227216   0.933   6.772   3.694
 8773SOL     OW27217   6.992   1.288   3.773
 8773SOL    HW127218   0.065   1.304   3.801
 8773SOL    HW227219   6.931   1.347   3.825
 8774SOL     OW27220   1.440   1.968   6.901
 8774SOL    HW127221   1.509   1.963   6.829
 8774SOL    HW227222   1.398   2.058   6.901
 8775SOL     OW27223   5.301   2.278   2.779
 8775SOL    HW127224   5.318   2.210   2.708
 8775SOL    HW227225   5.241   2.240   2.849
 8776SOL     OW27226   4.965   2.676   1.596
 8776SOL    HW127227   4.920   2.765   1.587
 8776SOL    HW227228   4.900   2.609   1.632
 8777SOL     OW27229   6.619   2.239   3.854
 8777SOL    HW127230   6.647   2.149   3.820
 8777SOL    HW227231   6.560   2.227   3.934
 8778SOL     OW27232   2.369   3.769   6.946
 8778SOL    HW127233   2.456   3.725   6.923
 8778SOL    HW227234   2.384   3.838   7.016
 8779SOL     OW27235   3.973   5.957   3.518
 8779SOL    HW127236   3.881   5.996   3.523
 8779SOL    HW227237   3.973   5.880   3.454
 8780SOL     OW27238   1.131   3.962   4.069
 8780SOL    HW127239   1.190   3.883   4.049
 8780SOL    HW227240   1.094   3.998   3.983
 8781SOL     OW27241   3.541   1.825   1.720
 8781SOL    HW127242   3.446   1.813   1.693
 8781SOL    HW227243   3.548   1.900   1.785
 8782SOL     OW27244   6.811   2.443   0.493
 8782SOL    HW127245   6.901   2.432   0.450
 8782SOL    HW227246   6.820   2.497   0.576
 8783SOL     OW27247   3.899   3.826   5.289
 8783SOL    HW127248   3.887   3.907   5.232
 8783SOL    HW227249   3.858   3.841   5.379
 8784SOL     OW27250   4.426   0.855   6.632
 8784SOL    HW127251   4.409   0.784   6.564
 8784SOL    HW227252   4.339   0.882   6.674
 8785SOL     OW27253   0.027   5.802   6.184
 8785SOL    HW127254   6.999   5.763   6.261
 8785SOL    HW227255   0.044   5.730   6.116
 8786SOL     OW27256   5.521   2.400   3.295
 8786SOL    HW127257   5.492   2.347   3.216
 8786SOL    HW227258   5.566   2.341   3.362
 8787SOL     OW27259   3.443   4.904   2.175
 8787SOL    HW127260   3.352   4.893   2.135
 8787SOL    HW227261   3.503   4.951   2.110
 8788SOL     OW27262   0.101   5.856   3.911
 8788SOL    HW127263   0.094   5.841   3.812
 8788SOL    HW227264   0.194   5.886   3.933
 8789SOL     OW27265   1.165   3.416   6.951
 8789SOL    HW127266   1.233   3.349   6.922
 8789SOL    HW227267   1.182   3.503   6.905
 8790SOL     OW27268   4.948   3.017   5.218
 8790SOL    HW127269   4.977   3.107   5.187
 8790SOL    HW227270   4.956   2.952   5.142
 8791SOL     OW27271   4.133   6.559   5.303
 8791SOL    HW127272   4.209   6.624   5.299
 8791SOL    HW227273   4.113   6.537   5.399
 8792SOL     OW27274   5.643   4.927   0.815
 8792SOL    HW127275   5.689   4.868   0.749
 8792SOL    HW227276   5.592   4.998   0.766
 8793SOL     OW27277   6.300   6.832   5.443
 8793SOL    HW127278   6.244   6.911   5.467
 8793SOL    HW227279   6.256   6.748   5.476
 8794SOL     OW27280   0.309   2.100   3.295
 8794SOL    HW127281   0.365   2.170   3.338
 8794SOL    HW227282   0.253   2.054   3.365
 8795SOL     OW27283   1.572   6.895   6.519
 8795SOL    HW127284   1.596   6.990   6.537
 8795SOL    HW227285   1.597   6.839   6.599
 8796SOL     OW27286   5.678   4.386   4.566
 8796SOL    HW127287   5.606   4.321   4.540
 8796SOL    HW227288   5.734   4.407   4.486
 8797SOL     OW27289   4.915   6.250   4.830
 8797SOL    HW127290   4.981   6.277   4.900
 8797SOL    HW227291   4.861   6.330   4.802
 8798SOL     OW27292   1.609   5.977   5.850
 8798SOL    HW127293   1.567   5.895   5.811
 8798SOL    HW227294   1.547   6.018   5.916
 8799SOL     OW27295   1.573   6.387   1.612
 8799SOL    HW127296   1.576   6.474   1.662
 8799SOL    HW227297   1.621   6.317   1.665
 8800SOL     OW27298   6.359   5.709   3.781
 8800SOL    HW127299   6.322   5.728   3.690
 8800SOL    HW227300   6.293   5.655   3.833
 8801SOL     OW27301   4.750   3.694   5.616
 8801SOL    HW127302   4.785   3.741   5.697
 8801SOL    HW227303   4.662   3.651   5.639
 8802SOL     OW27304   1.383   6.337   0.018
 8802SOL    HW127305   1.422   6.364   6.952
 8802SOL    HW227306   1.430   6.254   0.051
 8803SOL     OW27307   5.234   5.248   4.935
 8803SOL    HW127308   5.144   5.206   4.948
 8803SOL    HW227309   5.305   5.179   4.951
 8804SOL     OW27310   1.966   6.739   2.071
 8804SOL    HW127311   1.897   6.681   2.114
 8804SOL    HW227312   1.955   6.736   1.972
 8805SOL     OW27313   5.171   4.689   2.238
 8805SOL    HW127314   5.135   4.759   2.300
 8805SOL    HW227315   5.267   4.709   2.218
 8806SOL     OW27316   1.042   0.983   2.332
 8806SOL    HW127317   1.105   1.061   2.332
 8806SOL    HW227318   1.072   0.916   2.400
 8807SOL     OW27319   6.007   2.288   1.902
 8807SOL    HW127320   5.966   2.243   1.823
 8807SOL    HW227321   6.106   2.270   1.904
 8808SOL     OW27322   1.673   1.467   0.122
 8808SOL    HW127323   1.707   1.458   0.215
 8808SOL    HW227324   1.622   1.552   0.112
 8809SOL     OW27325   0.642   3.688   3.335
 8809SOL    HW127326   0.647   3.642   3.423
 8809SOL    HW227327   0.729   3.677   3.286
 8810SOL     OW27328   6.345   2.376   4.534
 8810SOL    HW127329   6.308   2.464   4.505
 8810SOL    HW227330   6.400   2.337   4.460
 8811SOL     OW27331   3.982   5.180   2.248
 8811SOL    HW127332   3.911   5.135   2.302
 8811SOL    HW227333   3.997   5.130   2.163
 8812SOL     OW27334   5.646   0.535   0.465
 8812SOL    HW127335   5.615   0.508   0.373
 8812SOL    HW227336   5.745   0.532   0.469
 8813SOL     OW27337   1.641   2.808   1.972
 8813SOL    HW127338   1.607   2.845   2.058
 8813SOL    HW227339   1.651   2.881   1.905
 8814SOL     OW27340   5.481   6.881   4.868
 8814SOL    HW127341   5.393   6.845   4.900
 8814SOL    HW227342   5.476   6.896   4.769
 8815SOL     OW27343   5.252   0.969   1.137
 8815SOL    HW127344   5.255   1.031   1.058
 8815SOL    HW227345   5.202   1.012   1.212
 8816SOL     OW27346   6.758   0.301   3.619
 8816SOL    HW127347   6.688   0.266   3.558
 8816SOL    HW227348   6.841   0.246   3.609
 8817SOL     OW27349   1.383   2.190   3.430
 8817SOL    HW127350   1.441   2.263   3.394
 8817SOL    HW227351   1.323   2.157   3.357
 8818SOL     OW27352   1.092   6.196   6.443
 8818SOL    HW127353   1.157   6.243   6.503
 8818SOL    HW227354   1.141   6.135   6.381
 8819SOL     OW27355   4.803   6.234   5.967
 8819SOL    HW127356   4.786   6.204   5.873
 8819SOL    HW227357   4.732   6.197   6.027
 8820SOL     OW27358   3.666   6.717   5.720
 8820SOL    HW127359   3.737   6.788   5.729
 8820SOL    HW227360   3.636   6.712   5.625
 8821SOL     OW27361   0.527   5.188   5.466
 8821SOL    HW127362   0.593   5.263   5.474
 8821SOL    HW227363   0.540   5.141   5.379
 8822SOL     OW27364   6.149   7.017   4.802
 8822SOL    HW127365   6.120   6.939   4.856
 8822SOL    HW227366   6.069   0.036   4.757
 8823SOL     OW27367   4.708   1.914   3.021
 8823SOL    HW127368   4.679   1.870   2.936
 8823SOL    HW227369   4.630   1.959   3.064
 8824SOL     OW27370   1.839   0.193   4.219
 8824SOL    HW127371   1.777   0.123   4.185
 8824SOL    HW227372   1.788   0.278   4.234
 8825SOL     OW27373   0.971   0.002   0.344
 8825SOL    HW127374   1.064   0.039   0.344
 8825SOL    HW227375   0.957   6.966   0.424
 8826SOL     OW27376   0.416   3.815   0.368
 8826SOL    HW127377   0.384   3.741   0.309
 8826SOL    HW227378   0.469   3.776   0.444
 8827SOL     OW27379   4.938   6.356   3.670
 8827SOL    HW127380   4.909   6.260   3.672
 8827SOL    HW227381   4.949   6.389   3.764
 8828SOL     OW27382   5.579   2.541   5.747
 8828SOL    HW127383   5.506   2.473   5.736
 8828SOL    HW227384   5.595   2.557   5.844
 8829SOL     OW27385   6.410   0.875   2.854
 8829SOL    HW127386   6.507   0.865   2.830
 8829SOL    HW227387   6.393   0.969   2.884
 8830SOL     OW27388   3.449   0.858   3.197
 8830SOL    HW127389   3.350   0.877   3.196
 8830SOL    HW227390   3.484   0.868   3.290
 8831SOL     OW27391   0.811   2.829   2.439
 8831SOL    HW127392   0.796   2.913   2.387
 8831SOL    HW227393   0.812   2.751   2.376
 8832SOL     OW27394   5.701   0.424   5.381
 8832SOL    HW127395   5.635   0.349   5.391
 8832SOL    HW227396   5.783   0.403   5.434
 8833SOL     OW27397   4.846   2.677   1.020
 8833SOL    HW127398   4.763   2.621   1.022
 8833SOL    HW227399   4.822   2.770   0.992
 8834SOL     OW27400   5.398   4.683   6.314
 8834SOL    HW127401   5.330   4.614   6.289
 8834SOL    HW227402   5.452   4.706   6.233
 8835SOL     OW27403   6.478   0.941   5.161
 8835SOL    HW127404   6.401   0.878   5.173
 8835SOL    HW227405   6.480   0.974   5.067
 8836SOL     OW27406   4.173   1.148   1.155
 8836SOL    HW127407   4.076   1.128   1.137
 8836SOL    HW227408   4.193   1.242   1.130
 8837SOL     OW27409   4.368   5.279   0.370
 8837SOL    HW127410   4.388   5.312   0.277
 8837SOL    HW227411   4.421   5.196   0.387
 8838SOL     OW27412   1.831   3.938   2.648
 8838SOL    HW127413   1.903   3.968   2.712
 8838SOL    HW227414   1.769   4.014   2.630
 8839SOL     OW27415   4.292   4.785   1.159
 8839SOL    HW127416   4.343   4.700   1.151
 8839SOL    HW227417   4.326   4.852   1.093
 8840SOL     OW27418   0.684   0.540   1.503
 8840SOL    HW127419   0.713   0.619   1.449
 8840SOL    HW227420   0.655   0.571   1.594
 8841SOL     OW27421   3.567   1.172   1.205
 8841SOL    HW127422   3.627   1.252   1.207
 8841SOL    HW227423   3.596   1.111   1.132
 8842SOL     OW27424   3.204   3.341   3.734
 8842SOL    HW127425   3.225   3.299   3.822
 8842SOL    HW227426   3.254   3.427   3.725
 8843SOL     OW27427   2.269   6.150   5.426
 8843SOL    HW127428   2.254   6.051   5.428
 8843SOL    HW227429   2.363   6.170   5.456
 8844SOL     OW27430   3.248   2.964   6.003
 8844SOL    HW127431   3.205   2.882   6.040
 8844SOL    HW227432   3.332   2.983   6.054
 8845SOL     OW27433   0.664   3.618   2.081
 8845SOL    HW127434   0.634   3.606   1.986
 8845SOL    HW227435   0.702   3.533   2.115
 8846SOL     OW27436   5.210   5.276   4.409
 8846SOL    HW127437   5.286   5.262   4.345
 8846SOL    HW227438   5.246   5.286   4.502
 8847SOL     OW27439   0.508   2.081   3.752
 8847SOL    HW127440   0.601   2.117   3.758
 8847SOL    HW227441   0.478   2.049   3.842
 8848SOL     OW27442   6.226   2.287   0.906
 8848SOL    HW127443   6.138   2.241   0.900
 8848SOL    HW227444   6.290   2.246   0.841
 8849SOL     OW27445   3.016   5.305   4.685
 8849SOL    HW127446   2.946   5.376   4.690
 8849SOL    HW227447   2.977   5.216   4.708
 8850SOL     OW27448   2.910   2.391   0.956
 8850SOL    HW127449   2.923   2.462   1.025
 8850SOL    HW227450   2.958   2.308   0.986
 8851SOL     OW27451   0.179   5.257   2.651
 8851SOL    HW127452   0.264   5.306   2.672
 8851SOL    HW227453   0.139   5.223   2.736
 8852SOL     OW27454   5.083   3.386   4.415
 8852SOL    HW127455   5.162   3.326   4.420
 8852SOL    HW227456   5.007   3.337   4.371
 8853SOL     OW27457   4.901   1.845   5.106
 8853SOL    HW127458   4.927   1.940   5.089
 8853SOL    HW227459   4.974   1.799   5.157
 8854SOL     OW27460   2.751   0.987   5.711
 8854SOL    HW127461   2.825   1.028   5.765
 8854SOL    HW227462   2.668   1.042   5.722
 8855SOL     OW27463   6.106   4.974   5.985
 8855SOL    HW127464   6.174   4.901   5.993
 8855SOL    HW227465   6.017   4.933   5.964
 8856SOL     OW27466   5.630   1.143   5.526
 8856SOL    HW127467   5.553   1.140   5.462
 8856SOL    HW227468   5.710   1.180   5.480
 8857SOL     OW27469   2.048   3.449   4.626
 8857SOL    HW127470   2.050   3.549   4.626
 8857SOL    HW227471   2.060   3.415   4.720
 8858SOL     OW27472   0.139   3.373   5.446
 8858SOL    HW127473   0.167   3.278   5.462
 8858SOL    HW227474   0.039   3.380   5.449
 8859SOL     OW27475   2.617   6.572   5.376
 8859SOL    HW127476   2.604   6.473   5.368
 8859SOL    HW227477   2.652   6.593   5.468
 8860SOL     OW27478   2.104   1.817   1.312
 8860SOL    HW127479   2.133   1.730   1.274
 8860SOL    HW227480   2.136   1.892   1.253
 8861SOL     OW27481   2.536   2.512   0.802
 8861SOL    HW127482   2.574   2.605   0.804
 8861SOL    HW227483   2.437   2.516   0.815
 8862SOL     OW27484   6.550   2.052   4.786
 8862SOL    HW127485   6.609   2.021   4.712
 8862SOL    HW227486   6.457   2.064   4.752
 8863SOL     OW27487   1.718   5.863   5.082
 8863SOL    HW127488   1.748   5.912   5.000
 8863SOL    HW227489   1.787   5.795   5.107
 8864SOL     OW27490   2.026   4.124   6.109
 8864SOL    HW127491   2.072   4.094   6.193
 8864SOL    HW227492   2.095   4.138   6.037
 8865SOL     OW27493   3.109   2.272   5.890
 8865SOL    HW127494   3.029   2.221   5.920
 8865SOL    HW227495   3.084   2.327   5.810
 8866SOL     OW27496   5.083   6.756   5.072
 8866SOL    HW127497   5.065   6.855   5.068
 8866SOL    HW227498   4.999   6.706   5.052
 8867SOL     OW27499   6.289   0.725   3.955
 8867SOL    HW127500   6.308   0.770   4.042
 8867SOL    HW227501   6.359   0.750   3.889
 8868SOL     OW27502   5.170   3.732   0.506
 8868SOL    HW127503   5.196   3.652   0.559
 8868SOL    HW227504   5.094   3.709   0.445
 8869SOL     OW27505   3.213   2.085   3.309
 8869SOL    HW127506   3.244   2.160   3.369
 8869SOL    HW227507   3.170   2.014   3.365
 8870SOL     OW27508   4.753   1.093   2.238
 8870SOL    HW127509   4.672   1.146   2.262
 8870SOL    HW227510   4.825   1.155   2.208
 8871SOL     OW27511   1.787   2.306   3.668
 8871SOL    HW127512   1.853   2.240   3.632
 8871SOL    HW227513   1.695   2.278   3.642
 8872SOL     OW27514   0.929   2.242   1.950
 8872SOL    HW127515   0.846   2.209   1.904
 8872SOL    HW227516   0.996   2.167   1.954
 8873SOL     OW27517   6.824   5.729   4.660
 8873SOL    HW127518   6.838   5.806   4.598
 8873SOL    HW227519   6.899   5.725   4.726
 8874SOL     OW27520   0.955   1.495   6.125
 8874SOL    HW127521   0.954   1.583   6.173
 8874SOL    HW227522   0.880   1.492   6.059
 8875SOL     OW27523   1.137   1.090   4.633
 8875SOL    HW127524   1.090   1.175   4.658
 8875SOL    HW227525   1.203   1.067   4.704
 8876SOL     OW27526   3.108   0.936   4.507
 8876SOL    HW127527   3.114   0.837   4.502
 8876SOL    HW227528   3.070   0.963   4.595
 8877SOL     OW27529   2.979   6.853   4.318
 8877SOL    HW127530   2.994   6.769   4.369
 8877SOL    HW227531   3.063   6.880   4.272
 8878SOL     OW27532   5.755   4.726   5.059
 8878SOL    HW127533   5.757   4.822   5.033
 8878SOL    HW227534   5.843   4.684   5.035
 8879SOL     OW27535   4.418   5.552   4.440
 8879SOL    HW127536   4.498   5.569   4.382
 8879SOL    HW227537   4.341   5.605   4.407
 8880SOL     OW27538   0.312   6.504   4.826
 8880SOL    HW127539   0.219   6.518   4.792
 8880SOL    HW227540   0.347   6.417   4.793
 8881SOL     OW27541   0.058   1.471   2.130
 8881SOL    HW127542   0.071   1.379   2.093
 8881SOL    HW227543   6.990   1.478   2.174
 8882SOL     OW27544   5.058   2.616   0.462
 8882SOL    HW127545   5.116   2.548   0.505
 8882SOL    HW227546   4.990   2.649   0.528
 8883SOL     OW27547   6.090   1.083   5.430
 8883SOL    HW127548   6.083   1.051   5.336
 8883SOL    HW227549   6.182   1.065   5.465
 8884SOL     OW27550   0.217   1.533   6.543
 8884SOL    HW127551   0.260   1.443   6.540
 8884SOL    HW227552   0.228   1.574   6.633
 8885SOL     OW27553   5.606   3.734   1.650
 8885SOL    HW127554   5.511   3.762   1.661
 8885SOL    HW227555   5.614   3.635   1.663
 8886SOL     OW27556   2.846   5.824   5.949
 8886SOL    HW127557   2.891   5.767   6.018
 8886SOL    HW227558   2.815   5.767   5.873
 8887SOL     OW27559   1.840   1.698   1.064
 8887SOL    HW127560   1.745   1.723   1.085
 8887SOL    HW227561   1.892   1.692   1.148
 8888SOL     OW27562   2.701   1.890   2.793
 8888SOL    HW127563   2.786   1.940   2.803
 8888SOL    HW227564   2.640   1.913   2.869
 8889SOL     OW27565   3.228   0.464   4.715
 8889SOL    HW127566   3.294   0.389   4.707
 8889SOL    HW227567   3.263   0.533   4.778
 8890SOL     OW27568   0.393   4.024   3.007
 8890SOL    HW127569   0.343   3.951   2.961
 8890SOL    HW227570   0.474   3.987   3.052
 8891SOL     OW27571   2.723   1.689   6.050
 8891SOL    HW127572   2.763   1.677   5.960
 8891SOL    HW227573   2.696   1.785   6.062
 8892SOL     OW27574   1.268   0.013   2.619
 8892SOL    HW127575   1.297   0.107   2.601
 8892SOL    HW227576   1.223   6.998   2.538
 8893SOL     OW27577   0.533   1.155   0.593
 8893SOL    HW127578   0.473   1.113   0.526
 8893SOL    HW227579   0.490   1.237   0.630
 8894SOL     OW27580   4.603   2.807   6.451
 8894SOL    HW127581   4.540   2.737   6.416
 8894SOL    HW227582   4.628   2.869   6.377
 8895SOL     OW27583   2.140   1.261   3.263
 8895SOL    HW127584   2.136   1.200   3.342
 8895SOL    HW227585   2.108   1.212   3.181
 8896SOL     OW27586   2.225   4.302   5.092
 8896SOL    HW127587   2.295   4.357   5.136
 8896SOL    HW227588   2.256   4.207   5.083
 8897SOL     OW27589   1.237   2.591   1.277
 8897SOL    HW127590   1.297   2.666   1.248
 8897SOL    HW227591   1.284   2.535   1.345
 8898SOL     OW27592   0.357   2.944   5.266
 8898SOL    HW127593   0.321   2.990   5.184
 8898SOL    HW227594   0.380   2.850   5.244
 8899SOL     OW27595   3.124   5.206   1.619
 8899SOL    HW127596   3.034   5.164   1.608
 8899SOL    HW227597   3.113   5.306   1.621
 8900SOL     OW27598   6.860   1.734   3.651
 8900SOL    HW127599   6.861   1.662   3.582
 8900SOL    HW227600   6.939   1.723   3.712
 8901SOL     OW27601   2.013   0.039   1.554
 8901SOL    HW127602   2.081   0.104   1.589
 8901SOL    HW227603   2.056   6.999   1.488
 8902SOL     OW27604   3.321   6.229   5.811
 8902SOL    HW127605   3.385   6.158   5.838
 8902SOL    HW227606   3.354   6.318   5.842
 8903SOL     OW27607   7.005   0.244   2.306
 8903SOL    HW127608   0.054   0.182   2.273
 8903SOL    HW227609   6.918   0.221   2.262
 8904SOL     OW27610   1.472   4.875   3.169
 8904SOL    HW127611   1.395   4.934   3.194
 8904SOL    HW227612   1.547   4.888   3.233
 8905SOL     OW27613   2.284   4.195   4.812
 8905SOL    HW127614   2.328   4.117   4.856
 8905SOL    HW227615   2.216   4.234   4.873
 8906SOL     OW27616   2.107   4.979   4.162
 8906SOL    HW127617   2.150   4.930   4.086
 8906SOL    HW227618   2.149   4.951   4.248
 8907SOL     OW27619   3.792   2.299   6.689
 8907SOL    HW127620   3.821   2.275   6.782
 8907SOL    HW227621   3.871   2.334   6.638
 8908SOL     OW27622   0.963   2.636   2.966
 8908SOL    HW127623   0.910   2.711   3.005
 8908SOL    HW227624   1.047   2.672   2.925
 8909SOL     OW27625   3.545   0.345   5.637
 8909SOL    HW127626   3.530   0.255   5.678
 8909SOL    HW227627   3.463   0.374   5.589
 8910SOL     OW27628   3.989   3.285   0.071
 8910SOL    HW127629   4.031   3.289   0.162
 8910SOL    HW227630   3.900   3.240   0.078
 8911SOL     OW27631   5.209   2.221   3.759
 8911SOL    HW127632   5.242   2.293   3.820
 8911SOL    HW227633   5.246   2.236   3.667
 8912SOL     OW27634   5.247   1.079   6.395
 8912SOL    HW127635   5.194   1.082   6.310
 8912SOL    HW227636   5.291   0.990   6.404
 8913SOL     OW27637   4.317   3.944   1.331
 8913SOL    HW127638   4.361   3.954   1.242
 8913SOL    HW227639   4.337   4.025   1.387
 8914SOL     OW27640   4.809   2.134   3.635
 8914SOL    HW127641   4.849   2.097   3.552
 8914SOL    HW227642   4.727   2.081   3.659
 8915SOL     OW27643   1.106   5.631   2.022
 8915SOL    HW127644   1.059   5.592   1.943
 8915SOL    HW227645   1.041   5.644   2.096
 8916SOL     OW27646   5.773   3.261   2.571
 8916SOL    HW127647   5.692   3.225   2.524
 8916SOL    HW227648   5.807   3.193   2.635
 8917SOL     OW27649   5.498   4.694   5.003
 8917SOL    HW127650   5.432   4.717   5.074
 8917SOL    HW227651   5.591   4.702   5.040
 8918SOL     OW27652   4.664   3.563   6.240
 8918SOL    HW127653   4.736   3.543   6.174
 8918SOL    HW227654   4.691   3.642   6.295
 8919SOL     OW27655   2.348   3.423   1.522
 8919SOL    HW127656   2.320   3.346   1.579
 8919SOL    HW227657   2.446   3.441   1.536
 8920SOL     OW27658   6.987   5.159   5.472
 8920SOL    HW127659   6.981   5.176   5.374
 8920SOL    HW227660   6.980   5.060   5.489
 8921SOL     OW27661   0.967   5.531   3.774
 8921SOL    HW127662   0.979   5.604   3.707
 8921SOL    HW227663   0.878   5.487   3.760
 8922SOL     OW27664   6.781   3.995   6.494
 8922SOL    HW127665   6.796   4.093   6.505
 8922SOL    HW227666   6.847   3.958   6.428
 8923SOL     OW27667   2.391   4.376   4.112
 8923SOL    HW127668   2.449   4.299   4.139
 8923SOL    HW227669   2.388   4.443   4.186
 8924SOL     OW27670   2.283   6.131   4.848
 8924SOL    HW127671   2.250   6.074   4.924
 8924SOL    HW227672   2.275   6.227   4.873
 8925SOL     OW27673   4.608   5.459   1.374
 8925SOL    HW127674   4.704   5.485   1.385
 8925SOL    HW227675   4.594   5.368   1.413
 8926SOL     OW27676   5.811   0.166   6.815
 8926SOL    HW127677   5.885   0.193   6.877
 8926SOL    HW227678   5.845   0.167   6.721
 8927SOL     OW27679   2.341   1.720   4.669
 8927SOL    HW127680   2.335   1.819   4.663
 8927SOL    HW227681   2.258   1.684   4.714
 8928SOL     OW27682   0.766   0.060   4.683
 8928SOL    HW127683   0.774   0.075   4.781
 8928SOL    HW227684   0.678   0.016   4.663
 8929SOL     OW27685   5.114   4.265   3.723
 8929SOL    HW127686   5.115   4.345   3.782
 8929SOL    HW227687   5.073   4.188   3.772
 8930SOL     OW27688   0.866   5.604   5.364
 8930SOL    HW127689   0.951   5.599   5.311
 8930SOL    HW227690   0.846   5.700   5.385
 8931SOL     OW27691   4.868   1.371   1.751
 8931SOL    HW127692   4.794   1.422   1.709
 8931SOL    HW227693   4.948   1.371   1.691
 8932SOL     OW27694   5.506   1.140   0.339
 8932SOL    HW127695   5.471   1.229   0.309
 8932SOL    HW227696   5.440   1.096   0.399
 8933SOL     OW27697   1.311   0.374   5.204
 8933SOL    HW127698   1.368   0.377   5.121
 8933SOL    HW227699   1.325   0.458   5.257
 8934SOL     OW27700   4.135   7.006   4.159
 8934SOL    HW127701   4.156   6.925   4.103
 8934SOL    HW227702   4.213   0.047   4.157
 8935SOL     OW27703   5.852   1.908   2.639
 8935SOL    HW127704   5.882   1.918   2.544
 8935SOL    HW227705   5.764   1.953   2.652
 8936SOL     OW27706   1.705   3.670   2.350
 8936SOL    HW127707   1.618   3.656   2.399
 8936SOL    HW227708   1.705   3.616   2.266
 8937SOL     OW27709   3.642   0.203   4.980
 8937SOL    HW127710   3.545   0.217   4.998
 8937SOL    HW227711   3.675   0.123   5.030
 8938SOL     OW27712   5.648   6.465   1.193
 8938SOL    HW127713   5.602   6.516   1.120
 8938SOL    HW227714   5.722   6.521   1.230
 8939SOL     OW27715   0.204   3.232   4.681
 8939SOL    HW127716   0.169   3.284   4.759
 8939SOL    HW227717   0.185   3.281   4.596
 8940SOL     OW27718   6.617   3.239   2.497
 8940SOL    HW127719   6.625   3.147   2.537
 8940SOL    HW227720   6.655   3.238   2.405
 8941SOL     OW27721   5.945   1.942   3.193
 8941SOL    HW127722   5.938   1.858   3.140
 8941SOL    HW227723   5.863   1.998   3.178
 8942SOL     OW27724   4.844   4.583   3.721
 8942SOL    HW127725   4.752   4.585   3.760
 8942SOL    HW227726   4.908   4.549   3.790
 8943SOL     OW27727   4.499   3.478   0.417
 8943SOL    HW127728   4.532   3.469   0.511
 8943SOL    HW227729   4.523   3.395   0.366
 8944SOL     OW27730   4.508   6.454   5.116
 8944SOL    HW127731   4.596   6.469   5.161
 8944SOL    HW227732   4.524   6.420   5.023
 8945SOL     OW27733   6.490   4.892   1.771
 8945SOL    HW127734   6.473   4.888   1.673
 8945SOL    HW227735   6.430   4.826   1.817
 8946SOL     OW27736   3.658   1.480   4.715
 8946SOL    HW127737   3.598   1.464   4.637
 8946SOL    HW227738   3.752   1.492   4.683
 8947SOL     OW27739   2.051   4.536   0.900
 8947SOL    HW127740   2.132   4.593   0.888
 8947SOL    HW227741   1.992   4.577   0.970
 8948SOL     OW27742   5.337   0.339   2.714
 8948SOL    HW127743   5.403   0.270   2.743
 8948SOL    HW227744   5.316   0.399   2.792
 8949SOL     OW27745   3.310   6.346   1.126
 8949SOL    HW127746   3.253   6.395   1.060
 8949SOL    HW227747   3.369   6.411   1.174
 8950SOL     OW27748   3.646   3.963   2.830
 8950SOL    HW127749   3.567   3.997   2.779
 8950SOL    HW227750   3.624   3.874   2.870
 8951SOL     OW27751   0.429   0.859   3.729
 8951SOL    HW127752   0.476   0.833   3.814
 8951SOL    HW227753   0.365   0.933   3.748
 8952SOL     OW27754   1.154   4.153   4.948
 8952SOL    HW127755   1.065   4.111   4.931
 8952SOL    HW227756   1.205   4.099   5.015
 8953SOL     OW27757   0.310   5.525   0.762
 8953SOL    HW127758   0.361   5.525   0.848
 8953SOL    HW227759   0.305   5.432   0.726
 8954SOL     OW27760   2.154   4.335   5.377
 8954SOL    HW127761   2.198   4.372   5.295
 8954SOL    HW227762   2.212   4.264   5.416
 8955SOL     OW27763   6.144   3.388   5.904
 8955SOL    HW127764   6.173   3.471   5.856
 8955SOL    HW227765   6.145   3.405   6.002
 8956SOL     OW27766   0.576   6.032   0.500
 8956SOL    HW127767   0.507   5.960   0.511
 8956SOL    HW227768   0.598   6.072   0.588
 8957SOL     OW27769   1.421   0.097   3.255
 8957SOL    HW127770   1.474   0.153   3.191
 8957SOL    HW227771   1.362   0.156   3.310
 8958SOL     OW27772   6.764   3.836   4.828
 8958SOL    HW127773   6.742   3.784   4.910
 8958SOL    HW227774   6.819   3.780   4.767
 8959SOL     OW27775   5.112   2.046   4.054
 8959SOL    HW127776   5.037   2.109   4.077
 8959SOL    HW227777   5.074   1.955   4.037
 8960SOL     OW27778   5.223   4.884   2.425
 8960SOL    HW127779   5.310   4.836   2.439
 8960SOL    HW227780   5.192   4.922   2.513
 8961SOL     OW27781   2.340   1.577   5.398
 8961SOL    HW127782   2.359   1.664   5.353
 8961SOL    HW227783   2.249   1.546   5.374
 8962SOL     OW27784   6.894   6.109   2.138
 8962SOL    HW127785   6.952   6.037   2.177
 8962SOL    HW227786   6.804   6.071   2.118
 8963SOL     OW27787   2.665   6.096   6.267
 8963SOL    HW127788   2.605   6.023   6.234
 8963SOL    HW227789   2.675   6.089   6.366
 8964SOL     OW27790   1.533   2.867   3.408
 8964SOL    HW127791   1.550   2.954   3.456
 8964SOL    HW227792   1.479   2.884   3.326
 8965SOL     OW27793   3.500   6.110   0.409
 8965SOL    HW127794   3.449   6.172   0.469
 8965SOL    HW227795   3.510   6.022   0.454
 8966SOL     OW27796   5.311   6.715   5.534
 8966SOL    HW127797   5.257   6.651   5.589
 8966SOL    HW227798   5.316   6.682   5.440
 8967SOL     OW27799   2.790   0.231   2.935
 8967SOL    HW127800   2.873   0.181   2.959
 8967SOL    HW227801   2.715   0.200   2.994
 8968SOL     OW27802   2.988   5.280   2.795
 8968SOL    HW127803   2.929   5.217   2.744
 8968SOL    HW227804   2.959   5.374   2.778
 8969SOL     OW27805   6.767   1.433   2.528
 8969SOL    HW127806   6.753   1.451   2.625
 8969SOL    HW227807   6.815   1.346   2.516
 8970SOL     OW27808   2.546   1.293   3.725
 8970SOL    HW127809   2.526   1.364   3.793
 8970SOL    HW227810   2.491   1.308   3.644
 8971SOL     OW27811   3.099   4.391   1.260
 8971SOL    HW127812   3.132   4.310   1.308
 8971SOL    HW227813   3.075   4.462   1.326
 8972SOL     OW27814   5.919   3.855   6.595
 8972SOL    HW127815   5.822   3.841   6.572
 8972SOL    HW227816   5.925   3.912   6.677
 8973SOL     OW27817   2.497   1.828   3.746
 8973SOL    HW127818   2.551   1.796   3.823
 8973SOL    HW227819   2.503   1.762   3.671
 8974SOL     OW27820   1.967   4.388   5.119
 8974SOL    HW127821   1.919   4.301   5.112
 8974SOL    HW227822   2.066   4.373   5.115
 8975SOL     OW27823   0.223   3.461   6.441
 8975SOL    HW127824   0.142   3.514   6.419
 8975SOL    HW227825   0.197   3.381   6.496
 8976SOL     OW27826   5.976   0.539   1.472
 8976SOL    HW127827   5.910   0.513   1.542
 8976SOL    HW227828   6.031   0.616   1.506
 8977SOL     OW27829   6.679   4.879   6.312
 8977SOL    HW127830   6.764   4.918   6.274
 8977SOL    HW227831   6.657   4.924   6.398
 8978SOL     OW27832   6.599   5.570   5.692
 8978SOL    HW127833   6.651   5.492   5.659
 8978SOL    HW227834   6.592   5.566   5.792
 8979SOL     OW27835   1.844   4.854   3.725
 8979SOL    HW127836   1.810   4.854   3.819
 8979SOL    HW227837   1.776   4.895   3.665
 8980SOL     OW27838   4.351   0.690   0.650
 8980SOL    HW127839   4.355   0.715   0.553
 8980SOL    HW227840   4.256   0.671   0.676
 8981SOL     OW27841   3.868   1.943   0.394
 8981SOL    HW127842   3.866   2.006   0.472
 8981SOL    HW227843   3.905   1.989   0.314
 8982SOL     OW27844   0.599   1.170   2.205
 8982SOL    HW127845   0.504   1.145   2.190
 8982SOL    HW227846   0.652   1.089   2.230
 8983SOL     OW27847   0.916   0.227   2.724
 8983SOL    HW127848   0.834   0.281   2.744
 8983SOL    HW227849   0.926   0.218   2.625
 8984SOL     OW27850   6.348   1.396   4.498
 8984SOL    HW127851   6.364   1.489   4.465
 8984SOL    HW227852   6.361   1.331   4.423
 8985SOL     OW27853   5.025   0.534   2.087
 8985SOL    HW127854   5.123   0.515   2.094
 8985SOL    HW227855   4.984   0.471   2.021
 8986SOL     OW27856   0.322   6.344   0.060
 8986SOL    HW127857   0.235   6.299   0.078
 8986SOL    HW227858   0.306   6.430   0.011
 8987SOL     OW27859   2.700   6.126   2.691
 8987SOL    HW127860   2.680   6.040   2.643
 8987SOL    HW227861   2.615   6.165   2.726
 8988SOL     OW27862   2.377   0.315   0.902
 8988SOL    HW127863   2.439   0.286   0.974
 8988SOL    HW227864   2.427   0.327   0.817
 8989SOL     OW27865   5.963   1.182   2.105
 8989SOL    HW127866   6.056   1.195   2.138
 8989SOL    HW227867   5.957   1.096   2.054
 8990SOL     OW27868   4.000   1.116   2.805
 8990SOL    HW127869   4.031   1.086   2.715
 8990SOL    HW227870   3.996   1.037   2.867
 8991SOL     OW27871   1.189   2.082   0.806
 8991SOL    HW127872   1.273   2.075   0.860
 8991SOL    HW227873   1.184   2.004   0.743
 8992SOL     OW27874   0.040   4.745   6.064
 8992SOL    HW127875   0.078   4.690   6.139
 8992SOL    HW227876   0.074   4.709   5.977
 8993SOL     OW27877   5.021   3.988   3.816
 8993SOL    HW127878   4.973   3.959   3.898
 8993SOL    HW227879   5.086   3.917   3.788
 8994SOL     OW27880   1.102   6.094   2.192
 8994SOL    HW127881   1.069   6.130   2.280
 8994SOL    HW227882   1.158   6.013   2.209
 8995SOL     OW27883   2.056   3.662   3.734
 8995SOL    HW127884   2.037   3.575   3.688
 8995SOL    HW227885   2.069   3.645   3.832
 8996SOL     OW27886   2.087   4.012   1.341
 8996SOL    HW127887   2.094   4.036   1.438
 8996SOL    HW227888   1.999   3.968   1.324
 8997SOL     OW27889   4.399   1.115   5.152
 8997SOL    HW127890   4.455   1.079   5.227
 8997SOL    HW227891   4.308   1.074   5.156
 8998SOL     OW27892   1.148   1.797   6.565
 8998SOL    HW127893   1.200   1.774   6.647
 8998SOL    HW227894   1.170   1.732   6.492
 8999SOL     OW27895   5.641   2.792   5.608
 8999SOL    HW127896   5.629   2.784   5.509
 8999SOL    HW227897   5.613   2.707   5.652
 9000SOL     OW27898   4.422   4.589   1.052
 9000SOL    HW127899   4.332   4.565   1.014
 9000SOL    HW227900   4.463   4.508   1.094
 9001SOL     OW27901   1.235   3.996   3.465
 9001SOL    HW127902   1.234   4.064   3.538
 9001SOL    HW227903   1.327   3.955   3.459
 9002SOL     OW27904   5.422   3.544   5.346
 9002SOL    HW127905   5.456   3.635   5.371
 9002SOL    HW227906   5.346   3.519   5.406
 9003SOL     OW27907   6.332   2.965   6.563
 9003SOL    HW127908   6.251   3.023   6.575
 9003SOL    HW227909   6.389   2.971   6.645
 9004SOL     OW27910   4.716   5.441   1.083
 9004SOL    HW127911   4.699   5.419   1.179
 9004SOL    HW227912   4.631   5.471   1.040
 9005SOL     OW27913   4.858   3.011   3.314
 9005SOL    HW127914   4.897   3.051   3.231
 9005SOL    HW227915   4.762   3.037   3.322
 9006SOL     OW27916   2.401   6.894   1.545
 9006SOL    HW127917   2.421   6.992   1.549
 9006SOL    HW227918   2.395   6.857   1.638
 9007SOL     OW27919   1.894   6.233   5.025
 9007SOL    HW127920   1.932   6.188   5.106
 9007SOL    HW227921   1.868   6.163   4.958
 9008SOL     OW27922   0.304   4.215   1.673
 9008SOL    HW127923   0.282   4.193   1.578
 9008SOL    HW227924   0.259   4.301   1.699
 9009SOL     OW27925   3.917   6.281   6.987
 9009SOL    HW127926   3.904   6.342   6.909
 9009SOL    HW227927   3.834   6.227   7.001
 9010SOL     OW27928   6.551   6.057   4.412
 9010SOL    HW127929   6.647   6.047   4.385
 9010SOL    HW227930   6.496   5.986   4.368
 9011SOL     OW27931   4.660   2.625   1.960
 9011SOL    HW127932   4.639   2.698   1.895
 9011SOL    HW227933   4.661   2.663   2.053
 9012SOL     OW27934   4.771   5.027   2.371
 9012SOL    HW127935   4.693   5.036   2.432
 9012SOL    HW227936   4.766   4.940   2.322
 9013SOL     OW27937   4.594   6.066   2.305
 9013SOL    HW127938   4.681   6.075   2.352
 9013SOL    HW227939   4.520   6.061   2.373
 9014SOL     OW27940   2.927   0.621   1.880
 9014SOL    HW127941   3.017   0.577   1.886
 9014SOL    HW227942   2.937   0.719   1.895
 9015SOL     OW27943   5.968   2.172   4.559
 9015SOL    HW127944   5.991   2.134   4.648
 9015SOL    HW227945   5.945   2.269   4.569
 9016SOL     OW27946   0.048   6.253   0.128
 9016SOL    HW127947   6.997   6.315   0.158
 9016SOL    HW227948   0.039   6.165   0.176
 9017SOL     OW27949   6.743   3.494   2.763
 9017SOL    HW127950   6.699   3.415   2.807
 9017SOL    HW227951   6.819   3.525   2.818
 9018SOL     OW27952   4.763   1.527   6.368
 9018SOL    HW127953   4.776   1.586   6.288
 9018SOL    HW227954   4.668   1.535   6.400
 9019SOL     OW27955   1.805   5.709   0.194
 9019SOL    HW127956   1.794   5.631   0.255
 9019SOL    HW227957   1.826   5.676   0.101
 9020SOL     OW27958   0.415   5.220   3.985
 9020SOL    HW127959   0.420   5.125   3.953
 9020SOL    HW227960   0.391   5.280   3.908
 9021SOL     OW27961   5.788   5.447   5.641
 9021SOL    HW127962   5.863   5.400   5.594
 9021SOL    HW227963   5.762   5.395   5.722
 9022SOL     OW27964   2.701   0.036   6.473
 9022SOL    HW127965   2.763   7.019   6.541
 9022SOL    HW227966   2.754   0.073   6.396
 9023SOL     OW27967   2.988   3.829   3.648
 9023SOL    HW127968   2.923   3.764   3.609
 9023SOL    HW227969   3.043   3.783   3.718
 9024SOL     OW27970   1.020   6.919   6.246
 9024SOL    HW127971   1.101   6.884   6.200
 9024SOL    HW227972   1.006   6.869   6.331
 9025SOL     OW27973   0.135   3.210   7.010
 9025SOL    HW127974   0.172   3.278   6.947
 9025SOL    HW227975   0.076   3.255   0.055
 9026SOL     OW27976   2.993   3.359   5.599
 9026SOL    HW127977   2.953   3.372   5.508
 9026SOL    HW227978   3.080   3.407   5.604
 9027SOL     OW27979   1.564   2.756   2.421
 9027SOL    HW127980   1.488   2.727   2.362
 9027SOL    HW227981   1.638   2.688   2.415
 9028SOL     OW27982   2.482   4.512   4.651
 9028SOL    HW127983   2.428   4.491   4.732
 9028SOL    HW227984   2.547   4.585   4.672
 9029SOL     OW27985   5.588   5.430   2.476
 9029SOL    HW127986   5.598   5.447   2.574
 9029SOL    HW227987   5.513   5.487   2.440
 9030SOL     OW27988   4.354   2.011   2.683
 9030SOL    HW127989   4.413   2.073   2.734
 9030SOL    HW227990   4.337   2.048   2.592
 9031SOL     OW27991   2.779   1.310   1.647
 9031SOL    HW127992   2.680   1.305   1.639
 9031SOL    HW227993   2.821   1.235   1.596
 9032SOL     OW27994   0.502   2.798   2.225
 9032SOL    HW127995   0.599   2.781   2.238
 9032SOL    HW227996   0.480   2.794   2.128
 9033SOL     OW27997   1.256   3.952   2.898
 9033SOL    HW127998   1.172   3.913   2.860
 9033SOL    HW227999   1.271   3.914   2.990
 9034SOL     OW28000   1.911   6.627   6.741
 9034SOL    HW128001   1.953   6.717   6.736
 9034SOL    HW228002   1.884   6.597   6.649
 9035SOL     OW28003   6.407   0.991   4.445
 9035SOL    HW128004   6.494   1.039   4.432
 9035SOL    HW228005   6.345   1.047   4.500
 9036SOL     OW28006   0.538   1.060   4.850
 9036SOL    HW128007   0.589   0.977   4.870
 9036SOL    HW228008   0.599   1.127   4.808
 9037SOL     OW28009   2.650   4.351   5.724
 9037SOL    HW128010   2.574   4.312   5.775
 9037SOL    HW228011   2.623   4.439   5.685
 9038SOL     OW28012   4.964   5.067   5.755
 9038SOL    HW128013   4.914   5.138   5.706
 9038SOL    HW228014   4.908   4.985   5.763
 9039SOL     OW28015   2.454   4.956   6.821
 9039SOL    HW128016   2.475   4.918   6.911
 9039SOL    HW228017   2.357   4.945   6.802
 9040SOL     OW28018   2.742   1.461   2.607
 9040SOL    HW128019   2.751   1.559   2.590
 9040SOL    HW228020   2.652   1.429   2.576
 9041SOL     OW28021   1.530   3.188   5.944
 9041SOL    HW128022   1.479   3.207   6.027
 9041SOL    HW228023   1.546   3.090   5.936
 9042SOL     OW28024   1.330   5.793   2.659
 9042SOL    HW128025   1.379   5.708   2.675
 9042SOL    HW228026   1.237   5.773   2.627
 9043SOL     OW28027   0.265   2.096   6.672
 9043SOL    HW128028   0.342   2.033   6.659
 9043SOL    HW228029   0.286   2.159   6.747
 9044SOL     OW28030   0.147   4.056   0.720
 9044SOL    HW128031   0.122   4.090   0.630
 9044SOL    HW228032   0.066   4.022   0.767
 9045SOL     OW28033   2.366   4.506   4.369
 9045SOL    HW128034   2.398   4.523   4.462
 9045SOL    HW228035   2.268   4.523   4.364
 9046SOL     OW28036   3.689   4.207   6.270
 9046SOL    HW128037   3.730   4.145   6.337
 9046SOL    HW228038   3.734   4.194   6.181
 9047SOL     OW28039   0.342   4.390   4.289
 9047SOL    HW128040   0.296   4.322   4.345
 9047SOL    HW228041   0.385   4.459   4.348
 9048SOL     OW28042   1.657   2.131   5.430
 9048SOL    HW128043   1.676   2.180   5.345
 9048SOL    HW228044   1.569   2.161   5.468
 9049SOL     OW28045   4.932   6.395   6.156
 9049SOL    HW128046   4.903   6.314   6.105
 9049SOL    HW228047   5.004   6.443   6.105
 9050SOL     OW28048   0.067   5.317   5.673
 9050SOL    HW128049   0.164   5.339   5.660
 9050SOL    HW228050   0.034   5.264   5.595
 9051SOL     OW28051   5.893   6.967   6.127
 9051SOL    HW128052   5.945   6.957   6.042
 9051SOL    HW228053   5.845   6.881   6.147
 9052SOL     OW28054   3.045   5.117   5.155
 9052SOL    HW128055   3.016   5.208   5.183
 9052SOL    HW228056   2.965   5.059   5.143
 9053SOL     OW28057   2.749   1.291   2.954
 9053SOL    HW128058   2.823   1.271   2.890
 9053SOL    HW228059   2.707   1.206   2.985
 9054SOL     OW28060   1.887   0.147   1.217
 9054SOL    HW128061   1.953   0.073   1.202
 9054SOL    HW228062   1.859   0.147   1.313
 9055SOL     OW28063   0.803   2.259   4.661
 9055SOL    HW128064   0.852   2.324   4.603
 9055SOL    HW228065   0.865   2.187   4.691
 9056SOL     OW28066   4.422   2.268   1.761
 9056SOL    HW128067   4.338   2.304   1.801
 9056SOL    HW228068   4.456   2.333   1.692
 9057SOL     OW28069   3.658   6.517   6.900
 9057SOL    HW128070   3.646   6.576   6.980
 9057SOL    HW228071   3.572   6.514   6.848
 9058SOL     OW28072   2.149   1.983   4.505
 9058SOL    HW128073   2.220   1.935   4.453
 9058SOL    HW228074   2.118   2.063   4.453
 9059SOL     OW28075   0.056   0.960   1.972
 9059SOL    HW128076   6.983   0.932   1.956
 9059SOL    HW228077   0.058   1.058   1.994
 9060SOL     OW28078   6.833   4.937   0.901
 9060SOL    HW128079   6.915   4.969   0.948
 9060SOL    HW228080   6.774   4.887   0.965
 9061SOL     OW28081   4.698   4.284   2.234
 9061SOL    HW128082   4.784   4.234   2.245
 9061SOL    HW228083   4.650   4.251   2.153
 9062SOL     OW28084   0.663   5.603   3.076
 9062SOL    HW128085   0.603   5.537   3.120
 9062SOL    HW228086   0.758   5.584   3.102
 9063SOL     OW28087   4.569   0.442   0.892
 9063SOL    HW128088   4.483   0.431   0.943
 9063SOL    HW228089   4.626   0.361   0.905
 9064SOL     OW28090   1.007   5.725   2.838
 9064SOL    HW128091   0.917   5.684   2.851
 9064SOL    HW228092   1.076   5.675   2.891
 9065SOL     OW28093   3.561   3.754   0.013
 9065SOL    HW128094   3.649   3.758   6.987
 9065SOL    HW228095   3.521   3.846   0.018
 9066SOL     OW28096   5.165   4.823   3.718
 9066SOL    HW128097   5.189   4.799   3.624
 9066SOL    HW228098   5.100   4.900   3.717
 9067SOL     OW28099   2.098   6.635   4.237
 9067SOL    HW128100   2.116   6.651   4.334
 9067SOL    HW228101   2.081   6.538   4.221
 9068SOL     OW28102   4.801   6.831   6.370
 9068SOL    HW128103   4.784   6.920   6.328
 9068SOL    HW228104   4.896   6.826   6.400
 9069SOL     OW28105   4.915   2.177   1.993
 9069SOL    HW128106   4.940   2.267   1.958
 9069SOL    HW228107   4.967   2.157   2.076
 9070SOL     OW28108   1.861   0.670   6.048
 9070SOL    HW128109   1.834   0.617   5.967
 9070SOL    HW228110   1.783   0.725   6.079
 9071SOL     OW28111   4.504   2.458   6.780
 9071SOL    HW128112   4.586   2.502   6.743
 9071SOL    HW228113   4.527   2.367   6.813
 9072SOL     OW28114   6.081   0.236   1.844
 9072SOL    HW128115   6.041   0.324   1.817
 9072SOL    HW228116   6.018   0.162   1.820
 9073SOL     OW28117   4.723   3.009   5.603
 9073SOL    HW128118   4.820   2.997   5.622
 9073SOL    HW228119   4.670   2.975   5.681
 9074SOL     OW28120   2.157   1.125   3.750
 9074SOL    HW128121   2.239   1.182   3.742
 9074SOL    HW228122   2.132   1.089   3.660
 9075SOL     OW28123   4.840   5.177   0.617
 9075SOL    HW128124   4.898   5.114   0.670
 9075SOL    HW228125   4.834   5.145   0.523
 9076SOL     OW28126   1.371   6.294   2.557
 9076SOL    HW128127   1.346   6.301   2.654
 9076SOL    HW228128   1.402   6.201   2.537
 9077SOL     OW28129   6.422   1.578   6.194
 9077SOL    HW128130   6.487   1.568   6.118
 9077SOL    HW228131   6.460   1.537   6.276
 9078SOL     OW28132   4.955   6.705   0.402
 9078SOL    HW128133   5.013   6.783   0.382
 9078SOL    HW228134   4.894   6.727   0.478
 9079SOL     OW28135   1.307   1.102   6.244
 9079SOL    HW128136   1.322   1.111   6.146
 9079SOL    HW228137   1.329   1.009   6.273
 9080SOL     OW28138   6.908   4.442   2.234
 9080SOL    HW128139   6.954   4.531   2.239
 9080SOL    HW228140   6.967   4.378   2.186
 9081SOL     OW28141   4.985   1.476   0.537
 9081SOL    HW128142   5.056   1.486   0.607
 9081SOL    HW228143   4.907   1.534   0.561
 9082SOL     OW28144   3.587   4.324   6.705
 9082SOL    HW128145   3.539   4.243   6.671
 9082SOL    HW228146   3.521   4.396   6.726
 9083SOL     OW28147   3.409   0.549   0.601
 9083SOL    HW128148   3.492   0.493   0.608
 9083SOL    HW228149   3.381   0.557   0.506
 9084SOL     OW28150   6.694   4.039   4.571
 9084SOL    HW128151   6.640   3.994   4.642
 9084SOL    HW228152   6.779   3.988   4.557
 9085SOL     OW28153   2.539   4.836   0.721
 9085SOL    HW128154   2.441   4.855   0.728
 9085SOL    HW228155   2.571   4.796   0.807
 9086SOL     OW28156   6.728   2.671   0.721
 9086SOL    HW128157   6.631   2.671   0.695
 9086SOL    HW228158   6.740   2.615   0.802
 9087SOL     OW28159   4.937   1.654   1.585
 9087SOL    HW128160   4.879   1.735   1.583
 9087SOL    HW228161   4.984   1.649   1.674
 9088SOL     OW28162   5.490   5.630   0.026
 9088SOL    HW128163   5.579   5.593   7.022
 9088SOL    HW228164   5.502   5.702   0.094
 9089SOL     OW28165   5.524   5.013   3.264
 9089SOL    HW128166   5.537   4.922   3.303
 9089SOL    HW228167   5.549   5.011   3.167
 9090SOL     OW28168   5.734   5.737   5.752
 9090SOL    HW128169   5.766   5.820   5.798
 9090SOL    HW228170   5.772   5.657   5.798
 9091SOL     OW28171   2.881   2.116   1.914
 9091SOL    HW128172   2.856   2.194   1.971
 9091SOL    HW228173   2.939   2.148   1.839
 9092SOL     OW28174   2.162   1.787   5.066
 9092SOL    HW128175   2.096   1.849   5.024
 9092SOL    HW228176   2.209   1.734   4.995
 9093SOL     OW28177   1.965   3.749   0.677
 9093SOL    HW128178   1.992   3.653   0.667
 9093SOL    HW228179   1.998   3.801   0.598
 9094SOL     OW28180   6.586   3.048   0.729
 9094SOL    HW128181   6.627   3.012   0.813
 9094SOL    HW228182   6.655   3.049   0.656
 9095SOL     OW28183   2.291   2.818   6.946
 9095SOL    HW128184   2.215   2.756   6.967
 9095SOL    HW228185   2.277   2.858   6.856
 9096SOL     OW28186   6.553   3.817   3.196
 9096SOL    HW128187   6.606   3.882   3.251
 9096SOL    HW228188   6.548   3.849   3.102
 9097SOL     OW28189   6.454   6.040   5.720
 9097SOL    HW128190   6.441   6.134   5.752
 9097SOL    HW228191   6.485   5.983   5.796
 9098SOL     OW28192   3.746   3.688   4.677
 9098SOL    HW128193   3.837   3.727   4.688
 9098SOL    HW228194   3.702   3.731   4.597
 9099SOL     OW28195   1.506   2.244   6.908
 9099SOL    HW128196   1.578   2.185   6.945
 9099SOL    HW228197   1.493   2.322   6.970
 9100SOL     OW28198   1.702   2.937   0.269
 9100SOL    HW128199   1.704   2.948   0.170
 9100SOL    HW228200   1.792   2.958   0.307
 9101SOL     OW28201   2.054   2.269   6.644
 9101SOL    HW128202   1.973   2.288   6.699
 9101SOL    HW228203   2.048   2.176   6.608
 9102SOL     OW28204   5.166   6.256   2.463
 9102SOL    HW128205   5.233   6.329   2.467
 9102SOL    HW228206   5.135   6.244   2.368
 9103SOL     OW28207   0.734   4.563   6.251
 9103SOL    HW128208   0.689   4.554   6.163
 9103SOL    HW228209   0.832   4.545   6.241
 9104SOL     OW28210   5.268   7.010   2.999
 9104SOL    HW128211   5.304   0.076   3.030
 9104SOL    HW228212   5.170   7.006   3.019
 9105SOL     OW28213   2.462   1.720   5.891
 9105SOL    HW128214   2.424   1.809   5.916
 9105SOL    HW228215   2.524   1.730   5.813
 9106SOL     OW28216   6.457   5.046   2.184
 9106SOL    HW128217   6.555   5.046   2.161
 9106SOL    HW228218   6.430   4.954   2.212
 9107SOL     OW28219   5.025   0.064   0.160
 9107SOL    HW128220   5.093   0.047   0.090
 9107SOL    HW228221   5.054   0.139   0.219
 9108SOL     OW28222   3.452   5.801   6.959
 9108SOL    HW128223   3.498   5.712   6.955
 9108SOL    HW228224   3.441   5.828   0.033
 9109SOL     OW28225   2.993   1.401   4.515
 9109SOL    HW128226   2.990   1.307   4.481
 9109SOL    HW228227   2.903   1.427   4.548
 9110SOL     OW28228   1.482   3.445   3.205
 9110SOL    HW128229   1.549   3.451   3.131
 9110SOL    HW228230   1.407   3.385   3.177
 9111SOL     OW28231   4.301   4.028   1.668
 9111SOL    HW128232   4.212   4.062   1.637
 9111SOL    HW228233   4.346   4.098   1.724
 9112SOL     OW28234   1.064   5.797   1.628
 9112SOL    HW128235   1.090   5.701   1.618
 9112SOL    HW228236   1.078   5.845   1.541
 9113SOL     OW28237   3.155   5.551   6.821
 9113SOL    HW128238   3.058   5.559   6.796
 9113SOL    HW228239   3.189   5.461   6.794
 9114SOL     OW28240   2.694   3.714   1.547
 9114SOL    HW128241   2.714   3.811   1.534
 9114SOL    HW228242   2.596   3.701   1.558
 9115SOL     OW28243   1.812   4.384   4.388
 9115SOL    HW128244   1.846   4.346   4.474
 9115SOL    HW228245   1.887   4.391   4.322
 9116SOL     OW28246   2.232   1.871   6.150
 9116SOL    HW128247   2.209   1.818   6.068
 9116SOL    HW228248   2.212   1.968   6.134
 9117SOL     OW28249   6.998   3.375   0.144
 9117SOL    HW128250   7.015   3.362   0.242
 9117SOL    HW228251   7.017   3.469   0.119
 9118SOL     OW28252   0.267   5.892   1.197
 9118SOL    HW128253   0.302   5.935   1.113
 9118SOL    HW228254   0.188   5.835   1.175
 9119SOL     OW28255   6.521   0.330   0.789
 9119SOL    HW128256   6.534   0.234   0.812
 9119SOL    HW228257   6.472   0.376   0.862
 9120SOL     OW28258   6.059   0.959   6.550
 9120SOL    HW128259   6.007   1.027   6.601
 9120SOL    HW228260   6.062   0.873   6.601
 9121SOL     OW28261   1.722   1.390   6.644
 9121SOL    HW128262   1.807   1.345   6.672
 9121SOL    HW228263   1.648   1.323   6.643
 9122SOL     OW28264   1.299   2.349   0.731
 9122SOL    HW128265   1.242   2.300   0.665
 9122SOL    HW228266   1.373   2.289   0.762
 9123SOL     OW28267   2.910   6.432   6.899
 9123SOL    HW128268   2.942   6.346   6.859
 9123SOL    HW228269   2.920   6.429   6.999
 9124SOL     OW28270   6.400   4.604   5.779
 9124SOL    HW128271   6.455   4.671   5.830
 9124SOL    HW228272   6.443   4.514   5.786
 9125SOL     OW28273   4.790   5.725   1.215
 9125SOL    HW128274   4.815   5.637   1.254
 9125SOL    HW228275   4.820   5.730   1.120
 9126SOL     OW28276   5.926   6.868   2.286
 9126SOL    HW128277   5.976   6.846   2.369
 9126SOL    HW228278   5.925   6.789   2.225
 9127SOL     OW28279   5.009   6.422   6.417
 9127SOL    HW128280   4.983   6.415   6.321
 9127SOL    HW228281   4.927   6.436   6.473
 9128SOL     OW28282   5.127   2.934   5.428
 9128SOL    HW128283   5.076   2.933   5.342
 9128SOL    HW228284   5.222   2.960   5.411
 9129SOL     OW28285   1.930   1.959   6.990
 9129SOL    HW128286   2.012   1.986   0.019
 9129SOL    HW228287   1.863   2.033   6.993
 9130SOL     OW28288   6.301   5.840   1.226
 9130SOL    HW128289   6.276   5.811   1.319
 9130SOL    HW228290   6.308   5.940   1.223
 9131SOL     OW28291   0.699   4.389   3.950
 9131SOL    HW128292   0.751   4.344   3.877
 9131SOL    HW228293   0.625   4.329   3.979
 9132SOL     OW28294   1.433   3.295   4.541
 9132SOL    HW128295   1.358   3.229   4.529
 9132SOL    HW228296   1.511   3.266   4.485
 9133SOL     OW28297   1.790   5.086   1.375
 9133SOL    HW128298   1.837   5.015   1.324
 9133SOL    HW228299   1.763   5.160   1.313
 9134SOL     OW28300   2.805   4.990   5.954
 9134SOL    HW128301   2.900   5.007   5.927
 9134SOL    HW228302   2.801   4.967   6.051
 9135SOL     OW28303   0.826   6.113   3.879
 9135SOL    HW128304   0.749   6.147   3.826
 9135SOL    HW228305   0.813   6.016   3.897
 9136SOL     OW28306   3.580   5.475   5.217
 9136SOL    HW128307   3.587   5.464   5.118
 9136SOL    HW228308   3.525   5.557   5.238
 9137SOL     OW28309   4.497   0.384   1.618
 9137SOL    HW128310   4.580   0.349   1.661
 9137SOL    HW228311   4.417   0.346   1.664
 9138SOL     OW28312   3.275   4.549   1.089
 9138SOL    HW128313   3.178   4.525   1.091
 9138SOL    HW228314   3.316   4.518   1.003
 9139SOL     OW28315   3.393   1.141   5.420
 9139SOL    HW128316   3.466   1.172   5.481
 9139SOL    HW228317   3.430   1.073   5.356
 9140SOL     OW28318   6.696   1.984   3.771
 9140SOL    HW128319   6.611   1.959   3.725
 9140SOL    HW228320   6.770   1.989   3.704
 9141SOL     OW28321   5.530   0.647   5.912
 9141SOL    HW128322   5.621   0.683   5.930
 9141SOL    HW228323   5.524   0.553   5.945
 9142SOL     OW28324   1.463   4.307   6.339
 9142SOL    HW128325   1.410   4.310   6.424
 9142SOL    HW228326   1.560   4.315   6.361
 9143SOL     OW28327   5.451   4.045   1.485
 9143SOL    HW128328   5.430   3.987   1.407
 9143SOL    HW228329   5.384   4.119   1.491
 9144SOL     OW28330   1.267   4.917   4.812
 9144SOL    HW128331   1.251   4.826   4.850
 9144SOL    HW228332   1.334   4.965   4.869
 9145SOL     OW28333   0.202   3.804   6.697
 9145SOL    HW128334   0.105   3.785   6.710
 9145SOL    HW228335   0.223   3.897   6.727
 9146SOL     OW28336   0.500   1.624   1.711
 9146SOL    HW128337   0.592   1.586   1.703
 9146SOL    HW228338   0.504   1.723   1.694
 9147SOL     OW28339   4.634   6.370   6.301
 9147SOL    HW128340   4.669   6.277   6.309
 9147SOL    HW228341   4.707   6.430   6.267
 9148SOL     OW28342   3.408   5.315   2.949
 9148SOL    HW128343   3.470   5.239   2.930
 9148SOL    HW228344   3.336   5.318   2.880
 9149SOL     OW28345   6.054   3.614   4.266
 9149SOL    HW128346   6.090   3.627   4.173
 9149SOL    HW228347   6.103   3.675   4.329
 9150SOL     OW28348   4.416   1.435   3.150
 9150SOL    HW128349   4.480   1.505   3.118
 9150SOL    HW228350   4.328   1.477   3.169
 9151SOL     OW28351   0.918   3.380   2.332
 9151SOL    HW128352   0.955   3.304   2.386
 9151SOL    HW228353   0.969   3.388   2.246
 9152SOL     OW28354   2.272   5.296   3.394
 9152SOL    HW128355   2.342   5.250   3.338
 9152SOL    HW228356   2.310   5.381   3.431
 9153SOL     OW28357   1.419   3.121   6.544
 9153SOL    HW128358   1.328   3.137   6.504
 9153SOL    HW228359   1.477   3.075   6.478
 9154SOL     OW28360   1.833   5.758   6.932
 9154SOL    HW128361   1.801   5.845   6.896
 9154SOL    HW228362   1.824   5.688   6.860
 9155SOL     OW28363   1.214   4.042   0.332
 9155SOL    HW128364   1.236   3.955   0.287
 9155SOL    HW228365   1.145   4.091   0.279
 9156SOL     OW28366   5.222   2.344   1.807
 9156SOL    HW128367   5.239   2.368   1.712
 9156SOL    HW228368   5.144   2.396   1.842
 9157SOL     OW28369   5.024   4.331   5.993
 9157SOL    HW128370   5.045   4.407   5.931
 9157SOL    HW228371   5.102   4.269   5.996
 9158SOL     OW28372   0.438   3.603   3.159
 9158SOL    HW128373   0.516   3.627   3.217
 9158SOL    HW228374   0.453   3.513   3.118
 9159SOL     OW28375   6.752   4.769   2.533
 9159SOL    HW128376   6.849   4.786   2.551
 9159SOL    HW228377   6.741   4.680   2.489
 9160SOL     OW28378   6.972   6.971   0.543
 9160SOL    HW128379   6.945   6.927   0.458
 9160SOL    HW228380   6.954   0.048   0.537
 9161SOL     OW28381   5.638   3.907   3.250
 9161SOL    HW128382   5.617   3.958   3.167
 9161SOL    HW228383   5.553   3.868   3.286
 9162SOL     OW28384   5.106   1.652   2.331
 9162SOL    HW128385   5.131   1.588   2.258
 9162SOL    HW228386   5.029   1.708   2.301
 9163SOL     OW28387   3.274   1.502   4.351
 9163SOL    HW128388   3.212   1.449   4.295
 9163SOL    HW228389   3.222   1.553   4.420
 9164SOL     OW28390   2.518   0.258   0.233
 9164SOL    HW128391   2.447   0.221   0.173
 9164SOL    HW228392   2.479   0.273   0.324
 9165SOL     OW28393   4.879   5.904   0.514
 9165SOL    HW128394   4.957   5.843   0.500
 9165SOL    HW228395   4.852   5.901   0.610
 9166SOL     OW28396   3.091   5.440   1.348
 9166SOL    HW128397   3.058   5.348   1.324
 9166SOL    HW228398   3.016   5.505   1.340
 9167SOL     OW28399   0.373   3.967   5.024
 9167SOL    HW128400   0.454   3.916   5.054
 9167SOL    HW228401   0.374   3.974   4.924
 9168SOL     OW28402   2.524   0.405   6.722
 9168SOL    HW128403   2.459   0.478   6.744
 9168SOL    HW228404   2.526   0.339   6.797
 9169SOL     OW28405   6.881   6.932   2.999
 9169SOL    HW128406   6.973   6.973   3.005
 9169SOL    HW228407   6.844   6.921   3.091
 9170SOL     OW28408   6.302   6.031   6.934
 9170SOL    HW128409   6.263   5.948   6.894
 9170SOL    HW228410   6.349   6.084   6.863
 9171SOL     OW28411   2.849   5.668   5.731
 9171SOL    HW128412   2.949   5.672   5.734
 9171SOL    HW228413   2.820   5.579   5.696
 9172SOL     OW28414   2.475   2.407   4.011
 9172SOL    HW128415   2.463   2.487   3.952
 9172SOL    HW228416   2.500   2.436   4.103
 9173SOL     OW28417   0.358   4.876   5.378
 9173SOL    HW128418   0.440   4.914   5.335
 9173SOL    HW228419   0.354   4.777   5.361
 9174SOL     OW28420   0.225   5.565   0.311
 9174SOL    HW128421   0.279   5.550   0.229
 9174SOL    HW228422   0.284   5.563   0.392
 9175SOL     OW28423   1.605   6.978   5.215
 9175SOL    HW128424   1.612   7.005   5.310
 9175SOL    HW228425   1.515   6.939   5.197
 9176SOL     OW28426   1.524   1.365   5.396
 9176SOL    HW128427   1.543   1.296   5.327
 9176SOL    HW228428   1.609   1.386   5.446
 9177SOL     OW28429   0.912   4.598   3.761
 9177SOL    HW128430   0.877   4.505   3.770
 9177SOL    HW228431   0.918   4.623   3.664
 9178SOL     OW28432   2.022   4.393   0.612
 9178SOL    HW128433   2.081   4.317   0.585
 9178SOL    HW228434   2.077   4.474   0.630
 9179SOL     OW28435   2.545   4.653   5.057
 9179SOL    HW128436   2.501   4.743   5.052
 9179SOL    HW228437   2.644   4.663   5.051
 9180SOL     OW28438   5.387   1.733   2.843
 9180SOL    HW128439   5.382   1.779   2.755
 9180SOL    HW228440   5.340   1.645   2.838
 9181SOL     OW28441   4.035   1.562   2.153
 9181SOL    HW128442   3.938   1.538   2.152
 9181SOL    HW228443   4.079   1.518   2.231
 9182SOL     OW28444   1.970   0.140   1.983
 9182SOL    HW128445   2.045   0.206   1.985
 9182SOL    HW228446   1.996   0.058   2.033
 9183SOL     OW28447   4.961   5.919   6.455
 9183SOL    HW128448   4.986   5.979   6.379
 9183SOL    HW228449   4.989   5.962   6.541
 9184SOL     OW28450   4.759   7.008   0.158
 9184SOL    HW128451   4.749   6.922   0.109
 9184SOL    HW228452   4.855   0.015   0.156
 9185SOL     OW28453   4.655   0.964   4.965
 9185SOL    HW128454   4.702   0.922   4.888
 9185SOL    HW228455   4.627   0.893   5.030
 9186SOL     OW28456   5.307   0.177   6.825
 9186SOL    HW128457   5.396   0.183   6.780
 9186SOL    HW228458   5.235   0.172   6.756
 9187SOL     OW28459   3.024   6.242   2.457
 9187SOL    HW128460   2.926   6.260   2.457
 9187SOL    HW228461   3.060   6.253   2.364
 9188SOL     OW28462   2.389   6.309   1.067
 9188SOL    HW128463   2.454   6.268   1.131
 9188SOL    HW228464   2.296   6.286   1.095
 9189SOL     OW28465   5.475   4.741   2.372
 9189SOL    HW128466   5.517   4.657   2.406
 9189SOL    HW228467   5.482   4.745   2.273
 9190SOL     OW28468   1.483   5.284   1.257
 9190SOL    HW128469   1.582   5.297   1.260
 9190SOL    HW228470   1.438   5.366   1.292
 9191SOL     OW28471   0.153   0.495   6.310
 9191SOL    HW128472   0.075   0.545   6.346
 9191SOL    HW228473   0.121   0.414   6.261
 9192SOL     OW28474   0.571   3.866   4.147
 9192SOL    HW128475   0.658   3.819   4.130
 9192SOL    HW228476   0.590   3.957   4.185
 9193SOL     OW28477   2.482   3.403   6.866
 9193SOL    HW128478   2.469   3.347   6.785
 9193SOL    HW228479   2.393   3.438   6.897
 9194SOL     OW28480   3.201   0.106   4.453
 9194SOL    HW128481   3.197   0.136   4.358
 9194SOL    HW228482   3.296   0.105   4.484
 9195SOL     OW28483   1.748   0.815   3.957
 9195SOL    HW128484   1.784   0.846   3.869
 9195SOL    HW228485   1.749   0.890   4.022
 9196SOL     OW28486   5.170   2.167   5.712
 9196SOL    HW128487   5.186   2.080   5.665
 9196SOL    HW228488   5.207   2.162   5.805
 9197SOL     OW28489   2.502   3.599   1.224
 9197SOL    HW128490   2.555   3.519   1.194
 9197SOL    HW228491   2.405   3.576   1.222
 9198SOL     OW28492   0.319   4.989   3.908
 9198SOL    HW128493   0.268   5.070   3.937
 9198SOL    HW228494   0.272   4.907   3.941
 9199SOL     OW28495   5.926   4.242   5.134
 9199SOL    HW128496   5.859   4.284   5.194
 9199SOL    HW228497   5.889   4.234   5.042
 9200SOL     OW28498   2.954   0.694   0.184
 9200SOL    HW128499   2.862   0.666   0.211
 9200SOL    HW228500   3.005   0.615   0.151
 9201SOL     OW28501   1.885   4.361   0.358
 9201SOL    HW128502   1.874   4.271   0.315
 9201SOL    HW228503   1.898   4.349   0.456
 9202SOL     OW28504   2.470   1.025   3.830
 9202SOL    HW128505   2.487   1.123   3.818
 9202SOL    HW228506   2.538   0.988   3.894
 9203SOL     OW28507   6.718   6.807   0.824
 9203SOL    HW128508   6.711   6.722   0.878
 9203SOL    HW228509   6.795   6.800   0.762
 9204SOL     OW28510   5.243   0.336   5.694
 9204SOL    HW128511   5.199   0.418   5.729
 9204SOL    HW228512   5.187   0.296   5.621
 9205SOL     OW28513   0.001   5.199   1.422
 9205SOL    HW128514   7.002   5.193   1.324
 9205SOL    HW228515   0.095   5.170   1.438
 9206SOL     OW28516   3.095   6.509   0.976
 9206SOL    HW128517   2.996   6.512   0.967
 9206SOL    HW228518   3.133   6.601   0.961
 9207SOL     OW28519   5.325   5.586   6.613
 9207SOL    HW128520   5.327   5.619   6.708
 9207SOL    HW228521   5.295   5.660   6.553
 9208SOL     OW28522   1.148   3.589   2.998
 9208SOL    HW128523   1.075   3.570   2.933
 9208SOL    HW228524   1.233   3.546   2.966
 9209SOL     OW28525   3.077   0.193   6.292
 9209SOL    HW128526   3.158   0.250   6.305
 9209SOL    HW228527   3.040   0.209   6.201
 9210SOL     OW28528   6.692   0.340   3.898
 9210SOL    HW128529   6.710   0.335   3.800
 9210SOL    HW228530   6.740   0.418   3.937
 9211SOL     OW28531   0.415   1.747   2.681
 9211SOL    HW128532   0.512   1.723   2.681
 9211SOL    HW228533   0.361   1.671   2.645
 9212SOL     OW28534   3.365   4.997   4.877
 9212SOL    HW128535   3.373   5.076   4.938
 9212SOL    HW228536   3.289   4.940   4.907
 9213SOL     OW28537   6.176   4.454   6.543
 9213SOL    HW128538   6.272   4.429   6.544
 9213SOL    HW228539   6.141   4.460   6.636
 9214SOL     OW28540   0.361   4.823   0.513
 9214SOL    HW128541   0.399   4.878   0.588
 9214SOL    HW228542   0.371   4.726   0.535
 9215SOL     OW28543   1.364   1.349   1.021
 9215SOL    HW128544   1.434   1.416   1.047
 9215SOL    HW228545   1.290   1.352   1.088
 9216SOL     OW28546   1.983   0.069   3.102
 9216SOL    HW128547   2.044   0.122   3.162
 9216SOL    HW228548   1.888   0.088   3.127
 9217SOL     OW28549   0.641   2.737   0.285
 9217SOL    HW128550   0.641   2.668   0.357
 9217SOL    HW228551   0.565   2.800   0.300
 9218SOL     OW28552   2.479   1.160   0.376
 9218SOL    HW128553   2.494   1.211   0.291
 9218SOL    HW228554   2.446   1.068   0.355
 9219SOL     OW28555   0.389   1.346   0.703
 9219SOL    HW128556   0.358   1.441   0.714
 9219SOL    HW228557   0.327   1.285   0.752
 9220SOL     OW28558   3.070   6.327   1.739
 9220SOL    HW128559   3.010   6.264   1.689
 9220SOL    HW228560   3.019   6.371   1.812
 9221SOL     OW28561   2.722   4.782   4.819
 9221SOL    HW128562   2.706   4.869   4.866
 9221SOL    HW228563   2.767   4.719   4.882
 9222SOL     OW28564   2.893   2.125   5.960
 9222SOL    HW128565   2.845   2.195   5.906
 9222SOL    HW228566   2.832   2.048   5.974
 9223SOL     OW28567   2.837   3.091   5.246
 9223SOL    HW128568   2.742   3.083   5.217
 9223SOL    HW228569   2.863   3.187   5.251
 9224SOL     OW28570   2.156   5.013   5.048
 9224SOL    HW128571   2.112   4.994   4.960
 9224SOL    HW228572   2.085   5.032   5.116
 9225SOL     OW28573   2.011   6.899   6.778
 9225SOL    HW128574   2.087   6.834   6.780
 9225SOL    HW228575   2.044   6.989   6.751
 9226SOL     OW28576   3.602   6.460   0.972
 9226SOL    HW128577   3.512   6.453   0.930
 9226SOL    HW228578   3.668   6.406   0.918
 9227SOL     OW28579   1.933   6.707   1.369
 9227SOL    HW128580   1.886   6.795   1.361
 9227SOL    HW228581   1.915   6.652   1.287
 9228SOL     OW28582   0.653   0.523   7.006
 9228SOL    HW128583   0.590   0.544   6.932
 9228SOL    HW228584   0.714   0.600   7.021
 9229SOL     OW28585   0.493   5.944   5.898
 9229SOL    HW128586   0.396   5.927   5.919
 9229SOL    HW228587   0.509   6.042   5.889
 9230SOL     OW28588   5.233   0.731   3.954
 9230SOL    HW128589   5.232   0.632   3.965
 9230SOL    HW228590   5.218   0.754   3.857
 9231SOL     OW28591   1.888   3.318   3.387
 9231SOL    HW128592   1.969   3.275   3.348
 9231SOL    HW228593   1.815   3.251   3.395
 9232SOL     OW28594   4.475   4.860   1.468
 9232SOL    HW128595   4.536   4.938   1.478
 9232SOL    HW228596   4.396   4.885   1.412
 9233SOL     OW28597   4.795   4.493   1.232
 9233SOL    HW128598   4.833   4.404   1.259
 9233SOL    HW228599   4.702   4.501   1.269
 9234SOL     OW28600   2.151   5.849   3.689
 9234SOL    HW128601   2.106   5.914   3.750
 9234SOL    HW228602   2.110   5.854   3.598
 9235SOL     OW28603   0.592   2.330   3.460
 9235SOL    HW128604   0.678   2.333   3.511
 9235SOL    HW228605   0.526   2.272   3.509
 9236SOL     OW28606   3.942   2.748   5.924
 9236SOL    HW128607   4.039   2.725   5.910
 9236SOL    HW228608   3.885   2.672   5.892
 9237SOL     OW28609   1.788   3.611   4.038
 9237SOL    HW128610   1.788   3.691   3.979
 9237SOL    HW228611   1.736   3.537   3.994
 9238SOL     OW28612   4.295   3.451   6.357
 9238SOL    HW128613   4.212   3.502   6.333
 9238SOL    HW228614   4.330   3.404   6.276
 9239SOL     OW28615   1.799   3.938   6.664
 9239SOL    HW128616   1.873   3.990   6.707
 9239SOL    HW228617   1.737   4.001   6.617
 9240SOL     OW28618   5.332   0.893   2.012
 9240SOL    HW128619   5.405   0.878   2.078
 9240SOL    HW228620   5.301   0.988   2.017
 9241SOL     OW28621   0.589   5.667   0.042
 9241SOL    HW128622   0.625   5.757   0.019
 9241SOL    HW228623   0.600   5.606   6.985
 9242SOL     OW28624   6.459   5.706   1.768
 9242SOL    HW128625   6.367   5.742   1.783
 9242SOL    HW228626   6.490   5.730   1.677
 9243SOL     OW28627   5.951   6.235   4.735
 9243SOL    HW128628   5.940   6.140   4.705
 9243SOL    HW228629   5.862   6.271   4.766
 9244SOL     OW28630   3.357   5.605   0.206
 9244SOL    HW128631   3.374   5.511   0.175
 9244SOL    HW228632   3.438   5.638   0.255
 9245SOL     OW28633   0.490   6.275   1.145
 9245SOL    HW128634   0.407   6.298   1.094
 9245SOL    HW228635   0.475   6.288   1.242
 9246SOL     OW28636   6.978   4.901   4.066
 9246SOL    HW128637   7.017   4.994   4.066
 9246SOL    HW228638   6.948   4.878   3.974
 9247SOL     OW28639   1.890   6.697   2.992
 9247SOL    HW128640   1.910   6.787   2.952
 9247SOL    HW228641   1.830   6.709   3.071
 9248SOL     OW28642   3.788   1.898   6.182
 9248SOL    HW128643   3.767   1.984   6.134
 9248SOL    HW228644   3.811   1.827   6.114
 9249SOL     OW28645   4.251   6.604   3.079
 9249SOL    HW128646   4.268   6.663   2.999
 9249SOL    HW228647   4.208   6.519   3.049
 9250SOL     OW28648   5.498   3.667   3.667
 9250SOL    HW128649   5.561   3.744   3.656
 9250SOL    HW228650   5.550   3.585   3.693
 9251SOL     OW28651   4.081   1.826   3.189
 9251SOL    HW128652   4.155   1.894   3.183
 9251SOL    HW228653   4.014   1.856   3.257
 9252SOL     OW28654   1.452   6.820   4.670
 9252SOL    HW128655   1.484   6.727   4.691
 9252SOL    HW228656   1.522   6.867   4.617
 9253SOL     OW28657   1.341   6.929   5.635
 9253SOL    HW128658   1.374   7.021   5.614
 9253SOL    HW228659   1.275   6.934   5.710
 9254SOL     OW28660   5.456   3.216   1.612
 9254SOL    HW128661   5.364   3.240   1.581
 9254SOL    HW228662   5.451   3.149   1.685
 9255SOL     OW28663   0.114   4.651   0.406
 9255SOL    HW128664   0.207   4.635   0.374
 9255SOL    HW228665   0.077   4.732   0.361
 9256SOL     OW28666   4.250   4.980   1.846
 9256SOL    HW128667   4.261   4.891   1.802
 9256SOL    HW228668   4.201   5.042   1.784
 9257SOL     OW28669   0.481   3.552   0.935
 9257SOL    HW128670   0.534   3.468   0.922
 9257SOL    HW228671   0.510   3.598   1.019
 9258SOL     OW28672   4.140   3.354   4.010
 9258SOL    HW128673   4.139   3.308   4.099
 9258SOL    HW228674   4.148   3.452   4.023
 9259SOL     OW28675   1.257   2.389   0.420
 9259SOL    HW128676   1.203   2.349   0.494
 9259SOL    HW228677   1.327   2.323   0.391
 9260SOL     OW28678   6.341   3.744   0.207
 9260SOL    HW128679   6.294   3.811   0.151
 9260SOL    HW228680   6.297   3.739   0.297
 9261SOL     OW28681   4.410   0.041   6.867
 9261SOL    HW128682   4.317   0.075   6.849
 9261SOL    HW228683   4.439   0.070   6.958
 9262SOL     OW28684   4.843   0.639   5.397
 9262SOL    HW128685   4.922   0.674   5.447
 9262SOL    HW228686   4.848   0.667   5.301
 9263SOL     OW28687   5.772   3.655   2.091
 9263SOL    HW128688   5.781   3.562   2.055
 9263SOL    HW228689   5.770   3.651   2.191
 9264SOL     OW28690   6.336   2.486   0.040
 9264SOL    HW128691   6.328   2.422   0.117
 9264SOL    HW228692   6.420   2.539   0.049
 9265SOL     OW28693   1.667   1.565   5.179
 9265SOL    HW128694   1.573   1.555   5.212
 9265SOL    HW228695   1.678   1.514   5.094
 9266SOL     OW28696   2.183   5.970   2.212
 9266SOL    HW128697   2.138   6.040   2.267
 9266SOL    HW228698   2.135   5.883   2.223
 9267SOL     OW28699   2.650   5.122   5.518
 9267SOL    HW128700   2.598   5.040   5.493
 9267SOL    HW228701   2.744   5.096   5.541
 9268SOL     OW28702   0.716   1.092   2.716
 9268SOL    HW128703   0.664   1.008   2.733
 9268SOL    HW228704   0.683   1.136   2.632
 9269SOL     OW28705   4.135   1.882   5.665
 9269SOL    HW128706   4.043   1.908   5.636
 9269SOL    HW228707   4.198   1.888   5.587
 9270SOL     OW28708   1.128   6.892   5.803
 9270SOL    HW128709   1.094   6.897   5.897
 9270SOL    HW228710   1.052   6.907   5.740
 9271SOL     OW28711   1.013   4.912   6.896
 9271SOL    HW128712   1.039   4.931   6.802
 9271SOL    HW228713   0.933   4.851   6.897
 9272SOL     OW28714   3.126   5.270   6.478
 9272SOL    HW128715   3.042   5.258   6.532
 9272SOL    HW228716   3.179   5.186   6.480
 9273SOL     OW28717   4.028   6.532   5.556
 9273SOL    HW128718   4.022   6.630   5.579
 9273SOL    HW228719   4.007   6.478   5.638
 9274SOL     OW28720   6.133   2.425   1.197
 9274SOL    HW128721   6.034   2.420   1.215
 9274SOL    HW228722   6.173   2.334   1.210
 9275SOL     OW28723   0.498   0.723   6.241
 9275SOL    HW128724   0.558   0.757   6.313
 9275SOL    HW228725   0.544   0.734   6.152
 9276SOL     OW28726   4.957   6.087   4.634
 9276SOL    HW128727   5.052   6.111   4.612
 9276SOL    HW228728   4.917   6.159   4.691
 9277SOL     OW28729   3.475   2.541   0.624
 9277SOL    HW128730   3.443   2.540   0.719
 9277SOL    HW228731   3.450   2.455   0.579
 9278SOL     OW28732   1.412   2.221   1.429
 9278SOL    HW128733   1.425   2.286   1.354
 9278SOL    HW228734   1.483   2.233   1.497
 9279SOL     OW28735   3.237   0.186   1.193
 9279SOL    HW128736   3.226   0.229   1.283
 9279SOL    HW228737   3.186   0.239   1.125
 9280SOL     OW28738   2.148   0.727   3.009
 9280SOL    HW128739   2.120   0.676   3.091
 9280SOL    HW228740   2.097   0.694   2.930
 9281SOL     OW28741   1.950   2.789   0.726
 9281SOL    HW128742   1.872   2.770   0.666
 9281SOL    HW228743   1.942   2.881   0.763
 9282SOL     OW28744   4.460   1.976   6.244
 9282SOL    HW128745   4.402   1.962   6.325
 9282SOL    HW228746   4.527   2.048   6.263
 9283SOL     OW28747   5.664   2.134   2.880
 9283SOL    HW128748   5.705   2.204   2.822
 9283SOL    HW228749   5.618   2.067   2.822
 9284SOL     OW28750   3.488   3.306   2.378
 9284SOL    HW128751   3.401   3.286   2.333
 9284SOL    HW228752   3.502   3.405   2.378
 9285SOL     OW28753   5.905   2.381   6.486
 9285SOL    HW128754   5.895   2.480   6.481
 9285SOL    HW228755   5.815   2.337   6.481
 9286SOL     OW28756   5.608   5.699   5.012
 9286SOL    HW128757   5.568   5.785   4.981
 9286SOL    HW228758   5.556   5.664   5.090
 9287SOL     OW28759   3.399   6.675   2.062
 9287SOL    HW128760   3.361   6.731   2.136
 9287SOL    HW228761   3.444   6.595   2.100
 9288SOL     OW28762   4.514   2.227   5.904
 9288SOL    HW128763   4.605   2.195   5.930
 9288SOL    HW228764   4.520   2.281   5.820
 9289SOL     OW28765   5.140   3.278   2.559
 9289SOL    HW128766   5.205   3.283   2.483
 9289SOL    HW228767   5.175   3.330   2.637
 9290SOL     OW28768   4.340   2.026   4.666
 9290SOL    HW128769   4.406   2.003   4.595
 9290SOL    HW228770   4.324   2.125   4.666
 9291SOL     OW28771   0.657   1.944   4.919
 9291SOL    HW128772   0.742   1.929   4.970
 9291SOL    HW228773   0.639   2.042   4.913
 9292SOL     OW28774   6.613   3.564   6.806
 9292SOL    HW128775   6.587   3.638   6.869
 9292SOL    HW228776   6.688   3.511   6.846
 9293SOL     OW28777   6.172   3.760   6.615
 9293SOL    HW128778   6.084   3.806   6.603
 9293SOL    HW228779   6.182   3.688   6.547
 9294SOL     OW28780   5.169   5.974   6.731
 9294SOL    HW128781   5.256   5.985   6.682
 9294SOL    HW228782   5.187   5.952   6.827
 9295SOL     OW28783   4.512   2.096   3.939
 9295SOL    HW128784   4.413   2.087   3.952
 9295SOL    HW228785   4.531   2.120   3.844
 9296SOL     OW28786   6.638   6.500   5.670
 9296SOL    HW128787   6.721   6.554   5.652
 9296SOL    HW228788   6.631   6.427   5.603
 9297SOL     OW28789   0.273   0.663   1.085
 9297SOL    HW128790   0.242   0.757   1.097
 9297SOL    HW228791   0.269   0.615   1.172
 9298SOL     OW28792   0.523   6.575   5.036
 9298SOL    HW128793   0.436   6.572   4.986
 9298SOL    HW228794   0.599   6.564   4.971
 9299SOL     OW28795   1.941   2.747   4.242
 9299SOL    HW128796   1.935   2.838   4.284
 9299SOL    HW228797   1.888   2.682   4.297
 9300SOL     OW28798   5.696   4.340   3.739
 9300SOL    HW128799   5.718   4.385   3.826
 9300SOL    HW228800   5.597   4.333   3.729
 9301SOL     OW28801   5.978   3.974   2.483
 9301SOL    HW128802   5.995   4.001   2.388
 9301SOL    HW228803   5.892   3.923   2.488
 9302SOL     OW28804   2.420   2.164   2.652
 9302SOL    HW128805   2.501   2.211   2.686
 9302SOL    HW228806   2.412   2.177   2.553
 9303SOL     OW28807   3.688   4.514   1.056
 9303SOL    HW128808   3.705   4.418   1.038
 9303SOL    HW228809   3.629   4.552   0.985
 9304SOL     OW28810   4.087   3.538   0.365
 9304SOL    HW128811   4.164   3.589   0.402
 9304SOL    HW228812   4.045   3.589   0.290
 9305SOL     OW28813   4.867   3.182   2.485
 9305SOL    HW128814   4.946   3.204   2.429
 9305SOL    HW228815   4.787   3.230   2.450
 9306SOL     OW28816   6.546   4.628   3.891
 9306SOL    HW128817   6.551   4.570   3.809
 9306SOL    HW228818   6.452   4.660   3.902
 9307SOL     OW28819   2.250   0.905   6.308
 9307SOL    HW128820   2.273   1.002   6.316
 9307SOL    HW228821   2.332   0.854   6.283
 9308SOL     OW28822   6.618   2.332   0.644
 9308SOL    HW128823   6.685   2.343   0.570
 9308SOL    HW228824   6.562   2.251   0.626
 9309SOL     OW28825   4.826   3.350   6.701
 9309SOL    HW128826   4.732   3.334   6.730
 9309SOL    HW228827   4.852   3.283   6.631
 9310SOL     OW28828   3.540   6.170   1.102
 9310SOL    HW128829   3.466   6.233   1.081
 9310SOL    HW228830   3.611   6.178   1.032
 9311SOL     OW28831   6.484   3.151   1.602
 9311SOL    HW128832   6.408   3.212   1.625
 9311SOL    HW228833   6.521   3.109   1.685
 9312SOL     OW28834   1.258   4.688   5.261
 9312SOL    HW128835   1.264   4.761   5.330
 9312SOL    HW228836   1.320   4.614   5.286
 9313SOL     OW28837   6.249   6.461   2.235
 9313SOL    HW128838   6.228   6.529   2.165
 9313SOL    HW228839   6.340   6.478   2.272
 9314SOL     OW28840   5.509   5.094   0.368
 9314SOL    HW128841   5.438   5.023   0.359
 9314SOL    HW228842   5.599   5.051   0.367
 9315SOL     OW28843   0.119   6.424   6.582
 9315SOL    HW128844   0.113   6.352   6.651
 9315SOL    HW228845   0.142   6.383   6.494
 9316SOL     OW28846   3.914   6.085   4.608
 9316SOL    HW128847   3.902   6.133   4.521
 9316SOL    HW228848   4.012   6.077   4.629
 9317SOL     OW28849   5.417   4.442   4.979
 9317SOL    HW128850   5.400   4.424   4.882
 9317SOL    HW228851   5.470   4.526   4.989
 9318SOL     OW28852   6.215   6.630   6.321
 9318SOL    HW128853   6.210   6.707   6.384
 9318SOL    HW228854   6.269   6.656   6.241
 9319SOL     OW28855   6.725   2.964   4.805
 9319SOL    HW128856   6.677   2.877   4.814
 9319SOL    HW228857   6.698   3.025   4.880
 9320SOL     OW28858   4.018   2.833   6.394
 9320SOL    HW128859   3.979   2.775   6.322
 9320SOL    HW228860   4.097   2.882   6.357
 9321SOL     OW28861   6.163   6.212   3.215
 9321SOL    HW128862   6.262   6.216   3.218
 9321SOL    HW228863   6.134   6.149   3.143
 9322SOL     OW28864   0.849   6.405   6.978
 9322SOL    HW128865   0.830   6.308   6.994
 9322SOL    HW228866   0.941   6.414   6.939
 9323SOL     OW28867   0.166   1.774   6.184
 9323SOL    HW128868   0.147   1.763   6.282
 9323SOL    HW228869   0.129   1.696   6.134
 9324SOL     OW28870   1.651   5.466   6.700
 9324SOL    HW128871   1.625   5.387   6.645
 9324SOL    HW228872   1.570   5.519   6.723
 9325SOL     OW28873   0.440   2.960   0.302
 9325SOL    HW128874   0.394   2.971   0.214
 9325SOL    HW228875   0.373   2.965   0.376
 9326SOL     OW28876   1.858   5.706   1.183
 9326SOL    HW128877   1.872   5.800   1.213
 9326SOL    HW228878   1.929   5.647   1.224
 9327SOL     OW28879   4.242   0.927   3.515
 9327SOL    HW128880   4.193   0.992   3.456
 9327SOL    HW228881   4.176   0.879   3.573
 9328SOL     OW28882   4.015   0.943   2.180
 9328SOL    HW128883   4.020   0.860   2.235
 9328SOL    HW228884   3.975   0.922   2.091
 9329SOL     OW28885   1.394   4.387   1.932
 9329SOL    HW128886   1.372   4.292   1.954
 9329SOL    HW228887   1.491   4.395   1.912
 9330SOL     OW28888   5.264   6.816   6.793
 9330SOL    HW128889   5.306   6.830   6.703
 9330SOL    HW228890   5.196   6.743   6.787
 9331SOL     OW28891   0.475   1.690   0.093
 9331SOL    HW128892   0.557   1.693   0.149
 9331SOL    HW228893   0.482   1.758   0.020
 9332SOL     OW28894   3.296   4.067   4.497
 9332SOL    HW128895   3.223   4.043   4.433
 9332SOL    HW228896   3.255   4.107   4.580
 9333SOL     OW28897   5.725   5.600   1.067
 9333SOL    HW128898   5.660   5.534   1.030
 9333SOL    HW228899   5.738   5.583   1.165
 9334SOL     OW28900   2.814   0.051   4.757
 9334SOL    HW128901   2.826   0.106   4.839
 9334SOL    HW228902   2.864   0.094   4.681
 9335SOL     OW28903   0.796   0.980   1.518
 9335SOL    HW128904   0.761   0.894   1.556
 9335SOL    HW228905   0.720   1.043   1.504
 9336SOL     OW28906   3.525   7.011   5.349
 9336SOL    HW128907   3.443   6.995   5.404
 9336SOL    HW228908   3.599   0.021   5.408
 9337SOL     OW28909   4.688   6.830   2.981
 9337SOL    HW128910   4.639   6.902   3.032
 9337SOL    HW228911   4.651   6.824   2.889
 9338SOL     OW28912   3.945   0.001   1.706
 9338SOL    HW128913   3.893   0.049   1.777
 9338SOL    HW228914   3.993   0.068   1.649
 9339SOL     OW28915   3.869   5.853   0.837
 9339SOL    HW128916   3.966   5.835   0.851
 9339SOL    HW228917   3.815   5.782   0.882
 9340SOL     OW28918   5.735   3.339   0.786
 9340SOL    HW128919   5.762   3.431   0.758
 9340SOL    HW228920   5.641   3.340   0.821
 9341SOL     OW28921   6.803   5.016   5.693
 9341SOL    HW128922   6.794   5.067   5.779
 9341SOL    HW228923   6.738   5.053   5.626
 9342SOL     OW28924   0.979   6.573   6.206
 9342SOL    HW128925   0.988   6.604   6.111
 9342SOL    HW228926   1.055   6.609   6.260
 9343SOL     OW28927   6.439   5.942   4.129
 9343SOL    HW128928   6.484   5.858   4.160
 9343SOL    HW228929   6.443   5.946   4.029
 9344SOL     OW28930   4.079   6.266   1.007
 9344SOL    HW128931   4.137   6.263   1.089
 9344SOL    HW228932   4.134   6.292   0.928
 9345SOL     OW28933   0.181   2.688   0.604
 9345SOL    HW128934   0.171   2.599   0.649
 9345SOL    HW228935   0.093   2.735   0.603
 9346SOL     OW28936   5.946   6.708   0.834
 9346SOL    HW128937   5.857   6.670   0.860
 9346SOL    HW228938   5.938   6.806   0.818
 9347SOL     OW28939   1.283   6.689   1.891
 9347SOL    HW128940   1.368   6.659   1.934
 9347SOL    HW228941   1.205   6.644   1.936
 9348SOL     OW28942   2.398   4.784   0.442
 9348SOL    HW128943   2.323   4.739   0.392
 9348SOL    HW228944   2.473   4.719   0.453
 9349SOL     OW28945   1.931   5.845   2.458
 9349SOL    HW128946   1.937   5.774   2.528
 9349SOL    HW228947   1.945   5.935   2.500
 9350SOL     OW28948   0.210   2.727   5.661
 9350SOL    HW128949   0.179   2.701   5.570
 9350SOL    HW228950   0.140   2.783   5.706
 9351SOL     OW28951   2.806   1.413   6.571
 9351SOL    HW128952   2.865   1.438   6.647
 9351SOL    HW228953   2.862   1.397   6.489
 9352SOL     OW28954   2.216   4.954   5.464
 9352SOL    HW128955   2.138   4.898   5.435
 9352SOL    HW228956   2.224   4.951   5.564
 9353SOL     OW28957   5.981   1.090   0.576
 9353SOL    HW128958   6.050   1.018   0.563
 9353SOL    HW228959   5.994   1.133   0.665
 9354SOL     OW28960   0.983   1.804   6.132
 9354SOL    HW128961   1.078   1.795   6.162
 9354SOL    HW228962   0.980   1.855   6.046
 9355SOL     OW28963   0.614   1.532   5.092
 9355SOL    HW128964   0.572   1.441   5.099
 9355SOL    HW228965   0.543   1.600   5.077
 9356SOL     OW28966   5.329   6.905   3.685
 9356SOL    HW128967   5.424   6.887   3.661
 9356SOL    HW228968   5.279   6.818   3.690
 9357SOL     OW28969   1.088   1.587   0.314
 9357SOL    HW128970   1.064   1.682   0.333
 9357SOL    HW228971   1.043   1.557   0.230
 9358SOL     OW28972   1.270   2.534   1.668
 9358SOL    HW128973   1.358   2.536   1.621
 9358SOL    HW228974   1.281   2.567   1.762
 9359SOL     OW28975   0.931   6.824   5.343
 9359SOL    HW128976   0.966   6.880   5.268
 9359SOL    HW228977   1.004   6.809   5.410
 9360SOL     OW28978   0.739   0.389   6.153
 9360SOL    HW128979   0.715   0.312   6.213
 9360SOL    HW228980   0.797   0.357   6.079
 9361SOL     OW28981   2.124   5.691   4.194
 9361SOL    HW128982   2.112   5.667   4.097
 9361SOL    HW228983   2.220   5.681   4.219
 9362SOL     OW28984   2.457   0.745   2.251
 9362SOL    HW128985   2.549   0.750   2.213
 9362SOL    HW228986   2.405   0.825   2.220
 9363SOL     OW28987   2.135   4.848   2.590
 9363SOL    HW128988   2.166   4.834   2.684
 9363SOL    HW228989   2.107   4.760   2.551
 9364SOL     OW28990   0.562   2.602   0.543
 9364SOL    HW128991   0.475   2.643   0.568
 9364SOL    HW228992   0.633   2.633   0.606
 9365SOL     OW28993   2.972   1.043   4.708
 9365SOL    HW128994   2.933   1.033   4.800
 9365SOL    HW228995   2.900   1.074   4.645
 9366SOL     OW28996   4.308   6.273   2.605
 9366SOL    HW128997   4.253   6.272   2.688
 9366SOL    HW228998   4.361   6.357   2.601
 9367SOL     OW28999   6.384   1.104   1.161
 9367SOL    HW129000   6.331   1.065   1.086
 9367SOL    HW229001   6.411   1.198   1.138
 9368SOL     OW29002   2.779   0.482   2.779
 9368SOL    HW129003   2.783   0.405   2.843
 9368SOL    HW229004   2.694   0.477   2.726
 9369SOL     OW29005   3.657   5.281   0.359
 9369SOL    HW129006   3.747   5.238   0.349
 9369SOL    HW229007   3.643   5.306   0.454
 9370SOL     OW29008   4.385   1.934   4.910
 9370SOL    HW129009   4.394   1.835   4.914
 9370SOL    HW229010   4.365   1.962   4.816
 9371SOL     OW29011   4.093   4.781   0.741
 9371SOL    HW129012   4.059   4.819   0.827
 9371SOL    HW229013   4.143   4.851   0.691
 9372SOL     OW29014   4.185   5.641   1.480
 9372SOL    HW129015   4.093   5.619   1.448
 9372SOL    HW229016   4.230   5.700   1.413
 9373SOL     OW29017   6.702   3.020   1.000
 9373SOL    HW129018   6.703   3.107   1.048
 9373SOL    HW229019   6.715   2.945   1.065
 9374SOL     OW29020   0.122   5.277   6.196
 9374SOL    HW129021   0.087   5.329   6.118
 9374SOL    HW229022   0.183   5.205   6.163
 9375SOL     OW29023   1.299   0.996   0.147
 9375SOL    HW129024   1.263   0.952   0.064
 9375SOL    HW229025   1.383   0.951   0.175
 9376SOL     OW29026   2.450   3.908   0.813
 9376SOL    HW129027   2.355   3.923   0.785
 9376SOL    HW229028   2.490   3.995   0.843
 9377SOL     OW29029   2.050   0.616   3.261
 9377SOL    HW129030   2.000   0.533   3.287
 9377SOL    HW229031   2.136   0.620   3.312
 9378SOL     OW29032   3.681   0.943   4.809
 9378SOL    HW129033   3.755   0.879   4.787
 9378SOL    HW229034   3.672   1.010   4.735
 9379SOL     OW29035   4.160   7.006   4.684
 9379SOL    HW129036   4.069   0.025   4.671
 9379SOL    HW229037   4.195   6.974   4.596
 9380SOL     OW29038   4.987   5.411   0.646
 9380SOL    HW129039   4.986   5.426   0.745
 9380SOL    HW229040   4.928   5.332   0.624
 9381SOL     OW29041   5.435   0.825   5.337
 9381SOL    HW129042   5.463   0.834   5.433
 9381SOL    HW229043   5.335   0.827   5.332
 9382SOL     OW29044   3.223   5.523   6.110
 9382SOL    HW129045   3.264   5.551   6.024
 9382SOL    HW229046   3.292   5.523   6.182
 9383SOL     OW29047   5.507   3.850   2.364
 9383SOL    HW129048   5.492   3.754   2.340
 9383SOL    HW229049   5.600   3.862   2.398
 9384SOL     OW29050   3.779   7.020   1.425
 9384SOL    HW129051   3.737   7.017   1.516
 9384SOL    HW229052   3.708   0.012   1.356
 9385SOL     OW29053   4.056   1.947   4.610
 9385SOL    HW129054   4.153   1.970   4.615
 9385SOL    HW229055   4.009   1.982   4.691
 9386SOL     OW29056   5.159   6.468   1.581
 9386SOL    HW129057   5.228   6.509   1.521
 9386SOL    HW229058   5.187   6.376   1.607
 9387SOL     OW29059   2.246   1.899   6.554
 9387SOL    HW129060   2.337   1.882   6.516
 9387SOL    HW229061   2.192   1.815   6.547
 9388SOL     OW29062   2.449   0.017   4.889
 9388SOL    HW129063   2.412   0.071   4.813
 9388SOL    HW229064   2.513   0.073   4.942
 9389SOL     OW29065   1.834   4.029   1.615
 9389SOL    HW129066   1.898   4.014   1.690
 9389SOL    HW229067   1.820   3.944   1.565
 9390SOL     OW29068   5.103   4.538   4.164
 9390SOL    HW129069   5.058   4.626   4.147
 9390SOL    HW229070   5.073   4.503   4.253
 9391SOL     OW29071   1.310   3.909   4.737
 9391SOL    HW129072   1.378   3.976   4.767
 9391SOL    HW229073   1.350   3.852   4.665
 9392SOL     OW29074   5.022   4.703   2.575
 9392SOL    HW129075   4.965   4.620   2.578
 9392SOL    HW229076   5.117   4.677   2.560
 9393SOL     OW29077   1.530   5.765   6.225
 9393SOL    HW129078   1.589   5.844   6.207
 9393SOL    HW229079   1.551   5.727   6.315
 9394SOL     OW29080   4.194   0.450   0.480
 9394SOL    HW129081   4.254   0.390   0.531
 9394SOL    HW229082   4.247   0.523   0.437
 9395SOL     OW29083   1.565   1.495   1.127
 9395SOL    HW129084   1.568   1.588   1.165
 9395SOL    HW229085   1.643   1.443   1.159
 9396SOL     OW29086   0.746   1.161   6.207
 9396SOL    HW129087   0.826   1.193   6.257
 9396SOL    HW229088   0.776   1.105   6.130
 9397SOL     OW29089   3.822   1.213   4.648
 9397SOL    HW129090   3.846   1.307   4.672
 9397SOL    HW229091   3.899   1.153   4.672
 9398SOL     OW29092   0.320   2.084   0.672
 9398SOL    HW129093   0.223   2.106   0.684
 9398SOL    HW229094   0.330   2.023   0.593
 9399SOL     OW29095   0.837   2.198   4.319
 9399SOL    HW129096   0.804   2.139   4.392
 9399SOL    HW229097   0.791   2.287   4.325
 9400SOL     OW29098   5.471   2.081   1.103
 9400SOL    HW129099   5.394   2.034   1.146
 9400SOL    HW229100   5.489   2.041   1.013
 9401SOL     OW29101   0.095   2.287   3.497
 9401SOL    HW129102   0.033   2.298   3.419
 9401SOL    HW229103   0.154   2.208   3.481
 9402SOL     OW29104   2.699   6.469   4.502
 9402SOL    HW129105   2.613   6.518   4.485
 9402SOL    HW229106   2.685   6.371   4.487
 9403SOL     OW29107   5.424   2.340   1.124
 9403SOL    HW129108   5.453   2.246   1.108
 9403SOL    HW229109   5.503   2.396   1.148
 9404SOL     OW29110   2.142   2.969   1.047
 9404SOL    HW129111   2.193   2.955   0.962
 9404SOL    HW229112   2.148   3.065   1.075
 9405SOL     OW29113   6.417   5.974   5.318
 9405SOL    HW129114   6.406   5.878   5.291
 9405SOL    HW229115   6.430   6.030   5.237
 9406SOL     OW29116   1.601   2.041   0.224
 9406SOL    HW129117   1.543   1.960   0.218
 9406SOL    HW229118   1.645   2.044   0.314
 9407SOL     OW29119   1.481   4.672   4.490
 9407SOL    HW129120   1.394   4.721   4.497
 9407SOL    HW229121   1.493   4.640   4.396
 9408SOL     OW29122   5.730   4.464   4.015
 9408SOL    HW129123   5.655   4.467   4.082
 9408SOL    HW229124   5.794   4.538   4.034
 9409SOL     OW29125   5.998   5.285   1.793
 9409SOL    HW129126   6.057   5.366   1.786
 9409SOL    HW229127   5.910   5.312   1.830
 9410SOL     OW29128   4.345   0.412   1.031
 9410SOL    HW129129   4.319   0.484   1.095
 9410SOL    HW229130   4.264   0.358   1.007
 9411SOL     OW29131   3.304   4.125   3.299
 9411SOL    HW129132   3.272   4.141   3.392
 9411SOL    HW229133   3.401   4.102   3.300
 9412SOL     OW29134   4.798   6.735   1.518
 9412SOL    HW129135   4.849   6.686   1.448
 9412SOL    HW229136   4.700   6.719   1.506
 9413SOL     OW29137   4.618   4.437   2.871
 9413SOL    HW129138   4.542   4.453   2.808
 9413SOL    HW229139   4.641   4.522   2.918
 9414SOL     OW29140   2.542   2.151   2.377
 9414SOL    HW129141   2.488   2.235   2.380
 9414SOL    HW229142   2.639   2.173   2.368
 9415SOL     OW29143   5.632   0.301   1.364
 9415SOL    HW129144   5.549   0.262   1.325
 9415SOL    HW229145   5.612   0.339   1.455
 9416SOL     OW29146   5.870   5.440   5.118
 9416SOL    HW129147   5.897   5.379   5.191
 9416SOL    HW229148   5.890   5.535   5.144
 9417SOL     OW29149   3.649   5.604   2.446
 9417SOL    HW129150   3.577   5.553   2.494
 9417SOL    HW229151   3.728   5.614   2.506
 9418SOL     OW29152   2.878   1.957   5.113
 9418SOL    HW129153   2.881   1.948   5.014
 9418SOL    HW229154   2.970   1.974   5.148
 9419SOL     OW29155   2.064   2.691   6.954
 9419SOL    HW129156   2.082   2.615   6.892
 9419SOL    HW229157   1.966   2.714   6.953
 9420SOL     OW29158   5.659   3.827   5.534
 9420SOL    HW129159   5.752   3.815   5.569
 9420SOL    HW229160   5.599   3.758   5.573
 9421SOL     OW29161   3.780   6.157   6.681
 9421SOL    HW129162   3.740   6.112   6.762
 9421SOL    HW229163   3.755   6.254   6.682
 9422SOL     OW29164   2.278   6.646   5.436
 9422SOL    HW129165   2.353   6.708   5.413
 9422SOL    HW229166   2.191   6.696   5.433
 9423SOL     OW29167   4.258   5.293   1.651
 9423SOL    HW129168   4.184   5.271   1.586
 9423SOL    HW229169   4.263   5.392   1.664
 9424SOL     OW29170   0.023   0.225   4.327
 9424SOL    HW129171   6.965   0.194   4.275
 9424SOL    HW229172   0.020   0.187   4.419
 9425SOL     OW29173   6.627   4.049   0.855
 9425SOL    HW129174   6.642   4.129   0.912
 9425SOL    HW229175   6.599   4.078   0.763
 9426SOL     OW29176   4.332   2.845   6.734
 9426SOL    HW129177   4.408   2.891   6.687
 9426SOL    HW229178   4.287   2.782   6.671
 9427SOL     OW29179   4.094   4.805   2.049
 9427SOL    HW129180   4.191   4.779   2.056
 9427SOL    HW229181   4.087   4.890   1.997
 9428SOL     OW29182   1.081   6.036   5.847
 9428SOL    HW129183   1.038   6.037   5.757
 9428SOL    HW229184   1.021   5.989   5.913
 9429SOL     OW29185   3.085   2.074   4.262
 9429SOL    HW129186   3.087   2.119   4.352
 9429SOL    HW229187   3.146   2.122   4.199
 9430SOL     OW29188   1.917   0.650   4.284
 9430SOL    HW129189   1.867   0.691   4.360
 9430SOL    HW229190   2.012   0.682   4.285
 9431SOL     OW29191   0.889   4.130   5.099
 9431SOL    HW129192   0.982   4.121   5.133
 9431SOL    HW229193   0.834   4.181   5.166
 9432SOL     OW29194   6.840   1.497   3.863
 9432SOL    HW129195   6.773   1.461   3.799
 9432SOL    HW229196   6.806   1.583   3.902
 9433SOL     OW29197   4.479   5.729   1.979
 9433SOL    HW129198   4.434   5.640   1.991
 9433SOL    HW229199   4.534   5.750   2.059
 9434SOL     OW29200   4.214   5.673   4.286
 9434SOL    HW129201   4.201   5.614   4.207
 9434SOL    HW229202   4.138   5.661   4.350
 9435SOL     OW29203   5.991   4.088   0.668
 9435SOL    HW129204   5.940   4.174   0.678
 9435SOL    HW229205   6.073   4.104   0.614
 9436SOL     OW29206   3.179   0.969   3.216
 9436SOL    HW129207   3.137   0.890   3.261
 9436SOL    HW229208   3.142   1.054   3.256
 9437SOL     OW29209   5.458   0.576   4.469
 9437SOL    HW129210   5.519   0.636   4.521
 9437SOL    HW229211   5.388   0.539   4.531
 9438SOL     OW29212   4.931   0.488   2.886
 9438SOL    HW129213   4.977   0.522   2.804
 9438SOL    HW229214   4.963   0.539   2.966
 9439SOL     OW29215   2.087   4.245   1.202
 9439SOL    HW129216   2.093   4.161   1.255
 9439SOL    HW229217   1.991   4.267   1.185
 9440SOL     OW29218   1.545   5.904   4.448
 9440SOL    HW129219   1.590   5.816   4.439
 9440SOL    HW229220   1.476   5.899   4.520
 9441SOL     OW29221   0.392   6.389   4.477
 9441SOL    HW129222   0.465   6.438   4.429
 9441SOL    HW229223   0.304   6.414   4.438
 9442SOL     OW29224   5.627   3.167   1.020
 9442SOL    HW129225   5.721   3.190   1.045
 9442SOL    HW229226   5.570   3.249   1.027
 9443SOL     OW29227   2.488   4.342   1.650
 9443SOL    HW129228   2.430   4.321   1.729
 9443SOL    HW229229   2.432   4.348   1.568
 9444SOL     OW29230   1.871   5.631   6.424
 9444SOL    HW129231   1.907   5.721   6.403
 9444SOL    HW229232   1.914   5.596   6.507
 9445SOL     OW29233   0.403   1.001   4.031
 9445SOL    HW129234   0.313   0.970   4.000
 9445SOL    HW229235   0.393   1.083   4.087
 9446SOL     OW29236   6.342   4.345   4.213
 9446SOL    HW129237   6.395   4.382   4.137
 9446SOL    HW229238   6.399   4.337   4.294
 9447SOL     OW29239   5.190   5.020   2.203
 9447SOL    HW129240   5.231   5.105   2.236
 9447SOL    HW229241   5.200   4.949   2.272
 9448SOL     OW29242   5.256   2.092   6.663
 9448SOL    HW129243   5.325   2.088   6.590
 9448SOL    HW229244   5.166   2.075   6.625
 9449SOL     OW29245   4.682   0.047   1.975
 9449SOL    HW129246   4.678   6.980   2.020
 9449SOL    HW229247   4.774   0.084   1.983
 9450SOL     OW29248   1.126   0.049   3.051
 9450SOL    HW129249   1.043   0.099   3.027
 9450SOL    HW229250   1.147   0.064   3.148
 9451SOL     OW29251   3.754   4.638   0.451
 9451SOL    HW129252   3.748   4.592   0.362
 9451SOL    HW229253   3.721   4.577   0.523
 9452SOL     OW29254   5.986   4.196   6.119
 9452SOL    HW129255   6.041   4.260   6.172
 9452SOL    HW229256   6.006   4.206   6.022
 9453SOL     OW29257   6.097   4.518   2.303
 9453SOL    HW129258   6.130   4.613   2.304
 9453SOL    HW229259   6.110   4.480   2.211
 9454SOL     OW29260   5.765   5.048   1.055
 9454SOL    HW129261   5.777   5.141   1.020
 9454SOL    HW229262   5.772   4.983   0.980
 9455SOL     OW29263   4.585   0.462   1.380
 9455SOL    HW129264   4.546   0.431   1.467
 9455SOL    HW229265   4.591   0.386   1.316
 9456SOL     OW29266   6.699   2.273   3.006
 9456SOL    HW129267   6.667   2.220   3.085
 9456SOL    HW229268   6.792   2.305   3.023
 9457SOL     OW29269   6.516   5.900   3.887
 9457SOL    HW129270   6.474   5.815   3.854
 9457SOL    HW229271   6.487   5.976   3.830
 9458SOL     OW29272   6.014   4.215   0.372
 9458SOL    HW129273   6.053   4.210   0.280
 9458SOL    HW229274   6.061   4.285   0.425
 9459SOL     OW29275   4.765   4.461   4.787
 9459SOL    HW129276   4.820   4.437   4.706
 9459SOL    HW229277   4.668   4.456   4.764
 9460SOL     OW29278   1.668   2.469   2.286
 9460SOL    HW129279   1.712   2.551   2.248
 9460SOL    HW229280   1.587   2.447   2.232
 9461SOL     OW29281   2.193   1.488   1.957
 9461SOL    HW129282   2.293   1.478   1.958
 9461SOL    HW229283   2.152   1.406   1.996
 9462SOL     OW29284   6.898   1.583   5.853
 9462SOL    HW129285   6.800   1.571   5.842
 9462SOL    HW229286   6.934   1.639   5.778
 9463SOL     OW29287   6.441   4.584   0.752
 9463SOL    HW129288   6.432   4.638   0.668
 9463SOL    HW229289   6.384   4.502   0.745
 9464SOL     OW29290   1.068   0.481   1.682
 9464SOL    HW129291   1.106   0.551   1.621
 9464SOL    HW229292   1.089   0.391   1.644
 9465SOL     OW29293   6.687   5.932   0.393
 9465SOL    HW129294   6.692   5.882   0.479
 9465SOL    HW229295   6.627   6.011   0.404
 9466SOL     OW29296   4.478   3.814   5.360
 9466SOL    HW129297   4.429   3.747   5.304
 9466SOL    HW229298   4.426   3.899   5.364
 9467SOL     OW29299   1.146   3.884   0.706
 9467SOL    HW129300   1.194   3.972   0.702
 9467SOL    HW229301   1.138   3.855   0.801
 9468SOL     OW29302   6.067   1.170   1.313
 9468SOL    HW129303   6.092   1.163   1.216
 9468SOL    HW229304   6.149   1.191   1.367
 9469SOL     OW29305   0.000   6.938   1.390
 9469SOL    HW129306   0.063   7.008   1.424
 9469SOL    HW229307   0.050   6.854   1.372
 9470SOL     OW29308   3.550   2.790   0.538
 9470SOL    HW129309   3.646   2.768   0.559
 9470SOL    HW229310   3.493   2.711   0.558
 9471SOL     OW29311   6.574   3.127   4.982
 9471SOL    HW129312   6.535   3.100   5.070
 9471SOL    HW229313   6.501   3.133   4.914
 9472SOL     OW29314   1.630   3.365   5.765
 9472SOL    HW129315   1.578   3.302   5.822
 9472SOL    HW229316   1.652   3.448   5.817
 9473SOL     OW29317   3.334   3.752   1.257
 9473SOL    HW129318   3.240   3.732   1.228
 9473SOL    HW229319   3.340   3.746   1.356
 9474SOL     OW29320   5.334   4.414   1.152
 9474SOL    HW129321   5.291   4.427   1.062
 9474SOL    HW229322   5.336   4.501   1.201
 9475SOL     OW29323   5.539   3.296   6.545
 9475SOL    HW129324   5.567   3.200   6.535
 9475SOL    HW229325   5.552   3.343   6.458
 9476SOL     OW29326   4.166   4.213   1.141
 9476SOL    HW129327   4.097   4.153   1.182
 9476SOL    HW229328   4.130   4.306   1.134
 9477SOL     OW29329   1.281   4.659   0.902
 9477SOL    HW129330   1.190   4.623   0.878
 9477SOL    HW229331   1.275   4.709   0.989
 9478SOL     OW29332   6.279   4.116   6.180
 9478SOL    HW129333   6.234   4.195   6.222
 9478SOL    HW229334   6.271   4.037   6.240
 9479SOL     OW29335   4.481   0.990   2.231
 9479SOL    HW129336   4.441   0.953   2.148
 9479SOL    HW229337   4.573   0.952   2.244
 9480SOL     OW29338   5.591   0.335   0.795
 9480SOL    HW129339   5.492   0.317   0.791
 9480SOL    HW229340   5.607   0.423   0.840
 9481SOL     OW29341   4.977   0.320   3.304
 9481SOL    HW129342   5.069   0.280   3.301
 9481SOL    HW229343   4.936   0.302   3.393
 9482SOL     OW29344   6.165   4.892   5.278
 9482SOL    HW129345   6.145   4.798   5.250
 9482SOL    HW229346   6.081   4.945   5.280
 9483SOL     OW29347   6.188   5.485   6.445
 9483SOL    HW129348   6.181   5.584   6.455
 9483SOL    HW229349   6.213   5.462   6.351
 9484SOL     OW29350   2.005   6.157   4.775
 9484SOL    HW129351   2.029   6.227   4.842
 9484SOL    HW229352   2.039   6.184   4.685
 9485SOL     OW29353   0.656   1.198   5.277
 9485SOL    HW129354   0.749   1.186   5.243
 9485SOL    HW229355   0.604   1.254   5.213
 9486SOL     OW29356   6.783   5.666   6.157
 9486SOL    HW129357   6.806   5.703   6.247
 9486SOL    HW229358   6.755   5.571   6.167
 9487SOL     OW29359   3.169   3.821   3.095
 9487SOL    HW129360   3.191   3.914   3.068
 9487SOL    HW229361   3.188   3.758   3.019
 9488SOL     OW29362   2.275   0.911   1.672
 9488SOL    HW129363   2.349   0.887   1.609
 9488SOL    HW229364   2.307   0.900   1.766
 9489SOL     OW29365   6.432   4.100   0.070
 9489SOL    HW129366   6.339   4.094   0.033
 9489SOL    HW229367   6.495   4.125   7.018
 9490SOL     OW29368   5.506   3.491   4.677
 9490SOL    HW129369   5.588   3.450   4.637
 9490SOL    HW229370   5.425   3.463   4.625
 9491SOL     OW29371   5.580   0.190   2.836
 9491SOL    HW129372   5.649   0.201   2.765
 9491SOL    HW229373   5.535   0.101   2.824
 9492SOL     OW29374   4.663   2.213   4.231
 9492SOL    HW129375   4.609   2.147   4.284
 9492SOL    HW229376   4.740   2.166   4.188
 9493SOL     OW29377   3.365   6.075   2.224
 9493SOL    HW129378   3.303   6.001   2.199
 9493SOL    HW229379   3.345   6.155   2.168
 9494SOL     OW29380   5.183   2.467   2.201
 9494SOL    HW129381   5.204   2.480   2.298
 9494SOL    HW229382   5.179   2.369   2.181
 9495SOL     OW29383   5.371   2.723   1.394
 9495SOL    HW129384   5.365   2.791   1.320
 9495SOL    HW229385   5.317   2.754   1.472
 9496SOL     OW29386   5.990   2.971   1.083
 9496SOL    HW129387   6.041   2.982   1.169
 9496SOL    HW229388   6.048   2.998   1.006
 9497SOL     OW29389   5.195   5.107   5.255
 9497SOL    HW129390   5.178   5.060   5.341
 9497SOL    HW229391   5.262   5.180   5.269
 9498SOL     OW29392   1.123   5.777   5.458
 9498SOL    HW129393   1.163   5.774   5.550
 9498SOL    HW229394   1.043   5.837   5.459
 9499SOL     OW29395   5.836   6.359   4.394
 9499SOL    HW129396   5.863   6.407   4.478
 9499SOL    HW229397   5.911   6.300   4.364
 9500SOL     OW29398   3.063   1.614   0.735
 9500SOL    HW129399   3.000   1.636   0.810
 9500SOL    HW229400   3.071   1.515   0.727
 9501SOL     OW29401   1.871   4.132   5.148
 9501SOL    HW129402   1.943   4.063   5.145
 9501SOL    HW229403   1.782   4.088   5.153
 9502SOL     OW29404   5.656   4.351   3.344
 9502SOL    HW129405   5.734   4.392   3.390
 9502SOL    HW229406   5.602   4.423   3.301
 9503SOL     OW29407   5.745   1.294   0.344
 9503SOL    HW129408   5.670   1.229   0.339
 9503SOL    HW229409   5.738   1.347   0.429
 9504SOL     OW29410   6.545   5.935   2.324
 9504SOL    HW129411   6.476   5.963   2.258
 9504SOL    HW229412   6.554   5.835   2.324
 9505SOL     OW29413   4.628   3.749   6.711
 9505SOL    HW129414   4.556   3.707   6.656
 9505SOL    HW229415   4.602   3.842   6.736
 9506SOL     OW29416   3.341   1.062   1.593
 9506SOL    HW129417   3.410   1.135   1.594
 9506SOL    HW229418   3.273   1.080   1.665
 9507SOL     OW29419   6.390   6.489   1.723
 9507SOL    HW129420   6.312   6.450   1.773
 9507SOL    HW229421   6.462   6.419   1.716
 9508SOL     OW29422   5.045   0.826   2.045
 9508SOL    HW129423   5.006   0.736   2.063
 9508SOL    HW229424   5.141   0.816   2.018
 9509SOL     OW29425   5.735   1.215   3.475
 9509SOL    HW129426   5.730   1.313   3.492
 9509SOL    HW229427   5.647   1.183   3.439
 9510SOL     OW29428   1.696   2.681   2.668
 9510SOL    HW129429   1.772   2.740   2.695
 9510SOL    HW229430   1.633   2.732   2.610
 9511SOL     OW29431   0.706   1.679   1.386
 9511SOL    HW129432   0.724   1.767   1.431
 9511SOL    HW229433   0.708   1.691   1.286
 9512SOL     OW29434   6.486   2.279   2.138
 9512SOL    HW129435   6.497   2.373   2.172
 9512SOL    HW229436   6.456   2.219   2.212
 9513SOL     OW29437   4.827   3.982   5.100
 9513SOL    HW129438   4.809   4.028   5.186
 9513SOL    HW229439   4.864   4.047   5.034
 9514SOL     OW29440   3.527   2.814   0.998
 9514SOL    HW129441   3.435   2.781   1.019
 9514SOL    HW229442   3.531   2.912   1.017
 9515SOL     OW29443   0.297   5.579   3.199
 9515SOL    HW129444   0.300   5.580   3.099
 9515SOL    HW229445   0.208   5.545   3.230
 9516SOL     OW29446   0.956   4.175   6.394
 9516SOL    HW129447   0.906   4.104   6.443
 9516SOL    HW229448   0.920   4.182   6.301
 9517SOL     OW29449   0.228   6.873   1.952
 9517SOL    HW129450   0.260   6.778   1.955
 9517SOL    HW229451   0.128   6.873   1.945
 9518SOL     OW29452   0.908   1.279   1.206
 9518SOL    HW129453   0.821   1.310   1.245
 9518SOL    HW229454   0.984   1.328   1.249
 9519SOL     OW29455   1.381   2.498   5.322
 9519SOL    HW129456   1.450   2.570   5.312
 9519SOL    HW229457   1.420   2.421   5.373
 9520SOL     OW29458   4.458   6.392   1.752
 9520SOL    HW129459   4.358   6.389   1.760
 9520SOL    HW229460   4.488   6.324   1.686
 9521SOL     OW29461   5.593   4.768   3.433
 9521SOL    HW129462   5.664   4.725   3.488
 9521SOL    HW229463   5.528   4.814   3.493
 9522SOL     OW29464   3.134   4.820   6.200
 9522SOL    HW129465   3.229   4.839   6.227
 9522SOL    HW229466   3.099   4.895   6.145
 9523SOL     OW29467   2.106   6.638   5.170
 9523SOL    HW129468   2.142   6.709   5.231
 9523SOL    HW229469   2.075   6.560   5.223
 9524SOL     OW29470   5.345   3.479   0.426
 9524SOL    HW129471   5.350   3.391   0.378
 9524SOL    HW229472   5.345   3.553   0.359
 9525SOL     OW29473   3.854   0.219   4.725
 9525SOL    HW129474   3.802   0.254   4.804
 9525SOL    HW229475   3.803   0.144   4.683
 9526SOL     OW29476   4.576   5.862   1.153
 9526SOL    HW129477   4.588   5.858   1.054
 9526SOL    HW229478   4.643   5.803   1.198
 9527SOL     OW29479   0.316   2.426   0.611
 9527SOL    HW129480   0.262   2.344   0.629
 9527SOL    HW229481   0.312   2.448   0.513
 9528SOL     OW29482   6.738   1.131   1.461
 9528SOL    HW129483   6.789   1.119   1.547
 9528SOL    HW229484   6.669   1.202   1.474
 9529SOL     OW29485   1.761   3.192   5.114
 9529SOL    HW129486   1.844   3.141   5.134
 9529SOL    HW229487   1.780   3.261   5.043
 9530SOL     OW29488   2.450   1.526   3.833
 9530SOL    HW129489   2.479   1.544   3.739
 9530SOL    HW229490   2.492   1.592   3.894
 9531SOL     OW29491   2.776   6.727   4.050
 9531SOL    HW129492   2.839   6.758   4.121
 9531SOL    HW229493   2.691   6.695   4.092
 9532SOL     OW29494   3.383   1.578   2.107
 9532SOL    HW129495   3.328   1.649   2.063
 9532SOL    HW229496   3.338   1.489   2.096
 9533SOL     OW29497   0.915   1.638   4.730
 9533SOL    HW129498   0.893   1.641   4.828
 9533SOL    HW229499   0.832   1.620   4.677
 9534SOL     OW29500   5.986   2.049   4.807
 9534SOL    HW129501   5.958   1.954   4.817
 9534SOL    HW229502   5.938   2.105   4.875
 9535SOL     OW29503   3.317   1.794   4.532
 9535SOL    HW129504   3.267   1.790   4.445
 9535SOL    HW229505   3.270   1.738   4.600
 9536SOL     OW29506   2.314   0.153   6.287
 9536SOL    HW129507   2.371   0.175   6.366
 9536SOL    HW229508   2.263   0.069   6.305
 9537SOL     OW29509   2.249   0.525   0.339
 9537SOL    HW129510   2.348   0.521   0.353
 9537SOL    HW229511   2.230   0.536   0.242
 9538SOL     OW29512   6.058   3.678   2.817
 9538SOL    HW129513   6.110   3.749   2.770
 9538SOL    HW229514   6.042   3.601   2.755
 9539SOL     OW29515   6.952   3.884   6.680
 9539SOL    HW129516   6.922   3.890   6.775
 9539SOL    HW229517   6.872   3.884   6.619
 9540SOL     OW29518   5.303   3.877   5.919
 9540SOL    HW129519   5.219   3.911   5.961
 9540SOL    HW229520   5.377   3.877   5.986
 9541SOL     OW29521   6.494   1.953   3.592
 9541SOL    HW129522   6.460   2.027   3.533
 9541SOL    HW229523   6.505   1.870   3.537
 9542SOL     OW29524   4.727   4.268   4.535
 9542SOL    HW129525   4.653   4.287   4.598
 9542SOL    HW229526   4.809   4.242   4.586
 9543SOL     OW29527   4.040   2.862   0.632
 9543SOL    HW129528   4.033   2.960   0.611
 9543SOL    HW229529   4.060   2.851   0.729
 9544SOL     OW29530   4.317   0.282   0.664
 9544SOL    HW129531   4.399   0.228   0.644
 9544SOL    HW229532   4.319   0.313   0.759
 9545SOL     OW29533   1.238   6.697   4.534
 9545SOL    HW129534   1.162   6.750   4.498
 9545SOL    HW229535   1.301   6.756   4.583
 9546SOL     OW29536   2.518   4.522   1.980
 9546SOL    HW129537   2.611   4.558   1.985
 9546SOL    HW229538   2.456   4.595   1.951
 9547SOL     OW29539   5.316   5.923   3.544
 9547SOL    HW129540   5.400   5.974   3.522
 9547SOL    HW229541   5.338   5.853   3.612
 9548SOL     OW29542   5.719   6.976   2.436
 9548SOL    HW129543   5.792   6.959   2.370
 9548SOL    HW229544   5.631   6.953   2.395
 9549SOL     OW29545   2.123   6.234   6.937
 9549SOL    HW129546   2.057   6.281   6.995
 9549SOL    HW229547   2.095   6.139   6.925
 9550SOL     OW29548   1.518   0.835   0.184
 9550SOL    HW129549   1.490   0.793   0.271
 9550SOL    HW229550   1.594   0.898   0.200
 9551SOL     OW29551   1.459   5.984   5.189
 9551SOL    HW129552   1.487   5.992   5.285
 9551SOL    HW229553   1.535   5.949   5.135
 9552SOL     OW29554   0.434   5.367   2.713
 9552SOL    HW129555   0.383   5.430   2.772
 9552SOL    HW229556   0.527   5.356   2.749
 9553SOL     OW29557   5.857   4.831   6.417
 9553SOL    HW129558   5.857   4.732   6.407
 9553SOL    HW229559   5.886   4.856   6.510
 9554SOL     OW29560   2.482   1.681   2.158
 9554SOL    HW129561   2.544   1.731   2.218
 9554SOL    HW229562   2.389   1.716   2.170
 9555SOL     OW29563   6.717   2.600   6.376
 9555SOL    HW129564   6.729   2.651   6.461
 9555SOL    HW229565   6.623   2.612   6.343
 9556SOL     OW29566   6.741   0.815   1.007
 9556SOL    HW129567   6.760   0.840   1.102
 9556SOL    HW229568   6.675   0.879   0.968
 9557SOL     OW29569   5.104   1.394   1.944
 9557SOL    HW129570   5.040   1.318   1.945
 9557SOL    HW229571   5.066   1.470   1.996
 9558SOL     OW29572   6.636   3.545   1.435
 9558SOL    HW129573   6.593   3.613   1.494
 9558SOL    HW229574   6.623   3.570   1.339
 9559SOL     OW29575   0.571   4.445   2.654
 9559SOL    HW129576   0.637   4.431   2.727
 9559SOL    HW229577   0.478   4.445   2.692
 9560SOL     OW29578   3.926   2.383   5.714
 9560SOL    HW129579   3.874   2.424   5.789
 9560SOL    HW229580   3.985   2.453   5.673
 9561SOL     OW29581   3.501   5.454   6.600
 9561SOL    HW129582   3.552   5.497   6.674
 9561SOL    HW229583   3.429   5.515   6.568
 9562SOL     OW29584   5.875   5.459   4.039
 9562SOL    HW129585   5.829   5.473   3.952
 9562SOL    HW229586   5.888   5.361   4.056
 9563SOL     OW29587   0.271   6.665   6.723
 9563SOL    HW129588   0.345   6.671   6.790
 9563SOL    HW229589   0.249   6.568   6.707
 9564SOL     OW29590   1.196   0.874   5.835
 9564SOL    HW129591   1.136   0.831   5.902
 9564SOL    HW229592   1.216   0.968   5.863
 9565SOL     OW29593   2.954   5.826   5.318
 9565SOL    HW129594   2.940   5.856   5.412
 9565SOL    HW229595   2.938   5.903   5.256
 9566SOL     OW29596   2.921   4.867   5.408
 9566SOL    HW129597   2.952   4.778   5.375
 9566SOL    HW229598   3.000   4.926   5.427
 9567SOL     OW29599   6.323   4.756   4.374
 9567SOL    HW129600   6.297   4.677   4.430
 9567SOL    HW229601   6.302   4.738   4.278
 9568SOL     OW29602   5.592   3.857   5.960
 9568SOL    HW129603   5.677   3.882   6.008
 9568SOL    HW229604   5.555   3.773   6.000
 9569SOL     OW29605   6.206   7.015   1.185
 9569SOL    HW129606   6.177   0.087   1.203
 9569SOL    HW229607   6.134   6.967   1.134
 9570SOL     OW29608   1.028   2.151   6.782
 9570SOL    HW129609   0.992   2.218   6.716
 9570SOL    HW229610   1.105   2.191   6.831
 9571SOL     OW29611   3.212   1.761   0.905
 9571SOL    HW129612   3.165   1.709   0.833
 9571SOL    HW229613   3.206   1.710   0.991
 9572SOL     OW29614   0.411   3.984   0.714
 9572SOL    HW129615   0.454   4.041   0.644
 9572SOL    HW229616   0.315   4.010   0.724
 9573SOL     OW29617   4.694   1.399   2.575
 9573SOL    HW129618   4.682   1.394   2.674
 9573SOL    HW229619   4.643   1.325   2.531
 9574SOL     OW29620   2.975   2.194   3.651
 9574SOL    HW129621   2.920   2.231   3.725
 9574SOL    HW229622   2.919   2.183   3.569
 9575SOL     OW29623   3.734   1.496   3.231
 9575SOL    HW129624   3.757   1.580   3.280
 9575SOL    HW229625   3.814   1.465   3.179
 9576SOL     OW29626   3.666   3.212   5.295
 9576SOL    HW129627   3.623   3.207   5.205
 9576SOL    HW229628   3.605   3.173   5.363
 9577SOL     OW29629   0.364   5.381   3.756
 9577SOL    HW129630   0.304   5.332   3.693
 9577SOL    HW229631   0.441   5.419   3.705
 9578SOL     OW29632   6.864   3.878   1.063
 9578SOL    HW129633   6.838   3.921   0.977
 9578SOL    HW229634   6.930   3.804   1.045
 9579SOL     OW29635   1.580   4.946   2.925
 9579SOL    HW129636   1.523   4.930   3.005
 9579SOL    HW229637   1.607   4.858   2.885
 9580SOL     OW29638   3.958   3.299   5.467
 9580SOL    HW129639   4.036   3.244   5.436
 9580SOL    HW229640   3.926   3.356   5.392
 9581SOL     OW29641   0.947   5.698   5.762
 9581SOL    HW129642   0.957   5.605   5.798
 9581SOL    HW229643   0.934   5.762   5.838
 9582SOL     OW29644   3.899   5.518   2.983
 9582SOL    HW129645   3.908   5.419   2.991
 9582SOL    HW229646   3.990   5.560   2.984
 9583SOL     OW29647   1.465   5.030   1.836
 9583SOL    HW129648   1.477   5.048   1.739
 9583SOL    HW229649   1.554   5.025   1.881
 9584SOL     OW29650   5.417   4.185   0.165
 9584SOL    HW129651   5.411   4.278   0.201
 9584SOL    HW229652   5.467   4.186   0.079
 9585SOL     OW29653   6.341   1.097   2.972
 9585SOL    HW129654   6.401   1.176   2.965
 9585SOL    HW229655   6.342   1.062   3.066
 9586SOL     OW29656   4.891   3.933   2.389
 9586SOL    HW129657   4.879   3.854   2.329
 9586SOL    HW229658   4.885   4.017   2.335
 9587SOL     OW29659   4.445   6.151   1.573
 9587SOL    HW129660   4.375   6.089   1.608
 9587SOL    HW229661   4.477   6.118   1.484
 9588SOL     OW29662   6.309   1.233   3.269
 9588SOL    HW129663   6.396   1.278   3.246
 9588SOL    HW229664   6.272   1.273   3.353
 9589SOL     OW29665   3.732   1.636   5.507
 9589SOL    HW129666   3.668   1.620   5.433
 9589SOL    HW229667   3.686   1.684   5.582
 9590SOL     OW29668   0.239   5.047   4.521
 9590SOL    HW129669   0.264   5.041   4.618
 9590SOL    HW229670   0.322   5.053   4.466
 9591SOL     OW29671   0.335   4.644   2.149
 9591SOL    HW129672   0.377   4.696   2.223
 9591SOL    HW229673   0.320   4.549   2.178
 9592SOL     OW29674   3.824   5.971   0.293
 9592SOL    HW129675   3.824   5.935   0.387
 9592SOL    HW229676   3.791   6.065   0.294
 9593SOL     OW29677   1.920   1.805   3.609
 9593SOL    HW129678   1.960   1.868   3.676
 9593SOL    HW229679   1.941   1.837   3.517
 9594SOL     OW29680   5.825   0.264   1.149
 9594SOL    HW129681   5.867   0.188   1.198
 9594SOL    HW229682   5.756   0.307   1.207
 9595SOL     OW29683   1.533   5.735   5.450
 9595SOL    HW129684   1.479   5.818   5.438
 9595SOL    HW229685   1.561   5.727   5.546
 9596SOL     OW29686   5.206   5.753   2.361
 9596SOL    HW129687   5.247   5.696   2.433
 9596SOL    HW229688   5.207   5.702   2.275
 9597SOL     OW29689   2.371   5.060   1.528
 9597SOL    HW129690   2.290   5.026   1.480
 9597SOL    HW229691   2.345   5.136   1.587
 9598SOL     OW29692   0.245   5.933   6.442
 9598SOL    HW129693   0.162   5.895   6.482
 9598SOL    HW229694   0.252   6.030   6.466
 9599SOL     OW29695   3.660   1.992   5.500
 9599SOL    HW129696   3.738   1.933   5.519
 9599SOL    HW229697   3.681   2.053   5.424
 9600SOL     OW29698   1.607   6.684   6.675
 9600SOL    HW129699   1.620   6.591   6.708
 9600SOL    HW229700   1.673   6.703   6.602
 9601SOL     OW29701   0.697   6.678   4.556
 9601SOL    HW129702   0.696   6.748   4.627
 9601SOL    HW229703   0.780   6.623   4.564
 9602SOL     OW29704   1.162   5.519   6.108
 9602SOL    HW129705   1.243   5.464   6.089
 9602SOL    HW229706   1.081   5.471   6.075
 9603SOL     OW29707   1.088   5.390   1.427
 9603SOL    HW129708   1.133   5.437   1.503
 9603SOL    HW229709   1.077   5.293   1.449
 9604SOL     OW29710   0.415   0.522   6.416
 9604SOL    HW129711   0.317   0.509   6.399
 9604SOL    HW229712   0.451   0.589   6.351
 9605SOL     OW29713   3.408   4.485   1.330
 9605SOL    HW129714   3.361   4.527   1.408
 9605SOL    HW229715   3.362   4.512   1.245
 9606SOL     OW29716   6.924   0.691   5.357
 9606SOL    HW129717   6.825   0.681   5.343
 9606SOL    HW229718   6.957   0.616   5.415
 9607SOL     OW29719   0.378   2.198   3.567
 9607SOL    HW129720   0.431   2.142   3.631
 9607SOL    HW229721   0.309   2.250   3.617
 9608SOL     OW29722   5.933   1.080   1.643
 9608SOL    HW129723   5.892   0.992   1.668
 9608SOL    HW229724   6.031   1.069   1.634
 9609SOL     OW29725   1.378   2.121   3.820
 9609SOL    HW129726   1.445   2.103   3.748
 9609SOL    HW229727   1.286   2.101   3.786
 9610SOL     OW29728   4.775   1.058   5.301
 9610SOL    HW129729   4.696   0.997   5.307
 9610SOL    HW229730   4.836   1.026   5.228
 9611SOL     OW29731   4.551   5.072   0.748
 9611SOL    HW129732   4.557   5.170   0.729
 9611SOL    HW229733   4.618   5.023   0.692
 9612SOL     OW29734   5.730   3.180   3.772
 9612SOL    HW129735   5.774   3.187   3.683
 9612SOL    HW229736   5.680   3.264   3.791
 9613SOL     OW29737   5.703   0.485   5.098
 9613SOL    HW129738   5.678   0.483   5.195
 9613SOL    HW229739   5.637   0.431   5.046
 9614SOL     OW29740   2.567   2.909   0.566
 9614SOL    HW129741   2.544   2.901   0.470
 9614SOL    HW229742   2.596   2.820   0.602
 9615SOL     OW29743   6.846   5.343   3.993
 9615SOL    HW129744   6.938   5.340   4.031
 9615SOL    HW229745   6.779   5.322   4.064
 9616SOL     OW29746   0.941   2.026   0.908
 9616SOL    HW129747   1.025   2.079   0.900
 9616SOL    HW229748   0.905   2.006   0.817
 9617SOL     OW29749   0.559   2.578   3.681
 9617SOL    HW129750   0.650   2.579   3.723
 9617SOL    HW229751   0.534   2.671   3.653
 9618SOL     OW29752   4.817   3.872   1.974
 9618SOL    HW129753   4.793   3.843   1.881
 9618SOL    HW229754   4.818   3.972   1.979
 9619SOL     OW29755   0.845   0.109   0.835
 9619SOL    HW129756   0.790   0.049   0.894
 9619SOL    HW229757   0.794   0.131   0.752
 9620SOL     OW29758   4.196   0.833   6.770
 9620SOL    HW129759   4.165   0.916   6.817
 9620SOL    HW229760   4.222   0.764   6.837
 9621SOL     OW29761   0.242   0.933   1.460
 9621SOL    HW129762   0.214   0.998   1.530
 9621SOL    HW229763   0.259   0.844   1.502
 9622SOL     OW29764   6.286   6.513   5.144
 9622SOL    HW129765   6.301   6.475   5.053
 9622SOL    HW229766   6.335   6.600   5.152
 9623SOL     OW29767   2.748   6.426   5.900
 9623SOL    HW129768   2.765   6.438   5.998
 9623SOL    HW229769   2.651   6.435   5.881
 9624SOL     OW29770   4.811   5.472   6.132
 9624SOL    HW129771   4.869   5.504   6.057
 9624SOL    HW229772   4.826   5.530   6.212
 9625SOL     OW29773   5.095   4.703   6.015
 9625SOL    HW129774   5.093   4.699   5.915
 9625SOL    HW229775   5.178   4.658   6.048
 9626SOL     OW29776   2.117   3.036   6.345
 9626SOL    HW129777   2.142   3.117   6.397
 9626SOL    HW229778   2.191   2.968   6.351
 9627SOL     OW29779   6.967   5.908   0.580
 9627SOL    HW129780   6.893   5.966   0.548
 9627SOL    HW229781   6.985   5.836   0.513
 9628SOL     OW29782   5.877   0.863   5.665
 9628SOL    HW129783   5.878   0.833   5.570
 9628SOL    HW229784   5.921   0.952   5.673
 9629SOL     OW29785   0.675   5.575   3.740
 9629SOL    HW129786   0.712   5.587   3.647
 9629SOL    HW229787   0.693   5.657   3.793
 9630SOL     OW29788   5.523   0.136   6.646
 9630SOL    HW129789   5.514   0.171   6.553
 9630SOL    HW229790   5.616   0.153   6.679
 9631SOL     OW29791   4.286   5.883   0.650
 9631SOL    HW129792   4.347   5.814   0.610
 9631SOL    HW229793   4.332   5.971   0.653
 9632SOL     OW29794   2.523   4.817   3.155
 9632SOL    HW129795   2.583   4.883   3.199
 9632SOL    HW229796   2.552   4.724   3.179
 9633SOL     OW29797   3.279   2.816   5.159
 9633SOL    HW129798   3.303   2.891   5.221
 9633SOL    HW229799   3.262   2.733   5.211
 9634SOL     OW29800   5.682   4.346   2.542
 9634SOL    HW129801   5.688   4.267   2.604
 9634SOL    HW229802   5.735   4.328   2.460
 9635SOL     OW29803   0.325   5.407   4.711
 9635SOL    HW129804   0.326   5.504   4.738
 9635SOL    HW229805   0.334   5.400   4.612
 9636SOL     OW29806   5.251   3.146   3.854
 9636SOL    HW129807   5.179   3.178   3.792
 9636SOL    HW229808   5.323   3.215   3.860
 9637SOL     OW29809   1.773   3.244   7.013
 9637SOL    HW129810   1.759   3.281   6.921
 9637SOL    HW229811   1.811   3.152   7.007
 9638SOL     OW29812   6.926   4.271   5.579
 9638SOL    HW129813   6.903   4.179   5.549
 9638SOL    HW229814   6.846   4.314   5.622
 9639SOL     OW29815   4.651   2.744   1.290
 9639SOL    HW129816   4.725   2.679   1.310
 9639SOL    HW229817   4.565   2.695   1.279
 9640SOL     OW29818   3.599   0.137   3.051
 9640SOL    HW129819   3.620   0.202   3.124
 9640SOL    HW229820   3.532   0.071   3.084
 9641SOL     OW29821   0.455   3.502   4.414
 9641SOL    HW129822   0.376   3.496   4.475
 9641SOL    HW229823   0.436   3.566   4.340
 9642SOL     OW29824   0.749   3.051   4.738
 9642SOL    HW129825   0.713   2.958   4.732
 9642SOL    HW229826   0.807   3.069   4.659
 9643SOL     OW29827   5.558   5.066   4.023
 9643SOL    HW129828   5.459   5.082   4.024
 9643SOL    HW229829   5.592   5.063   4.117
 9644SOL     OW29830   0.911   4.810   3.908
 9644SOL    HW129831   0.923   4.730   3.849
 9644SOL    HW229832   0.832   4.863   3.878
 9645SOL     OW29833   1.536   5.011   6.639
 9645SOL    HW129834   1.631   4.984   6.657
 9645SOL    HW229835   1.503   5.069   6.714
 9646SOL     OW29836   2.931   5.075   0.903
 9646SOL    HW129837   2.861   5.081   0.974
 9646SOL    HW229838   2.888   5.057   0.814
 9647SOL     OW29839   6.052   6.945   3.007
 9647SOL    HW129840   5.969   6.997   3.029
 9647SOL    HW229841   6.108   6.937   3.090
 9648SOL     OW29842   3.377   1.932   1.442
 9648SOL    HW129843   3.307   1.993   1.478
 9648SOL    HW229844   3.463   1.948   1.489
 9649SOL     OW29845   6.648   6.326   1.273
 9649SOL    HW129846   6.651   6.250   1.208
 9649SOL    HW229847   6.659   6.413   1.225
 9650SOL     OW29848   0.559   5.306   4.767
 9650SOL    HW129849   0.606   5.354   4.693
 9650SOL    HW229850   0.464   5.336   4.772
 9651SOL     OW29851   3.895   1.612   6.800
 9651SOL    HW129852   3.897   1.693   6.741
 9651SOL    HW229853   3.989   1.586   6.823
 9652SOL     OW29854   0.042   3.527   0.388
 9652SOL    HW129855   0.040   3.623   0.417
 9652SOL    HW229856   7.019   3.470   0.457
 9653SOL     OW29857   5.244   4.536   5.173
 9653SOL    HW129858   5.305   4.481   5.116
 9653SOL    HW229859   5.151   4.531   5.137
 9654SOL     OW29860   4.070   3.710   3.806
 9654SOL    HW129861   3.979   3.726   3.845
 9654SOL    HW229862   4.104   3.796   3.767
 9655SOL     OW29863   5.139   0.753   1.072
 9655SOL    HW129864   5.195   0.835   1.087
 9655SOL    HW229865   5.199   0.674   1.056
 9656SOL     OW29866   4.877   4.671   6.385
 9656SOL    HW129867   4.822   4.603   6.337
 9656SOL    HW229868   4.851   4.763   6.355
 9657SOL     OW29869   5.137   4.909   3.184
 9657SOL    HW129870   5.096   4.822   3.208
 9657SOL    HW229871   5.075   4.984   3.210
 9658SOL     OW29872   5.666   1.181   2.242
 9658SOL    HW129873   5.682   1.232   2.326
 9658SOL    HW229874   5.738   1.202   2.176
 9659SOL     OW29875   3.023   2.974   0.035
 9659SOL    HW129876   3.036   2.911   6.981
 9659SOL    HW229877   3.099   3.039   0.039
 9660SOL     OW29878   2.047   6.947   1.186
 9660SOL    HW129879   2.045   6.848   1.176
 9660SOL    HW229880   2.092   6.988   1.107
 9661SOL     OW29881   4.131   3.553   1.932
 9661SOL    HW129882   4.187   3.484   1.886
 9661SOL    HW229883   4.139   3.640   1.884
 9662SOL     OW29884   4.364   0.103   5.667
 9662SOL    HW129885   4.363   0.068   5.761
 9662SOL    HW229886   4.300   0.179   5.659
 9663SOL     OW29887   1.071   5.734   2.576
 9663SOL    HW129888   1.057   5.738   2.674
 9663SOL    HW229889   1.000   5.787   2.529
 9664SOL     OW29890   2.196   4.727   2.835
 9664SOL    HW129891   2.214   4.716   2.933
 9664SOL    HW229892   2.281   4.716   2.784
 9665SOL     OW29893   6.439   4.738   6.299
 9665SOL    HW129894   6.466   4.642   6.290
 9665SOL    HW229895   6.520   4.796   6.292
 9666SOL     OW29896   5.071   3.580   1.114
 9666SOL    HW129897   5.035   3.591   1.021
 9666SOL    HW229898   4.996   3.558   1.176
 9667SOL     OW29899   5.393   5.988   6.583
 9667SOL    HW129900   5.360   6.033   6.500
 9667SOL    HW229901   5.441   5.904   6.558
 9668SOL     OW29902   2.062   0.793   0.008
 9668SOL    HW129903   2.125   0.741   0.065
 9668SOL    HW229904   2.114   0.844   6.962
 9669SOL     OW29905   3.573   0.523   6.985
 9669SOL    HW129906   3.672   0.541   6.982
 9669SOL    HW229907   3.550   0.486   0.053
 9670SOL     OW29908   0.709   1.387   1.357
 9670SOL    HW129909   0.673   1.343   1.439
 9670SOL    HW229910   0.740   1.479   1.380
 9671SOL     OW29911   0.945   5.766   6.603
 9671SOL    HW129912   0.999   5.752   6.520
 9671SOL    HW229913   0.936   5.864   6.620
 9672SOL     OW29914   0.640   3.300   4.383
 9672SOL    HW129915   0.559   3.359   4.381
 9672SOL    HW229916   0.686   3.311   4.471
 9673SOL     OW29917   2.324   3.256   6.394
 9673SOL    HW129918   2.396   3.210   6.342
 9673SOL    HW229919   2.300   3.342   6.348
 9674SOL     OW29920   2.182   0.046   4.378
 9674SOL    HW129921   2.156   0.090   4.292
 9674SOL    HW229922   2.126   6.986   4.392
 9675SOL     OW29923   6.174   4.389   5.975
 9675SOL    HW129924   6.259   4.412   6.022
 9675SOL    HW229925   6.111   4.467   5.982
 9676SOL     OW29926   0.923   3.268   5.501
 9676SOL    HW129927   0.830   3.280   5.464
 9676SOL    HW229928   0.988   3.261   5.426
 9677SOL     OW29929   0.319   5.078   2.264
 9677SOL    HW129930   0.288   5.116   2.176
 9677SOL    HW229931   0.242   5.072   2.327
 9678SOL     OW29932   4.188   3.070   5.618
 9678SOL    HW129933   4.158   3.123   5.538
 9678SOL    HW229934   4.275   3.025   5.597
 9679SOL     OW29935   1.499   0.663   3.848
 9679SOL    HW129936   1.517   0.724   3.925
 9679SOL    HW229937   1.424   0.699   3.792
 9680SOL     OW29938   4.796   0.400   2.331
 9680SOL    HW129939   4.800   0.464   2.408
 9680SOL    HW229940   4.859   0.429   2.259
 9681SOL     OW29941   0.964   3.687   1.287
 9681SOL    HW129942   1.021   3.643   1.217
 9681SOL    HW229943   0.994   3.656   1.377
 9682SOL     OW29944   4.207   6.780   5.580
 9682SOL    HW129945   4.276   6.710   5.564
 9682SOL    HW229946   4.235   6.865   5.535
 9683SOL     OW29947   3.456   6.325   4.453
 9683SOL    HW129948   3.535   6.387   4.449
 9683SOL    HW229949   3.471   6.256   4.523
 9684SOL     OW29950   0.068   2.998   6.207
 9684SOL    HW129951   0.109   2.965   6.122
 9684SOL    HW229952   0.031   3.089   6.193
 9685SOL     OW29953   3.670   4.294   1.784
 9685SOL    HW129954   3.641   4.389   1.800
 9685SOL    HW229955   3.655   4.240   1.867
 9686SOL     OW29956   0.170   1.619   5.561
 9686SOL    HW129957   0.249   1.656   5.610
 9686SOL    HW229958   0.202   1.558   5.488
 9687SOL     OW29959   5.357   1.811   3.588
 9687SOL    HW129960   5.307   1.732   3.551
 9687SOL    HW229961   5.293   1.870   3.638
 9688SOL     OW29962   6.936   5.449   1.516
 9688SOL    HW129963   6.928   5.351   1.495
 9688SOL    HW229964   6.968   5.498   1.435
 9689SOL     OW29965   1.912   5.486   1.539
 9689SOL    HW129966   1.827   5.524   1.503
 9689SOL    HW229967   1.898   5.391   1.567
 9690SOL     OW29968   6.426   4.673   5.018
 9690SOL    HW129969   6.457   4.585   5.054
 9690SOL    HW229970   6.381   4.659   4.930
 9691SOL     OW29971   3.803   3.245   2.052
 9691SOL    HW129972   3.715   3.227   2.007
 9691SOL    HW229973   3.868   3.174   2.025
 9692SOL     OW29974   5.173   4.398   0.666
 9692SOL    HW129975   5.264   4.360   0.648
 9692SOL    HW229976   5.123   4.403   0.580
 9693SOL     OW29977   4.591   3.086   6.764
 9693SOL    HW129978   4.658   3.026   6.807
 9693SOL    HW229979   4.596   3.177   6.806
 9694SOL     OW29980   2.445   6.567   1.142
 9694SOL    HW129981   2.426   6.478   1.100
 9694SOL    HW229982   2.534   6.565   1.186
 9695SOL     OW29983   1.928   2.552   4.003
 9695SOL    HW129984   1.911   2.623   4.071
 9695SOL    HW229985   2.017   2.567   3.960
 9696SOL     OW29986   5.084   2.513   3.357
 9696SOL    HW129987   5.062   2.560   3.443
 9696SOL    HW229988   5.041   2.561   3.281
 9697SOL     OW29989   0.543   0.118   1.423
 9697SOL    HW129990   0.458   0.067   1.409
 9697SOL    HW229991   0.584   0.091   1.510
 9698SOL     OW29992   6.949   3.104   2.086
 9698SOL    HW129993   0.007   3.046   2.105
 9698SOL    HW229994   6.927   3.157   2.167
 9699SOL     OW29995   1.097   6.883   1.745
 9699SOL    HW129996   1.134   6.971   1.774
 9699SOL    HW229997   1.172   6.819   1.730
 9700SOL     OW29998   6.403   0.501   6.640
 9700SOL    HW129999   6.474   0.444   6.600
 9700SOL    HW230000   6.353   0.548   6.568
 9701SOL     OW30001   5.357   3.784   6.790
 9701SOL    HW130002   5.327   3.821   6.878
 9701SOL    HW230003   5.296   3.709   6.763
 9702SOL     OW30004   3.422   3.624   1.952
 9702SOL    HW130005   3.452   3.539   1.995
 9702SOL    HW230006   3.459   3.702   2.002
 9703SOL     OW30007   6.581   5.116   2.966
 9703SOL    HW130008   6.586   5.034   3.023
 9703SOL    HW230009   6.530   5.095   2.882
 9704SOL     OW30010   0.721   4.778   2.034
 9704SOL    HW130011   0.744   4.862   1.985
 9704SOL    HW230012   0.630   4.747   2.005
 9705SOL     OW30013   0.172   3.969   6.271
 9705SOL    HW130014   0.155   3.999   6.366
 9705SOL    HW230015   0.249   4.021   6.234
 9706SOL     OW30016   1.002   0.125   2.067
 9706SOL    HW130017   1.058   0.046   2.094
 9706SOL    HW230018   1.059   0.207   2.065
 9707SOL     OW30019   1.315   4.863   2.080
 9707SOL    HW130020   1.318   4.943   2.141
 9707SOL    HW230021   1.281   4.890   1.991
 9708SOL     OW30022   3.264   1.310   2.021
 9708SOL    HW130023   3.165   1.317   2.032
 9708SOL    HW230024   3.296   1.224   2.061
 9709SOL     OW30025   4.712   1.505   2.191
 9709SOL    HW130026   4.666   1.592   2.209
 9709SOL    HW230027   4.655   1.430   2.223
 9710SOL     OW30028   4.601   5.281   4.450
 9710SOL    HW130029   4.675   5.348   4.460
 9710SOL    HW230030   4.604   5.216   4.525
 9711SOL     OW30031   2.853   0.982   6.487
 9711SOL    HW130032   2.893   1.056   6.433
 9711SOL    HW230033   2.883   0.991   6.582
 9712SOL     OW30034   5.309   6.751   5.265
 9712SOL    HW130035   5.315   6.849   5.287
 9712SOL    HW230036   5.217   6.730   5.232
 9713SOL     OW30037   2.032   0.615   2.782
 9713SOL    HW130038   1.959   0.674   2.748
 9713SOL    HW230039   2.059   0.551   2.710
 9714SOL     OW30040   2.185   2.848   4.153
 9714SOL    HW130041   2.199   2.833   4.056
 9714SOL    HW230042   2.095   2.813   4.180
 9715SOL     OW30043   6.799   2.125   6.406
 9715SOL    HW130044   6.806   2.179   6.489
 9715SOL    HW230045   6.797   2.185   6.326
 9716SOL     OW30046   2.201   6.808   0.874
 9716SOL    HW130047   2.164   6.885   0.927
 9716SOL    HW230048   2.139   6.787   0.798
 9717SOL     OW30049   3.502   2.604   5.943
 9717SOL    HW130050   3.535   2.634   6.032
 9717SOL    HW230051   3.502   2.680   5.879
 9718SOL     OW30052   3.286   2.745   0.240
 9718SOL    HW130053   3.376   2.718   0.207
 9718SOL    HW230054   3.266   2.838   0.211
 9719SOL     OW30055   4.419   0.366   5.826
 9719SOL    HW130056   4.488   0.294   5.838
 9719SOL    HW230057   4.434   0.438   5.894
 9720SOL     OW30058   2.030   2.606   2.728
 9720SOL    HW130059   1.956   2.654   2.680
 9720SOL    HW230060   2.118   2.635   2.690
 9721SOL     OW30061   1.012   1.894   1.404
 9721SOL    HW130062   0.920   1.877   1.366
 9721SOL    HW230063   1.046   1.981   1.368
 9722SOL     OW30064   4.174   2.754   5.341
 9722SOL    HW130065   4.164   2.680   5.274
 9722SOL    HW230066   4.090   2.809   5.342
 9723SOL     OW30067   6.069   0.571   4.641
 9723SOL    HW130068   6.117   0.519   4.571
 9723SOL    HW230069   6.080   0.669   4.624
 9724SOL     OW30070   1.923   5.135   1.602
 9724SOL    HW130071   1.857   5.111   1.530
 9724SOL    HW230072   2.001   5.072   1.597
 9725SOL     OW30073   5.304   5.492   3.916
 9725SOL    HW130074   5.344   5.417   3.863
 9725SOL    HW230075   5.224   5.460   3.965
 9726SOL     OW30076   6.609   0.175   3.431
 9726SOL    HW130077   6.589   0.099   3.492
 9726SOL    HW230078   6.663   0.141   3.353
 9727SOL     OW30079   6.198   2.619   1.507
 9727SOL    HW130080   6.262   2.560   1.457
 9727SOL    HW230081   6.160   2.568   1.584
 9728SOL     OW30082   5.306   1.570   4.974
 9728SOL    HW130083   5.219   1.563   4.925
 9728SOL    HW230084   5.381   1.564   4.909
 9729SOL     OW30085   0.732   3.943   2.634
 9729SOL    HW130086   0.830   3.960   2.628
 9729SOL    HW230087   0.682   4.029   2.626
 9730SOL     OW30088   1.047   5.717   3.342
 9730SOL    HW130089   1.123   5.773   3.307
 9730SOL    HW230090   1.043   5.725   3.441
 9731SOL     OW30091   6.972   2.380   1.674
 9731SOL    HW130092   0.009   2.302   1.695
 9731SOL    HW230093   6.880   2.347   1.650
 9732SOL     OW30094   1.408   2.842   2.789
 9732SOL    HW130095   1.472   2.892   2.731
 9732SOL    HW230096   1.449   2.830   2.880
 9733SOL     OW30097   6.039   5.130   1.336
 9733SOL    HW130098   6.108   5.100   1.402
 9733SOL    HW230099   5.983   5.051   1.310
 9734SOL     OW30100   4.122   4.541   6.705
 9734SOL    HW130101   4.108   4.605   6.780
 9734SOL    HW230102   4.079   4.454   6.727
 9735SOL     OW30103   0.955   1.587   0.068
 9735SOL    HW130104   0.975   1.505   0.015
 9735SOL    HW230105   1.010   1.664   0.033
 9736SOL     OW30106   4.921   2.218   5.433
 9736SOL    HW130107   4.911   2.200   5.531
 9736SOL    HW230108   5.018   2.222   5.410
 9737SOL     OW30109   5.385   3.074   5.163
 9737SOL    HW130110   5.378   3.170   5.137
 9737SOL    HW230111   5.477   3.040   5.143
 9738SOL     OW30112   2.557   6.460   1.825
 9738SOL    HW130113   2.471   6.437   1.870
 9738SOL    HW230114   2.576   6.395   1.752
 9739SOL     OW30115   5.421   6.801   0.361
 9739SOL    HW130116   5.441   6.785   0.457
 9739SOL    HW230117   5.390   6.716   0.318
 9740SOL     OW30118   6.387   0.640   1.234
 9740SOL    HW130119   6.294   0.629   1.269
 9740SOL    HW230120   6.405   0.569   1.166
 9741SOL     OW30121   2.412   2.550   3.421
 9741SOL    HW130122   2.497   2.526   3.467
 9741SOL    HW230123   2.395   2.486   3.346
 9742SOL     OW30124   4.172   1.571   6.766
 9742SOL    HW130125   4.199   1.587   6.671
 9742SOL    HW230126   4.192   1.652   6.820
 9743SOL     OW30127   6.619   3.265   4.599
 9743SOL    HW130128   6.664   3.326   4.664
 9743SOL    HW230129   6.682   3.243   4.524
 9744SOL     OW30130   1.921   1.992   2.696
 9744SOL    HW130131   1.861   1.978   2.617
 9744SOL    HW230132   1.922   2.089   2.721
 9745SOL     OW30133   0.952   6.302   6.253
 9745SOL    HW130134   0.990   6.256   6.333
 9745SOL    HW230135   0.966   6.401   6.263
 9746SOL     OW30136   3.402   6.276   6.105
 9746SOL    HW130137   3.500   6.291   6.092
 9746SOL    HW230138   3.365   6.351   6.161
 9747SOL     OW30139   3.721   1.552   3.741
 9747SOL    HW130140   3.774   1.517   3.664
 9747SOL    HW230141   3.724   1.652   3.741
 9748SOL     OW30142   0.651   2.056   2.879
 9748SOL    HW130143   0.690   2.147   2.871
 9748SOL    HW230144   0.558   2.063   2.914
 9749SOL     OW30145   6.461   0.077   1.141
 9749SOL    HW130146   6.393   0.012   1.173
 9749SOL    HW230147   6.514   0.111   1.219
 9750SOL     OW30148   5.370   2.412   5.327
 9750SOL    HW130149   5.345   2.481   5.259
 9750SOL    HW230150   5.389   2.457   5.415
 9751SOL     OW30151   3.003   6.157   1.090
 9751SOL    HW130152   3.050   6.197   1.169
 9751SOL    HW230153   3.052   6.182   1.006
 9752SOL     OW30154   3.322   3.378   0.747
 9752SOL    HW130155   3.252   3.449   0.747
 9752SOL    HW230156   3.413   3.420   0.749
 9753SOL     OW30157   6.643   6.058   3.420
 9753SOL    HW130158   6.667   6.056   3.322
 9753SOL    HW230159   6.551   6.021   3.432
 9754SOL     OW30160   3.665   1.122   2.383
 9754SOL    HW130161   3.622   1.210   2.404
 9754SOL    HW230162   3.677   1.069   2.467
 9755SOL     OW30163   3.242   3.846   0.311
 9755SOL    HW130164   3.175   3.854   0.385
 9755SOL    HW230165   3.327   3.807   0.347
 9756SOL     OW30166   5.399   6.903   6.588
 9756SOL    HW130167   5.368   6.911   6.493
 9756SOL    HW230168   5.433   6.992   6.619
 9757SOL     OW30169   5.564   3.752   4.417
 9757SOL    HW130170   5.544   3.840   4.375
 9757SOL    HW230171   5.649   3.715   4.378
 9758SOL     OW30172   3.031   0.899   2.447
 9758SOL    HW130173   3.001   0.874   2.355
 9758SOL    HW230174   3.097   0.974   2.441
 9759SOL     OW30175   6.933   2.178   1.116
 9759SOL    HW130176   7.020   2.130   1.103
 9759SOL    HW230177   6.866   2.142   1.051
 9760SOL     OW30178   5.059   0.453   6.378
 9760SOL    HW130179   4.969   0.414   6.399
 9760SOL    HW230180   5.051   0.552   6.365
 9761SOL     OW30181   1.090   1.663   1.514
 9761SOL    HW130182   1.060   1.667   1.609
 9761SOL    HW230183   1.096   1.755   1.477
 9762SOL     OW30184   3.812   0.977   6.536
 9762SOL    HW130185   3.723   0.973   6.490
 9762SOL    HW230186   3.874   0.911   6.495
 9763SOL     OW30187   6.528   2.247   1.097
 9763SOL    HW130188   6.572   2.284   1.015
 9763SOL    HW230189   6.567   2.157   1.117
 9764SOL     OW30190   0.622   2.716   2.603
 9764SOL    HW130191   0.686   2.775   2.554
 9764SOL    HW230192   0.611   2.630   2.554
 9765SOL     OW30193   0.059   2.303   1.377
 9765SOL    HW130194   0.059   2.381   1.440
 9765SOL    HW230195   6.986   2.275   1.359
 9766SOL     OW30196   0.405   3.014   2.924
 9766SOL    HW130197   0.374   2.969   2.840
 9766SOL    HW230198   0.402   2.948   2.999
 9767SOL     OW30199   3.169   1.459   5.288
 9767SOL    HW130200   3.243   1.490   5.227
 9767SOL    HW230201   3.151   1.362   5.272
 9768SOL     OW30202   4.813   1.835   6.971
 9768SOL    HW130203   4.902   1.880   6.979
 9768SOL    HW230204   4.781   1.841   6.877
 9769SOL     OW30205   3.556   0.940   5.296
 9769SOL    HW130206   3.536   0.907   5.204
 9769SOL    HW230207   3.647   0.981   5.297
 9770SOL     OW30208   1.887   3.539   5.308
 9770SOL    HW130209   1.956   3.610   5.319
 9770SOL    HW230210   1.847   3.517   5.397
 9771SOL     OW30211   3.435   0.808   2.301
 9771SOL    HW130212   3.413   0.789   2.396
 9771SOL    HW230213   3.531   0.787   2.284
 9772SOL     OW30214   0.549   0.879   1.774
 9772SOL    HW130215   0.626   0.816   1.758
 9772SOL    HW230216   0.510   0.862   1.864
 9773SOL     OW30217   5.635   6.182   2.065
 9773SOL    HW130218   5.606   6.117   1.994
 9773SOL    HW230219   5.555   6.228   2.102
 9774SOL     OW30220   1.870   5.295   4.461
 9774SOL    HW130221   1.869   5.195   4.458
 9774SOL    HW230222   1.884   5.325   4.556
 9775SOL     OW30223   1.634   1.262   2.729
 9775SOL    HW130224   1.539   1.291   2.733
 9775SOL    HW230225   1.689   1.319   2.791
 9776SOL     OW30226   2.201   5.392   1.586
 9776SOL    HW130227   2.108   5.418   1.611
 9776SOL    HW230228   2.237   5.327   1.652
 9777SOL     OW30229   4.086   2.189   5.140
 9777SOL    HW130230   4.114   2.273   5.094
 9777SOL    HW230231   4.077   2.116   5.072
 9778SOL     OW30232   1.443   3.502   2.830
 9778SOL    HW130233   1.492   3.583   2.860
 9778SOL    HW230234   1.388   3.524   2.749
 9779SOL     OW30235   3.033   0.224   3.299
 9779SOL    HW130236   3.082   0.160   3.358
 9779SOL    HW230237   2.947   0.249   3.343
 9780SOL     OW30238   0.877   1.083   0.771
 9780SOL    HW130239   0.859   1.014   0.701
 9780SOL    HW230240   0.791   1.127   0.798
 9781SOL     OW30241   1.610   1.445   2.159
 9781SOL    HW130242   1.707   1.458   2.138
 9781SOL    HW230243   1.557   1.448   2.074
 9782SOL     OW30244   0.244   2.592   0.352
 9782SOL    HW130245   0.223   2.637   0.439
 9782SOL    HW230246   0.264   2.662   0.283
 9783SOL     OW30247   4.637   1.115   2.527
 9783SOL    HW130248   4.624   1.085   2.621
 9783SOL    HW230249   4.713   1.064   2.486
 9784SOL     OW30250   1.449   1.325   7.015
 9784SOL    HW130251   1.512   1.368   0.058
 9784SOL    HW230252   1.370   1.290   0.042
 9785SOL     OW30253   1.179   3.765   5.058
 9785SOL    HW130254   1.115   3.778   4.982
 9785SOL    HW230255   1.258   3.712   5.027
 9786SOL     OW30256   2.605   4.724   6.668
 9786SOL    HW130257   2.578   4.674   6.586
 9786SOL    HW230258   2.546   4.803   6.681
 9787SOL     OW30259   3.059   3.423   1.345
 9787SOL    HW130260   3.147   3.393   1.382
 9787SOL    HW230261   3.039   3.515   1.379
 9788SOL     OW30262   2.967   6.807   2.748
 9788SOL    HW130263   2.974   6.707   2.749
 9788SOL    HW230264   3.012   6.844   2.829
 9789SOL     OW30265   4.055   1.509   0.367
 9789SOL    HW130266   4.067   1.512   0.466
 9789SOL    HW230267   4.013   1.594   0.336
 9790SOL     OW30268   4.653   5.489   5.161
 9790SOL    HW130269   4.584   5.451   5.222
 9790SOL    HW230270   4.651   5.589   5.166
 9791SOL     OW30271   0.244   0.494   1.292
 9791SOL    HW130272   0.218   0.405   1.254
 9791SOL    HW230273   0.322   0.482   1.354
 9792SOL     OW30274   3.434   4.572   0.792
 9792SOL    HW130275   3.448   4.616   0.704
 9792SOL    HW230276   3.338   4.546   0.802
 9793SOL     OW30277   5.992   0.776   2.494
 9793SOL    HW130278   5.965   0.866   2.529
 9793SOL    HW230279   6.091   0.768   2.495
 9794SOL     OW30280   3.705   5.448   4.630
 9794SOL    HW130281   3.626   5.386   4.628
 9794SOL    HW230282   3.676   5.539   4.601
 9795SOL     OW30283   1.532   3.445   3.586
 9795SOL    HW130284   1.508   3.503   3.664
 9795SOL    HW230285   1.537   3.500   3.503
 9796SOL     OW30286   3.155   3.680   3.814
 9796SOL    HW130287   3.104   3.605   3.857
 9796SOL    HW230288   3.252   3.656   3.809
 9797SOL     OW30289   3.164   5.720   0.042
 9797SOL    HW130290   3.165   5.650   6.993
 9797SOL    HW230291   3.233   5.699   0.111
 9798SOL     OW30292   6.996   4.247   6.840
 9798SOL    HW130293   7.020   4.206   6.928
 9798SOL    HW230294   6.936   4.185   6.789
 9799SOL     OW30295   4.296   6.388   6.797
 9799SOL    HW130296   4.247   6.472   6.823
 9799SOL    HW230297   4.264   6.312   6.855
 9800SOL     OW30298   6.285   4.698   4.769
 9800SOL    HW130299   6.351   4.770   4.748
 9800SOL    HW230300   6.287   4.629   4.697
 9801SOL     OW30301   4.293   6.603   1.042
 9801SOL    HW130302   4.194   6.584   1.042
 9801SOL    HW230303   4.335   6.556   1.119
 9802SOL     OW30304   3.439   3.521   0.123
 9802SOL    HW130305   3.498   3.582   0.070
 9802SOL    HW230306   3.494   3.463   0.183
 9803SOL     OW30307   1.662   4.167   6.626
 9803SOL    HW130308   1.569   4.203   6.631
 9803SOL    HW230309   1.721   4.218   6.689
 9804SOL     OW30310   1.040   4.692   3.093
 9804SOL    HW130311   0.989   4.612   3.127
 9804SOL    HW230312   1.026   4.769   3.155
 9805SOL     OW30313   6.988   5.727   4.373
 9805SOL    HW130314   7.014   5.659   4.304
 9805SOL    HW230315   6.927   5.684   4.441
 9806SOL     OW30316   3.730   1.693   0.053
 9806SOL    HW130317   3.697   1.719   6.984
 9806SOL    HW230318   3.743   1.594   0.058
 9807SOL     OW30319   4.018   3.122   3.563
 9807SOL    HW130320   4.041   3.033   3.524
 9807SOL    HW230321   4.043   3.123   3.660
 9808SOL     OW30322   3.196   5.491   2.176
 9808SOL    HW130323   3.235   5.399   2.176
 9808SOL    HW230324   3.135   5.502   2.097
 9809SOL     OW30325   5.953   2.470   1.000
 9809SOL    HW130326   5.962   2.557   0.951
 9809SOL    HW230327   6.033   2.458   1.060
 9810SOL     OW30328   2.366   3.026   1.402
 9810SOL    HW130329   2.293   3.003   1.338
 9810SOL    HW230330   2.442   3.068   1.352
 9811SOL     OW30331   5.356   3.307   4.436
 9811SOL    HW130332   5.417   3.278   4.362
 9811SOL    HW230333   5.335   3.404   4.426
 9812SOL     OW30334   3.545   5.569   6.142
 9812SOL    HW130335   3.530   5.615   6.230
 9812SOL    HW230336   3.548   5.638   6.069
 9813SOL     OW30337   4.271   0.692   2.167
 9813SOL    HW130338   4.247   0.733   2.255
 9813SOL    HW230339   4.190   0.645   2.129
 9814SOL     OW30340   7.017   1.515   6.091
 9814SOL    HW130341   6.952   1.488   6.162
 9814SOL    HW230342   6.968   1.550   6.012
 9815SOL     OW30343   4.437   2.325   4.616
 9815SOL    HW130344   4.455   2.328   4.714
 9815SOL    HW230345   4.435   2.418   4.580
 9816SOL     OW30346   2.918   1.182   6.904
 9816SOL    HW130347   2.974   1.132   6.838
 9816SOL    HW230348   2.825   1.192   6.869
 9817SOL     OW30349   6.537   0.797   1.547
 9817SOL    HW130350   6.515   0.857   1.470
 9817SOL    HW230351   6.478   0.717   1.545
 9818SOL     OW30352   3.943   2.875   5.309
 9818SOL    HW130353   3.919   2.955   5.253
 9818SOL    HW230354   3.859   2.828   5.337
 9819SOL     OW30355   3.195   0.539   1.925
 9819SOL    HW130356   3.191   0.630   1.967
 9819SOL    HW230357   3.185   0.548   1.826
 9820SOL     OW30358   3.515   2.595   0.105
 9820SOL    HW130359   3.582   2.638   0.165
 9820SOL    HW230360   3.451   2.540   0.159
 9821SOL     OW30361   6.854   5.291   0.030
 9821SOL    HW130362   6.902   5.357   0.088
 9821SOL    HW230363   6.917   5.217   0.005
 9822SOL     OW30364   0.221   0.331   2.483
 9822SOL    HW130365   0.258   0.375   2.401
 9822SOL    HW230366   0.122   0.318   2.471
 9823SOL     OW30367   3.268   6.271   2.020
 9823SOL    HW130368   3.242   6.269   1.923
 9823SOL    HW230369   3.342   6.337   2.033
 9824SOL     OW30370   1.729   4.451   6.385
 9824SOL    HW130371   1.795   4.439   6.311
 9824SOL    HW230372   1.753   4.534   6.437
 9825SOL     OW30373   4.571   5.049   5.315
 9825SOL    HW130374   4.528   5.054   5.225
 9825SOL    HW230375   4.504   5.013   5.381
 9826SOL     OW30376   5.456   6.509   5.340
 9826SOL    HW130377   5.550   6.484   5.320
 9826SOL    HW230378   5.445   6.608   5.334
 9827SOL     OW30379   0.721   4.614   4.334
 9827SOL    HW130380   0.777   4.591   4.254
 9827SOL    HW230381   0.647   4.547   4.343
 9828SOL     OW30382   2.329   2.681   6.680
 9828SOL    HW130383   2.308   2.620   6.603
 9828SOL    HW230384   2.319   2.630   6.766
 9829SOL     OW30385   2.533   4.594   1.082
 9829SOL    HW130386   2.592   4.568   1.158
 9829SOL    HW230387   2.476   4.672   1.109
 9830SOL     OW30388   0.068   1.704   0.504
 9830SOL    HW130389   0.124   1.680   0.584
 9830SOL    HW230390   0.124   1.753   0.438
 9831SOL     OW30391   5.889   6.645   1.342
 9831SOL    HW130392   5.847   6.728   1.303
 9831SOL    HW230393   5.988   6.657   1.345
 9832SOL     OW30394   3.996   4.862   1.297
 9832SOL    HW130395   3.982   4.825   1.205
 9832SOL    HW230396   3.913   4.911   1.325
 9833SOL     OW30397   4.673   4.393   5.967
 9833SOL    HW130398   4.751   4.438   6.009
 9833SOL    HW230399   4.701   4.304   5.931
 9834SOL     OW30400   2.224   2.544   3.973
 9834SOL    HW130401   2.302   2.543   3.911
 9834SOL    HW230402   2.254   2.575   4.063
 9835SOL     OW30403   5.226   1.331   5.066
 9835SOL    HW130404   5.262   1.425   5.062
 9835SOL    HW230405   5.249   1.283   4.981
 9836SOL     OW30406   5.084   5.276   2.039
 9836SOL    HW130407   4.996   5.270   1.992
 9836SOL    HW230408   5.077   5.232   2.129
 9837SOL     OW30409   1.797   6.330   5.570
 9837SOL    HW130410   1.700   6.331   5.595
 9837SOL    HW230411   1.814   6.258   5.503
 9838SOL     OW30412   6.439   5.475   4.692
 9838SOL    HW130413   6.531   5.489   4.655
 9838SOL    HW230414   6.429   5.380   4.720
 9839SOL     OW30415   6.481   2.736   2.943
 9839SOL    HW130416   6.491   2.655   3.001
 9839SOL    HW230417   6.440   2.710   2.856
 9840SOL     OW30418   6.152   0.331   0.611
 9840SOL    HW130419   6.244   0.314   0.575
 9840SOL    HW230420   6.085   0.291   0.548
 9841SOL     OW30421   2.122   3.317   4.080
 9841SOL    HW130422   2.084   3.386   4.019
 9841SOL    HW230423   2.171   3.363   4.155
 9842SOL     OW30424   2.961   3.270   3.371
 9842SOL    HW130425   2.926   3.279   3.278
 9842SOL    HW230426   3.018   3.349   3.393
 9843SOL     OW30427   5.965   3.943   3.261
 9843SOL    HW130428   6.032   3.973   3.329
 9843SOL    HW230429   5.917   4.023   3.225
 9844SOL     OW30430   5.392   0.410   2.460
 9844SOL    HW130431   5.385   0.378   2.554
 9844SOL    HW230432   5.300   0.417   2.420
 9845SOL     OW30433   1.360   1.603   3.653
 9845SOL    HW130434   1.441   1.658   3.673
 9845SOL    HW230435   1.347   1.535   3.725
 9846SOL     OW30436   2.924   3.330   3.108
 9846SOL    HW130437   2.865   3.361   3.034
 9846SOL    HW230438   2.966   3.243   3.083
 9847SOL     OW30439   1.891   4.586   4.854
 9847SOL    HW130440   1.792   4.592   4.844
 9847SOL    HW230441   1.913   4.517   4.923
 9848SOL     OW30442   5.667   3.754   0.440
 9848SOL    HW130443   5.678   3.657   0.461
 9848SOL    HW230444   5.596   3.765   0.370
 9849SOL     OW30445   6.881   6.674   5.636
 9849SOL    HW130446   6.965   6.712   5.676
 9849SOL    HW230447   6.872   6.707   5.542
 9850SOL     OW30448   4.638   0.139   2.834
 9850SOL    HW130449   4.719   0.102   2.787
 9850SOL    HW230450   4.627   0.094   2.922
 9851SOL     OW30451   5.276   3.223   5.415
 9851SOL    HW130452   5.304   3.270   5.331
 9851SOL    HW230453   5.217   3.146   5.391
 9852SOL     OW30454   5.417   1.826   4.213
 9852SOL    HW130455   5.325   1.846   4.246
 9852SOL    HW230456   5.483   1.881   4.264
 9853SOL     OW30457   0.309   4.151   0.916
 9853SOL    HW130458   0.384   4.086   0.926
 9853SOL    HW230459   0.242   4.115   0.851
 9854SOL     OW30460   4.364   5.888   3.870
 9854SOL    HW130461   4.372   5.789   3.862
 9854SOL    HW230462   4.426   5.931   3.804
 9855SOL     OW30463   1.722   3.707   0.803
 9855SOL    HW130464   1.675   3.636   0.751
 9855SOL    HW230465   1.815   3.719   0.767
 9856SOL     OW30466   3.806   2.732   0.650
 9856SOL    HW130467   3.811   2.650   0.594
 9856SOL    HW230468   3.895   2.778   0.651
 9857SOL     OW30469   6.159   4.128   2.782
 9857SOL    HW130470   6.081   4.066   2.786
 9857SOL    HW230471   6.224   4.096   2.713
 9858SOL     OW30472   4.187   1.320   1.488
 9858SOL    HW130473   4.189   1.220   1.490
 9858SOL    HW230474   4.281   1.356   1.492
 9859SOL     OW30475   6.368   0.288   1.459
 9859SOL    HW130476   6.269   0.298   1.445
 9859SOL    HW230477   6.387   0.199   1.500
 9860SOL     OW30478   0.725   1.004   2.379
 9860SOL    HW130479   0.816   0.962   2.376
 9860SOL    HW230480   0.658   0.936   2.408
 9861SOL     OW30481   3.026   6.635   4.753
 9861SOL    HW130482   3.112   6.686   4.748
 9861SOL    HW230483   3.044   6.539   4.731
 9862SOL     OW30484   0.619   2.128   1.245
 9862SOL    HW130485   0.689   2.162   1.307
 9862SOL    HW230486   0.543   2.091   1.298
 9863SOL     OW30487   2.971   0.122   0.794
 9863SOL    HW130488   3.060   0.106   0.753
 9863SOL    HW230489   2.955   0.055   0.866
 9864SOL     OW30490   4.417   6.185   2.998
 9864SOL    HW130491   4.449   6.263   2.945
 9864SOL    HW230492   4.476   6.106   2.980
 9865SOL     OW30493   1.515   2.475   4.672
 9865SOL    HW130494   1.455   2.424   4.610
 9865SOL    HW230495   1.542   2.561   4.629
 9866SOL     OW30496   3.552   4.898   3.232
 9866SOL    HW130497   3.471   4.859   3.189
 9866SOL    HW230498   3.567   4.990   3.197
 9867SOL     OW30499   4.210   0.410   6.449
 9867SOL    HW130500   4.253   0.442   6.534
 9867SOL    HW230501   4.280   0.388   6.382
 9868SOL     OW30502   0.195   4.890   6.315
 9868SOL    HW130503   0.268   4.942   6.358
 9868SOL    HW230504   0.177   4.927   6.224
 9869SOL     OW30505   1.770   3.679   3.138
 9869SOL    HW130506   1.810   3.763   3.175
 9869SOL    HW230507   1.709   3.701   3.061
 9870SOL     OW30508   4.870   4.764   2.308
 9870SOL    HW130509   4.907   4.751   2.400
 9870SOL    HW230510   4.833   4.678   2.274
 9871SOL     OW30511   1.315   1.649   5.236
 9871SOL    HW130512   1.245   1.646   5.307
 9871SOL    HW230513   1.296   1.578   5.168
 9872SOL     OW30514   1.333   4.651   3.663
 9872SOL    HW130515   1.270   4.593   3.715
 9872SOL    HW230516   1.374   4.598   3.589
 9873SOL     OW30517   1.440   2.264   0.190
 9873SOL    HW130518   1.496   2.183   0.202
 9873SOL    HW230519   1.348   2.237   0.160
 9874SOL     OW30520   0.920   3.244   3.926
 9874SOL    HW130521   0.924   3.317   3.994
 9874SOL    HW230522   0.905   3.156   3.972
 9875SOL     OW30523   1.193   0.888   2.971
 9875SOL    HW130524   1.240   0.949   3.035
 9875SOL    HW230525   1.179   0.936   2.884
 9876SOL     OW30526   7.017   5.603   2.224
 9876SOL    HW130527   0.063   5.604   2.150
 9876SOL    HW230528   0.019   5.530   2.289
 9877SOL     OW30529   3.815   6.789   1.646
 9877SOL    HW130530   3.809   6.736   1.730
 9877SOL    HW230531   3.849   6.881   1.667
 9878SOL     OW30532   0.723   0.335   5.556
 9878SOL    HW130533   0.713   0.372   5.464
 9878SOL    HW230534   0.783   0.255   5.553
 9879SOL     OW30535   5.296   6.022   5.834
 9879SOL    HW130536   5.333   6.071   5.913
 9879SOL    HW230537   5.360   6.031   5.757
 9880SOL     OW30538   1.784   1.884   4.394
 9880SOL    HW130539   1.803   1.885   4.492
 9880SOL    HW230540   1.749   1.795   4.367
 9881SOL     OW30541   0.104   1.763   6.451
 9881SOL    HW130542   0.093   1.799   6.544
 9881SOL    HW230543   0.135   1.668   6.456
 9882SOL     OW30544   1.684   1.658   2.740
 9882SOL    HW130545   1.660   1.741   2.790
 9882SOL    HW230546   1.656   1.668   2.644
 9883SOL     OW30547   2.841   1.391   2.274
 9883SOL    HW130548   2.894   1.346   2.346
 9883SOL    HW230549   2.892   1.470   2.241
 9884SOL     OW30550   3.683   0.752   4.037
 9884SOL    HW130551   3.676   0.733   3.939
 9884SOL    HW230552   3.761   0.812   4.054
 9885SOL     OW30553   6.473   4.443   3.692
 9885SOL    HW130554   6.513   4.358   3.726
 9885SOL    HW230555   6.415   4.423   3.613
 9886SOL     OW30556   1.172   3.616   1.935
 9886SOL    HW130557   1.225   3.632   1.852
 9886SOL    HW230558   1.139   3.704   1.970
 9887SOL     OW30559   4.318   0.034   5.918
 9887SOL    HW130560   4.280   6.963   5.921
 9887SOL    HW230561   4.275   0.090   5.988
 9888SOL     OW30562   6.487   4.911   0.458
 9888SOL    HW130563   6.440   4.832   0.497
 9888SOL    HW230564   6.500   4.980   0.530
 9889SOL     OW30565   0.405   5.248   0.403
 9889SOL    HW130566   0.466   5.189   0.350
 9889SOL    HW230567   0.311   5.236   0.372
 9890SOL     OW30568   0.873   3.541   0.524
 9890SOL    HW130569   0.949   3.503   0.471
 9890SOL    HW230570   0.891   3.530   0.621
 9891SOL     OW30571   4.957   1.587   2.064
 9891SOL    HW130572   4.867   1.544   2.069
 9891SOL    HW230573   4.954   1.677   2.108
 9892SOL     OW30574   0.493   6.113   0.101
 9892SOL    HW130575   0.466   6.209   0.095
 9892SOL    HW230576   0.573   6.104   0.161
 9893SOL     OW30577   2.756   2.012   1.269
 9893SOL    HW130578   2.739   2.061   1.354
 9893SOL    HW230579   2.691   1.937   1.260
 9894SOL     OW30580   2.120   1.214   1.604
 9894SOL    HW130581   2.064   1.131   1.595
 9894SOL    HW230582   2.072   1.280   1.661
 9895SOL     OW30583   4.432   3.534   5.806
 9895SOL    HW130584   4.351   3.478   5.788
 9895SOL    HW230585   4.477   3.558   5.720
 9896SOL     OW30586   6.588   6.679   6.292
 9896SOL    HW130587   6.509   6.704   6.236
 9896SOL    HW230588   6.629   6.595   6.256
 9897SOL     OW30589   5.894   5.183   4.087
 9897SOL    HW130590   5.824   5.128   4.133
 9897SOL    HW230591   5.904   5.151   3.992
 9898SOL     OW30592   2.695   6.668   5.632
 9898SOL    HW130593   2.692   6.568   5.641
 9898SOL    HW230594   2.737   6.708   5.714
 9899SOL     OW30595   0.105   5.391   6.766
 9899SOL    HW130596   0.127   5.300   6.730
 9899SOL    HW230597   0.024   5.386   6.823
 9900SOL     OW30598   2.027   3.553   3.338
 9900SOL    HW130599   2.004   3.463   3.374
 9900SOL    HW230600   1.984   3.624   3.394
 9901SOL     OW30601   2.336   2.842   5.536
 9901SOL    HW130602   2.402   2.879   5.471
 9901SOL    HW230603   2.287   2.917   5.580
 9902SOL     OW30604   2.742   4.438   6.956
 9902SOL    HW130605   2.809   4.376   6.996
 9902SOL    HW230606   2.787   4.523   6.928
 9903SOL     OW30607   5.663   0.688   4.090
 9903SOL    HW130608   5.725   0.725   4.160
 9903SOL    HW230609   5.713   0.677   4.004
 9904SOL     OW30610   6.229   2.100   0.377
 9904SOL    HW130611   6.178   2.133   0.456
 9904SOL    HW230612   6.212   2.002   0.365
 9905SOL     OW30613   5.323   0.822   0.189
 9905SOL    HW130614   5.293   0.879   0.113
 9905SOL    HW230615   5.344   0.880   0.268
 9906SOL     OW30616   3.813   2.890   4.942
 9906SOL    HW130617   3.732   2.844   4.907
 9906SOL    HW230618   3.841   2.848   5.029
 9907SOL     OW30619   0.914   0.124   1.785
 9907SOL    HW130620   0.996   0.124   1.728
 9907SOL    HW230621   0.938   0.097   1.878
 9908SOL     OW30622   5.116   3.333   2.894
 9908SOL    HW130623   5.175   3.396   2.945
 9908SOL    HW230624   5.162   3.244   2.885
 9909SOL     OW30625   2.163   0.488   4.850
 9909SOL    HW130626   2.193   0.394   4.839
 9909SOL    HW230627   2.225   0.550   4.802
 9910SOL     OW30628   0.224   4.612   3.434
 9910SOL    HW130629   0.254   4.521   3.409
 9910SOL    HW230630   0.130   4.626   3.401
 9911SOL     OW30631   2.762   5.759   2.841
 9911SOL    HW130632   2.727   5.788   2.752
 9911SOL    HW230633   2.718   5.813   2.913
 9912SOL     OW30634   5.403   0.613   6.361
 9912SOL    HW130635   5.381   0.606   6.458
 9912SOL    HW230636   5.502   0.623   6.349
 9913SOL     OW30637   4.296   3.117   6.684
 9913SOL    HW130638   4.208   3.145   6.722
 9913SOL    HW230639   4.329   3.036   6.732
 9914SOL     OW30640   0.060   4.016   4.300
 9914SOL    HW130641   7.002   4.071   4.276
 9914SOL    HW230642   0.127   4.074   4.347
 9915SOL     OW30643   5.454   0.900   3.479
 9915SOL    HW130644   5.490   0.913   3.572
 9915SOL    HW230645   5.528   0.909   3.413
 9916SOL     OW30646   2.015   2.754   1.738
 9916SOL    HW130647   1.933   2.749   1.681
 9916SOL    HW230648   2.084   2.810   1.691
 9917SOL     OW30649   5.841   4.448   4.349
 9917SOL    HW130650   5.850   4.379   4.278
 9917SOL    HW230651   5.925   4.501   4.355
 9918SOL     OW30652   4.587   2.649   2.669
 9918SOL    HW130653   4.632   2.725   2.716
 9918SOL    HW230654   4.603   2.657   2.571
 9919SOL     OW30655   5.972   6.528   0.294
 9919SOL    HW130656   5.960   6.585   0.375
 9919SOL    HW230657   6.068   6.525   0.268
 9920SOL     OW30658   4.694   1.382   2.881
 9920SOL    HW130659   4.761   1.455   2.866
 9920SOL    HW230660   4.664   1.383   2.977
 9921SOL     OW30661   3.402   4.847   6.339
 9921SOL    HW130662   3.492   4.888   6.354
 9921SOL    HW230663   3.413   4.756   6.297
 9922SOL     OW30664   0.231   5.246   0.700
 9922SOL    HW130665   0.231   5.160   0.649
 9922SOL    HW230666   0.258   5.229   0.795
 9923SOL     OW30667   5.459   4.791   1.275
 9923SOL    HW130668   5.513   4.721   1.323
 9923SOL    HW230669   5.362   4.769   1.281
 9924SOL     OW30670   1.051   3.894   4.641
 9924SOL    HW130671   0.994   3.946   4.705
 9924SOL    HW230672   1.144   3.889   4.676
 9925SOL     OW30673   5.094   2.246   3.229
 9925SOL    HW130674   5.174   2.189   3.249
 9925SOL    HW230675   5.105   2.334   3.275
 9926SOL     OW30676   2.936   5.292   6.907
 9926SOL    HW130677   3.022   5.277   6.956
 9926SOL    HW230678   2.872   5.218   6.929
 9927SOL     OW30679   5.568   0.346   3.457
 9927SOL    HW130680   5.476   0.334   3.493
 9927SOL    HW230681   5.600   0.260   3.417
 9928SOL     OW30682   4.744   4.888   1.899
 9928SOL    HW130683   4.843   4.895   1.904
 9928SOL    HW230684   4.717   4.793   1.883
 9929SOL     OW30685   1.018   5.009   2.529
 9929SOL    HW130686   0.954   4.993   2.454
 9929SOL    HW230687   0.997   4.946   2.604
 9930SOL     OW30688   6.765   0.492   3.353
 9930SOL    HW130689   6.747   0.444   3.439
 9930SOL    HW230690   6.802   0.427   3.286
 9931SOL     OW30691   0.652   4.706   5.931
 9931SOL    HW130692   0.729   4.764   5.907
 9931SOL    HW230693   0.664   4.615   5.890
 9932SOL     OW30694   0.398   6.330   5.104
 9932SOL    HW130695   0.464   6.404   5.091
 9932SOL    HW230696   0.366   6.331   5.199
 9933SOL     OW30697   0.811   6.131   2.104
 9933SOL    HW130698   0.793   6.197   2.031
 9933SOL    HW230699   0.874   6.061   2.070
 9934SOL     OW30700   6.772   1.833   6.064
 9934SOL    HW130701   6.835   1.834   6.142
 9934SOL    HW230702   6.825   1.840   5.979
 9935SOL     OW30703   3.369   0.495   6.438
 9935SOL    HW130704   3.300   0.454   6.498
 9935SOL    HW230705   3.326   0.564   6.380
 9936SOL     OW30706   0.699   3.878   3.827
 9936SOL    HW130707   0.725   3.873   3.924
 9936SOL    HW230708   0.762   3.821   3.773
 9937SOL     OW30709   6.536   2.199   6.132
 9937SOL    HW130710   6.604   2.264   6.166
 9937SOL    HW230711   6.574   2.148   6.055
 9938SOL     OW30712   6.920   6.413   2.723
 9938SOL    HW130713   6.985   6.337   2.718
 9938SOL    HW230714   6.959   6.487   2.778
 9939SOL     OW30715   3.565   3.141   2.954
 9939SOL    HW130716   3.476   3.158   2.912
 9939SOL    HW230717   3.586   3.043   2.949
 9940SOL     OW30718   6.825   1.226   0.520
 9940SOL    HW130719   6.906   1.192   0.471
 9940SOL    HW230720   6.795   1.156   0.585
 9941SOL     OW30721   3.042   5.599   5.484
 9941SOL    HW130722   3.042   5.509   5.441
 9941SOL    HW230723   3.044   5.670   5.413
 9942SOL     OW30724   2.796   5.665   4.007
 9942SOL    HW130725   2.807   5.606   3.927
 9942SOL    HW230726   2.870   5.648   4.072
 9943SOL     OW30727   1.444   6.933   4.918
 9943SOL    HW130728   1.458   6.887   4.830
 9943SOL    HW230729   1.528   6.979   4.946
 9944SOL     OW30730   1.404   4.155   6.915
 9944SOL    HW130731   1.441   4.178   7.005
 9944SOL    HW230732   1.323   4.098   6.926
 9945SOL     OW30733   6.628   5.878   6.806
 9945SOL    HW130734   6.603   5.948   6.739
 9945SOL    HW230735   6.585   5.898   6.894
 9946SOL     OW30736   5.577   1.255   4.672
 9946SOL    HW130737   5.503   1.189   4.676
 9946SOL    HW230738   5.595   1.280   4.577
 9947SOL     OW30739   6.421   4.706   3.452
 9947SOL    HW130740   6.396   4.754   3.368
 9947SOL    HW230741   6.340   4.663   3.492
 9948SOL     OW30742   5.345   3.857   4.016
 9948SOL    HW130743   5.310   3.860   3.923
 9948SOL    HW230744   5.303   3.779   4.064
 9949SOL     OW30745   5.727   5.096   2.252
 9949SOL    HW130746   5.773   5.033   2.189
 9949SOL    HW230747   5.770   5.186   2.246
 9950SOL     OW30748   3.194   5.935   6.149
 9950SOL    HW130749   3.250   5.921   6.231
 9950SOL    HW230750   3.098   5.918   6.170
 9951SOL     OW30751   6.208   2.830   3.156
 9951SOL    HW130752   6.277   2.761   3.179
 9951SOL    HW230753   6.203   2.840   3.057
 9952SOL     OW30754   0.107   5.073   6.748
 9952SOL    HW130755   0.106   5.112   6.656
 9952SOL    HW230756   0.197   5.035   6.768
 9953SOL     OW30757   6.321   2.705   3.883
 9953SOL    HW130758   6.277   2.617   3.867
 9953SOL    HW230759   6.276   2.775   3.828
 9954SOL     OW30760   3.771   0.468   5.616
 9954SOL    HW130761   3.679   0.443   5.645
 9954SOL    HW230762   3.832   0.390   5.626
 9955SOL     OW30763   0.334   4.520   4.696
 9955SOL    HW130764   0.314   4.590   4.765
 9955SOL    HW230765   0.300   4.431   4.729
 9956SOL     OW30766   1.055   6.176   0.228
 9956SOL    HW130767   1.120   6.100   0.240
 9956SOL    HW230768   1.032   6.215   0.316
 9957SOL     OW30769   5.855   5.538   2.370
 9957SOL    HW130770   5.843   5.487   2.455
 9957SOL    HW230771   5.772   5.531   2.315
 9958SOL     OW30772   2.238   4.325   0.962
 9958SOL    HW130773   2.194   4.291   1.045
 9958SOL    HW230774   2.202   4.415   0.939
 9959SOL     OW30775   3.359   3.579   1.019
 9959SOL    HW130776   3.362   3.480   1.037
 9959SOL    HW230777   3.368   3.629   1.105
 9960SOL     OW30778   0.717   1.633   2.042
 9960SOL    HW130779   0.640   1.595   2.094
 9960SOL    HW230780   0.728   1.582   1.957
 9961SOL     OW30781   2.097   4.001   4.646
 9961SOL    HW130782   2.110   4.093   4.682
 9961SOL    HW230783   2.085   4.005   4.547
 9962SOL     OW30784   5.011   6.533   4.462
 9962SOL    HW130785   4.918   6.556   4.434
 9962SOL    HW230786   5.018   6.537   4.562
 9963SOL     OW30787   3.357   0.916   0.786
 9963SOL    HW130788   3.285   0.846   0.790
 9963SOL    HW230789   3.391   0.924   0.692
 9964SOL     OW30790   5.216   6.180   4.687
 9964SOL    HW130791   5.276   6.101   4.701
 9964SOL    HW230792   5.246   6.255   4.746
 9965SOL     OW30793   4.133   6.733   0.393
 9965SOL    HW130794   4.082   6.814   0.363
 9965SOL    HW230795   4.210   6.718   0.330
 9966SOL     OW30796   6.937   0.299   3.164
 9966SOL    HW130797   6.988   0.344   3.090
 9966SOL    HW230798   6.866   0.240   3.125
 9967SOL     OW30799   1.330   5.607   0.756
 9967SOL    HW130800   1.320   5.664   0.675
 9967SOL    HW230801   1.308   5.512   0.733
 9968SOL     OW30802   2.870   3.483   2.874
 9968SOL    HW130803   2.878   3.464   2.777
 9968SOL    HW230804   2.844   3.579   2.887
 9969SOL     OW30805   1.389   3.474   1.476
 9969SOL    HW130806   1.435   3.544   1.532
 9969SOL    HW230807   1.413   3.489   1.380
 9970SOL     OW30808   5.982   4.569   1.670
 9970SOL    HW130809   6.026   4.481   1.688
 9970SOL    HW230810   6.041   4.623   1.610
 9971SOL     OW30811   2.531   6.329   6.934
 9971SOL    HW130812   2.486   6.255   6.983
 9971SOL    HW230813   2.470   6.408   6.930
 9972SOL     OW30814   6.649   4.963   1.332
 9972SOL    HW130815   6.626   4.946   1.236
 9972SOL    HW230816   6.731   4.910   1.356
 9973SOL     OW30817   5.990   6.929   3.349
 9973SOL    HW130818   5.915   6.886   3.399
 9973SOL    HW230819   6.070   6.935   3.408
 9974SOL     OW30820   2.563   0.547   4.243
 9974SOL    HW130821   2.592   0.504   4.157
 9974SOL    HW230822   2.577   0.646   4.238
 9975SOL     OW30823   6.453   4.112   0.384
 9975SOL    HW130824   6.463   4.096   0.286
 9975SOL    HW230825   6.542   4.104   0.428
 9976SOL     OW30826   2.215   6.660   4.900
 9976SOL    HW130827   2.201   6.650   4.998
 9976SOL    HW230828   2.290   6.723   4.883
 9977SOL     OW30829   6.581   4.447   4.112
 9977SOL    HW130830   6.579   4.513   4.037
 9977SOL    HW230831   6.644   4.480   4.183
 9978SOL     OW30832   0.478   2.742   5.093
 9978SOL    HW130833   0.566   2.768   5.132
 9978SOL    HW230834   0.453   2.806   5.020
 9979SOL     OW30835   0.638   3.901   5.056
 9979SOL    HW130836   0.674   3.923   5.146
 9979SOL    HW230837   0.711   3.863   4.999
 9980SOL     OW30838   2.813   6.383   4.860
 9980SOL    HW130839   2.784   6.462   4.914
 9980SOL    HW230840   2.742   6.360   4.794
 9981SOL     OW30841   4.237   2.316   3.989
 9981SOL    HW130842   4.234   2.254   4.067
 9981SOL    HW230843   4.293   2.396   4.011
 9982SOL     OW30844   6.733   6.197   2.720
 9982SOL    HW130845   6.706   6.142   2.798
 9982SOL    HW230846   6.819   6.244   2.740
 9983SOL     OW30847   6.582   1.016   0.918
 9983SOL    HW130848   6.616   1.107   0.943
 9983SOL    HW230849   6.491   1.024   0.879
 9984SOL     OW30850   2.680   1.241   6.785
 9984SOL    HW130851   2.705   1.276   6.694
 9984SOL    HW230852   2.583   1.258   6.801
 9985SOL     OW30853   2.069   1.690   1.809
 9985SOL    HW130854   2.119   1.620   1.859
 9985SOL    HW230855   2.109   1.701   1.717
 9986SOL     OW30856   4.861   3.927   4.741
 9986SOL    HW130857   4.933   3.931   4.672
 9986SOL    HW230858   4.881   3.992   4.815
 9987SOL     OW30859   0.662   4.414   6.012
 9987SOL    HW130860   0.680   4.315   6.009
 9987SOL    HW230861   0.570   4.429   6.049
 9988SOL     OW30862   6.729   0.183   4.465
 9988SOL    HW130863   6.708   0.236   4.382
 9988SOL    HW230864   6.781   0.240   4.528
 9989SOL     OW30865   1.336   3.013   4.202
 9989SOL    HW130866   1.321   3.055   4.292
 9989SOL    HW230867   1.358   3.085   4.136
 9990SOL     OW30868   1.498   5.464   1.942
 9990SOL    HW130869   1.484   5.556   1.976
 9990SOL    HW230870   1.594   5.452   1.916
 9991SOL     OW30871   4.211   2.056   3.129
 9991SOL    HW130872   4.181   2.136   3.182
 9991SOL    HW230873   4.156   2.049   3.046
 9992SOL     OW30874   6.834   5.336   6.092
 9992SOL    HW130875   6.837   5.343   6.192
 9992SOL    HW230876   6.894   5.404   6.052
 9993SOL     OW30877   1.534   0.908   2.287
 9993SOL    HW130878   1.522   0.977   2.217
 9993SOL    HW230879   1.542   0.952   2.377
 9994SOL     OW30880   6.477   4.886   3.235
 9994SOL    HW130881   6.534   4.832   3.172
 9994SOL    HW230882   6.383   4.852   3.231
 9995SOL     OW30883   5.134   1.187   4.577
 9995SOL    HW130884   5.055   1.156   4.630
 9995SOL    HW230885   5.147   1.126   4.499
 9996SOL     OW30886   2.437   3.273   6.646
 9996SOL    HW130887   2.381   3.287   6.564
 9996SOL    HW230888   2.474   3.180   6.645
 9997SOL     OW30889   2.368   0.402   4.468
 9997SOL    HW130890   2.420   0.411   4.382
 9997SOL    HW230891   2.274   0.375   4.447
 9998SOL     OW30892   5.710   6.535   5.271
 9998SOL    HW130893   5.780   6.478   5.315
 9998SOL    HW230894   5.754   6.609   5.221
 9999SOL     OW30895   0.007   1.422   4.588
 9999SOL    HW130896   0.019   1.519   4.610
 9999SOL    HW230897   0.096   1.376   4.591
10000SOL     OW30898   6.903   4.834   0.043
10000SOL    HW130899   6.937   4.803   6.976
10000SOL    HW230900   6.808   4.863   0.033
10001SOL     OW30901   3.966   6.909   3.692
10001SOL    HW130902   3.957   6.877   3.786
10001SOL    HW230903   4.026   6.848   3.641
10002SOL     OW30904   1.687   1.670   1.967
10002SOL    HW130905   1.766   1.644   1.911
10002SOL    HW230906   1.605   1.622   1.934
10003SOL     OW30907   5.015   3.174   3.131
10003SOL    HW130908   5.013   3.236   3.053
10003SOL    HW230909   5.109   3.145   3.149
10004SOL     OW30910   0.323   2.783   3.187
10004SOL    HW130911   0.318   2.724   3.267
10004SOL    HW230912   0.301   2.730   3.105
10005SOL     OW30913   5.228   0.109   4.350
10005SOL    HW130914   5.307   0.152   4.305
10005SOL    HW230915   5.146   0.126   4.297
10006SOL     OW30916   4.686   1.708   4.912
10006SOL    HW130917   4.712   1.637   4.847
10006SOL    HW230918   4.746   1.704   4.992
10007SOL     OW30919   6.072   3.989   4.120
10007SOL    HW130920   5.980   4.019   4.147
10007SOL    HW230921   6.077   3.984   4.020
10008SOL     OW30922   3.431   0.124   3.818
10008SOL    HW130923   3.414   0.029   3.792
10008SOL    HW230924   3.486   0.126   3.901
10009SOL     OW30925   2.453   4.465   1.406
10009SOL    HW130926   2.364   4.453   1.364
10009SOL    HW230927   2.463   4.560   1.437
10010SOL     OW30928   5.755   0.910   6.151
10010SOL    HW130929   5.688   0.984   6.146
10010SOL    HW230930   5.844   0.944   6.120
10011SOL     OW30931   6.951   6.726   4.167
10011SOL    HW130932   6.976   6.820   4.190
10011SOL    HW230933   0.008   6.680   4.126
10012SOL     OW30934   5.842   0.524   4.322
10012SOL    HW130935   5.754   0.492   4.286
10012SOL    HW230936   5.902   0.445   4.334
10013SOL     OW30937   1.610   1.068   1.849
10013SOL    HW130938   1.637   0.979   1.886
10013SOL    HW230939   1.622   1.138   1.919
10014SOL     OW30940   1.406   4.842   5.729
10014SOL    HW130941   1.361   4.841   5.818
10014SOL    HW230942   1.390   4.931   5.685
10015SOL     OW30943   2.147   5.709   6.498
10015SOL    HW130944   2.093   5.757   6.429
10015SOL    HW230945   2.202   5.638   6.455
10016SOL     OW30946   2.505   0.971   5.121
10016SOL    HW130947   2.427   1.008   5.070
10016SOL    HW230948   2.506   1.010   5.213
10017SOL     OW30949   0.158   2.276   4.298
10017SOL    HW130950   0.232   2.209   4.290
10017SOL    HW230951   0.153   2.330   4.214
10018SOL     OW30952   5.102   6.572   5.629
10018SOL    HW130953   5.143   6.487   5.662
10018SOL    HW230954   5.029   6.601   5.691
10019SOL     OW30955   1.720   0.989   2.714
10019SOL    HW130956   1.649   0.924   2.686
10019SOL    HW230957   1.684   1.082   2.708
10020SOL     OW30958   6.771   2.999   7.016
10020SOL    HW130959   6.677   3.032   7.018
10020SOL    HW230960   6.824   3.052   6.950
10021SOL     OW30961   5.182   2.827   1.585
10021SOL    HW130962   5.183   2.881   1.670
10021SOL    HW230963   5.112   2.756   1.592
10022SOL     OW30964   2.048   0.754   6.429
10022SOL    HW130965   2.014   0.810   6.505
10022SOL    HW230966   2.141   0.782   6.406
10023SOL     OW30967   0.418   2.937   0.826
10023SOL    HW130968   0.480   3.015   0.823
10023SOL    HW230969   0.338   2.959   0.880
10024SOL     OW30970   1.154   4.331   3.098
10024SOL    HW130971   1.184   4.402   3.034
10024SOL    HW230972   1.127   4.249   3.047
10025SOL     OW30973   0.636   0.945   0.985
10025SOL    HW130974   0.673   0.969   1.075
10025SOL    HW230975   0.624   1.027   0.930
10026SOL     OW30976   6.634   0.387   4.240
10026SOL    HW130977   6.692   0.442   4.179
10026SOL    HW230978   6.538   0.405   4.220
10027SOL     OW30979   6.069   2.553   5.953
10027SOL    HW130980   6.050   2.458   5.928
10027SOL    HW230981   6.045   2.613   5.877
10028SOL     OW30982   2.361   0.467   1.794
10028SOL    HW130983   2.419   0.446   1.873
10028SOL    HW230984   2.414   0.520   1.728
10029SOL     OW30985   4.356   1.146   4.170
10029SOL    HW130986   4.339   1.228   4.116
10029SOL    HW230987   4.366   1.068   4.109
10030SOL     OW30988   1.427   1.086   2.996
10030SOL    HW130989   1.439   1.108   2.899
10030SOL    HW230990   1.514   1.100   3.044
10031SOL     OW30991   6.598   4.868   3.578
10031SOL    HW130992   6.570   4.914   3.662
10031SOL    HW230993   6.528   4.801   3.552
10032SOL     OW30994   3.501   1.570   5.381
10032SOL    HW130995   3.446   1.537   5.305
10032SOL    HW230996   3.466   1.658   5.413
10033SOL     OW30997   5.097   3.036   4.081
10033SOL    HW130998   5.177   3.064   4.029
10033SOL    HW230999   5.023   3.012   4.018
10034SOL     OW31000   3.739   0.003   5.929
10034SOL    HW131001   3.799   6.956   5.888
10034SOL    HW231002   3.648   6.984   5.944
10035SOL     OW31003   0.417   6.897   3.515
10035SOL    HW131004   0.344   6.881   3.582
10035SOL    HW231005   0.447   6.809   3.477
10036SOL     OW31006   6.584   0.644   0.330
10036SOL    HW131007   6.645   0.571   0.301
10036SOL    HW231008   6.581   0.648   0.430
10037SOL     OW31009   6.668   6.751   1.269
10037SOL    HW131010   6.582   6.711   1.302
10037SOL    HW231011   6.674   6.846   1.299
10038SOL     OW31012   6.275   0.273   1.063
10038SOL    HW131013   6.335   0.224   1.127
10038SOL    HW231014   6.313   0.364   1.045
10039SOL     OW31015   4.122   0.369   3.328
10039SOL    HW131016   4.063   0.364   3.247
10039SOL    HW231017   4.164   0.459   3.332
10040SOL     OW31018   0.515   2.478   0.826
10040SOL    HW131019   0.446   2.451   0.893
10040SOL    HW231020   0.479   2.462   0.734
10041SOL     OW31021   1.335   6.767   0.602
10041SOL    HW131022   1.361   6.678   0.563
10041SOL    HW231023   1.278   6.752   0.683
10042SOL     OW31024   5.884   2.192   3.453
10042SOL    HW131025   5.789   2.211   3.430
10042SOL    HW231026   5.896   2.094   3.470
10043SOL     OW31027   1.624   2.959   5.172
10043SOL    HW131028   1.540   2.988   5.127
10043SOL    HW231029   1.667   3.038   5.216
10044SOL     OW31030   4.605   1.415   6.698
10044SOL    HW131031   4.524   1.465   6.667
10044SOL    HW231032   4.582   1.363   6.780
10045SOL     OW31033   2.681   1.179   0.997
10045SOL    HW131034   2.763   1.177   1.054
10045SOL    HW231035   2.614   1.242   1.035
10046SOL     OW31036   0.579   5.252   0.915
10046SOL    HW131037   0.557   5.233   0.819
10046SOL    HW231038   0.598   5.350   0.926
10047SOL     OW31039   1.677   3.268   0.579
10047SOL    HW131040   1.612   3.193   0.572
10047SOL    HW231041   1.707   3.277   0.674
10048SOL     OW31042   5.901   4.611   1.931
10048SOL    HW131043   5.836   4.680   1.963
10048SOL    HW231044   5.932   4.634   1.839
10049SOL     OW31045   6.407   1.577   4.877
10049SOL    HW131046   6.357   1.510   4.822
10049SOL    HW231047   6.422   1.540   4.969
10050SOL     OW31048   6.577   3.243   5.748
10050SOL    HW131049   6.549   3.238   5.652
10050SOL    HW231050   6.647   3.174   5.766
10051SOL     OW31051   2.337   1.647   4.203
10051SOL    HW131052   2.250   1.606   4.230
10051SOL    HW231053   2.325   1.695   4.116
10052SOL     OW31054   1.036   0.561   3.765
10052SOL    HW131055   1.003   0.472   3.796
10052SOL    HW231056   0.987   0.633   3.815
10053SOL     OW31057   5.996   4.967   3.149
10053SOL    HW131058   5.922   4.933   3.207
10053SOL    HW231059   5.973   5.059   3.117
10054SOL     OW31060   6.292   4.003   4.272
10054SOL    HW131061   6.192   3.992   4.274
10054SOL    HW231062   6.320   4.027   4.179
10055SOL     OW31063   1.789   1.735   6.992
10055SOL    HW131064   1.691   1.754   6.997
10055SOL    HW231065   1.840   1.821   6.983
10056SOL     OW31066   5.683   2.319   4.162
10056SOL    HW131067   5.629   2.299   4.245
10056SOL    HW231068   5.689   2.418   4.150
10057SOL     OW31069   5.869   4.558   5.287
10057SOL    HW131070   5.963   4.584   5.264
10057SOL    HW231071   5.809   4.637   5.278
10058SOL     OW31072   6.606   4.174   4.128
10058SOL    HW131073   6.534   4.117   4.087
10058SOL    HW231074   6.586   4.270   4.113
10059SOL     OW31075   4.936   6.201   6.959
10059SOL    HW131076   4.931   6.178   6.862
10059SOL    HW231077   4.844   6.225   6.992
10060SOL     OW31078   2.946   1.837   2.141
10060SOL    HW131079   2.864   1.868   2.094
10060SOL    HW231080   2.943   1.867   2.236
10061SOL     OW31081   3.758   6.595   2.731
10061SOL    HW131082   3.680   6.573   2.673
10061SOL    HW231083   3.839   6.607   2.674
10062SOL     OW31084   6.619   7.016   4.867
10062SOL    HW131085   6.704   0.047   4.869
10062SOL    HW231086   6.626   6.938   4.929
10063SOL     OW31087   3.245   2.072   4.851
10063SOL    HW131088   3.216   2.152   4.902
10063SOL    HW231089   3.231   1.990   4.906
10064SOL     OW31090   3.418   0.263   2.195
10064SOL    HW131091   3.341   0.324   2.215
10064SOL    HW231092   3.391   0.169   2.213
10065SOL     OW31093   0.244   1.836   1.830
10065SOL    HW131094   0.241   1.736   1.833
10065SOL    HW231095   0.151   1.872   1.821
10066SOL     OW31096   6.489   3.923   3.726
10066SOL    HW131097   6.503   3.875   3.813
10066SOL    HW231098   6.568   3.908   3.667
10067SOL     OW31099   6.174   3.812   5.574
10067SOL    HW131100   6.224   3.740   5.526
10067SOL    HW231101   6.238   3.864   5.631
10068SOL     OW31102   1.851   2.958   2.324
10068SOL    HW131103   1.886   2.932   2.233
10068SOL    HW231104   1.883   3.050   2.346
10069SOL     OW31105   2.979   4.907   1.603
10069SOL    HW131106   3.052   4.902   1.671
10069SOL    HW231107   2.899   4.857   1.637
10070SOL     OW31108   4.888   6.948   0.569
10070SOL    HW131109   4.963   7.011   0.550
10070SOL    HW231110   4.882   6.932   0.668
10071SOL     OW31111   5.460   0.554   5.653
10071SOL    HW131112   5.363   0.533   5.663
10071SOL    HW231113   5.503   0.562   5.743
10072SOL     OW31114   5.647   2.637   2.280
10072SOL    HW131115   5.610   2.547   2.304
10072SOL    HW231116   5.669   2.639   2.183
10073SOL     OW31117   5.644   5.935   5.550
10073SOL    HW131118   5.669   5.871   5.622
10073SOL    HW231119   5.719   5.999   5.534
10074SOL     OW31120   1.727   4.793   0.800
10074SOL    HW131121   1.702   4.875   0.748
10074SOL    HW231122   1.655   4.724   0.790
10075SOL     OW31123   1.387   2.974   1.855
10075SOL    HW131124   1.484   2.977   1.832
10075SOL    HW231125   1.351   3.067   1.862
10076SOL     OW31126   5.786   3.975   3.978
10076SOL    HW131127   5.780   3.988   4.077
10076SOL    HW231128   5.697   3.996   3.937
10077SOL     OW31129   4.077   3.626   6.374
10077SOL    HW131130   4.107   3.679   6.295
10077SOL    HW231131   4.124   3.660   6.456
10078SOL     OW31132   5.790   5.286   4.456
10078SOL    HW131133   5.794   5.372   4.405
10078SOL    HW231134   5.883   5.254   4.473
10079SOL     OW31135   5.245   5.003   2.903
10079SOL    HW131136   5.236   4.986   3.001
10079SOL    HW231137   5.260   4.917   2.855
10080SOL     OW31138   5.572   2.299   5.596
10080SOL    HW131139   5.479   2.335   5.605
10080SOL    HW231140   5.577   2.208   5.637
10081SOL     OW31141   2.031   5.114   6.733
10081SOL    HW131142   2.120   5.075   6.712
10081SOL    HW231143   1.992   5.154   6.650
10082SOL     OW31144   1.210   4.822   1.143
10082SOL    HW131145   1.220   4.917   1.172
10082SOL    HW231146   1.115   4.806   1.114
10083SOL     OW31147   2.882   6.083   2.941
10083SOL    HW131148   2.976   6.116   2.955
10083SOL    HW231149   2.848   6.115   2.853
10084SOL     OW31150   1.532   3.103   4.781
10084SOL    HW131151   1.573   3.024   4.736
10084SOL    HW231152   1.586   3.185   4.759
10085SOL     OW31153   4.371   6.651   1.672
10085SOL    HW131154   4.359   6.668   1.769
10085SOL    HW231155   4.433   6.573   1.659
10086SOL     OW31156   3.790   6.990   2.976
10086SOL    HW131157   3.778   6.897   3.011
10086SOL    HW231158   3.720   0.028   3.016
10087SOL     OW31159   1.649   5.515   5.304
10087SOL    HW131160   1.635   5.598   5.359
10087SOL    HW231161   1.704   5.450   5.356
10088SOL     OW31162   6.752   2.251   1.323
10088SOL    HW131163   6.788   2.191   1.251
10088SOL    HW231164   6.691   2.319   1.282
10089SOL     OW31165   4.307   6.695   1.960
10089SOL    HW131166   4.254   6.762   1.908
10089SOL    HW231167   4.357   6.742   2.033
10090SOL     OW31168   1.928   5.606   2.638
10090SOL    HW131169   1.867   5.550   2.582
10090SOL    HW231170   2.019   5.565   2.640
10091SOL     OW31171   5.514   4.758   3.806
10091SOL    HW131172   5.604   4.724   3.778
10091SOL    HW231173   5.479   4.821   3.736
10092SOL     OW31174   0.273   1.269   2.699
10092SOL    HW131175   0.203   1.200   2.720
10092SOL    HW231176   0.353   1.253   2.757
10093SOL     OW31177   4.461   3.661   6.483
10093SOL    HW131178   4.537   3.597   6.487
10093SOL    HW231179   4.376   3.611   6.469
10094SOL     OW31180   3.522   2.284   0.482
10094SOL    HW131181   3.581   2.260   0.558
10094SOL    HW231182   3.481   2.201   0.444
10095SOL     OW31183   4.757   2.660   5.626
10095SOL    HW131184   4.704   2.744   5.636
10095SOL    HW231185   4.767   2.640   5.528
10096SOL     OW31186   6.843   4.212   2.387
10096SOL    HW131187   6.824   4.285   2.322
10096SOL    HW231188   6.942   4.201   2.397
10097SOL     OW31189   1.017   1.644   0.759
10097SOL    HW131190   1.017   1.552   0.798
10097SOL    HW231191   0.923   1.679   0.756
10098SOL     OW31192   3.930   5.332   6.271
10098SOL    HW131193   3.955   5.260   6.335
10098SOL    HW231194   3.830   5.334   6.260
10099SOL     OW31195   0.305   5.954   3.504
10099SOL    HW131196   0.344   5.920   3.418
10099SOL    HW231197   0.327   5.890   3.578
10100SOL     OW31198   5.317   4.823   4.002
10100SOL    HW131199   5.380   4.817   3.924
10100SOL    HW231200   5.224   4.807   3.971
10101SOL     OW31201   0.144   2.594   6.816
10101SOL    HW131202   0.058   2.567   6.859
10101SOL    HW231203   0.205   2.633   6.885
10102SOL     OW31204   0.020   4.819   2.619
10102SOL    HW131205   0.073   4.835   2.702
10102SOL    HW231206   0.081   4.788   2.546
10103SOL     OW31207   6.821   6.823   6.787
10103SOL    HW131208   6.767   6.879   6.725
10103SOL    HW231209   6.894   6.879   6.827
10104SOL     OW31210   2.769   1.242   4.965
10104SOL    HW131211   2.682   1.253   4.916
10104SOL    HW231212   2.837   1.305   4.926
10105SOL     OW31213   3.461   1.620   4.176
10105SOL    HW131214   3.392   1.590   4.241
10105SOL    HW231215   3.461   1.560   4.096
10106SOL     OW31216   5.947   4.114   1.346
10106SOL    HW131217   5.858   4.112   1.391
10106SOL    HW231218   5.988   4.023   1.350
10107SOL     OW31219   5.353   6.132   6.344
10107SOL    HW131220   5.449   6.135   6.372
10107SOL    HW231221   5.331   6.216   6.294
10108SOL     OW31222   2.458   2.416   4.917
10108SOL    HW131223   2.450   2.451   5.010
10108SOL    HW231224   2.451   2.491   4.852
10109SOL     OW31225   1.092   3.285   1.032
10109SOL    HW131226   0.998   3.259   1.056
10109SOL    HW231227   1.146   3.203   1.017
10110SOL     OW31228   6.486   6.194   2.387
10110SOL    HW131229   6.391   6.213   2.412
10110SOL    HW231230   6.494   6.097   2.360
10111SOL     OW31231   6.686   2.626   1.788
10111SOL    HW131232   6.733   2.658   1.705
10111SOL    HW231233   6.628   2.699   1.824
10112SOL     OW31234   6.820   2.775   4.218
10112SOL    HW131235   6.873   2.857   4.240
10112SOL    HW231236   6.833   2.751   4.122
10113SOL     OW31237   6.997   5.663   5.774
10113SOL    HW131238   0.005   5.684   5.681
10113SOL    HW231239   0.051   5.621   5.825
10114SOL     OW31240   5.060   3.894   1.600
10114SOL    HW131241   5.081   3.949   1.519
10114SOL    HW231242   5.028   3.803   1.572
10115SOL     OW31243   3.581   2.450   6.444
10115SOL    HW131244   3.578   2.441   6.543
10115SOL    HW231245   3.493   2.484   6.411
10116SOL     OW31246   0.431   6.869   6.422
10116SOL    HW131247   0.486   6.788   6.399
10116SOL    HW231248   0.335   6.842   6.431
10117SOL     OW31249   0.169   4.525   1.250
10117SOL    HW131250   0.200   4.434   1.222
10117SOL    HW231251   0.102   4.558   1.184
10118SOL     OW31252   4.307   4.666   3.749
10118SOL    HW131253   4.207   4.669   3.761
10118SOL    HW231254   4.333   4.723   3.671
10119SOL     OW31255   5.815   5.927   6.813
10119SOL    HW131256   5.825   5.950   6.910
10119SOL    HW231257   5.726   5.884   6.797
10120SOL     OW31258   2.797   2.111   3.190
10120SOL    HW131259   2.893   2.131   3.171
10120SOL    HW231260   2.743   2.194   3.178
10121SOL     OW31261   6.191   5.514   1.777
10121SOL    HW131262   6.129   5.589   1.800
10121SOL    HW231263   6.243   5.487   1.858
10122SOL     OW31264   1.971   0.374   3.332
10122SOL    HW131265   2.047   0.311   3.318
10122SOL    HW231266   1.903   0.332   3.392
10123SOL     OW31267   6.338   5.927   6.626
10123SOL    HW131268   6.378   6.002   6.679
10123SOL    HW231269   6.375   5.929   6.533
10124SOL     OW31270   2.571   5.087   2.513
10124SOL    HW131271   2.652   5.106   2.457
10124SOL    HW231272   2.583   5.127   2.604
10125SOL     OW31273   1.599   1.561   4.607
10125SOL    HW131274   1.564   1.617   4.682
10125SOL    HW231275   1.609   1.617   4.525
10126SOL     OW31276   6.382   6.326   4.572
10126SOL    HW131277   6.292   6.350   4.609
10126SOL    HW231278   6.446   6.402   4.587
10127SOL     OW31279   2.290   0.670   5.109
10127SOL    HW131280   2.388   0.671   5.131
10127SOL    HW231281   2.278   0.698   5.014
10128SOL     OW31282   2.626   1.796   0.285
10128SOL    HW131283   2.658   1.866   0.349
10128SOL    HW231284   2.555   1.741   0.328
10129SOL     OW31285   6.741   2.194   4.930
10129SOL    HW131286   6.824   2.143   4.953
10129SOL    HW231287   6.669   2.130   4.902
10130SOL     OW31288   1.701   2.242   3.309
10130SOL    HW131289   1.703   2.153   3.355
10130SOL    HW231290   1.793   2.264   3.276
10131SOL     OW31291   2.050   0.336   5.416
10131SOL    HW131292   2.114   0.371   5.347
10131SOL    HW231293   2.052   0.236   5.414
10132SOL     OW31294   6.465   0.566   2.410
10132SOL    HW131295   6.474   0.530   2.503
10132SOL    HW231296   6.484   0.493   2.344
10133SOL     OW31297   4.335   5.539   1.248
10133SOL    HW131298   4.330   5.638   1.255
10133SOL    HW231299   4.422   5.506   1.283
10134SOL     OW31300   0.024   6.543   3.714
10134SOL    HW131301   6.966   6.513   3.766
10134SOL    HW231302   7.019   6.614   3.650
10135SOL     OW31303   6.333   6.729   3.816
10135SOL    HW131304   6.353   6.711   3.912
10135SOL    HW231305   6.361   6.823   3.793
10136SOL     OW31306   4.951   0.970   3.420
10136SOL    HW131307   5.022   1.026   3.461
10136SOL    HW231308   4.952   0.982   3.320
10137SOL     OW31309   6.909   5.976   3.303
10137SOL    HW131310   6.849   5.995   3.381
10137SOL    HW231311   6.978   5.909   3.330
10138SOL     OW31312   0.204   1.901   2.238
10138SOL    HW131313   0.158   1.963   2.175
10138SOL    HW231314   0.244   1.825   2.187
10139SOL     OW31315   3.540   2.966   0.322
10139SOL    HW131316   3.507   2.931   0.409
10139SOL    HW231317   3.634   2.933   0.306
10140SOL     OW31318   6.139   6.416   4.670
10140SOL    HW131319   6.076   6.344   4.700
10140SOL    HW231320   6.094   6.471   4.600
10141SOL     OW31321   1.306   1.908   4.451
10141SOL    HW131322   1.372   1.983   4.459
10141SOL    HW231323   1.269   1.887   4.541
10142SOL     OW31324   4.346   5.984   1.931
10142SOL    HW131325   4.365   5.898   1.978
10142SOL    HW231326   4.347   5.969   1.832
10143SOL     OW31327   6.052   3.438   6.905
10143SOL    HW131328   5.984   3.366   6.921
10143SOL    HW231329   6.141   3.396   6.886
10144SOL     OW31330   3.845   0.529   1.142
10144SOL    HW131331   3.758   0.556   1.099
10144SOL    HW231332   3.826   0.484   1.229
10145SOL     OW31333   6.757   0.270   5.077
10145SOL    HW131334   6.798   0.231   5.160
10145SOL    HW231335   6.680   0.328   5.102
10146SOL     OW31336   1.638   2.481   5.621
10146SOL    HW131337   1.605   2.575   5.628
10146SOL    HW231338   1.560   2.419   5.614
10147SOL     OW31339   3.691   5.498   0.209
10147SOL    HW131340   3.681   5.409   0.252
10147SOL    HW231341   3.650   5.568   0.267
10148SOL     OW31342   0.536   5.237   6.422
10148SOL    HW131343   0.618   5.195   6.461
10148SOL    HW231344   0.457   5.178   6.438
10149SOL     OW31345   3.333   3.237   3.338
10149SOL    HW131346   3.283   3.195   3.413
10149SOL    HW231347   3.364   3.328   3.365
10150SOL     OW31348   5.095   4.062   1.387
10150SOL    HW131349   5.079   4.039   1.291
10150SOL    HW231350   5.183   4.108   1.396
10151SOL     OW31351   0.171   0.955   0.200
10151SOL    HW131352   0.148   0.859   0.215
10151SOL    HW231353   0.227   0.963   0.118
10152SOL     OW31354   3.588   6.133   3.697
10152SOL    HW131355   3.630   6.119   3.608
10152SOL    HW231356   3.508   6.193   3.687
10153SOL     OW31357   5.222   3.539   1.594
10153SOL    HW131358   5.230   3.441   1.615
10153SOL    HW231359   5.271   3.559   1.509
10154SOL     OW31360   4.546   5.322   5.339
10154SOL    HW131361   4.535   5.327   5.438
10154SOL    HW231362   4.584   5.233   5.314
10155SOL     OW31363   4.375   2.337   4.341
10155SOL    HW131364   4.359   2.254   4.288
10155SOL    HW231365   4.394   2.313   4.436
10156SOL     OW31366   3.601   1.905   6.376
10156SOL    HW131367   3.682   1.888   6.320
10156SOL    HW231368   3.581   2.003   6.376
10157SOL     OW31369   0.967   4.560   0.746
10157SOL    HW131370   0.962   4.499   0.825
10157SOL    HW231371   0.973   4.506   0.662
10158SOL     OW31372   5.700   4.545   6.946
10158SOL    HW131373   5.758   4.624   6.962
10158SOL    HW231374   5.608   4.562   6.983
10159SOL     OW31375   3.608   2.849   1.360
10159SOL    HW131376   3.512   2.847   1.388
10159SOL    HW231377   3.657   2.917   1.414
10160SOL     OW31378   0.123   3.865   2.244
10160SOL    HW131379   0.205   3.874   2.187
10160SOL    HW231380   0.149   3.837   2.336
10161SOL     OW31381   6.101   2.781   6.981
10161SOL    HW131382   6.084   2.704   0.021
10161SOL    HW231383   6.191   2.769   6.939
10162SOL     OW31384   2.090   2.125   2.327
10162SOL    HW131385   2.030   2.204   2.342
10162SOL    HW231386   2.162   2.150   2.262
10163SOL     OW31387   3.422   5.277   5.367
10163SOL    HW131388   3.403   5.288   5.464
10163SOL    HW231389   3.455   5.364   5.330
10164SOL     OW31390   0.091   0.693   4.111
10164SOL    HW131391   0.082   0.720   4.207
10164SOL    HW231392   0.092   0.593   4.104
10165SOL     OW31393   1.856   3.449   3.681
10165SOL    HW131394   1.828   3.528   3.736
10165SOL    HW231395   1.778   3.414   3.630
10166SOL     OW31396   3.097   6.324   3.319
10166SOL    HW131397   3.074   6.313   3.416
10166SOL    HW231398   3.013   6.326   3.265
10167SOL     OW31399   3.564   1.653   6.384
10167SOL    HW131400   3.581   1.751   6.396
10167SOL    HW231401   3.475   1.640   6.341
10168SOL     OW31402   0.959   1.297   6.305
10168SOL    HW131403   0.958   1.358   6.225
10168SOL    HW231404   1.037   1.320   6.363
10169SOL     OW31405   4.545   5.325   2.562
10169SOL    HW131406   4.556   5.230   2.591
10169SOL    HW231407   4.626   5.377   2.589
10170SOL     OW31408   4.579   6.394   0.414
10170SOL    HW131409   4.631   6.457   0.356
10170SOL    HW231410   4.642   6.327   0.455
10171SOL     OW31411   1.549   4.437   3.572
10171SOL    HW131412   1.562   4.339   3.559
10171SOL    HW231413   1.555   4.484   3.484
10172SOL     OW31414   1.157   1.170   3.008
10172SOL    HW131415   1.124   1.258   2.976
10172SOL    HW231416   1.255   1.176   3.027
10173SOL     OW31417   4.604   3.244   5.413
10173SOL    HW131418   4.671   3.235   5.340
10173SOL    HW231419   4.649   3.239   5.502
10174SOL     OW31420   5.015   4.701   1.697
10174SOL    HW131421   5.064   4.626   1.741
10174SOL    HW231422   5.060   4.788   1.716
10175SOL     OW31423   6.578   6.949   3.590
10175SOL    HW131424   6.642   6.875   3.610
10175SOL    HW231425   6.517   6.961   3.668
10176SOL     OW31426   0.279   0.950   4.670
10176SOL    HW131427   0.376   0.957   4.693
10176SOL    HW231428   0.265   0.874   4.607
10177SOL     OW31429   3.402   0.924   4.345
10177SOL    HW131430   3.481   0.869   4.373
10177SOL    HW231431   3.341   0.936   4.424
10178SOL     OW31432   6.807   1.492   2.175
10178SOL    HW131433   6.768   1.567   2.227
10178SOL    HW231434   6.769   1.405   2.207
10179SOL     OW31435   0.103   6.210   0.467
10179SOL    HW131436   0.154   6.257   0.395
10179SOL    HW231437   0.155   6.131   0.498
10180SOL     OW31438   2.726   0.045   6.116
10180SOL    HW131439   2.756   0.137   6.142
10180SOL    HW231440   2.804   7.004   6.120
10181SOL     OW31441   6.933   4.052   2.666
10181SOL    HW131442   6.906   3.977   2.727
10181SOL    HW231443   0.011   4.062   2.668
10182SOL     OW31444   4.348   6.750   6.970
10182SOL    HW131445   4.250   6.771   6.968
10182SOL    HW231446   4.400   6.835   6.963
10183SOL     OW31447   3.743   6.111   6.212
10183SOL    HW131448   3.737   6.052   6.132
10183SOL    HW231449   3.770   6.057   6.291
10184SOL     OW31450   5.199   2.595   4.852
10184SOL    HW131451   5.171   2.508   4.892
10184SOL    HW231452   5.295   2.612   4.872
10185SOL     OW31453   3.040   4.845   1.933
10185SOL    HW131454   2.979   4.773   1.965
10185SOL    HW231455   3.134   4.810   1.931
10186SOL     OW31456   3.207   2.740   1.106
10186SOL    HW131457   3.184   2.820   1.161
10186SOL    HW231458   3.230   2.663   1.165
10187SOL     OW31459   1.920   3.709   5.917
10187SOL    HW131460   1.910   3.808   5.928
10187SOL    HW231461   1.905   3.685   5.822
10188SOL     OW31462   1.980   0.496   6.433
10188SOL    HW131463   1.887   0.484   6.399
10188SOL    HW231464   2.008   0.591   6.419
10189SOL     OW31465   1.890   1.662   5.574
10189SOL    HW131466   1.832   1.712   5.639
10189SOL    HW231467   1.913   1.722   5.498
10190SOL     OW31468   4.000   3.637   0.664
10190SOL    HW131469   4.085   3.685   0.685
10190SOL    HW231470   4.017   3.566   0.595
10191SOL     OW31471   5.594   0.773   0.608
10191SOL    HW131472   5.657   0.804   0.537
10191SOL    HW231473   5.579   0.675   0.600
10192SOL     OW31474   2.433   0.163   3.977
10192SOL    HW131475   2.436   0.066   4.002
10192SOL    HW231476   2.375   0.212   4.041
10193SOL     OW31477   3.748   3.646   3.656
10193SOL    HW131478   3.672   3.654   3.592
10193SOL    HW231479   3.777   3.551   3.663
10194SOL     OW31480   3.194   6.021   3.795
10194SOL    HW131481   3.238   5.974   3.871
10194SOL    HW231482   3.165   5.954   3.726
10195SOL     OW31483   5.053   0.510   3.122
10195SOL    HW131484   5.133   0.565   3.150
10195SOL    HW231485   5.034   0.442   3.193
10196SOL     OW31486   4.763   4.144   4.046
10196SOL    HW131487   4.763   4.050   4.013
10196SOL    HW231488   4.697   4.153   4.121
10197SOL     OW31489   4.755   2.171   2.675
10197SOL    HW131490   4.738   2.157   2.577
10197SOL    HW231491   4.829   2.237   2.687
10198SOL     OW31492   3.059   1.586   2.137
10198SOL    HW131493   3.017   1.677   2.143
10198SOL    HW231494   3.107   1.578   2.049
10199SOL     OW31495   0.874   1.963   6.906
10199SOL    HW131496   0.791   1.958   6.851
10199SOL    HW231497   0.939   2.025   6.862
10200SOL     OW31498   5.861   6.702   3.690
10200SOL    HW131499   5.855   6.802   3.695
10200SOL    HW231500   5.859   6.673   3.595
10201SOL     OW31501   1.427   4.511   2.278
10201SOL    HW131502   1.488   4.559   2.216
10201SOL    HW231503   1.382   4.436   2.230
10202SOL     OW31504   1.222   1.988   3.126
10202SOL    HW131505   1.131   2.029   3.124
10202SOL    HW231506   1.291   2.058   3.107
10203SOL     OW31507   0.270   2.155   1.006
10203SOL    HW131508   0.280   2.105   0.920
10203SOL    HW231509   0.301   2.249   0.993
10204SOL     OW31510   2.385   5.863   4.068
10204SOL    HW131511   2.411   5.780   4.019
10204SOL    HW231512   2.296   5.895   4.035
10205SOL     OW31513   3.517   0.032   1.274
10205SOL    HW131514   3.540   0.095   1.200
10205SOL    HW231515   3.430   0.060   1.316
10206SOL     OW31516   5.604   6.215   0.012
10206SOL    HW131517   5.663   6.292   0.034
10206SOL    HW231518   5.566   6.176   0.096
10207SOL     OW31519   3.799   1.561   2.566
10207SOL    HW131520   3.887   1.556   2.520
10207SOL    HW231521   3.765   1.655   2.563
10208SOL     OW31522   6.748   2.927   6.294
10208SOL    HW131523   6.829   2.893   6.342
10208SOL    HW231524   6.666   2.903   6.346
10209SOL     OW31525   3.290   6.396   0.093
10209SOL    HW131526   3.384   6.375   0.122
10209SOL    HW231527   3.265   6.486   0.129
10210SOL     OW31528   5.011   5.745   6.681
10210SOL    HW131529   5.005   5.768   6.584
10210SOL    HW231530   5.010   5.829   6.735
10211SOL     OW31531   3.700   5.606   5.632
10211SOL    HW131532   3.751   5.679   5.678
10211SOL    HW231533   3.676   5.535   5.698
10212SOL     OW31534   6.440   6.223   6.213
10212SOL    HW131535   6.506   6.257   6.146
10212SOL    HW231536   6.367   6.174   6.167
10213SOL     OW31537   3.850   7.000   4.568
10213SOL    HW131538   3.855   6.916   4.621
10213SOL    HW231539   3.771   6.997   4.508
10214SOL     OW31540   0.113   0.650   0.163
10214SOL    HW131541   0.065   0.659   0.076
10214SOL    HW231542   0.174   0.571   0.160
10215SOL     OW31543   4.398   2.322   0.167
10215SOL    HW131544   4.391   2.300   0.265
10215SOL    HW231545   4.367   2.416   0.152
10216SOL     OW31546   5.111   0.262   2.413
10216SOL    HW131547   5.058   0.181   2.389
10216SOL    HW231548   5.049   0.333   2.447
10217SOL     OW31549   3.668   2.421   5.465
10217SOL    HW131550   3.760   2.457   5.475
10217SOL    HW231551   3.606   2.494   5.439
10218SOL     OW31552   3.837   0.874   6.793
10218SOL    HW131553   3.826   0.927   6.708
10218SOL    HW231554   3.753   0.879   6.847
10219SOL     OW31555   1.022   5.167   0.497
10219SOL    HW131556   0.963   5.160   0.416
10219SOL    HW231557   1.113   5.200   0.469
10220SOL     OW31558   4.092   2.289   0.267
10220SOL    HW131559   4.168   2.335   0.313
10220SOL    HW231560   4.121   2.261   0.176
10221SOL     OW31561   2.674   0.819   4.156
10221SOL    HW131562   2.626   0.769   4.084
10221SOL    HW231563   2.639   0.913   4.160
10222SOL     OW31564   1.944   4.646   5.209
10222SOL    HW131565   1.952   4.559   5.160
10222SOL    HW231566   1.910   4.716   5.147
10223SOL     OW31567   0.789   4.927   6.058
10223SOL    HW131568   0.690   4.935   6.069
10223SOL    HW231569   0.833   5.009   6.096
10224SOL     OW31570   2.481   6.414   5.148
10224SOL    HW131571   2.545   6.378   5.080
10224SOL    HW231572   2.490   6.513   5.153
10225SOL     OW31573   5.153   6.743   4.351
10225SOL    HW131574   5.114   6.659   4.390
10225SOL    HW231575   5.252   6.730   4.339
10226SOL     OW31576   6.645   2.953   6.047
10226SOL    HW131577   6.569   3.009   6.079
10226SOL    HW231578   6.705   2.931   6.124
10227SOL     OW31579   4.908   4.355   5.391
10227SOL    HW131580   4.850   4.366   5.472
10227SOL    HW231581   5.001   4.383   5.413
10228SOL     OW31582   0.715   3.274   1.603
10228SOL    HW131583   0.743   3.268   1.699
10228SOL    HW231584   0.615   3.264   1.597
10229SOL     OW31585   3.200   0.566   1.649
10229SOL    HW131586   3.197   0.652   1.598
10229SOL    HW231587   3.208   0.490   1.585
10230SOL     OW31588   5.728   6.425   3.536
10230SOL    HW131589   5.649   6.480   3.508
10230SOL    HW231590   5.722   6.335   3.495
10231SOL     OW31591   4.635   6.219   4.263
10231SOL    HW131592   4.540   6.197   4.241
10231SOL    HW231593   4.641   6.315   4.289
10232SOL     OW31594   3.830   2.175   3.388
10232SOL    HW131595   3.834   2.178   3.488
10232SOL    HW231596   3.905   2.231   3.350
10233SOL     OW31597   4.771   6.403   5.664
10233SOL    HW131598   4.785   6.314   5.619
10233SOL    HW231599   4.754   6.473   5.594
10234SOL     OW31600   4.175   5.267   1.267
10234SOL    HW131601   4.099   5.296   1.208
10234SOL    HW231602   4.241   5.341   1.275
10235SOL     OW31603   5.233   0.566   0.154
10235SOL    HW131604   5.260   0.655   0.189
10235SOL    HW231605   5.306   0.529   0.096
10236SOL     OW31606   1.886   5.945   1.336
10236SOL    HW131607   1.883   5.938   1.436
10236SOL    HW231608   1.883   6.041   1.309
10237SOL     OW31609   5.804   2.379   2.741
10237SOL    HW131610   5.823   2.431   2.658
10237SOL    HW231611   5.802   2.441   2.820
10238SOL     OW31612   4.953   5.412   5.884
10238SOL    HW131613   4.981   5.343   5.951
10238SOL    HW231614   4.887   5.373   5.820
10239SOL     OW31615   5.984   3.206   4.761
10239SOL    HW131616   5.913   3.250   4.704
10239SOL    HW231617   5.960   3.216   4.857
10240SOL     OW31618   5.173   3.954   3.273
10240SOL    HW131619   5.178   4.005   3.187
10240SOL    HW231620   5.178   4.018   3.350
10241SOL     OW31621   1.104   2.565   2.532
10241SOL    HW131622   1.172   2.615   2.586
10241SOL    HW231623   1.020   2.556   2.585
10242SOL     OW31624   1.336   5.303   6.004
10242SOL    HW131625   1.387   5.335   5.924
10242SOL    HW231626   1.398   5.258   6.068
10243SOL     OW31627   0.557   5.843   2.954
10243SOL    HW131628   0.599   5.762   2.994
10243SOL    HW231629   0.589   5.925   3.002
10244SOL     OW31630   2.185   5.900   6.672
10244SOL    HW131631   2.280   5.933   6.668
10244SOL    HW231632   2.172   5.831   6.601
10245SOL     OW31633   2.470   3.165   1.024
10245SOL    HW131634   2.489   3.135   0.930
10245SOL    HW231635   2.383   3.214   1.026
10246SOL     OW31636   2.981   3.599   4.545
10246SOL    HW131637   2.930   3.514   4.538
10246SOL    HW231638   2.951   3.649   4.626
10247SOL     OW31639   0.927   6.099   6.081
10247SOL    HW131640   0.900   6.172   6.144
10247SOL    HW231641   0.877   6.016   6.102
10248SOL     OW31642   5.947   0.906   3.491
10248SOL    HW131643   6.026   0.882   3.548
10248SOL    HW231644   5.889   0.825   3.479
10249SOL     OW31645   5.053   0.772   6.060
10249SOL    HW131646   4.982   0.829   6.018
10249SOL    HW231647   5.044   0.678   6.026
10250SOL     OW31648   4.495   5.613   0.733
10250SOL    HW131649   4.478   5.600   0.635
10250SOL    HW231650   4.416   5.580   0.785
10251SOL     OW31651   4.065   4.523   1.639
10251SOL    HW131652   4.067   4.595   1.569
10251SOL    HW231653   4.000   4.452   1.613
10252SOL     OW31654   0.010   3.670   0.973
10252SOL    HW131655   7.006   3.587   1.022
10252SOL    HW231656   0.013   3.651   0.875
10253SOL     OW31657   3.746   4.453   0.682
10253SOL    HW131658   3.687   4.372   0.684
10253SOL    HW231659   3.842   4.424   0.679
10254SOL     OW31660   2.455   1.724   4.991
10254SOL    HW131661   2.433   1.762   5.081
10254SOL    HW231662   2.426   1.788   4.920
10255SOL     OW31663   3.230   5.609   3.910
10255SOL    HW131664   3.307   5.551   3.937
10255SOL    HW231665   3.235   5.628   3.813
10256SOL     OW31666   5.102   6.189   0.878
10256SOL    HW131667   5.153   6.109   0.847
10256SOL    HW231668   5.091   6.253   0.802
10257SOL     OW31669   1.648   5.357   5.799
10257SOL    HW131670   1.705   5.419   5.745
10257SOL    HW231671   1.619   5.404   5.883
10258SOL     OW31672   4.324   0.938   3.097
10258SOL    HW131673   4.231   0.914   3.070
10258SOL    HW231674   4.382   0.941   3.015
10259SOL     OW31675   0.126   3.060   3.961
10259SOL    HW131676   0.081   3.128   3.902
10259SOL    HW231677   0.064   2.983   3.976
10260SOL     OW31678   0.229   5.556   2.091
10260SOL    HW131679   0.235   5.545   2.190
10260SOL    HW231680   0.294   5.495   2.046
10261SOL     OW31681   2.428   0.105   1.888
10261SOL    HW131682   2.449   0.110   1.790
10261SOL    HW231683   2.510   0.080   1.938
10262SOL     OW31684   1.081   6.481   3.834
10262SOL    HW131685   1.104   6.577   3.848
10262SOL    HW231686   1.160   6.424   3.856
10263SOL     OW31687   6.789   3.410   4.797
10263SOL    HW131688   6.745   3.401   4.887
10263SOL    HW231689   6.886   3.387   4.805
10264SOL     OW31690   0.423   6.646   0.165
10264SOL    HW131691   0.389   6.602   0.083
10264SOL    HW231692   0.521   6.630   0.174
10265SOL     OW31693   4.835   2.411   3.603
10265SOL    HW131694   4.751   2.454   3.634
10265SOL    HW231695   4.832   2.313   3.623
10266SOL     OW31696   3.606   3.506   6.693
10266SOL    HW131697   3.530   3.569   6.671
10266SOL    HW231698   3.673   3.509   6.619
10267SOL     OW31699   6.337   1.007   6.481
10267SOL    HW131700   6.391   0.992   6.564
10267SOL    HW231701   6.240   1.007   6.504
10268SOL     OW31702   6.644   3.536   0.616
10268SOL    HW131703   6.634   3.488   0.703
10268SOL    HW231704   6.566   3.515   0.557
10269SOL     OW31705   4.177   1.369   6.178
10269SOL    HW131706   4.220   1.317   6.252
10269SOL    HW231707   4.107   1.312   6.134
10270SOL     OW31708   3.324   5.787   2.462
10270SOL    HW131709   3.294   5.793   2.366
10270SOL    HW231710   3.399   5.852   2.477
10271SOL     OW31711   1.973   4.616   1.788
10271SOL    HW131712   1.917   4.685   1.742
10271SOL    HW231713   2.067   4.621   1.754
10272SOL     OW31714   1.606   2.071   3.959
10272SOL    HW131715   1.508   2.076   3.939
10272SOL    HW231716   1.644   2.163   3.966
10273SOL     OW31717   4.218   6.445   3.873
10273SOL    HW131718   4.181   6.352   3.867
10273SOL    HW231719   4.185   6.500   3.797
10274SOL     OW31720   2.821   4.863   6.481
10274SOL    HW131721   2.873   4.787   6.443
10274SOL    HW231722   2.739   4.829   6.527
10275SOL     OW31723   0.736   6.507   1.601
10275SOL    HW131724   0.833   6.524   1.621
10275SOL    HW231725   0.680   6.562   1.663
10276SOL     OW31726   1.010   6.820   0.515
10276SOL    HW131727   1.023   6.738   0.461
10276SOL    HW231728   0.965   6.796   0.602
10277SOL     OW31729   0.172   6.122   2.097
10277SOL    HW131730   0.199   6.148   2.004
10277SOL    HW231731   0.132   6.201   2.144
10278SOL     OW31732   6.429   0.869   5.931
10278SOL    HW131733   6.517   0.912   5.952
10278SOL    HW231734   6.436   0.770   5.946
10279SOL     OW31735   3.304   6.450   4.709
10279SOL    HW131736   3.210   6.419   4.692
10279SOL    HW231737   3.358   6.440   4.625
10280SOL     OW31738   2.633   2.900   0.278
10280SOL    HW131739   2.605   2.889   0.183
10280SOL    HW231740   2.718   2.954   0.281
10281SOL     OW31741   4.993   0.991   4.344
10281SOL    HW131742   4.970   1.087   4.331
10281SOL    HW231743   5.003   0.947   4.255
10282SOL     OW31744   1.171   2.585   4.034
10282SOL    HW131745   1.246   2.648   4.055
10282SOL    HW231746   1.166   2.514   4.104
10283SOL     OW31747   1.697   4.696   5.955
10283SOL    HW131748   1.625   4.631   5.933
10283SOL    HW231749   1.781   4.647   5.976
10284SOL     OW31750   5.258   3.056   7.012
10284SOL    HW131751   5.276   3.100   6.924
10284SOL    HW231752   5.175   3.001   7.005
10285SOL     OW31753   5.285   1.930   1.231
10285SOL    HW131754   5.347   1.872   1.283
10285SOL    HW231755   5.215   1.968   1.292
10286SOL     OW31756   4.067   0.497   4.354
10286SOL    HW131757   4.122   0.416   4.375
10286SOL    HW231758   4.021   0.528   4.437
10287SOL     OW31759   1.907   4.630   2.048
10287SOL    HW131760   1.865   4.717   2.072
10287SOL    HW231761   1.942   4.635   1.954
10288SOL     OW31762   4.307   6.465   4.474
10288SOL    HW131763   4.334   6.462   4.570
10288SOL    HW231764   4.263   6.379   4.449
10289SOL     OW31765   3.154   1.651   1.892
10289SOL    HW131766   3.210   1.731   1.916
10289SOL    HW231767   3.168   1.629   1.796
10290SOL     OW31768   3.232   3.024   3.206
10290SOL    HW131769   3.315   2.973   3.182
10290SOL    HW231770   3.258   3.112   3.246
10291SOL     OW31771   3.580   0.660   4.739
10291SOL    HW131772   3.661   0.696   4.785
10291SOL    HW231773   3.527   0.605   4.804
10292SOL     OW31774   6.666   2.362   4.322
10292SOL    HW131775   6.591   2.312   4.279
10292SOL    HW231776   6.753   2.326   4.290
10293SOL     OW31777   2.712   4.731   2.890
10293SOL    HW131778   2.764   4.732   2.975
10293SOL    HW231779   2.651   4.810   2.887
10294SOL     OW31780   6.208   0.956   3.263
10294SOL    HW131781   6.254   1.042   3.285
10294SOL    HW231782   6.275   0.889   3.233
10295SOL     OW31783   1.768   4.105   4.355
10295SOL    HW131784   1.809   4.194   4.376
10295SOL    HW231785   1.669   4.110   4.366
10296SOL     OW31786   6.533   3.197   2.005
10296SOL    HW131787   6.458   3.151   1.957
10296SOL    HW231788   6.540   3.291   1.971
10297SOL     OW31789   3.278   4.902   5.398
10297SOL    HW131790   3.346   4.928   5.329
10297SOL    HW231791   3.228   4.821   5.367
10298SOL     OW31792   6.218   3.148   2.954
10298SOL    HW131793   6.191   3.053   2.940
10298SOL    HW231794   6.299   3.152   3.012
10299SOL     OW31795   4.728   4.566   2.188
10299SOL    HW131796   4.714   4.475   2.227
10299SOL    HW231797   4.656   4.584   2.121
10300SOL     OW31798   0.831   6.308   1.864
10300SOL    HW131799   0.910   6.248   1.868
10300SOL    HW231800   0.788   6.302   1.774
10301SOL     OW31801   4.720   0.248   1.752
10301SOL    HW131802   4.755   0.327   1.803
10301SOL    HW231803   4.738   0.164   1.804
10302SOL     OW31804   1.582   3.907   3.454
10302SOL    HW131805   1.604   3.959   3.371
10302SOL    HW231806   1.553   3.815   3.429
10303SOL     OW31807   4.515   2.953   1.158
10303SOL    HW131808   4.581   2.887   1.195
10303SOL    HW231809   4.461   2.909   1.086
10304SOL     OW31810   5.829   6.209   3.400
10304SOL    HW131811   5.757   6.149   3.364
10304SOL    HW231812   5.880   6.248   3.323
10305SOL     OW31813   1.996   5.448   1.289
10305SOL    HW131814   2.065   5.376   1.285
10305SOL    HW231815   1.992   5.485   1.382
10306SOL     OW31816   4.230   4.209   0.178
10306SOL    HW131817   4.215   4.280   0.110
10306SOL    HW231818   4.165   4.134   0.163
10307SOL     OW31819   2.137   1.978   5.826
10307SOL    HW131820   2.150   1.941   5.734
10307SOL    HW231821   2.225   1.979   5.875
10308SOL     OW31822   2.647   5.069   4.132
10308SOL    HW131823   2.551   5.042   4.130
10308SOL    HW231824   2.665   5.137   4.062
10309SOL     OW31825   0.346   6.272   3.727
10309SOL    HW131826   0.267   6.226   3.688
10309SOL    HW231827   0.332   6.371   3.723
10310SOL     OW31828   2.961   3.760   4.189
10310SOL    HW131829   2.914   3.674   4.168
10310SOL    HW231830   2.986   3.806   4.104
10311SOL     OW31831   0.720   0.698   0.973
10311SOL    HW131832   0.644   0.633   0.968
10311SOL    HW231833   0.685   0.789   0.993
10312SOL     OW31834   2.300   4.967   0.755
10312SOL    HW131835   2.317   5.038   0.687
10312SOL    HW231836   2.222   4.911   0.725
10313SOL     OW31837   6.895   5.665   3.947
10313SOL    HW131838   6.976   5.695   3.896
10313SOL    HW231839   6.834   5.615   3.886
10314SOL     OW31840   0.061   6.020   5.267
10314SOL    HW131841   0.061   6.084   5.343
10314SOL    HW231842   0.153   6.015   5.227
10315SOL     OW31843   4.294   6.548   5.805
10315SOL    HW131844   4.369   6.493   5.843
10315SOL    HW231845   4.207   6.510   5.834
10316SOL     OW31846   0.633   4.460   3.307
10316SOL    HW131847   0.597   4.520   3.235
10316SOL    HW231848   0.590   4.484   3.394
10317SOL     OW31849   5.050   3.942   6.721
10317SOL    HW131850   5.114   4.010   6.756
10317SOL    HW231851   5.084   3.850   6.744
10318SOL     OW31852   5.652   4.972   3.016
10318SOL    HW131853   5.617   4.957   2.923
10318SOL    HW231854   5.732   5.032   3.012
10319SOL     OW31855   4.992   6.466   3.919
10319SOL    HW131856   5.070   6.522   3.946
10319SOL    HW231857   4.913   6.491   3.974
10320SOL     OW31858   4.358   6.425   2.077
10320SOL    HW131859   4.351   6.474   1.990
10320SOL    HW231860   4.390   6.332   2.061
10321SOL     OW31861   4.487   6.138   4.653
10321SOL    HW131862   4.461   6.044   4.629
10321SOL    HW231863   4.513   6.142   4.749
10322SOL     OW31864   0.138   1.823   0.061
10322SOL    HW131865   0.147   1.878   7.000
10322SOL    HW231866   0.080   1.744   0.043
10323SOL     OW31867   0.993   2.258   5.369
10323SOL    HW131868   1.020   2.202   5.290
10323SOL    HW231869   0.894   2.257   5.379
10324SOL     OW31870   3.560   2.931   4.148
10324SOL    HW131871   3.469   2.971   4.161
10324SOL    HW231872   3.569   2.901   4.053
10325SOL     OW31873   0.498   3.563   3.856
10325SOL    HW131874   0.532   3.535   3.946
10325SOL    HW231875   0.507   3.662   3.846
10326SOL     OW31876   6.070   1.985   1.401
10326SOL    HW131877   6.048   1.909   1.340
10326SOL    HW231878   6.170   1.995   1.406
10327SOL     OW31879   6.238   1.714   3.362
10327SOL    HW131880   6.139   1.721   3.363
10327SOL    HW231881   6.268   1.674   3.276
10328SOL     OW31882   6.467   3.854   2.707
10328SOL    HW131883   6.557   3.827   2.673
10328SOL    HW231884   6.448   3.948   2.681
10329SOL     OW31885   3.397   5.579   3.326
10329SOL    HW131886   3.489   5.554   3.295
10329SOL    HW231887   3.331   5.555   3.255
10330SOL     OW31888   3.166   3.918   0.913
10330SOL    HW131889   3.197   3.844   0.854
10330SOL    HW231890   3.158   3.885   1.007
10331SOL     OW31891   5.570   1.339   4.397
10331SOL    HW131892   5.559   1.409   4.326
10331SOL    HW231893   5.494   1.274   4.391
10332SOL     OW31894   1.352   2.067   6.137
10332SOL    HW131895   1.338   2.021   6.225
10332SOL    HW231896   1.431   2.127   6.143
10333SOL     OW31897   6.741   4.482   5.332
10333SOL    HW131898   6.830   4.508   5.370
10333SOL    HW231899   6.669   4.537   5.375
10334SOL     OW31900   0.553   5.411   5.187
10334SOL    HW131901   0.620   5.367   5.128
10334SOL    HW231902   0.461   5.385   5.158
10335SOL     OW31903   3.498   5.177   3.166
10335SOL    HW131904   3.451   5.243   3.107
10335SOL    HW231905   3.595   5.201   3.173
10336SOL     OW31906   4.914   6.739   2.903
10336SOL    HW131907   4.827   6.778   2.931
10336SOL    HW231908   4.967   6.712   2.983
10337SOL     OW31909   1.255   4.163   6.254
10337SOL    HW131910   1.251   4.142   6.352
10337SOL    HW231911   1.312   4.244   6.240
10338SOL     OW31912   2.759   4.682   2.401
10338SOL    HW131913   2.834   4.689   2.335
10338SOL    HW231914   2.797   4.671   2.493
10339SOL     OW31915   2.936   5.826   0.264
10339SOL    HW131916   2.928   5.749   0.201
10339SOL    HW231917   3.028   5.828   0.302
10340SOL     OW31918   1.771   6.592   0.657
10340SOL    HW131919   1.688   6.599   0.712
10340SOL    HW231920   1.768   6.660   0.583
10341SOL     OW31921   0.945   2.470   1.722
10341SOL    HW131922   0.993   2.547   1.764
10341SOL    HW231923   1.011   2.408   1.682
10342SOL     OW31924   3.180   5.800   4.498
10342SOL    HW131925   3.235   5.719   4.477
10342SOL    HW231926   3.088   5.772   4.526
10343SOL     OW31927   2.239   2.717   4.869
10343SOL    HW131928   2.208   2.789   4.806
10343SOL    HW231929   2.317   2.669   4.829
10344SOL     OW31930   4.531   3.510   1.710
10344SOL    HW131931   4.490   3.601   1.706
10344SOL    HW231932   4.629   3.519   1.727
10345SOL     OW31933   3.246   1.613   6.431
10345SOL    HW131934   3.212   1.531   6.384
10345SOL    HW231935   3.309   1.585   6.504
10346SOL     OW31936   6.269   5.217   0.544
10346SOL    HW131937   6.362   5.189   0.566
10346SOL    HW231938   6.269   5.311   0.510
10347SOL     OW31939   4.481   0.033   1.621
10347SOL    HW131940   4.442   0.083   1.699
10347SOL    HW231941   4.556   6.997   1.654
10348SOL     OW31942   6.809   4.486   5.719
10348SOL    HW131943   6.787   4.583   5.726
10348SOL    HW231944   6.882   4.474   5.652
10349SOL     OW31945   6.230   1.889   0.081
10349SOL    HW131946   6.299   1.820   0.058
10349SOL    HW231947   6.164   1.896   0.006
10350SOL     OW31948   1.786   4.880   4.192
10350SOL    HW131949   1.864   4.925   4.233
10350SOL    HW231950   1.771   4.916   4.100
10351SOL     OW31951   3.937   5.104   5.041
10351SOL    HW131952   3.932   5.064   5.132
10351SOL    HW231953   3.874   5.056   4.980
10352SOL     OW31954   0.361   1.021   1.018
10352SOL    HW131955   0.448   1.018   1.067
10352SOL    HW231956   0.288   0.985   1.077
10353SOL     OW31957   5.846   2.785   3.576
10353SOL    HW131958   5.878   2.691   3.580
10353SOL    HW231959   5.750   2.789   3.603
10354SOL     OW31960   6.707   3.206   1.194
10354SOL    HW131961   6.774   3.157   1.250
10354SOL    HW231962   6.635   3.242   1.253
10355SOL     OW31963   0.610   1.857   0.851
10355SOL    HW131964   0.628   1.940   0.904
10355SOL    HW231965   0.677   1.851   0.777
10356SOL     OW31966   5.525   2.562   0.153
10356SOL    HW131967   5.576   2.493   0.102
10356SOL    HW231968   5.587   2.610   0.215
10357SOL     OW31969   0.822   0.564   6.374
10357SOL    HW131970   0.912   0.520   6.377
10357SOL    HW231971   0.772   0.532   6.293
10358SOL     OW31972   0.769   2.617   3.856
10358SOL    HW131973   0.863   2.585   3.848
10358SOL    HW231974   0.769   2.716   3.870
10359SOL     OW31975   0.760   2.684   2.214
10359SOL    HW131976   0.765   2.585   2.200
10359SOL    HW231977   0.842   2.727   2.175
10360SOL     OW31978   6.012   4.170   1.065
10360SOL    HW131979   5.982   4.163   1.160
10360SOL    HW231980   5.986   4.087   1.016
10361SOL     OW31981   6.135   1.536   2.265
10361SOL    HW131982   6.122   1.617   2.323
10361SOL    HW231983   6.180   1.563   2.180
10362SOL     OW31984   0.703   6.076   1.426
10362SOL    HW131985   0.756   6.040   1.503
10362SOL    HW231986   0.629   6.013   1.403
10363SOL     OW31987   5.243   4.891   6.480
10363SOL    HW131988   5.179   4.826   6.522
10363SOL    HW231989   5.304   4.842   6.419
10364SOL     OW31990   5.595   5.273   1.755
10364SOL    HW131991   5.656   5.340   1.712
10364SOL    HW231992   5.500   5.293   1.731
10365SOL     OW31993   6.080   5.836   6.893
10365SOL    HW131994   6.030   5.788   6.965
10365SOL    HW231995   6.016   5.874   6.827
10366SOL     OW31996   3.011   0.051   3.528
10366SOL    HW131997   2.938   0.118   3.540
10366SOL    HW231998   3.033   0.010   3.617
10367SOL     OW31999   5.699   6.377   1.853
10367SOL    HW132000   5.673   6.333   1.767
10367SOL    HW232001   5.742   6.310   1.913
10368SOL     OW32002   0.989   6.499   1.726
10368SOL    HW132003   1.071   6.460   1.685
10368SOL    HW232004   0.947   6.431   1.787
10369SOL     OW32005   2.286   0.546   5.721
10369SOL    HW132006   2.278   0.536   5.820
10369SOL    HW232007   2.383   0.547   5.695
10370SOL     OW32008   1.940   2.211   6.049
10370SOL    HW132009   1.953   2.308   6.067
10370SOL    HW232010   2.012   2.179   5.987
10371SOL     OW32011   4.178   5.304   3.468
10371SOL    HW132012   4.247   5.255   3.415
10371SOL    HW232013   4.206   5.400   3.478
10372SOL     OW32014   1.930   6.512   0.374
10372SOL    HW132015   1.946   6.490   0.470
10372SOL    HW232016   1.843   6.560   0.365
10373SOL     OW32017   6.645   0.509   6.765
10373SOL    HW132018   6.560   0.559   6.750
10373SOL    HW232019   6.723   0.569   6.746
10374SOL     OW32020   2.686   4.628   3.348
10374SOL    HW132021   2.604   4.577   3.374
10374SOL    HW232022   2.725   4.673   3.429
10375SOL     OW32023   2.448   5.568   6.866
10375SOL    HW132024   2.469   5.471   6.882
10375SOL    HW232025   2.351   5.578   6.846
10376SOL     OW32026   2.409   4.826   3.719
10376SOL    HW132027   2.377   4.771   3.797
10376SOL    HW232028   2.484   4.885   3.749
10377SOL     OW32029   2.537   0.725   3.525
10377SOL    HW132030   2.545   0.626   3.532
10377SOL    HW232031   2.622   0.763   3.490
10378SOL     OW32032   0.512   6.519   5.422
10378SOL    HW132033   0.599   6.542   5.465
10378SOL    HW232034   0.448   6.594   5.434
10379SOL     OW32035   1.478   6.684   3.568
10379SOL    HW132036   1.425   6.667   3.485
10379SOL    HW232037   1.444   6.626   3.642
10380SOL     OW32038   3.150   1.274   3.872
10380SOL    HW132039   3.248   1.297   3.869
10380SOL    HW232040   3.137   1.183   3.833
10381SOL     OW32041   4.009   0.140   2.730
10381SOL    HW132042   4.030   0.196   2.649
10381SOL    HW232043   3.925   0.174   2.773
10382SOL     OW32044   4.140   5.776   1.776
10382SOL    HW132045   4.055   5.734   1.742
10382SOL    HW232046   4.209   5.704   1.788
10383SOL     OW32047   0.166   6.625   0.022
10383SOL    HW132048   0.070   6.602   0.006
10383SOL    HW232049   0.193   6.699   6.981
10384SOL     OW32050   4.981   5.227   1.274
10384SOL    HW132051   5.064   5.198   1.226
10384SOL    HW232052   4.912   5.154   1.269
10385SOL     OW32053   4.215   4.384   6.987
10385SOL    HW132054   4.278   4.459   7.008
10385SOL    HW232055   4.127   4.422   6.958
10386SOL     OW32056   0.105   0.521   2.163
10386SOL    HW132057   0.061   0.511   2.252
10386SOL    HW232058   0.084   0.441   2.106
10387SOL     OW32059   5.312   2.716   2.115
10387SOL    HW132060   5.288   2.620   2.129
10387SOL    HW232061   5.352   2.728   2.024
10388SOL     OW32062   1.571   0.552   4.516
10388SOL    HW132063   1.598   0.509   4.602
10388SOL    HW232064   1.507   0.492   4.468
10389SOL     OW32065   0.525   3.572   0.132
10389SOL    HW132066   0.429   3.570   0.160
10389SOL    HW232067   0.581   3.522   0.199
10390SOL     OW32068   2.342   1.902   1.951
10390SOL    HW132069   2.376   1.826   1.896
10390SOL    HW232070   2.419   1.944   2.000
10391SOL     OW32071   6.259   6.866   3.154
10391SOL    HW132072   6.296   6.863   3.247
10391SOL    HW232073   6.282   6.781   3.107
10392SOL     OW32074   6.667   3.871   3.947
10392SOL    HW132075   6.651   3.773   3.957
10392SOL    HW232076   6.764   3.891   3.960
10393SOL     OW32077   2.051   2.543   2.408
10393SOL    HW132078   2.018   2.515   2.318
10393SOL    HW232079   2.149   2.565   2.402
10394SOL     OW32080   3.312   6.208   3.982
10394SOL    HW132081   3.272   6.194   4.073
10394SOL    HW232082   3.273   6.142   3.918
10395SOL     OW32083   1.025   0.759   1.299
10395SOL    HW132084   1.024   0.855   1.270
10395SOL    HW232085   1.043   0.701   1.220
10396SOL     OW32086   3.091   2.081   5.216
10396SOL    HW132087   3.100   2.145   5.139
10396SOL    HW232088   3.154   2.108   5.289
10397SOL     OW32089   5.048   1.364   3.774
10397SOL    HW132090   5.101   1.392   3.854
10397SOL    HW232091   4.998   1.443   3.738
10398SOL     OW32092   5.687   2.020   2.274
10398SOL    HW132093   5.611   1.955   2.265
10398SOL    HW232094   5.661   2.107   2.232
10399SOL     OW32095   0.556   4.016   2.310
10399SOL    HW132096   0.641   4.067   2.317
10399SOL    HW232097   0.495   4.042   2.385
10400SOL     OW32098   1.933   6.432   1.031
10400SOL    HW132099   1.913   6.422   0.934
10400SOL    HW232100   1.847   6.429   1.083
10401SOL     OW32101   0.202   0.455   5.953
10401SOL    HW132102   0.231   0.362   5.978
10401SOL    HW232103   0.274   0.520   5.978
10402SOL     OW32104   6.672   4.239   4.738
10402SOL    HW132105   6.680   4.164   4.672
10402SOL    HW232106   6.702   4.324   4.695
10403SOL     OW32107   3.109   0.310   0.966
10403SOL    HW132108   3.044   0.236   0.987
10403SOL    HW232109   3.060   0.386   0.923
10404SOL     OW32110   6.970   6.358   5.981
10404SOL    HW132111   6.889   6.300   5.991
10404SOL    HW232112   0.028   6.311   6.019
10405SOL     OW32113   0.347   2.549   6.644
10405SOL    HW132114   0.261   2.554   6.695
10405SOL    HW232115   0.362   2.456   6.612
10406SOL     OW32116   1.552   5.804   1.205
10406SOL    HW132117   1.496   5.772   1.129
10406SOL    HW232118   1.626   5.861   1.169
10407SOL     OW32119   2.084   6.204   5.843
10407SOL    HW132120   2.002   6.149   5.856
10407SOL    HW232121   2.061   6.301   5.851
10408SOL     OW32122   4.769   0.791   0.364
10408SOL    HW132123   4.722   0.728   0.425
10408SOL    HW232124   4.769   0.754   0.271
10409SOL     OW32125   5.947   3.962   0.924
10409SOL    HW132126   5.982   3.870   0.906
10409SOL    HW232127   5.942   4.013   0.838
10410SOL     OW32128   4.241   0.312   0.092
10410SOL    HW132129   4.337   0.335   0.080
10410SOL    HW232130   4.187   0.396   0.101
10411SOL     OW32131   1.915   4.996   4.580
10411SOL    HW132132   1.970   4.972   4.660
10411SOL    HW232133   1.819   5.001   4.605
10412SOL     OW32134   4.972   6.677   1.065
10412SOL    HW132135   4.949   6.671   1.162
10412SOL    HW232136   4.892   6.710   1.013
10413SOL     OW32137   6.078   3.261   2.513
10413SOL    HW132138   5.986   3.284   2.480
10413SOL    HW232139   6.091   3.299   2.604
10414SOL     OW32140   4.894   2.897   4.579
10414SOL    HW132141   4.944   2.983   4.584
10414SOL    HW232142   4.908   2.846   4.664
10415SOL     OW32143   0.613   0.758   5.997
10415SOL    HW132144   0.558   0.823   5.945
10415SOL    HW232145   0.710   0.770   5.973
10416SOL     OW32146   5.352   2.881   3.773
10416SOL    HW132147   5.315   2.965   3.813
10416SOL    HW232148   5.278   2.817   3.755
10417SOL     OW32149   1.886   4.046   2.917
10417SOL    HW132150   1.848   3.995   2.995
10417SOL    HW232151   1.985   4.049   2.925
10418SOL     OW32152   1.533   5.727   5.730
10418SOL    HW132153   1.449   5.673   5.719
10418SOL    HW232154   1.590   5.686   5.801
10419SOL     OW32155   0.908   1.209   0.298
10419SOL    HW132156   0.935   1.296   0.341
10419SOL    HW232157   0.905   1.221   0.199
10420SOL     OW32158   0.291   2.674   2.922
10420SOL    HW132159   0.199   2.712   2.920
10420SOL    HW232160   0.293   2.589   2.870
10421SOL     OW32161   0.302   1.711   2.933
10421SOL    HW132162   0.329   1.627   2.981
10421SOL    HW232163   0.335   1.706   2.839
10422SOL     OW32164   5.174   3.998   6.145
10422SOL    HW132165   5.228   3.975   6.226
10422SOL    HW232166   5.209   4.082   6.105
10423SOL     OW32167   4.912   4.268   2.833
10423SOL    HW132168   4.903   4.199   2.760
10423SOL    HW232169   4.830   4.267   2.890
10424SOL     OW32170   5.014   1.263   6.439
10424SOL    HW132171   5.094   1.204   6.432
10424SOL    HW232172   5.041   1.358   6.421
10425SOL     OW32173   1.768   6.901   1.472
10425SOL    HW132174   1.692   6.924   1.532
10425SOL    HW232175   1.852   6.942   1.508
10426SOL     OW32176   6.326   4.365   0.400
10426SOL    HW132177   6.339   4.383   0.498
10426SOL    HW232178   6.326   4.266   0.385
10427SOL     OW32179   4.928   0.929   1.033
10427SOL    HW132180   4.840   0.892   1.063
10427SOL    HW232181   5.001   0.865   1.055
10428SOL     OW32182   4.491   0.865   3.672
10428SOL    HW132183   4.408   0.858   3.616
10428SOL    HW232184   4.566   0.901   3.616
10429SOL     OW32185   5.856   5.851   1.674
10429SOL    HW132186   5.856   5.845   1.574
10429SOL    HW232187   5.836   5.761   1.713
10430SOL     OW32188   4.127   6.285   3.318
10430SOL    HW132189   4.173   6.374   3.319
10430SOL    HW232190   4.115   6.255   3.224
10431SOL     OW32191   2.243   1.274   4.858
10431SOL    HW132192   2.214   1.307   4.768
10431SOL    HW232193   2.203   1.331   4.930
10432SOL     OW32194   4.946   1.287   5.090
10432SOL    HW132195   4.909   1.200   5.060
10432SOL    HW232196   5.044   1.292   5.067
10433SOL     OW32197   3.028   6.857   1.229
10433SOL    HW132198   3.111   6.893   1.187
10433SOL    HW232199   3.053   6.798   1.306
10434SOL     OW32200   2.681   2.061   4.607
10434SOL    HW132201   2.760   2.042   4.666
10434SOL    HW232202   2.698   2.145   4.556
10435SOL     OW32203   5.585   5.517   6.611
10435SOL    HW132204   5.486   5.522   6.624
10435SOL    HW232205   5.624   5.453   6.677
10436SOL     OW32206   1.079   0.195   2.393
10436SOL    HW132207   1.177   0.179   2.393
10436SOL    HW232208   1.057   0.274   2.335
10437SOL     OW32209   0.135   4.577   5.832
10437SOL    HW132210   0.108   4.560   5.737
10437SOL    HW232211   0.132   4.491   5.883
10438SOL     OW32212   3.505   0.207   5.882
10438SOL    HW132213   3.449   0.189   5.962
10438SOL    HW232214   3.573   0.277   5.903
10439SOL     OW32215   3.812   1.093   5.324
10439SOL    HW132216   3.802   1.175   5.380
10439SOL    HW232217   3.907   1.061   5.327
10440SOL     OW32218   1.712   5.970   1.079
10440SOL    HW132219   1.695   6.058   1.035
10440SOL    HW232220   1.736   5.902   1.009
10441SOL     OW32221   4.007   0.234   0.548
10441SOL    HW132222   3.920   0.283   0.547
10441SOL    HW232223   4.082   0.300   0.554
10442SOL     OW32224   4.654   6.130   5.492
10442SOL    HW132225   4.713   6.154   5.414
10442SOL    HW232226   4.619   6.037   5.479
10443SOL     OW32227   6.207   2.944   4.808
10443SOL    HW132228   6.124   2.990   4.840
10443SOL    HW232229   6.268   3.012   4.766
10444SOL     OW32230   3.559   4.946   4.698
10444SOL    HW132231   3.644   4.914   4.739
10444SOL    HW232232   3.498   4.980   4.770
10445SOL     OW32233   6.163   6.211   2.658
10445SOL    HW132234   6.224   6.251   2.726
10445SOL    HW232235   6.205   6.128   2.620
10446SOL     OW32236   0.725   6.233   6.697
10446SOL    HW132237   0.694   6.269   6.609
10446SOL    HW232238   0.647   6.195   6.747
10447SOL     OW32239   5.837   2.036   0.803
10447SOL    HW132240   5.739   2.027   0.821
10447SOL    HW232241   5.884   1.952   0.830
10448SOL     OW32242   3.507   3.790   2.141
10448SOL    HW132243   3.600   3.825   2.131
10448SOL    HW232244   3.446   3.864   2.167
10449SOL     OW32245   1.537   5.501   4.593
10449SOL    HW132246   1.547   5.558   4.674
10449SOL    HW232247   1.532   5.405   4.619
10450SOL     OW32248   6.991   3.272   0.803
10450SOL    HW132249   0.054   3.295   0.851
10450SOL    HW232250   6.974   3.174   0.812
10451SOL     OW32251   2.254   4.404   2.586
10451SOL    HW132252   2.344   4.366   2.568
10451SOL    HW232253   2.215   4.361   2.667
10452SOL     OW32254   1.354   3.386   5.081
10452SOL    HW132255   1.449   3.367   5.105
10452SOL    HW232256   1.302   3.301   5.079
10453SOL     OW32257   4.917   0.847   1.346
10453SOL    HW132258   4.858   0.772   1.318
10453SOL    HW232259   4.872   0.934   1.326
10454SOL     OW32260   4.885   3.723   2.212
10454SOL    HW132261   4.879   3.789   2.136
10454SOL    HW232262   4.862   3.632   2.178
10455SOL     OW32263   0.476   4.730   2.649
10455SOL    HW132264   0.419   4.649   2.665
10455SOL    HW232265   0.517   4.759   2.735
10456SOL     OW32266   3.788   5.976   1.599
10456SOL    HW132267   3.816   6.035   1.523
10456SOL    HW232268   3.710   5.920   1.571
10457SOL     OW32269   3.574   3.255   3.700
10457SOL    HW132270   3.563   3.166   3.745
10457SOL    HW232271   3.528   3.254   3.612
10458SOL     OW32272   6.962   6.356   2.045
10458SOL    HW132273   6.871   6.358   2.002
10458SOL    HW232274   6.972   6.272   2.098
10459SOL     OW32275   6.993   5.190   1.959
10459SOL    HW132276   6.928   5.119   1.932
10459SOL    HW232277   6.943   5.270   1.993
10460SOL     OW32278   1.700   4.408   1.940
10460SOL    HW132279   1.748   4.490   1.971
10460SOL    HW232280   1.710   4.399   1.841
10461SOL     OW32281   2.980   1.111   6.280
10461SOL    HW132282   2.930   1.050   6.218
10461SOL    HW232283   2.988   1.201   6.239
10462SOL     OW32284   5.159   6.581   0.901
10462SOL    HW132285   5.088   6.620   0.960
10462SOL    HW232286   5.116   6.520   0.833
10463SOL     OW32287   3.310   3.336   1.472
10463SOL    HW132288   3.389   3.392   1.447
10463SOL    HW232289   3.312   3.251   1.420
10464SOL     OW32290   5.456   6.445   1.399
10464SOL    HW132291   5.448   6.539   1.432
10464SOL    HW232292   5.531   6.440   1.332
10465SOL     OW32293   0.001   5.115   4.814
10465SOL    HW132294   0.043   5.037   4.768
10465SOL    HW232295   6.990   5.085   4.904
10466SOL     OW32296   4.976   6.014   6.013
10466SOL    HW132297   5.011   5.993   5.921
10466SOL    HW232298   4.919   6.097   6.009
10467SOL     OW32299   4.526   1.582   3.785
10467SOL    HW132300   4.497   1.491   3.754
10467SOL    HW232301   4.458   1.650   3.756
10468SOL     OW32302   3.225   5.241   3.734
10468SOL    HW132303   3.213   5.170   3.664
10468SOL    HW232304   3.258   5.325   3.692
10469SOL     OW32305   1.116   5.170   6.873
10469SOL    HW132306   1.200   5.184   6.927
10469SOL    HW232307   1.061   5.098   6.916
10470SOL     OW32308   2.665   1.858   4.388
10470SOL    HW132309   2.674   1.945   4.340
10470SOL    HW232310   2.727   1.856   4.466
10471SOL     OW32311   4.122   3.907   0.358
10471SOL    HW132312   4.201   3.857   0.394
10471SOL    HW232313   4.076   3.851   0.289
10472SOL     OW32314   4.173   1.435   3.577
10472SOL    HW132315   4.154   1.496   3.654
10472SOL    HW232316   4.200   1.345   3.611
10473SOL     OW32317   4.542   5.379   6.834
10473SOL    HW132318   4.562   5.281   6.835
10473SOL    HW232319   4.591   5.422   6.759
10474SOL     OW32320   5.163   1.366   3.152
10474SOL    HW132321   5.195   1.272   3.138
10474SOL    HW232322   5.079   1.365   3.206
10475SOL     OW32323   4.860   6.295   1.739
10475SOL    HW132324   4.768   6.254   1.740
10475SOL    HW232325   4.852   6.395   1.742
10476SOL     OW32326   0.368   4.938   6.754
10476SOL    HW132327   0.435   5.005   6.786
10476SOL    HW232328   0.345   4.877   6.829
10477SOL     OW32329   4.637   4.360   5.087
10477SOL    HW132330   4.695   4.390   5.011
10477SOL    HW232331   4.652   4.263   5.104
10478SOL     OW32332   0.328   6.485   2.937
10478SOL    HW132333   0.390   6.529   2.872
10478SOL    HW232334   0.322   6.387   2.917
10479SOL     OW32335   0.938   4.676   1.845
10479SOL    HW132336   0.885   4.700   1.764
10479SOL    HW232337   0.876   4.659   1.922
10480SOL     OW32338   5.664   0.900   1.417
10480SOL    HW132339   5.697   0.811   1.384
10480SOL    HW232340   5.573   0.890   1.456
10481SOL     OW32341   2.376   1.072   4.285
10481SOL    HW132342   2.349   1.027   4.371
10481SOL    HW232343   2.338   1.164   4.282
10482SOL     OW32344   0.644   5.717   6.457
10482SOL    HW132345   0.723   5.689   6.401
10482SOL    HW232346   0.585   5.637   6.472
10483SOL     OW32347   6.572   5.717   0.894
10483SOL    HW132348   6.489   5.725   0.840
10483SOL    HW232349   6.588   5.621   0.917
10484SOL     OW32350   6.554   2.021   1.630
10484SOL    HW132351   6.505   2.030   1.717
10484SOL    HW232352   6.630   1.957   1.641
10485SOL     OW32353   3.201   4.109   4.140
10485SOL    HW132354   3.123   4.096   4.201
10485SOL    HW232355   3.250   4.192   4.165
10486SOL     OW32356   6.252   5.572   5.738
10486SOL    HW132357   6.256   5.474   5.757
10486SOL    HW232358   6.257   5.588   5.640
10487SOL     OW32359   5.284   3.124   2.879
10487SOL    HW132360   5.287   3.088   2.972
10487SOL    HW232361   5.377   3.129   2.842
10488SOL     OW32362   0.216   2.566   4.848
10488SOL    HW132363   0.151   2.508   4.898
10488SOL    HW232364   0.185   2.578   4.754
10489SOL     OW32365   5.835   4.444   3.512
10489SOL    HW132366   5.920   4.391   3.519
10489SOL    HW232367   5.770   4.412   3.581
10490SOL     OW32368   5.447   6.258   6.612
10490SOL    HW132369   5.484   6.166   6.625
10490SOL    HW232370   5.501   6.323   6.665
10491SOL     OW32371   2.011   3.351   5.855
10491SOL    HW132372   2.097   3.322   5.896
10491SOL    HW232373   2.016   3.342   5.756
10492SOL     OW32374   2.713   6.215   0.445
10492SOL    HW132375   2.782   6.143   0.440
10492SOL    HW232376   2.642   6.189   0.510
10493SOL     OW32377   4.002   5.389   0.533
10493SOL    HW132378   4.044   5.470   0.574
10493SOL    HW232379   4.056   5.308   0.558
10494SOL     OW32380   0.298   4.728   4.076
10494SOL    HW132381   0.233   4.732   4.152
10494SOL    HW232382   0.305   4.633   4.044
10495SOL     OW32383   6.967   0.223   0.608
10495SOL    HW132384   0.004   0.292   0.649
10495SOL    HW232385   6.877   0.224   0.653
10496SOL     OW32386   0.494   4.588   6.443
10496SOL    HW132387   0.437   4.639   6.379
10496SOL    HW232388   0.578   4.558   6.397
10497SOL     OW32389   3.233   6.757   1.609
10497SOL    HW132390   3.268   6.693   1.677
10497SOL    HW232391   3.310   6.803   1.564
10498SOL     OW32392   3.873   3.373   6.732
10498SOL    HW132393   3.819   3.456   6.747
10498SOL    HW232394   3.965   3.386   6.768
10499SOL     OW32395   4.478   4.515   2.573
10499SOL    HW132396   4.420   4.511   2.492
10499SOL    HW232397   4.543   4.439   2.572
10500SOL     OW32398   1.768   3.392   4.892
10500SOL    HW132399   1.822   3.345   4.822
10500SOL    HW232400   1.671   3.388   4.868
10501SOL     OW32401   3.789   4.873   3.382
10501SOL    HW132402   3.758   4.931   3.457
10501SOL    HW232403   3.710   4.835   3.334
10502SOL     OW32404   2.873   3.550   2.580
10502SOL    HW132405   2.942   3.480   2.564
10502SOL    HW232406   2.833   3.578   2.492
10503SOL     OW32407   6.630   1.258   0.084
10503SOL    HW132408   6.707   1.240   0.024
10503SOL    HW232409   6.589   1.171   0.113
10504SOL     OW32410   1.524   3.822   5.716
10504SOL    HW132411   1.529   3.911   5.761
10504SOL    HW232412   1.428   3.795   5.707
10505SOL     OW32413   6.210   6.601   0.842
10505SOL    HW132414   6.111   6.601   0.852
10505SOL    HW232415   6.234   6.608   0.745
10506SOL     OW32416   1.526   4.484   5.883
10506SOL    HW132417   1.473   4.508   5.802
10506SOL    HW232418   1.477   4.513   5.965
10507SOL     OW32419   1.196   6.262   5.822
10507SOL    HW132420   1.154   6.171   5.829
10507SOL    HW232421   1.177   6.313   5.906
10508SOL     OW32422   1.835   6.370   0.757
10508SOL    HW132423   1.801   6.459   0.725
10508SOL    HW232424   1.775   6.298   0.723
10509SOL     OW32425   4.794   2.877   2.705
10509SOL    HW132426   4.865   2.926   2.755
10509SOL    HW232427   4.719   2.854   2.767
10510SOL     OW32428   5.380   5.863   3.039
10510SOL    HW132429   5.439   5.872   2.959
10510SOL    HW232430   5.357   5.954   3.074
10511SOL     OW32431   4.163   1.422   1.045
10511SOL    HW132432   4.196   1.457   0.957
10511SOL    HW232433   4.065   1.441   1.054
10512SOL     OW32434   4.200   1.378   5.789
10512SOL    HW132435   4.268   1.413   5.853
10512SOL    HW232436   4.242   1.359   5.701
10513SOL     OW32437   3.186   3.656   0.849
10513SOL    HW132438   3.264   3.620   0.900
10513SOL    HW232439   3.102   3.610   0.879
10514SOL     OW32440   1.409   5.511   1.417
10514SOL    HW132441   1.361   5.588   1.375
10514SOL    HW232442   1.348   5.466   1.482
10515SOL     OW32443   2.041   3.713   4.975
10515SOL    HW132444   2.056   3.625   5.019
10515SOL    HW232445   2.067   3.707   4.878
10516SOL     OW32446   5.564   1.650   1.993
10516SOL    HW132447   5.535   1.554   1.997
10516SOL    HW232448   5.598   1.671   1.901
10517SOL     OW32449   0.705   1.979   2.185
10517SOL    HW132450   0.626   1.936   2.230
10517SOL    HW232451   0.706   1.953   2.089
10518SOL     OW32452   0.577   6.366   2.056
10518SOL    HW132453   0.571   6.269   2.034
10518SOL    HW232454   0.505   6.390   2.122
10519SOL     OW32455   3.157   6.631   1.358
10519SOL    HW132456   3.212   6.552   1.332
10519SOL    HW232457   3.201   6.678   1.435
10520SOL     OW32458   1.694   2.527   6.376
10520SOL    HW132459   1.738   2.591   6.313
10520SOL    HW232460   1.733   2.436   6.365
10521SOL     OW32461   6.296   2.345   3.109
10521SOL    HW132462   6.237   2.332   3.029
10521SOL    HW232463   6.244   2.327   3.193
10522SOL     OW32464   5.419   1.387   3.825
10522SOL    HW132465   5.357   1.454   3.867
10522SOL    HW232466   5.420   1.400   3.726
10523SOL     OW32467   0.525   4.050   1.677
10523SOL    HW132468   0.605   4.107   1.659
10523SOL    HW232469   0.444   4.108   1.687
10524SOL     OW32470   6.600   5.945   4.968
10524SOL    HW132471   6.527   5.999   4.927
10524SOL    HW232472   6.610   5.969   5.064
10525SOL     OW32473   4.546   1.156   3.885
10525SOL    HW132474   4.560   1.151   3.786
10525SOL    HW232475   4.564   1.249   3.917
10526SOL     OW32476   0.964   5.821   6.009
10526SOL    HW132477   0.907   5.835   6.089
10526SOL    HW232478   1.061   5.818   6.036
10527SOL     OW32479   0.022   6.289   5.686
10527SOL    HW132480   0.011   6.315   5.781
10527SOL    HW232481   6.956   6.257   5.650
10528SOL     OW32482   1.604   5.085   5.183
10528SOL    HW132483   1.675   5.155   5.188
10528SOL    HW232484   1.551   5.084   5.267
10529SOL     OW32485   0.131   4.994   0.566
10529SOL    HW132486   0.085   4.934   0.632
10529SOL    HW232487   0.210   4.946   0.527
10530SOL     OW32488   6.838   0.306   1.054
10530SOL    HW132489   6.911   0.375   1.057
10530SOL    HW232490   6.838   0.263   0.964
10531SOL     OW32491   3.348   2.503   6.306
10531SOL    HW132492   3.337   2.505   6.207
10531SOL    HW232493   3.272   2.451   6.347
10532SOL     OW32494   4.778   6.113   5.735
10532SOL    HW132495   4.746   6.136   5.643
10532SOL    HW232496   4.766   6.014   5.750
10533SOL     OW32497   4.175   6.735   3.565
10533SOL    HW132498   4.205   6.728   3.470
10533SOL    HW232499   4.118   6.656   3.588
10534SOL     OW32500   1.406   6.816   3.984
10534SOL    HW132501   1.462   6.822   4.067
10534SOL    HW232502   1.411   6.723   3.947
10535SOL     OW32503   3.958   1.796   2.722
10535SOL    HW132504   3.904   1.838   2.648
10535SOL    HW232505   4.007   1.717   2.686
10536SOL     OW32506   5.901   3.913   4.768
10536SOL    HW132507   5.894   3.857   4.685
10536SOL    HW232508   5.820   3.897   4.825
10537SOL     OW32509   3.695   1.167   3.479
10537SOL    HW132510   3.618   1.221   3.444
10537SOL    HW232511   3.771   1.174   3.415
10538SOL     OW32512   6.490   2.491   3.449
10538SOL    HW132513   6.488   2.577   3.501
10538SOL    HW232514   6.550   2.500   3.370
10539SOL     OW32515   6.614   6.652   3.299
10539SOL    HW132516   6.532   6.602   3.269
10539SOL    HW232517   6.642   6.619   3.389
10540SOL     OW32518   1.947   4.113   6.847
10540SOL    HW132519   2.036   4.129   6.891
10540SOL    HW232520   1.894   4.049   6.903
10541SOL     OW32521   3.372   2.517   5.672
10541SOL    HW132522   3.426   2.434   5.685
10541SOL    HW232523   3.326   2.542   5.757
10542SOL     OW32524   4.052   6.478   2.476
10542SOL    HW132525   3.976   6.413   2.470
10542SOL    HW232526   4.072   6.498   2.572
10543SOL     OW32527   2.352   2.618   4.270
10543SOL    HW132528   2.322   2.710   4.293
10543SOL    HW232529   2.333   2.557   4.348
10544SOL     OW32530   3.016   1.752   2.535
10544SOL    HW132531   2.921   1.727   2.557
10544SOL    HW232532   3.066   1.671   2.505
10545SOL     OW32533   1.875   3.275   1.830
10545SOL    HW132534   1.909   3.189   1.869
10545SOL    HW232535   1.777   3.282   1.845
10546SOL     OW32536   2.587   0.071   5.385
10546SOL    HW132537   2.646   0.083   5.464
10546SOL    HW232538   2.537   7.006   5.394
10547SOL     OW32539   3.662   6.276   6.017
10547SOL    HW132540   3.733   6.240   6.077
10547SOL    HW232541   3.699   6.351   5.962
10548SOL     OW32542   0.642   6.084   3.054
10548SOL    HW132543   0.565   6.136   3.091
10548SOL    HW232544   0.724   6.101   3.109
10549SOL     OW32545   0.098   0.753   2.667
10549SOL    HW132546   0.022   0.689   2.657
10549SOL    HW232547   0.184   0.704   2.658
10550SOL     OW32548   5.548   6.071   3.249
10550SOL    HW132549   5.456   6.089   3.214
10550SOL    HW232550   5.554   6.104   3.343
10551SOL     OW32551   4.357   0.865   4.801
10551SOL    HW132552   4.304   0.814   4.734
10551SOL    HW232553   4.389   0.803   4.872
10552SOL     OW32554   2.616   6.471   3.384
10552SOL    HW132555   2.602   6.484   3.482
10552SOL    HW232556   2.662   6.551   3.346
10553SOL     OW32557   5.481   5.602   1.260
10553SOL    HW132558   5.408   5.649   1.309
10553SOL    HW232559   5.458   5.505   1.251
10554SOL     OW32560   5.909   6.041   1.852
10554SOL    HW132561   5.906   5.960   1.794
10554SOL    HW232562   5.970   6.109   1.811
10555SOL     OW32563   3.650   3.341   1.544
10555SOL    HW132564   3.620   3.404   1.473
10555SOL    HW232565   3.654   3.388   1.632
10556SOL     OW32566   2.693   1.812   2.003
10556SOL    HW132567   2.726   1.739   1.943
10556SOL    HW232568   2.594   1.804   2.014
10557SOL     OW32569   0.900   4.502   3.213
10557SOL    HW132570   0.934   4.414   3.180
10557SOL    HW232571   0.802   4.495   3.232
10558SOL     OW32572   4.180   4.802   4.417
10558SOL    HW132573   4.082   4.818   4.434
10558SOL    HW232574   4.225   4.776   4.503
10559SOL     OW32575   3.540   5.908   1.483
10559SOL    HW132576   3.470   5.901   1.553
10559SOL    HW232577   3.565   5.816   1.451
10560SOL     OW32578   5.892   6.970   3.636
10560SOL    HW132579   5.987   6.982   3.609
10560SOL    HW232580   5.847   0.038   3.640
10561SOL     OW32581   0.921   5.421   6.043
10561SOL    HW132582   0.902   5.324   6.056
10561SOL    HW232583   0.913   5.445   5.946
10562SOL     OW32584   3.903   6.066   2.292
10562SOL    HW132585   4.003   6.069   2.286
10562SOL    HW232586   3.864   6.074   2.200
10563SOL     OW32587   1.573   6.364   2.100
10563SOL    HW132588   1.601   6.351   2.195
10563SOL    HW232589   1.541   6.458   2.087
10564SOL     OW32590   5.516   4.578   3.259
10564SOL    HW132591   5.418   4.565   3.274
10564SOL    HW232592   5.548   4.655   3.314
10565SOL     OW32593   0.499   1.288   5.050
10565SOL    HW132594   0.401   1.307   5.056
10565SOL    HW232595   0.517   1.225   4.975
10566SOL     OW32596   3.751   2.015   1.221
10566SOL    HW132597   3.704   2.028   1.309
10566SOL    HW232598   3.702   1.947   1.167
10567SOL     OW32599   2.345   2.852   6.306
10567SOL    HW132600   2.411   2.911   6.353
10567SOL    HW232601   2.356   2.758   6.338
10568SOL     OW32602   5.262   2.195   5.971
10568SOL    HW132603   5.222   2.242   6.050
10568SOL    HW232604   5.356   2.224   5.958
10569SOL     OW32605   5.451   0.210   1.167
10569SOL    HW132606   5.355   0.190   1.149
10569SOL    HW232607   5.478   0.292   1.117
10570SOL     OW32608   1.476   3.711   3.306
10570SOL    HW132609   1.382   3.685   3.329
10570SOL    HW232610   1.523   3.633   3.265
10571SOL     OW32611   0.320   4.048   5.853
10571SOL    HW132612   0.333   4.137   5.807
10571SOL    HW232613   0.365   4.050   5.942
10572SOL     OW32614   6.303   4.330   0.712
10572SOL    HW132615   6.273   4.310   0.806
10572SOL    HW232616   6.317   4.244   0.663
10573SOL     OW32617   6.799   1.980   3.531
10573SOL    HW132618   6.823   1.972   3.434
10573SOL    HW232619   6.831   1.899   3.580
10574SOL     OW32620   5.610   2.272   2.549
10574SOL    HW132621   5.695   2.228   2.519
10574SOL    HW232622   5.631   2.350   2.607
10575SOL     OW32623   5.477   6.940   2.844
10575SOL    HW132624   5.479   6.856   2.790
10575SOL    HW232625   5.407   6.932   2.916
10576SOL     OW32626   1.023   3.313   4.826
10576SOL    HW132627   0.934   3.341   4.863
10576SOL    HW232628   1.017   3.308   4.726
10577SOL     OW32629   3.709   4.220   0.350
10577SOL    HW132630   3.673   4.234   0.442
10577SOL    HW232631   3.757   4.132   0.347
10578SOL     OW32632   0.957   3.474   2.792
10578SOL    HW132633   0.998   3.499   2.705
10578SOL    HW232634   0.863   3.507   2.796
10579SOL     OW32635   6.940   3.132   6.849
10579SOL    HW132636   6.951   3.116   6.751
10579SOL    HW232637   0.006   3.155   6.890
10580SOL     OW32638   5.394   6.343   6.909
10580SOL    HW132639   5.441   6.384   6.830
10580SOL    HW232640   5.460   6.295   6.966
10581SOL     OW32641   4.689   0.743   3.260
10581SOL    HW132642   4.743   0.689   3.323
10581SOL    HW232643   4.599   0.761   3.299
10582SOL     OW32644   6.503   3.380   0.032
10582SOL    HW132645   6.419   3.385   0.087
10582SOL    HW232646   6.497   3.447   6.979
10583SOL     OW32647   4.404   1.893   5.563
10583SOL    HW132648   4.381   1.907   5.466
10583SOL    HW232649   4.464   1.968   5.593
10584SOL     OW32650   0.279   0.772   3.478
10584SOL    HW132651   0.340   0.710   3.427
10584SOL    HW232652   0.317   0.788   3.568
10585SOL     OW32653   1.417   0.981   5.503
10585SOL    HW132654   1.348   0.997   5.432
10585SOL    HW232655   1.501   0.946   5.461
10586SOL     OW32656   4.319   4.022   5.839
10586SOL    HW132657   4.314   3.923   5.828
10586SOL    HW232658   4.400   4.045   5.893
10587SOL     OW32659   1.934   5.001   4.880
10587SOL    HW132660   1.891   5.089   4.861
10587SOL    HW232661   1.882   4.952   4.950
10588SOL     OW32662   1.630   4.149   3.839
10588SOL    HW132663   1.555   4.137   3.904
10588SOL    HW232664   1.717   4.151   3.889
10589SOL     OW32665   6.377   6.814   3.408
10589SOL    HW132666   6.387   6.719   3.379
10589SOL    HW232667   6.453   6.840   3.467
10590SOL     OW32668   0.960   5.741   2.260
10590SOL    HW132669   0.921   5.767   2.348
10590SOL    HW232670   0.938   5.812   2.192
10591SOL     OW32671   6.715   4.308   2.614
10591SOL    HW132672   6.762   4.316   2.702
10591SOL    HW232673   6.764   4.243   2.555
10592SOL     OW32674   0.012   2.572   4.646
10592SOL    HW132675   6.984   2.599   4.729
10592SOL    HW232676   6.969   2.564   4.570
10593SOL     OW32677   3.500   5.871   3.726
10593SOL    HW132678   3.535   5.832   3.811
10593SOL    HW232679   3.508   5.971   3.729
10594SOL     OW32680   3.552   5.834   4.232
10594SOL    HW132681   3.460   5.871   4.221
10594SOL    HW232682   3.617   5.909   4.243
10595SOL     OW32683   4.680   6.438   0.972
10595SOL    HW132684   4.615   6.371   0.937
10595SOL    HW232685   4.764   6.391   1.001
10596SOL     OW32686   5.196   4.002   0.548
10596SOL    HW132687   5.183   3.904   0.534
10596SOL    HW232688   5.161   4.027   0.639
10597SOL     OW32689   2.000   0.077   4.934
10597SOL    HW132690   2.009   0.061   5.032
10597SOL    HW232691   1.983   7.011   4.888
10598SOL     OW32692   3.391   0.846   0.517
10598SOL    HW132693   3.435   0.845   0.427
10598SOL    HW232694   3.393   0.755   0.557
10599SOL     OW32695   0.579   2.166   0.720
10599SOL    HW132696   0.613   2.168   0.814
10599SOL    HW232697   0.483   2.138   0.720
10600SOL     OW32698   4.350   1.093   1.884
10600SOL    HW132699   4.258   1.126   1.905
10600SOL    HW232700   4.359   0.998   1.914
10601SOL     OW32701   1.863   1.197   4.881
10601SOL    HW132702   1.957   1.161   4.884
10601SOL    HW232703   1.800   1.122   4.860
10602SOL     OW32704   6.451   6.517   1.458
10602SOL    HW132705   6.547   6.535   1.480
10602SOL    HW232706   6.400   6.502   1.542
10603SOL     OW32707   5.805   0.443   2.952
10603SOL    HW132708   5.786   0.541   2.950
10603SOL    HW232709   5.900   0.427   2.978
10604SOL     OW32710   5.203   2.181   5.367
10604SOL    HW132711   5.241   2.273   5.356
10604SOL    HW232712   5.276   2.114   5.354
10605SOL     OW32713   3.808   1.872   1.711
10605SOL    HW132714   3.709   1.862   1.708
10605SOL    HW232715   3.846   1.815   1.784
10606SOL     OW32716   6.450   1.758   6.998
10606SOL    HW132717   6.513   1.745   6.922
10606SOL    HW232718   6.431   1.670   0.019
10607SOL     OW32719   3.132   4.568   0.814
10607SOL    HW132720   3.066   4.556   0.888
10607SOL    HW232721   3.094   4.631   0.746
10608SOL     OW32722   5.688   3.809   2.976
10608SOL    HW132723   5.605   3.865   2.980
10608SOL    HW232724   5.700   3.761   3.063
10609SOL     OW32725   6.228   6.845   6.515
10609SOL    HW132726   6.138   6.815   6.548
10609SOL    HW232727   6.226   6.943   6.497
10610SOL     OW32728   0.653   1.459   2.838
10610SOL    HW132729   0.685   1.526   2.771
10610SOL    HW232730   0.619   1.506   2.919
10611SOL     OW32731   4.469   5.012   5.026
10611SOL    HW132732   4.400   4.945   5.000
10611SOL    HW232733   4.441   5.103   4.996
10612SOL     OW32734   6.420   2.756   3.511
10612SOL    HW132735   6.383   2.762   3.603
10612SOL    HW232736   6.369   2.817   3.450
10613SOL     OW32737   5.063   5.446   4.780
10613SOL    HW132738   5.109   5.531   4.806
10613SOL    HW232739   4.982   5.432   4.837
10614SOL     OW32740   3.900   2.240   6.930
10614SOL    HW132741   3.996   2.261   6.948
10614SOL    HW232742   3.870   2.167   6.990
10615SOL     OW32743   2.666   2.637   5.410
10615SOL    HW132744   2.625   2.729   5.415
10615SOL    HW232745   2.627   2.587   5.333
10616SOL     OW32746   1.539   5.721   0.314
10616SOL    HW132747   1.487   5.735   0.230
10616SOL    HW232748   1.636   5.738   0.297
10617SOL     OW32749   1.547   2.487   0.790
10617SOL    HW132750   1.470   2.446   0.741
10617SOL    HW232751   1.513   2.555   0.855
10618SOL     OW32752   0.484   5.041   4.367
10618SOL    HW132753   0.555   4.982   4.405
10618SOL    HW232754   0.514   5.078   4.280
10619SOL     OW32755   1.224   3.069   0.948
10619SOL    HW132756   1.196   2.991   1.004
10619SOL    HW232757   1.301   3.042   0.890
10620SOL     OW32758   3.353   0.777   5.698
10620SOL    HW132759   3.281   0.790   5.630
10620SOL    HW232760   3.381   0.866   5.735
10621SOL     OW32761   0.977   3.745   3.657
10621SOL    HW132762   1.069   3.706   3.660
10621SOL    HW232763   0.959   3.779   3.565
10622SOL     OW32764   4.044   2.128   6.174
10622SOL    HW132765   4.055   2.227   6.177
10622SOL    HW232766   4.121   2.088   6.124
10623SOL     OW32767   5.251   5.303   5.726
10623SOL    HW132768   5.213   5.337   5.812
10623SOL    HW232769   5.319   5.368   5.691
10624SOL     OW32770   0.404   1.975   6.388
10624SOL    HW132771   0.491   1.990   6.341
10624SOL    HW232772   0.333   2.031   6.346
10625SOL     OW32773   6.081   5.820   0.656
10625SOL    HW132774   5.981   5.826   0.648
10625SOL    HW232775   6.122   5.899   0.611
10626SOL     OW32776   5.927   2.971   2.035
10626SOL    HW132777   5.850   3.009   2.086
10626SOL    HW232778   5.954   2.884   2.075
10627SOL     OW32779   5.705   4.781   5.303
10627SOL    HW132780   5.709   4.765   5.204
10627SOL    HW232781   5.639   4.719   5.344
10628SOL     OW32782   2.682   6.091   0.778
10628SOL    HW132783   2.626   6.042   0.844
10628SOL    HW232784   2.655   6.188   0.777
10629SOL     OW32785   4.535   4.958   4.066
10629SOL    HW132786   4.486   4.996   4.144
10629SOL    HW232787   4.495   4.870   4.041
10630SOL     OW32788   4.086   0.731   1.416
10630SOL    HW132789   4.152   0.668   1.455
10630SOL    HW232790   4.134   0.808   1.373
10631SOL     OW32791   3.628   5.650   1.729
10631SOL    HW132792   3.625   5.725   1.795
10631SOL    HW232793   3.595   5.566   1.772
10632SOL     OW32794   5.815   6.923   4.124
10632SOL    HW132795   5.775   6.916   4.032
10632SOL    HW232796   5.803   7.015   4.159
10633SOL     OW32797   2.304   3.305   0.179
10633SOL    HW132798   2.216   3.322   0.135
10633SOL    HW232799   2.319   3.206   0.185
10634SOL     OW32800   1.110   4.602   6.884
10634SOL    HW132801   1.051   4.521   6.893
10634SOL    HW232802   1.181   4.599   6.954
10635SOL     OW32803   3.352   5.061   6.526
10635SOL    HW132804   3.436   5.114   6.530
10635SOL    HW232805   3.342   5.020   6.435
10636SOL     OW32806   6.066   3.113   0.499
10636SOL    HW132807   6.161   3.094   0.522
10636SOL    HW232808   6.019   3.027   0.478
10637SOL     OW32809   2.835   0.951   6.062
10637SOL    HW132810   2.869   1.029   6.009
10637SOL    HW232811   2.821   0.873   6.001
10638SOL     OW32812   4.997   5.005   0.385
10638SOL    HW132813   5.066   4.980   0.453
10638SOL    HW232814   4.980   4.926   0.325
10639SOL     OW32815   6.314   4.770   0.597
10639SOL    HW132816   6.269   4.818   0.672
10639SOL    HW232817   6.251   4.703   0.557
10640SOL     OW32818   4.151   6.628   4.288
10640SOL    HW132819   4.072   6.641   4.348
10640SOL    HW232820   4.227   6.589   4.340
10641SOL     OW32821   1.111   1.269   3.329
10641SOL    HW132822   1.035   1.288   3.267
10641SOL    HW232823   1.198   1.275   3.280
10642SOL     OW32824   0.054   2.237   6.132
10642SOL    HW132825   0.090   2.263   6.221
10642SOL    HW232826   0.074   2.140   6.114
10643SOL     OW32827   2.814   5.406   5.693
10643SOL    HW132828   2.789   5.351   5.613
10643SOL    HW232829   2.735   5.413   5.754
10644SOL     OW32830   0.021   3.495   2.825
10644SOL    HW132831   0.039   3.497   2.923
10644SOL    HW232832   0.039   3.404   2.789
10645SOL     OW32833   2.343   2.637   3.070
10645SOL    HW132834   2.271   2.605   3.009
10645SOL    HW232835   2.303   2.690   3.144
10646SOL     OW32836   4.869   0.702   3.484
10646SOL    HW132837   4.903   0.794   3.466
10646SOL    HW232838   4.881   0.681   3.581
10647SOL     OW32839   4.026   5.346   5.005
10647SOL    HW132840   3.976   5.381   4.926
10647SOL    HW232841   3.994   5.253   5.026
10648SOL     OW32842   4.646   4.069   5.545
10648SOL    HW132843   4.560   4.113   5.572
10648SOL    HW232844   4.636   3.970   5.549
10649SOL     OW32845   5.876   3.245   3.531
10649SOL    HW132846   5.907   3.155   3.500
10649SOL    HW232847   5.914   3.316   3.472
10650SOL     OW32848   0.346   6.833   2.664
10650SOL    HW132849   0.268   6.807   2.608
10650SOL    HW232850   0.425   6.777   2.640
10651SOL     OW32851   2.344   6.198   5.894
10651SOL    HW132852   2.247   6.204   5.874
10651SOL    HW232853   2.383   6.120   5.844
10652SOL     OW32854   2.351   0.706   7.020
10652SOL    HW132855   2.336   0.752   6.932
10652SOL    HW232856   2.331   0.609   7.010
10653SOL     OW32857   5.572   6.445   4.566
10653SOL    HW132858   5.481   6.482   4.585
10653SOL    HW232859   5.563   6.359   4.516
10654SOL     OW32860   6.663   1.662   3.962
10654SOL    HW132861   6.700   1.754   3.974
10654SOL    HW232862   6.600   1.662   3.883
10655SOL     OW32863   6.947   4.748   0.733
10655SOL    HW132864   6.892   4.803   0.796
10655SOL    HW232865   6.903   4.744   0.643
10656SOL     OW32866   5.804   1.527   5.492
10656SOL    HW132867   5.711   1.540   5.457
10656SOL    HW232868   5.869   1.531   5.415
10657SOL     OW32869   4.745   6.901   5.579
10657SOL    HW132870   4.796   6.962   5.639
10657SOL    HW232871   4.791   6.896   5.490
10658SOL     OW32872   0.650   1.797   5.637
10658SOL    HW132873   0.731   1.739   5.629
10658SOL    HW232874   0.669   1.871   5.702
10659SOL     OW32875   6.678   5.288   0.454
10659SOL    HW132876   6.698   5.352   0.528
10659SOL    HW232877   6.625   5.334   0.383
10660SOL     OW32878   5.788   2.943   6.655
10660SOL    HW132879   5.714   2.901   6.706
10660SOL    HW232880   5.760   2.954   6.559
10661SOL     OW32881   3.440   5.691   5.569
10661SOL    HW132882   3.384   5.642   5.637
10661SOL    HW232883   3.534   5.658   5.575
10662SOL     OW32884   3.357   1.477   1.325
10662SOL    HW132885   3.274   1.459   1.272
10662SOL    HW232886   3.368   1.405   1.394
10663SOL     OW32887   0.124   2.802   3.449
10663SOL    HW132888   0.162   2.890   3.421
10663SOL    HW232889   0.198   2.745   3.487
10664SOL     OW32890   1.256   6.232   4.539
10664SOL    HW132891   1.327   6.168   4.509
10664SOL    HW232892   1.201   6.190   4.611
10665SOL     OW32893   3.040   3.431   0.441
10665SOL    HW132894   3.019   3.389   0.530
10665SOL    HW232895   3.139   3.442   0.433
10666SOL     OW32896   4.073   3.877   1.044
10666SOL    HW132897   4.034   3.895   1.134
10666SOL    HW232898   4.041   3.788   1.011
10667SOL     OW32899   5.533   2.305   4.397
10667SOL    HW132900   5.584   2.271   4.476
10667SOL    HW232901   5.505   2.400   4.414
10668SOL     OW32902   3.453   3.017   6.197
10668SOL    HW132903   3.519   2.950   6.165
10668SOL    HW232904   3.464   3.030   6.296
10669SOL     OW32905   6.407   1.962   1.401
10669SOL    HW132906   6.379   1.869   1.426
10669SOL    HW232907   6.469   1.998   1.472
10670SOL     OW32908   4.729   4.256   3.789
10670SOL    HW132909   4.648   4.308   3.817
10670SOL    HW232910   4.774   4.220   3.871
10671SOL     OW32911   1.714   3.242   4.615
10671SOL    HW132912   1.808   3.213   4.603
10671SOL    HW232913   1.700   3.331   4.569
10672SOL     OW32914   6.373   4.141   1.871
10672SOL    HW132915   6.420   4.120   1.957
10672SOL    HW232916   6.333   4.057   1.834
10673SOL     OW32917   3.015   1.476   1.279
10673SOL    HW132918   2.979   1.445   1.191
10673SOL    HW232919   2.998   1.574   1.290
10674SOL     OW32920   3.807   3.565   4.344
10674SOL    HW132921   3.835   3.538   4.251
10674SOL    HW232922   3.806   3.485   4.403
10675SOL     OW32923   3.304   6.573   5.625
10675SOL    HW132924   3.290   6.538   5.718
10675SOL    HW232925   3.228   6.543   5.567
10676SOL     OW32926   1.622   0.476   5.349
10676SOL    HW132927   1.691   0.545   5.367
10676SOL    HW232928   1.665   0.397   5.305
10677SOL     OW32929   0.620   2.147   6.862
10677SOL    HW132930   0.574   2.120   6.947
10677SOL    HW232931   0.675   2.229   6.879
10678SOL     OW32932   4.118   5.337   2.701
10678SOL    HW132933   4.087   5.250   2.663
10678SOL    HW232934   4.142   5.325   2.797
10679SOL     OW32935   4.787   4.174   0.270
10679SOL    HW132936   4.802   4.079   0.296
10679SOL    HW232937   4.814   4.187   0.174
10680SOL     OW32938   4.220   1.065   6.095
10680SOL    HW132939   4.312   1.051   6.133
10680SOL    HW232940   4.210   1.013   6.011
10681SOL     OW32941   2.543   3.302   5.362
10681SOL    HW132942   2.635   3.340   5.352
10681SOL    HW232943   2.535   3.218   5.307
10682SOL     OW32944   4.882   3.631   6.768
10682SOL    HW132945   4.804   3.683   6.734
10682SOL    HW232946   4.870   3.534   6.743
10683SOL     OW32947   2.760   0.299   3.289
10683SOL    HW132948   2.810   0.381   3.261
10683SOL    HW232949   2.698   0.271   3.215
10684SOL     OW32950   4.579   4.573   1.600
10684SOL    HW132951   4.641   4.651   1.596
10684SOL    HW232952   4.485   4.605   1.599
10685SOL     OW32953   0.748   6.525   2.171
10685SOL    HW132954   0.704   6.467   2.103
10685SOL    HW232955   0.775   6.470   2.250
10686SOL     OW32956   2.673   0.990   6.897
10686SOL    HW132957   2.664   1.076   6.845
10686SOL    HW232958   2.658   0.913   6.835
10687SOL     OW32959   1.049   3.451   3.471
10687SOL    HW132960   1.111   3.379   3.437
10687SOL    HW232961   0.955   3.424   3.452
10688SOL     OW32962   5.224   1.094   3.205
10688SOL    HW132963   5.224   1.097   3.305
10688SOL    HW232964   5.181   1.009   3.174
10689SOL     OW32965   1.005   1.033   2.695
10689SOL    HW132966   1.010   0.937   2.668
10689SOL    HW232967   0.915   1.069   2.672
10690SOL     OW32968   0.865   6.505   4.244
10690SOL    HW132969   0.890   6.601   4.250
10690SOL    HW232970   0.895   6.468   4.156
10691SOL     OW32971   3.294   6.990   2.218
10691SOL    HW132972   3.233   0.030   2.267
10691SOL    HW232973   3.389   7.010   2.243
10692SOL     OW32974   2.740   1.660   4.217
10692SOL    HW132975   2.695   1.724   4.279
10692SOL    HW232976   2.687   1.575   4.213
10693SOL     OW32977   1.548   5.290   0.412
10693SOL    HW132978   1.608   5.224   0.366
10693SOL    HW232979   1.503   5.246   0.490
10694SOL     OW32980   4.971   0.297   5.757
10694SOL    HW132981   4.907   0.359   5.711
10694SOL    HW232982   5.024   0.247   5.689
10695SOL     OW32983   5.157   4.508   1.859
10695SOL    HW132984   5.190   4.418   1.830
10695SOL    HW232985   5.103   4.499   1.943
10696SOL     OW32986   5.970   4.636   4.096
10696SOL    HW132987   6.009   4.669   4.182
10696SOL    HW232988   6.031   4.568   4.056
10697SOL     OW32989   2.665   5.338   5.238
10697SOL    HW132990   2.580   5.299   5.273
10697SOL    HW232991   2.654   5.437   5.226
10698SOL     OW32992   3.302   3.456   0.378
10698SOL    HW132993   3.327   3.499   0.291
10698SOL    HW232994   3.377   3.469   0.443
10699SOL     OW32995   3.754   3.332   0.649
10699SOL    HW132996   3.846   3.297   0.633
10699SOL    HW232997   3.727   3.315   0.744
10700SOL     OW32998   4.772   0.623   1.252
10700SOL    HW132999   4.825   0.571   1.319
10700SOL    HW233000   4.681   0.584   1.243
10701SOL     OW33001   3.269   6.540   6.654
10701SOL    HW133002   3.218   6.503   6.577
10701SOL    HW233003   3.254   6.481   6.734
10702SOL     OW33004   5.427   1.964   1.866
10702SOL    HW133005   5.440   1.882   1.921
10702SOL    HW233006   5.516   1.996   1.832
10703SOL     OW33007   0.237   2.601   5.176
10703SOL    HW133008   0.329   2.636   5.154
10703SOL    HW233009   0.216   2.523   5.118
10704SOL     OW33010   5.507   6.647   2.249
10704SOL    HW133011   5.480   6.634   2.154
10704SOL    HW233012   5.504   6.745   2.271
10705SOL     OW33013   4.909   3.344   0.963
10705SOL    HW133014   4.880   3.286   0.886
10705SOL    HW233015   5.007   3.362   0.955
10706SOL     OW33016   3.467   0.610   1.379
10706SOL    HW133017   3.534   0.588   1.450
10706SOL    HW233018   3.451   0.709   1.377
10707SOL     OW33019   5.115   6.495   3.514
10707SOL    HW133020   5.179   6.458   3.582
10707SOL    HW233021   5.022   6.490   3.551
10708SOL     OW33022   4.383   0.829   1.975
10708SOL    HW133023   4.330   0.780   2.045
10708SOL    HW233024   4.354   0.797   1.884
10709SOL     OW33025   6.029   4.309   2.954
10709SOL    HW133026   6.069   4.226   2.914
10709SOL    HW233027   5.975   4.356   2.884
10710SOL     OW33028   4.913   1.842   4.248
10710SOL    HW133029   4.872   1.887   4.168
10710SOL    HW233030   4.913   1.905   4.325
10711SOL     OW33031   3.238   6.895   2.531
10711SOL    HW133032   3.241   6.974   2.470
10711SOL    HW233033   3.254   6.812   2.478
10712SOL     OW33034   5.210   0.096   3.510
10712SOL    HW133035   5.144   0.040   3.460
10712SOL    HW233036   5.273   0.037   3.560
10713SOL     OW33037   1.971   4.019   1.857
10713SOL    HW133038   1.919   3.953   1.912
10713SOL    HW233039   1.980   4.105   1.908
10714SOL     OW33040   2.915   3.656   4.794
10714SOL    HW133041   2.994   3.617   4.841
10714SOL    HW233042   2.838   3.661   4.857
10715SOL     OW33043   5.810   0.592   1.736
10715SOL    HW133044   5.716   0.559   1.738
10715SOL    HW233045   5.860   0.558   1.816
10716SOL     OW33046   5.231   0.789   3.363
10716SOL    HW133047   5.249   0.725   3.437
10716SOL    HW233048   5.298   0.864   3.366
10717SOL     OW33049   1.870   2.983   6.401
10717SOL    HW133050   1.964   3.006   6.373
10717SOL    HW233051   1.817   2.958   6.320
10718SOL     OW33052   1.808   5.388   5.504
10718SOL    HW133053   1.785   5.457   5.573
10718SOL    HW233054   1.893   5.343   5.529
10719SOL     OW33055   0.223   5.851   4.490
10719SOL    HW133056   0.200   5.906   4.571
10719SOL    HW233057   0.139   5.827   4.441
10720SOL     OW33058   0.376   4.825   3.283
10720SOL    HW133059   0.321   4.904   3.253
10720SOL    HW233060   0.326   4.777   3.355
10721SOL     OW33061   5.252   3.625   5.787
10721SOL    HW133062   5.321   3.564   5.748
10721SOL    HW233063   5.287   3.719   5.788
10722SOL     OW33064   6.804   3.875   5.828
10722SOL    HW133065   6.784   3.792   5.776
10722SOL    HW233066   6.793   3.857   5.926
10723SOL     OW33067   5.726   6.584   0.917
10723SOL    HW133068   5.629   6.606   0.906
10723SOL    HW233069   5.748   6.503   0.862
10724SOL     OW33070   6.678   6.336   6.741
10724SOL    HW133071   6.710   6.293   6.656
10724SOL    HW233072   6.692   6.434   6.737
10725SOL     OW33073   1.930   5.997   5.605
10725SOL    HW133074   1.941   6.071   5.540
10725SOL    HW233075   1.890   6.032   5.690
10726SOL     OW33076   5.159   1.226   4.129
10726SOL    HW133077   5.194   1.143   4.086
10726SOL    HW233078   5.060   1.231   4.114
10727SOL     OW33079   2.414   6.711   5.807
10727SOL    HW133080   2.340   6.759   5.760
10727SOL    HW233081   2.500   6.761   5.793
10728SOL     OW33082   4.791   5.958   0.806
10728SOL    HW133083   4.770   6.056   0.800
10728SOL    HW233084   4.853   5.941   0.882
10729SOL     OW33085   6.524   2.744   1.330
10729SOL    HW133086   6.469   2.784   1.257
10729SOL    HW233087   6.495   2.781   1.418
10730SOL     OW33088   4.895   0.011   2.687
10730SOL    HW133089   4.939   0.029   2.599
10730SOL    HW233090   4.959   0.031   2.761
10731SOL     OW33091   4.527   0.068   1.000
10731SOL    HW133092   4.469   7.014   0.972
10731SOL    HW233093   4.618   0.057   0.960
10732SOL     OW33094   0.624   3.950   6.275
10732SOL    HW133095   0.634   3.889   6.354
10732SOL    HW233096   0.688   3.922   6.204
10733SOL     OW33097   6.483   2.125   6.989
10733SOL    HW133098   6.525   2.198   0.022
10733SOL    HW233099   6.536   2.040   7.001
10734SOL     OW33100   6.755   2.910   2.110
10734SOL    HW133101   6.808   2.843   2.160
10734SOL    HW233102   6.810   2.993   2.096
10735SOL     OW33103   0.202   5.014   3.207
10735SOL    HW133104   0.154   4.940   3.159
10735SOL    HW233105   0.135   5.073   3.252
10736SOL     OW33106   2.521   0.721   3.961
10736SOL    HW133107   2.429   0.762   3.965
10736SOL    HW233108   2.516   0.630   3.921
10737SOL     OW33109   6.877   2.613   1.553
10737SOL    HW133110   6.974   2.640   1.551
10737SOL    HW233111   6.868   2.528   1.605
10738SOL     OW33112   4.447   0.219   3.559
10738SOL    HW133113   4.470   0.267   3.644
10738SOL    HW233114   4.376   0.151   3.577
10739SOL     OW33115   2.684   1.514   2.073
10739SOL    HW133116   2.613   1.571   2.114
10739SOL    HW233117   2.722   1.453   2.143
10740SOL     OW33118   4.655   5.014   3.259
10740SOL    HW133119   4.734   5.064   3.223
10740SOL    HW233120   4.589   4.998   3.186
10741SOL     OW33121   3.646   0.818   2.950
10741SOL    HW133122   3.639   0.843   3.047
10741SOL    HW233123   3.711   0.742   2.940
10742SOL     OW33124   6.665   5.492   0.649
10742SOL    HW133125   6.588   5.540   0.606
10742SOL    HW233126   6.649   5.487   0.748
10743SOL     OW33127   2.476   2.512   5.166
10743SOL    HW133128   2.450   2.461   5.248
10743SOL    HW233129   2.435   2.603   5.169
10744SOL     OW33130   4.781   1.667   0.614
10744SOL    HW133131   4.735   1.717   0.541
10744SOL    HW233132   4.714   1.641   0.684
10745SOL     OW33133   6.596   5.448   5.954
10745SOL    HW133134   6.522   5.436   6.020
10745SOL    HW233135   6.672   5.388   5.978
10746SOL     OW33136   0.842   4.178   6.094
10746SOL    HW133137   0.796   4.108   6.148
10746SOL    HW233138   0.823   4.164   5.997
10747SOL     OW33139   3.116   2.176   4.531
10747SOL    HW133140   3.211   2.172   4.561
10747SOL    HW233141   3.056   2.188   4.611
10748SOL     OW33142   4.904   1.375   2.350
10748SOL    HW133143   4.881   1.410   2.259
10748SOL    HW233144   4.827   1.391   2.412
10749SOL     OW33145   2.507   6.931   6.334
10749SOL    HW133146   2.503   6.936   6.235
10749SOL    HW233147   2.586   6.982   6.367
10750SOL     OW33148   4.048   0.102   6.585
10750SOL    HW133149   4.063   0.193   6.546
10750SOL    HW233150   3.994   0.047   6.521
10751SOL     OW33151   2.220   5.223   3.731
10751SOL    HW133152   2.130   5.261   3.708
10751SOL    HW233153   2.216   5.124   3.726
10752SOL     OW33154   4.814   4.920   3.879
10752SOL    HW133155   4.749   4.975   3.826
10752SOL    HW233156   4.767   4.841   3.918
10753SOL     OW33157   6.785   3.186   4.395
10753SOL    HW133158   6.847   3.122   4.348
10753SOL    HW233159   6.716   3.217   4.330
10754SOL     OW33160   1.909   0.576   2.351
10754SOL    HW133161   1.939   0.666   2.383
10754SOL    HW233162   1.946   0.559   2.260
10755SOL     OW33163   6.165   5.369   2.140
10755SOL    HW133164   6.262   5.393   2.132
10755SOL    HW233165   6.110   5.453   2.143
10756SOL     OW33166   0.482   6.950   4.929
10756SOL    HW133167   0.489   7.021   4.999
10756SOL    HW233168   0.407   6.888   4.951
10757SOL     OW33169   2.805   3.304   1.323
10757SOL    HW133170   2.760   3.379   1.371
10757SOL    HW233171   2.901   3.299   1.351
10758SOL     OW33172   0.654   5.321   4.142
10758SOL    HW133173   0.593   5.256   4.097
10758SOL    HW233174   0.749   5.296   4.123
10759SOL     OW33175   0.043   2.458   6.557
10759SOL    HW133176   6.997   2.388   6.581
10759SOL    HW233177   0.054   2.521   6.633
10760SOL     OW33178   5.818   1.176   4.434
10760SOL    HW133179   5.894   1.239   4.442
10760SOL    HW233180   5.737   1.225   4.402
10761SOL     OW33181   2.648   4.785   5.523
10761SOL    HW133182   2.698   4.714   5.473
10761SOL    HW233183   2.713   4.844   5.570
10762SOL     OW33184   3.330   1.087   4.594
10762SOL    HW133185   3.235   1.088   4.564
10762SOL    HW233186   3.339   1.028   4.674
10763SOL     OW33187   4.377   6.671   3.801
10763SOL    HW133188   4.300   6.715   3.754
10763SOL    HW233189   4.352   6.578   3.827
10764SOL     OW33190   5.360   0.225   5.119
10764SOL    HW133191   5.276   0.254   5.165
10764SOL    HW233192   5.409   0.160   5.176
10765SOL     OW33193   5.387   3.857   0.705
10765SOL    HW133194   5.473   3.896   0.737
10765SOL    HW233195   5.355   3.906   0.624
10766SOL     OW33196   4.367   3.307   1.305
10766SOL    HW133197   4.444   3.348   1.256
10766SOL    HW233198   4.302   3.378   1.331
10767SOL     OW33199   4.385   1.471   2.451
10767SOL    HW133200   4.351   1.565   2.450
10767SOL    HW233201   4.410   1.445   2.544
10768SOL     OW33202   6.133   4.618   0.466
10768SOL    HW133203   6.103   4.544   0.524
10768SOL    HW233204   6.068   4.630   0.390
10769SOL     OW33205   1.914   4.213   5.448
10769SOL    HW133206   1.918   4.202   5.349
10769SOL    HW233207   1.995   4.263   5.479
10770SOL     OW33208   4.108   6.190   3.836
10770SOL    HW133209   4.183   6.197   3.771
10770SOL    HW233210   4.076   6.095   3.840
10771SOL     OW33211   2.546   1.614   3.578
10771SOL    HW133212   2.492   1.578   3.502
10771SOL    HW233213   2.643   1.604   3.558
10772SOL     OW33214   5.498   5.307   3.796
10772SOL    HW133215   5.556   5.258   3.861
10772SOL    HW233216   5.432   5.244   3.755
10773SOL     OW33217   5.753   4.679   3.659
10773SOL    HW133218   5.824   4.611   3.676
10773SOL    HW233219   5.791   4.771   3.668
10774SOL     OW33220   0.728   0.730   3.463
10774SOL    HW133221   0.660   0.791   3.423
10774SOL    HW233222   0.729   0.742   3.563
10775SOL     OW33223   0.503   3.521   1.843
10775SOL    HW133224   0.420   3.480   1.882
10775SOL    HW233225   0.503   3.508   1.744
10776SOL     OW33226   1.633   0.144   6.528
10776SOL    HW133227   1.539   0.164   6.500
10776SOL    HW233228   1.667   0.219   6.586
10777SOL     OW33229   2.569   5.668   1.016
10777SOL    HW133230   2.511   5.631   0.944
10777SOL    HW233231   2.544   5.626   1.104
10778SOL     OW33232   5.837   5.685   2.653
10778SOL    HW133233   5.746   5.672   2.614
10778SOL    HW233234   5.882   5.596   2.661
10779SOL     OW33235   5.391   2.355   3.542
10779SOL    HW133236   5.420   2.417   3.615
10779SOL    HW233237   5.386   2.405   3.456
10780SOL     OW33238   6.728   0.215   2.435
10780SOL    HW133239   6.706   0.281   2.508
10780SOL    HW233240   6.730   0.123   2.474
10781SOL     OW33241   3.526   0.209   4.228
10781SOL    HW133242   3.527   0.309   4.221
10781SOL    HW233243   3.578   0.170   4.152
10782SOL     OW33244   6.150   5.430   4.184
10782SOL    HW133245   6.076   5.460   4.123
10782SOL    HW233246   6.112   5.369   4.254
10783SOL     OW33247   0.098   1.752   3.357
10783SOL    HW133248   7.020   1.754   3.354
10783SOL    HW233249   0.132   1.839   3.391
10784SOL     OW33250   2.898   1.786   4.609
10784SOL    HW133251   2.833   1.716   4.579
10784SOL    HW233252   2.983   1.777   4.557
10785SOL     OW33253   1.088   3.920   6.221
10785SOL    HW133254   1.141   4.005   6.219
10785SOL    HW233255   1.127   3.854   6.157
10786SOL     OW33256   0.737   5.343   3.300
10786SOL    HW133257   0.679   5.290   3.361
10786SOL    HW233258   0.717   5.319   3.205
10787SOL     OW33259   1.670   1.952   6.721
10787SOL    HW133260   1.751   1.984   6.771
10787SOL    HW233261   1.652   2.014   6.645
10788SOL     OW33262   5.792   3.999   6.134
10788SOL    HW133263   5.844   3.949   6.203
10788SOL    HW233264   5.849   4.071   6.095
10789SOL     OW33265   6.023   2.007   0.600
10789SOL    HW133266   5.990   1.919   0.566
10789SOL    HW233267   5.968   2.036   0.678
10790SOL     OW33268   0.041   5.939   2.773
10790SOL    HW133269   0.021   5.965   2.867
10790SOL    HW233270   6.997   5.871   2.742
10791SOL     OW33271   0.543   6.876   3.030
10791SOL    HW133272   0.499   6.952   2.982
10791SOL    HW233273   0.632   6.857   2.990
10792SOL     OW33274   3.888   4.130   5.057
10792SOL    HW133275   3.918   4.069   4.984
10792SOL    HW233276   3.789   4.145   5.050
10793SOL     OW33277   5.775   3.375   4.622
10793SOL    HW133278   5.801   3.451   4.682
10793SOL    HW233279   5.824   3.383   4.535
10794SOL     OW33280   3.168   3.995   3.532
10794SOL    HW133281   3.222   4.047   3.599
10794SOL    HW233282   3.100   3.939   3.580
10795SOL     OW33283   0.298   4.369   3.356
10795SOL    HW133284   0.254   4.314   3.285
10795SOL    HW233285   0.363   4.312   3.407
10796SOL     OW33286   1.287   6.299   5.264
10796SOL    HW133287   1.370   6.273   5.314
10796SOL    HW233288   1.312   6.356   5.186
10797SOL     OW33289   3.736   2.458   0.230
10797SOL    HW133290   3.678   2.376   0.226
10797SOL    HW233291   3.779   2.472   0.141
10798SOL     OW33292   6.685   1.655   1.155
10798SOL    HW133293   6.687   1.565   1.200
10798SOL    HW233294   6.590   1.683   1.143
10799SOL     OW33295   4.004   1.991   1.585
10799SOL    HW133296   3.973   2.080   1.552
10799SOL    HW233297   3.926   1.938   1.618
10800SOL     OW33298   1.342   0.185   1.533
10800SOL    HW133299   1.379   0.099   1.568
10800SOL    HW233300   1.379   0.202   1.442
10801SOL     OW33301   1.804   0.570   1.248
10801SOL    HW133302   1.728   0.634   1.261
10801SOL    HW233303   1.875   0.613   1.193
10802SOL     OW33304   6.301   0.899   3.517
10802SOL    HW133305   6.367   0.824   3.510
10802SOL    HW233306   6.244   0.900   3.435
10803SOL     OW33307   1.743   5.955   6.258
10803SOL    HW133308   1.820   5.890   6.265
10803SOL    HW233309   1.771   6.033   6.203
10804SOL     OW33310   6.981   2.996   4.306
10804SOL    HW133311   6.976   2.950   4.395
10804SOL    HW233312   0.046   3.046   4.299
10805SOL     OW33313   6.387   1.240   6.341
10805SOL    HW133314   6.381   1.165   6.406
10805SOL    HW233315   6.299   1.288   6.337
10806SOL     OW33316   1.895   5.143   6.974
10806SOL    HW133317   1.952   5.137   6.891
10806SOL    HW233318   1.897   5.056   0.000
10807SOL     OW33319   2.720   6.226   5.119
10807SOL    HW133320   2.803   6.171   5.115
10807SOL    HW233321   2.679   6.231   5.028
10808SOL     OW33322   0.816   3.354   6.202
10808SOL    HW133323   0.773   3.349   6.112
10808SOL    HW233324   0.832   3.262   6.237
10809SOL     OW33325   1.877   0.175   4.512
10809SOL    HW133326   1.853   0.215   4.424
10809SOL    HW233327   1.862   0.076   4.509
10810SOL     OW33328   6.868   0.165   4.070
10810SOL    HW133329   6.866   0.119   3.981
10810SOL    HW233330   6.841   0.261   4.058
10811SOL     OW33331   5.239   5.008   4.580
10811SOL    HW133332   5.151   5.040   4.544
10811SOL    HW233333   5.314   5.051   4.529
10812SOL     OW33334   5.981   2.864   0.410
10812SOL    HW133335   6.030   2.782   0.439
10812SOL    HW233336   5.994   2.878   0.312
10813SOL     OW33337   0.330   3.751   6.291
10813SOL    HW133338   0.275   3.828   6.259
10813SOL    HW233339   0.326   3.747   6.391
10814SOL     OW33340   3.301   1.197   1.332
10814SOL    HW133341   3.389   1.170   1.294
10814SOL    HW233342   3.301   1.183   1.431
10815SOL     OW33343   5.436   1.012   4.629
10815SOL    HW133344   5.381   0.936   4.662
10815SOL    HW233345   5.500   0.979   4.559
10816SOL     OW33346   3.977   3.207   4.590
10816SOL    HW133347   4.005   3.299   4.561
10816SOL    HW233348   3.967   3.149   4.509
10817SOL     OW33349   1.661   6.406   3.664
10817SOL    HW133350   1.682   6.382   3.759
10817SOL    HW233351   1.729   6.471   3.630
10818SOL     OW33352   3.958   4.431   6.942
10818SOL    HW133353   3.874   4.483   6.948
10818SOL    HW233354   3.937   4.337   6.915
10819SOL     OW33355   6.295   6.479   5.417
10819SOL    HW133356   6.287   6.496   5.319
10819SOL    HW233357   6.325   6.385   5.433
10820SOL     OW33358   2.466   4.345   6.039
10820SOL    HW133359   2.460   4.333   6.138
10820SOL    HW233360   2.448   4.440   6.015
10821SOL     OW33361   4.786   5.537   3.037
10821SOL    HW133362   4.832   5.580   2.959
10821SOL    HW233363   4.755   5.607   3.100
10822SOL     OW33364   5.552   0.950   2.173
10822SOL    HW133365   5.621   0.882   2.146
10822SOL    HW233366   5.599   1.032   2.207
10823SOL     OW33367   5.430   6.786   1.121
10823SOL    HW133368   5.433   6.741   1.032
10823SOL    HW233369   5.472   6.876   1.114
10824SOL     OW33370   0.898   2.843   3.690
10824SOL    HW133371   0.965   2.770   3.702
10824SOL    HW233372   0.918   2.894   3.606
10825SOL     OW33373   0.636   2.332   0.505
10825SOL    HW133374   0.599   2.425   0.510
10825SOL    HW233375   0.628   2.289   0.595
10826SOL     OW33376   0.297   3.527   2.776
10826SOL    HW133377   0.339   3.590   2.841
10826SOL    HW233378   0.199   3.545   2.771
10827SOL     OW33379   6.471   4.343   4.469
10827SOL    HW133380   6.563   4.305   4.466
10827SOL    HW233381   6.405   4.270   4.491
10828SOL     OW33382   6.462   4.335   5.486
10828SOL    HW133383   6.505   4.326   5.576
10828SOL    HW233384   6.475   4.251   5.434
10829SOL     OW33385   3.535   3.086   4.692
10829SOL    HW133386   3.622   3.043   4.715
10829SOL    HW233387   3.464   3.017   4.686
10830SOL     OW33388   4.105   2.263   3.277
10830SOL    HW133389   4.161   2.339   3.245
10830SOL    HW233390   4.121   2.248   3.374
10831SOL     OW33391   4.290   0.125   3.844
10831SOL    HW133392   4.204   0.112   3.795
10831SOL    HW233393   4.363   0.077   3.797
10832SOL     OW33394   6.528   2.663   0.124
10832SOL    HW133395   6.561   2.610   0.202
10832SOL    HW233396   6.465   2.733   0.156
10833SOL     OW33397   0.639   1.498   6.911
10833SOL    HW133398   0.580   1.569   6.950
10833SOL    HW233399   0.671   1.528   6.821
10834SOL     OW33400   6.098   6.347   1.579
10834SOL    HW133401   6.184   6.390   1.552
10834SOL    HW233402   6.024   6.384   1.524
10835SOL     OW33403   0.279   2.265   5.308
10835SOL    HW133404   0.301   2.268   5.210
10835SOL    HW233405   0.328   2.338   5.355
10836SOL     OW33406   0.043   0.962   3.355
10836SOL    HW133407   0.065   1.058   3.337
10836SOL    HW233408   0.126   0.914   3.384
10837SOL     OW33409   0.608   3.359   2.779
10837SOL    HW133410   0.672   3.288   2.752
10837SOL    HW233411   0.567   3.337   2.867
10838SOL     OW33412   0.514   6.114   1.936
10838SOL    HW133413   0.430   6.166   1.918
10838SOL    HW233414   0.548   6.076   1.850
10839SOL     OW33415   4.772   2.753   0.535
10839SOL    HW133416   4.722   2.714   0.457
10839SOL    HW233417   4.801   2.678   0.596
10840SOL     OW33418   2.776   0.280   1.533
10840SOL    HW133419   2.862   0.230   1.522
10840SOL    HW233420   2.737   0.298   1.443
10841SOL     OW33421   2.154   5.288   4.633
10841SOL    HW133422   2.183   5.198   4.664
10841SOL    HW233423   2.063   5.309   4.669
10842SOL     OW33424   5.410   4.396   2.074
10842SOL    HW133425   5.438   4.460   2.145
10842SOL    HW233426   5.484   4.384   2.008
10843SOL     OW33427   2.972   2.211   1.283
10843SOL    HW133428   2.937   2.118   1.299
10843SOL    HW233429   3.025   2.212   1.198
10844SOL     OW33430   1.269   5.338   5.221
10844SOL    HW133431   1.204   5.406   5.255
10844SOL    HW233432   1.255   5.252   5.270
10845SOL     OW33433   3.588   0.418   4.536
10845SOL    HW133434   3.629   0.444   4.448
10845SOL    HW233435   3.574   0.500   4.591
10846SOL     OW33436   5.481   0.232   6.380
10846SOL    HW133437   5.501   0.154   6.320
10846SOL    HW233438   5.388   0.265   6.361
10847SOL     OW33439   3.257   0.696   6.261
10847SOL    HW133440   3.312   0.776   6.237
10847SOL    HW233441   3.193   0.674   6.187
10848SOL     OW33442   1.722   5.072   1.972
10848SOL    HW133443   1.791   5.135   1.936
10848SOL    HW233444   1.659   5.123   2.030
10849SOL     OW33445   2.185   6.573   3.293
10849SOL    HW133446   2.278   6.545   3.267
10849SOL    HW233447   2.157   6.651   3.238
10850SOL     OW33448   4.030   4.461   1.064
10850SOL    HW133449   3.982   4.548   1.060
10850SOL    HW233450   4.080   4.447   0.978
10851SOL     OW33451   1.641   4.715   0.209
10851SOL    HW133452   1.685   4.651   0.146
10851SOL    HW233453   1.590   4.664   0.278
10852SOL     OW33454   2.456   1.869   2.636
10852SOL    HW133455   2.402   1.952   2.653
10852SOL    HW233456   2.542   1.874   2.687
10853SOL     OW33457   2.978   1.399   6.285
10853SOL    HW133458   3.048   1.434   6.223
10853SOL    HW233459   2.888   1.406   6.241
10854SOL     OW33460   3.134   6.514   5.170
10854SOL    HW133461   3.108   6.604   5.133
10854SOL    HW233462   3.075   6.492   5.248
10855SOL     OW33463   3.819   1.376   6.913
10855SOL    HW133464   3.849   1.304   6.850
10855SOL    HW233465   3.821   1.464   6.866
10856SOL     OW33466   0.651   1.178   0.841
10856SOL    HW133467   0.597   1.158   0.760
10856SOL    HW233468   0.643   1.276   0.863
10857SOL     OW33469   6.390   2.950   2.478
10857SOL    HW133470   6.340   3.001   2.548
10857SOL    HW233471   6.376   2.994   2.389
10858SOL     OW33472   3.066   6.278   2.215
10858SOL    HW133473   3.012   6.195   2.200
10858SOL    HW233474   3.147   6.276   2.156
10859SOL     OW33475   1.388   5.581   3.648
10859SOL    HW133476   1.488   5.583   3.656
10859SOL    HW233477   1.362   5.554   3.556
10860SOL     OW33478   0.073   3.735   3.478
10860SOL    HW133479   0.128   3.702   3.401
10860SOL    HW233480   7.003   3.697   3.471
10861SOL     OW33481   3.475   2.843   4.981
10861SOL    HW133482   3.411   2.824   5.055
10861SOL    HW233483   3.425   2.851   4.895
10862SOL     OW33484   0.881   0.370   5.074
10862SOL    HW133485   0.869   0.281   5.118
10862SOL    HW233486   0.817   0.379   4.998
10863SOL     OW33487   2.275   6.230   4.322
10863SOL    HW133488   2.215   6.172   4.378
10863SOL    HW233489   2.340   6.172   4.274
10864SOL     OW33490   3.729   6.077   3.460
10864SOL    HW133491   3.780   6.099   3.376
10864SOL    HW233492   3.643   6.033   3.435
10865SOL     OW33493   6.378   1.628   5.784
10865SOL    HW133494   6.406   1.664   5.695
10865SOL    HW233495   6.418   1.684   5.857
10866SOL     OW33496   5.206   4.938   0.546
10866SOL    HW133497   5.161   4.941   0.636
10866SOL    HW233498   5.297   4.900   0.556
10867SOL     OW33499   3.010   1.701   0.039
10867SOL    HW133500   3.005   1.623   0.100
10867SOL    HW233501   2.956   1.682   6.978
10868SOL     OW33502   3.053   2.131   3.102
10868SOL    HW133503   3.107   2.149   3.020
10868SOL    HW233504   3.104   2.070   3.163
10869NA      NA33505   6.467   2.539   5.816
10870NA      NA33506   4.488   4.483   5.234
10871NA      NA33507   2.250   3.606   1.679
10872NA      NA33508   4.856   3.760   5.174
10873NA      NA33509   4.274   2.369   5.323
10874NA      NA33510   3.717   4.746   1.730
10875NA      NA33511   6.460   6.111   4.625
10876NA      NA33512   3.687   3.626   4.909
10877NA      NA33513   4.599   0.025   6.732
10878NA      NA33514   3.040   0.231   4.939
10879NA      NA33515   0.521   5.171   2.372
10880NA      NA33516   2.995   0.546   2.715
10881NA      NA33517   3.638   4.046   1.425
10882NA      NA33518   3.742   3.316   3.015
   7.02178   7.02178   7.02178
